<?xml version="1.0" encoding="ISO-8859-1"?>
<modeling>
 <generator>
  <i name="program" type="string">vasp </i>
  <i name="version" type="string">5.4.4.18Apr17-6-g9f103f2a35  </i>
  <i name="subversion" type="string">(build Jun 30 2017 11:15:00) complex            parallel </i>
  <i name="platform" type="string">STALLO_VASP_5.4.4 </i>
  <i name="date" type="string">2019 11 08 </i>
  <i name="time" type="string">10:19:18 </i>
 </generator>
 <incar>
  <i type="string" name="PREC">normal    ! low/normal/accurate</i>
  <i type="string" name="ALGO"> Fast      ! Algorithm for electronic re</i>
  <i type="int" name="ISPIN">     1</i>
  <i type="int" name="NELMIN">     4</i>
  <i name="EDIFF">      0.00001000</i>
  <i type="int" name="NSW">     0</i>
  <i name="ENCUT">    500.00000000</i>
  <i type="logical" name="LREAL"> F  </i>
  <i type="int" name="ISMEAR">    -5</i>
  <i name="SIGMA">      0.20000000</i>
  <i type="logical" name="LWAVE"> F  </i>
  <v type="int" name="KPOINT_BSE">    -1     0     0     0</v>
 </incar>
 <structure name="primitive_cell" >
  <crystal>
   <varray name="basis" >
    <v>       3.94684634       0.00000000       0.00000000 </v>
    <v>       0.00000000       3.94684634       0.00000000 </v>
    <v>       0.00000000       0.00000000      19.81396220 </v>
   </varray>
   <i name="volume">    308.65389912 </i>
   <varray name="rec_basis" >
    <v>       0.25336684       0.00000000       0.00000000 </v>
    <v>       0.00000000       0.25336684       0.00000000 </v>
    <v>       0.00000000       0.00000000       0.05046946 </v>
   </varray>
  </crystal>
  <varray name="positions" >
   <v>      -0.50000000      -0.50000000       0.15140838 </v>
   <v>      -0.50000000      -0.50000000       0.25100599 </v>
   <v>       0.00000000       0.00000000       0.15140838 </v>
   <v>      -0.50000000       0.00000000       0.25100599 </v>
   <v>       0.00000000      -0.50000000       0.25100599 </v>
   <v>      -0.50000000      -0.50000000       0.35060359 </v>
   <v>       0.00000000       0.00000000       0.35060359 </v>
   <v>      -0.50000000      -0.50000000       0.45020120 </v>
   <v>      -0.50000000      -0.50000000      -0.15140838 </v>
   <v>      -0.50000000       0.00000000       0.45020120 </v>
   <v>       0.00000000      -0.50000000       0.45020120 </v>
   <v>      -0.50000000       0.00000000      -0.15140838 </v>
   <v>       0.00000000      -0.50000000      -0.15140838 </v>
   <v>      -0.50000000      -0.50000000      -0.45020120 </v>
   <v>      -0.50000000      -0.50000000      -0.25100599 </v>
   <v>       0.00000000       0.00000000      -0.45020120 </v>
   <v>       0.00000000       0.00000000      -0.25100599 </v>
   <v>      -0.50000000      -0.50000000      -0.35060359 </v>
   <v>      -0.50000000       0.00000000      -0.35060359 </v>
   <v>       0.00000000      -0.50000000      -0.35060359 </v>
  </varray>
 </structure>
 <varray name="primitive_index" >
  <v type="int" >        1 </v>
  <v type="int" >       17 </v>
  <v type="int" >       13 </v>
  <v type="int" >        2 </v>
  <v type="int" >        3 </v>
  <v type="int" >        4 </v>
  <v type="int" >       14 </v>
  <v type="int" >       18 </v>
  <v type="int" >       20 </v>
  <v type="int" >        5 </v>
  <v type="int" >        6 </v>
  <v type="int" >       11 </v>
  <v type="int" >       12 </v>
  <v type="int" >        7 </v>
  <v type="int" >       10 </v>
  <v type="int" >       15 </v>
  <v type="int" >       16 </v>
  <v type="int" >       19 </v>
  <v type="int" >        8 </v>
  <v type="int" >        9 </v>
 </varray>
 <kpoints>
  <generation param="Gamma">
   <v type="int" name="divisions">       7        7        1 </v>
   <v name="usershift">      0.00000000       0.00000000       0.00000000 </v>
   <v name="genvec1">      0.14285714       0.00000000       0.00000000 </v>
   <v name="genvec2">      0.00000000       0.14285714       0.00000000 </v>
   <v name="genvec3">      0.00000000       0.00000000       1.00000000 </v>
   <v name="shift">      0.00000000       0.00000000       0.00000000 </v>
  </generation>
  <varray name="kpointlist" >
   <v>       0.00000000       0.00000000       0.00000000 </v>
   <v>       0.14285714       0.00000000       0.00000000 </v>
   <v>       0.28571429       0.00000000       0.00000000 </v>
   <v>       0.42857143       0.00000000       0.00000000 </v>
   <v>       0.14285714       0.14285714       0.00000000 </v>
   <v>       0.28571429       0.14285714       0.00000000 </v>
   <v>       0.42857143       0.14285714       0.00000000 </v>
   <v>       0.28571429       0.28571429       0.00000000 </v>
   <v>       0.42857143       0.28571429       0.00000000 </v>
   <v>       0.42857143       0.42857143       0.00000000 </v>
  </varray>
  <varray name="weights" >
   <v>       0.02040816 </v>
   <v>       0.08163265 </v>
   <v>       0.08163265 </v>
   <v>       0.08163265 </v>
   <v>       0.08163265 </v>
   <v>       0.16326531 </v>
   <v>       0.16326531 </v>
   <v>       0.08163265 </v>
   <v>       0.16326531 </v>
   <v>       0.08163265 </v>
  </varray>
  <varray name="tetrahedronlist"  type="int" >
   <v type="int" >        4        1        1        2        5 </v>
   <v type="int" >        4        1        2        2        5 </v>
   <v type="int" >        4        1        2        5        5 </v>
   <v type="int" >        4        2        2        3        6 </v>
   <v type="int" >        4        2        2        5        6 </v>
   <v type="int" >        4        2        5        5        6 </v>
   <v type="int" >        4        2        3        3        6 </v>
   <v type="int" >        4        2        3        6        6 </v>
   <v type="int" >        4        2        5        6        6 </v>
   <v type="int" >        4        3        3        4        7 </v>
   <v type="int" >        4        3        3        6        7 </v>
   <v type="int" >        4        3        6        6        7 </v>
   <v type="int" >        4        3        4        4        7 </v>
   <v type="int" >        4        3        4        7        7 </v>
   <v type="int" >        4        3        6        7        7 </v>
   <v type="int" >        8        4        4        4        7 </v>
   <v type="int" >        8        4        4        7        7 </v>
   <v type="int" >        8        4        7        7        7 </v>
   <v type="int" >        4        3        4        4        6 </v>
   <v type="int" >        4        4        4        6        7 </v>
   <v type="int" >        4        4        6        7        7 </v>
   <v type="int" >        4        3        3        4        6 </v>
   <v type="int" >        4        3        4        6        6 </v>
   <v type="int" >        4        4        6        6        7 </v>
   <v type="int" >        4        2        3        3        5 </v>
   <v type="int" >        4        3        3        5        6 </v>
   <v type="int" >        4        3        5        6        6 </v>
   <v type="int" >        4        2        2        3        5 </v>
   <v type="int" >        4        2        3        5        5 </v>
   <v type="int" >        4        3        5        5        6 </v>
   <v type="int" >        4        1        2        2        2 </v>
   <v type="int" >        4        2        2        2        5 </v>
   <v type="int" >        2        2        2        5        5 </v>
   <v type="int" >        2        1        1        2        2 </v>
   <v type="int" >        4        5        5        6        8 </v>
   <v type="int" >        4        5        6        6        8 </v>
   <v type="int" >        4        5        6        8        8 </v>
   <v type="int" >        4        6        6        7        9 </v>
   <v type="int" >        4        6        6        8        9 </v>
   <v type="int" >        4        6        8        8        9 </v>
   <v type="int" >        4        6        7        7        9 </v>
   <v type="int" >        4        6        7        9        9 </v>
   <v type="int" >        4        6        8        9        9 </v>
   <v type="int" >        8        7        7        7        9 </v>
   <v type="int" >        8        7        7        9        9 </v>
   <v type="int" >        8        7        9        9        9 </v>
   <v type="int" >        4        6        7        7        8 </v>
   <v type="int" >        4        7        7        8        9 </v>
   <v type="int" >        4        7        8        9        9 </v>
   <v type="int" >        4        6        6        7        8 </v>
   <v type="int" >        4        6        7        8        8 </v>
   <v type="int" >        4        7        8        8        9 </v>
   <v type="int" >        4        5        6        6        6 </v>
   <v type="int" >        4        6        6        6        8 </v>
   <v type="int" >        2        6        6        8        8 </v>
   <v type="int" >        2        5        5        6        6 </v>
   <v type="int" >        4        8        8        9       10 </v>
   <v type="int" >        4        8        9        9       10 </v>
   <v type="int" >        4        8        9       10       10 </v>
   <v type="int" >       12        9        9        9       10 </v>
   <v type="int" >       10        9        9       10       10 </v>
   <v type="int" >        8        9       10       10       10 </v>
   <v type="int" >        4        8        9        9        9 </v>
   <v type="int" >        2        8        8        9        9 </v>
   <v type="int" >        6       10       10       10       10 </v>
  </varray>
  <i name="volumeweight">      0.00340136 </i>
 </kpoints>
 <parameters>
  <separator name="general" >
   <i type="string" name="SYSTEM">unknown system</i>
   <i type="logical" name="LCOMPAT"> F  </i>
  </separator>
  <separator name="electronic" >
   <i type="string" name="PREC">normal</i>
   <i name="ENMAX">    500.00000000</i>
   <i name="ENAUG">    605.39200000</i>
   <i name="EDIFF">      0.00001000</i>
   <i type="int" name="IALGO">    68</i>
   <i type="int" name="IWAVPR">    10</i>
   <i type="int" name="NBANDS">    76</i>
   <i name="NELECT">    128.00000000</i>
   <i type="int" name="TURBO">     0</i>
   <i type="int" name="IRESTART">     0</i>
   <i type="int" name="NREBOOT">     0</i>
   <i type="int" name="NMIN">     0</i>
   <i name="EREF">      0.00000000</i>
   <separator name="electronic smearing" >
    <i type="int" name="ISMEAR">    -5</i>
    <i name="SIGMA">      0.20000000</i>
    <i name="KSPACING">      0.50000000</i>
    <i type="logical" name="KGAMMA"> T  </i>
   </separator>
   <separator name="electronic projectors" >
    <i type="logical" name="LREAL"> F  </i>
    <v name="ROPT">      0.00000000      0.00000000      0.00000000</v>
    <i type="int" name="LMAXPAW">  -100</i>
    <i type="int" name="LMAXMIX">     2</i>
    <i type="logical" name="NLSPLINE"> F  </i>
   </separator>
   <separator name="electronic startup" >
    <i type="int" name="ISTART">     0</i>
    <i type="int" name="ICHARG">     2</i>
    <i type="int" name="INIWAV">     1</i>
   </separator>
   <separator name="electronic spin" >
    <i type="int" name="ISPIN">     1</i>
    <i type="logical" name="LNONCOLLINEAR"> F  </i>
    <v name="MAGMOM">      1.00000000      1.00000000      1.00000000      1.00000000      1.00000000      1.00000000      1.00000000      1.00000000      1.00000000      1.00000000      1.00000000      1.00000000      1.00000000      1.00000000      1.00000000      1.00000000      1.00000000      1.00000000      1.00000000      1.00000000
</v>
    <i name="NUPDOWN">     -1.00000000</i>
    <i type="logical" name="LSORBIT"> F  </i>
    <v name="SAXIS">      0.00000000      0.00000000      1.00000000</v>
    <i type="logical" name="LSPIRAL"> F  </i>
    <v name="QSPIRAL">      0.00000000      0.00000000      0.00000000</v>
    <i type="logical" name="LZEROZ"> F  </i>
   </separator>
   <separator name="electronic exchange-correlation" >
    <i type="logical" name="LASPH"> F  </i>
    <i type="logical" name="LMETAGGA"> F  </i>
   </separator>
   <separator name="electronic convergence" >
    <i type="int" name="NELM">    60</i>
    <i type="int" name="NELMDL">    -5</i>
    <i type="int" name="NELMIN">     4</i>
    <i name="ENINI">    500.00000000</i>
    <separator name="electronic convergence detail" >
     <i type="logical" name="LDIAG"> T  </i>
     <i type="logical" name="LSUBROT"> F  </i>
     <i name="WEIMIN">      0.00000000</i>
     <i name="EBREAK">      0.00000003</i>
     <i name="DEPER">      0.30000000</i>
     <i type="int" name="NRMM">     4</i>
     <i name="TIME">      0.40000000</i>
    </separator>
   </separator>
   <separator name="electronic mixer" >
    <i name="AMIX">      0.40000000</i>
    <i name="BMIX">      1.00000000</i>
    <i name="AMIN">      0.10000000</i>
    <i name="AMIX_MAG">      1.60000000</i>
    <i name="BMIX_MAG">      1.00000000</i>
    <separator name="electronic mixer details" >
     <i type="int" name="IMIX">     4</i>
     <i type="logical" name="MIXFIRST"> F  </i>
     <i type="int" name="MAXMIX">   -45</i>
     <i name="WC">    100.00000000</i>
     <i type="int" name="INIMIX">     1</i>
     <i type="int" name="MIXPRE">     1</i>
     <i type="int" name="MREMOVE">     5</i>
    </separator>
   </separator>
   <separator name="electronic dipolcorrection" >
    <i type="logical" name="LDIPOL"> F  </i>
    <i type="logical" name="LMONO"> F  </i>
    <i type="int" name="IDIPOL">     0</i>
    <i name="EPSILON">      1.00000000</i>
    <v name="DIPOL">   -100.00000000   -100.00000000   -100.00000000</v>
    <i name="EFIELD">      0.00000000</i>
   </separator>
  </separator>
  <separator name="grids" >
   <i type="int" name="NGX">    24</i>
   <i type="int" name="NGY">    24</i>
   <i type="int" name="NGZ">   108</i>
   <i type="int" name="NGXF">    48</i>
   <i type="int" name="NGYF">    48</i>
   <i type="int" name="NGZF">   216</i>
   <i type="logical" name="ADDGRID"> F  </i>
  </separator>
  <separator name="ionic" >
   <i type="int" name="NSW">     0</i>
   <i type="int" name="IBRION">    -1</i>
   <i type="int" name="MDALGO">     0</i>
   <i type="int" name="ISIF">     2</i>
   <i name="PSTRESS">      0.00000000</i>
   <i name="EDIFFG">      0.00010000</i>
   <i type="int" name="NFREE">     0</i>
   <i name="POTIM">      0.50000000</i>
   <i name="SMASS">     -3.00000000</i>
   <i name="SCALEE">      1.00000000</i>
  </separator>
  <separator name="ionic md" >
   <i name="TEBEG">      0.00010000</i>
   <i name="TEEND">      0.00010000</i>
   <i type="int" name="NBLOCK">     1</i>
   <i type="int" name="KBLOCK">     1</i>
   <i type="int" name="NPACO">   256</i>
   <i name="APACO">     16.00000000</i>
  </separator>
  <separator name="symmetry" >
   <i type="int" name="ISYM">     2</i>
   <i name="SYMPREC">      0.00001000</i>
  </separator>
  <separator name="dos" >
   <i type="int" name="LORBIT">     0</i>
   <v name="RWIGS">     -1.00000000     -1.00000000     -1.00000000</v>
   <i type="int" name="NEDOS">   301</i>
   <i name="EMIN">     10.00000000</i>
   <i name="EMAX">    -10.00000000</i>
   <i name="EFERMI">      0.00000000</i>
  </separator>
  <separator name="writing" >
   <i type="int" name="NWRITE">     2</i>
   <i type="logical" name="LWAVE"> F  </i>
   <i type="logical" name="LDOWNSAMPLE"> F  </i>
   <i type="logical" name="LCHARG"> T  </i>
   <i type="logical" name="LPARD"> F  </i>
   <i type="logical" name="LVTOT"> F  </i>
   <i type="logical" name="LVHAR"> F  </i>
   <i type="logical" name="LELF"> F  </i>
   <i type="logical" name="LOPTICS"> F  </i>
   <v name="STM">      0.00000000      0.00000000      0.00000000      0.00000000      0.00000000      0.00000000      0.00000000</v>
  </separator>
  <separator name="performance" >
   <i type="int" name="NPAR">     2</i>
   <i type="int" name="NSIM">     4</i>
   <i type="int" name="NBLK">    -1</i>
   <i type="logical" name="LPLANE"> T  </i>
   <i type="logical" name="LSCALAPACK"> T  </i>
   <i type="logical" name="LSCAAWARE"> F  </i>
   <i type="logical" name="LSCALU"> F  </i>
   <i type="logical" name="LASYNC"> F  </i>
   <i type="logical" name="LORBITALREAL"> F  </i>
  </separator>
  <separator name="miscellaneous" >
   <i type="int" name="IDIOT">     3</i>
   <i type="int" name="ISPECIAL">     0</i>
   <i type="logical" name="LMUSIC"> F  </i>
   <v name="POMASS">     16.00000000     87.62000000     47.88000000</v>
   <v name="DARWINR">      0.00000000      0.00000000      0.00000000</v>
   <v name="DARWINV">      1.00000000      1.00000000      1.00000000</v>
   <i type="logical" name="LCORR"> T  </i>
  </separator>
  <i type="logical" name="GGA_COMPAT"> T  </i>
  <i type="logical" name="LBERRY"> F  </i>
  <i type="int" name="ICORELEVEL">     0</i>
  <i type="logical" name="LDAU"> F  </i>
  <i type="int" name="I_CONSTRAINED_M">     0</i>
  <separator name="electronic exchange-correlation" >
   <i type="string" name="GGA">--</i>
   <i type="int" name="VOSKOWN">     0</i>
   <i type="logical" name="LHFCALC"> F  </i>
   <i type="string" name="PRECFOCK"></i>
   <i type="logical" name="LSYMGRAD"> F  </i>
   <i type="logical" name="LHFONE"> F  </i>
   <i type="logical" name="LRHFCALC"> F  </i>
   <i type="logical" name="LTHOMAS"> F  </i>
   <i type="logical" name="LMODELHF"> F  </i>
   <i name="ENCUT4O">     -1.00000000</i>
   <i type="int" name="EXXOEP">     0</i>
   <i type="int" name="FOURORBIT">     0</i>
   <i name="AEXX">      0.00000000</i>
   <i name="HFALPHA">      0.00000000</i>
   <i name="MCALPHA">      0.00000000</i>
   <i name="ALDAX">      1.00000000</i>
   <i name="AGGAX">      1.00000000</i>
   <i name="ALDAC">      1.00000000</i>
   <i name="AGGAC">      1.00000000</i>
   <i type="int" name="NKREDX">     1</i>
   <i type="int" name="NKREDY">     1</i>
   <i type="int" name="NKREDZ">     1</i>
   <i type="logical" name="SHIFTRED"> F  </i>
   <i type="logical" name="ODDONLY"> F  </i>
   <i type="logical" name="EVENONLY"> F  </i>
   <i type="int" name="LMAXFOCK">     0</i>
   <i type="int" name="NMAXFOCKAE">     0</i>
   <i type="logical" name="LFOCKAEDFT"> F  </i>
   <i name="HFSCREEN">      0.00000000</i>
   <i name="HFSCREENC">      0.00000000</i>
   <i type="int" name="NBANDSGWLOW">     0</i>
  </separator>
  <separator name="vdW DFT" >
   <i type="logical" name="LUSE_VDW"> F  </i>
   <i name="Zab_VDW">     -0.84910000</i>
   <i name="PARAM1">      0.12340000</i>
   <i name="PARAM2">      1.00000000</i>
   <i name="PARAM3">      0.00000000</i>
  </separator>
  <separator name="model GW" >
   <i type="int" name="MODEL_GW">     0</i>
   <i name="MODEL_EPS0">      9.25961697</i>
   <i name="MODEL_ALPHA">      1.00000000</i>
  </separator>
  <separator name="linear response parameters" >
   <i type="logical" name="LEPSILON"> F  </i>
   <i type="logical" name="LRPA"> F  </i>
   <i type="logical" name="LNABLA"> F  </i>
   <i type="logical" name="LVEL"> F  </i>
   <i type="int" name="KINTER">     0</i>
   <i name="CSHIFT">      0.10000000</i>
   <i name="OMEGAMAX">     -1.00000000</i>
   <i name="DEG_THRESHOLD">      0.00200000</i>
   <i name="RTIME">     -0.10000000</i>
   <i name="WPLASMAI">      0.00000000</i>
   <v name="DFIELD">      0.00000000      0.00000000      0.00000000</v>
   <v name="WPLASMA">      0.00000000      0.00000000      0.00000000      0.00000000      0.00000000      0.00000000      0.00000000      0.00000000      0.00000000</v>
  </separator>
  <separator name="orbital magnetization" >
   <i type="logical" name="NUCIND"> F  </i>
   <v name="MAGPOS">      0.00000000      0.00000000      0.00000000</v>
   <i type="logical" name="LNICSALL"> T  </i>
   <i type="logical" name="ORBITALMAG"> F  </i>
   <i type="logical" name="LMAGBLOCH"> F  </i>
   <i type="logical" name="LCHIMAG"> F  </i>
   <i type="logical" name="LGAUGE"> T  </i>
   <i type="int" name="MAGATOM">     0</i>
   <v name="MAGDIPOL">      0.00000000      0.00000000      0.00000000</v>
   <v name="AVECCONST">      0.00000000      0.00000000      0.00000000</v>
  </separator>
  <separator name="response functions" >
   <i type="logical" name="LADDER"> F  </i>
   <i type="logical" name="LRPAFORCE"> F  </i>
   <i type="logical" name="LFXC"> F  </i>
   <i type="logical" name="LHARTREE"> T  </i>
   <i type="int" name="IBSE">     0</i>
   <v type="int" name="KPOINT">    -1     0     0     0</v>
   <i type="logical" name="LTCTE"> F  </i>
   <i type="logical" name="LTETE"> F  </i>
   <i type="logical" name="LTRIPLET"> F  </i>
   <i type="logical" name="LFXCEPS"> F  </i>
   <i type="logical" name="LFXHEG"> F  </i>
   <i type="int" name="NATURALO">     2</i>
   <i type="logical" name="L2ORDER"> F  </i>
   <i type="logical" name="LMP2LT"> F  </i>
   <i type="logical" name="LUSEW"> F  </i>
   <i name="ENCUTGW">     -2.00000000</i>
   <i name="ENCUTGWSOFT">     -2.00000000</i>
   <i name="ENCUTLF">     -1.00000000</i>
   <i type="int" name="LMAXMP2">    -1</i>
   <i name="SCISSOR">      0.00000000</i>
   <i type="int" name="NOMEGA">     0</i>
   <i type="int" name="NOMEGAR">     0</i>
   <i type="int" name="NBANDSGW">    -1</i>
   <i type="int" name="NBANDSO">    -1</i>
   <i type="int" name="NBANDSV">    -1</i>
   <i type="int" name="NELM">     1</i>
   <i type="int" name="NELMHF">     1</i>
   <i type="int" name="DIM">     3</i>
   <i type="int" name="ANTIRES">     0</i>
   <i name="OMEGAMAX">    -30.00000000</i>
   <i name="OMEGAMIN">    -30.00000000</i>
   <i name="OMEGATL">   -200.00000000</i>
   <i type="int" name="OMEGAGRID">   140</i>
   <i name="CSHIFT">     -0.10000000</i>
   <i type="logical" name="SELFENERGY"> F  </i>
   <i type="logical" name="LSPECTRAL"> F  </i>
   <i type="logical" name="LSPECTRALGW"> F  </i>
   <i type="logical" name="LSINGLES"> F  </i>
   <i type="logical" name="LFERMIGW"> F  </i>
   <i type="logical" name="ODDONLYGW"> F  </i>
   <i type="logical" name="EVENONLYGW"> F  </i>
   <i type="int" name="NKREDLFX">     1</i>
   <i type="int" name="NKREDLFY">     1</i>
   <i type="int" name="NKREDLFZ">     1</i>
   <i type="int" name="MAXMEM">  2800</i>
   <i type="int" name="TELESCOPE">     0</i>
   <i type="int" name="TAUPAR">     1</i>
   <i type="int" name="OMEGAPAR">    -1</i>
   <i name="LAMBDA">      1.00000000</i>
  </separator>
  <separator name="External order field" >
   <i name="OFIELD_KAPPA">      0.00000000</i>
   <v name="OFIELD_K">      0.00000000      0.00000000      0.00000000</v>
   <i name="OFIELD_Q6_NEAR">      0.00000000</i>
   <i name="OFIELD_Q6_FAR">      0.00000000</i>
   <i name="OFIELD_A">      0.00000000</i>
  </separator>
 </parameters>
 <atominfo>
  <atoms>      20 </atoms>
  <types>       3 </types>
  <array name="atoms" >
   <dimension dim="1">ion</dimension>
   <field type="string">element</field>
   <field type="int">atomtype</field>
   <set>
    <rc><c>O </c><c>   1</c></rc>
    <rc><c>O </c><c>   1</c></rc>
    <rc><c>O </c><c>   1</c></rc>
    <rc><c>O </c><c>   1</c></rc>
    <rc><c>O </c><c>   1</c></rc>
    <rc><c>O </c><c>   1</c></rc>
    <rc><c>O </c><c>   1</c></rc>
    <rc><c>O </c><c>   1</c></rc>
    <rc><c>O </c><c>   1</c></rc>
    <rc><c>O </c><c>   1</c></rc>
    <rc><c>O </c><c>   1</c></rc>
    <rc><c>O </c><c>   1</c></rc>
    <rc><c>Sr</c><c>   2</c></rc>
    <rc><c>Sr</c><c>   2</c></rc>
    <rc><c>Sr</c><c>   2</c></rc>
    <rc><c>Sr</c><c>   2</c></rc>
    <rc><c>Ti</c><c>   3</c></rc>
    <rc><c>Ti</c><c>   3</c></rc>
    <rc><c>Ti</c><c>   3</c></rc>
    <rc><c>Ti</c><c>   3</c></rc>
   </set>
  </array>
  <array name="atomtypes" >
   <dimension dim="1">type</dimension>
   <field type="int">atomspertype</field>
   <field type="string">element</field>
   <field>mass</field>
   <field>valence</field>
   <field type="string">pseudopotential</field>
   <set>
    <rc><c>  12</c><c>O </c><c>     16.00000000</c><c>      6.00000000</c><c> PAW_PBE O 08Apr2002                    </c></rc>
    <rc><c>   4</c><c>Sr</c><c>     87.62000000</c><c>     10.00000000</c><c> PAW_PBE Sr_sv 07Sep2000                </c></rc>
    <rc><c>   4</c><c>Ti</c><c>     47.88000000</c><c>      4.00000000</c><c> PAW_PBE Ti 08Apr2002                   </c></rc>
   </set>
  </array>
 </atominfo>
 <structure name="initialpos" >
  <crystal>
   <varray name="basis" >
    <v>       3.94684634       0.00000000       0.00000000 </v>
    <v>       0.00000000       3.94684634       0.00000000 </v>
    <v>       0.00000000       0.00000000      19.81396220 </v>
   </varray>
   <i name="volume">    308.65389912 </i>
   <varray name="rec_basis" >
    <v>       0.25336684       0.00000000       0.00000000 </v>
    <v>       0.00000000       0.25336684       0.00000000 </v>
    <v>       0.00000000       0.00000000       0.05046946 </v>
   </varray>
  </crystal>
  <varray name="positions" >
   <v>       0.50000000       0.50000000       0.15140838 </v>
   <v>       0.50000000       0.00000000       0.25100599 </v>
   <v>       0.00000000       0.50000000       0.25100599 </v>
   <v>       0.50000000       0.50000000       0.35060359 </v>
   <v>       0.50000000       0.00000000       0.45020120 </v>
   <v>       0.00000000       0.50000000       0.45020120 </v>
   <v>       0.50000000       0.50000000       0.54979880 </v>
   <v>       0.50000000       0.00000000       0.64939641 </v>
   <v>       0.00000000       0.50000000       0.64939641 </v>
   <v>       0.50000000       0.50000000       0.74899401 </v>
   <v>       0.50000000       0.00000000       0.84859162 </v>
   <v>       0.00000000       0.50000000       0.84859162 </v>
   <v>       0.00000000       0.00000000       0.15140838 </v>
   <v>       0.00000000       0.00000000       0.35060359 </v>
   <v>       0.00000000       0.00000000       0.54979880 </v>
   <v>       0.00000000       0.00000000       0.74899401 </v>
   <v>       0.50000000       0.50000000       0.25100599 </v>
   <v>       0.50000000       0.50000000       0.45020120 </v>
   <v>       0.50000000       0.50000000       0.64939641 </v>
   <v>       0.50000000       0.50000000       0.84859162 </v>
  </varray>
 </structure>
 <calculation>
  <scstep>
   <time name="dav">    4.28    4.28</time>
   <time name="total">    4.38    4.38</time>
   <energy>
    <i name="alphaZ">    572.41385811 </i>
    <i name="ewald">   -747.42484830 </i>
    <i name="hartreedc">  -8119.51484423 </i>
    <i name="XCdc">    325.55486189 </i>
    <i name="pawpsdc">   5334.45189010 </i>
    <i name="pawaedc">  -5139.13784255 </i>
    <i name="eentropy">      0.00000000 </i>
    <i name="bandstr">    432.40571349 </i>
    <i name="atom">   8937.26825017 </i>
    <i name="e_fr_energy">   1596.01703868 </i>
    <i name="e_wo_entrp">   1596.01703868 </i>
    <i name="e_0_energy">   1596.01703868 </i>
   </energy>
  </scstep>
  <scstep>
   <time name="dav">    4.59    4.59</time>
   <time name="total">    4.60    4.60</time>
   <energy>
    <i name="e_fr_energy">    175.76825446 </i>
    <i name="e_wo_entrp">    175.76825446 </i>
    <i name="e_0_energy">    175.76825446 </i>
   </energy>
  </scstep>
  <scstep>
   <time name="dav">    5.19    5.19</time>
   <time name="total">    5.19    5.19</time>
   <energy>
    <i name="e_fr_energy">   -173.73654843 </i>
    <i name="e_wo_entrp">   -173.73654843 </i>
    <i name="e_0_energy">   -173.73654843 </i>
   </energy>
  </scstep>
  <scstep>
   <time name="dav">    5.13    5.13</time>
   <time name="total">    5.13    5.13</time>
   <energy>
    <i name="e_fr_energy">   -200.62355519 </i>
    <i name="e_wo_entrp">   -200.62355519 </i>
    <i name="e_0_energy">   -200.62355519 </i>
   </energy>
  </scstep>
  <scstep>
   <time name="dav">    6.36    6.36</time>
   <time name="total">    6.52    6.52</time>
   <energy>
    <i name="e_fr_energy">   -202.24628181 </i>
    <i name="e_wo_entrp">   -202.24628181 </i>
    <i name="e_0_energy">   -202.24628181 </i>
   </energy>
  </scstep>
  <scstep>
   <time name="diag">    0.49    0.49</time>
   <time name="diis">    3.28    3.28</time>
   <time name="orth">    0.10    0.10</time>
   <time name="total">    4.14    4.14</time>
   <energy>
    <i name="e_fr_energy">   -161.81749609 </i>
    <i name="e_wo_entrp">   -161.81749609 </i>
    <i name="e_0_energy">   -161.81749609 </i>
   </energy>
  </scstep>
  <scstep>
   <time name="diag">    0.49    0.49</time>
   <time name="diis">    3.50    3.50</time>
   <time name="orth">    0.10    0.10</time>
   <time name="total">    4.35    4.35</time>
   <energy>
    <i name="e_fr_energy">   -157.72774910 </i>
    <i name="e_wo_entrp">   -157.72774910 </i>
    <i name="e_0_energy">   -157.72774910 </i>
   </energy>
  </scstep>
  <scstep>
   <time name="diag">    0.49    0.49</time>
   <time name="diis">    3.99    3.99</time>
   <time name="orth">    0.10    0.10</time>
   <time name="total">    4.84    4.84</time>
   <energy>
    <i name="e_fr_energy">   -156.97728583 </i>
    <i name="e_wo_entrp">   -156.97728583 </i>
    <i name="e_0_energy">   -156.97728583 </i>
   </energy>
  </scstep>
  <scstep>
   <time name="diag">    0.49    0.49</time>
   <time name="diis">    3.97    3.97</time>
   <time name="orth">    0.10    0.10</time>
   <time name="total">    4.82    4.82</time>
   <energy>
    <i name="e_fr_energy">   -156.73841412 </i>
    <i name="e_wo_entrp">   -156.73841412 </i>
    <i name="e_0_energy">   -156.73841412 </i>
   </energy>
  </scstep>
  <scstep>
   <time name="diag">    0.49    0.49</time>
   <time name="diis">    4.52    4.51</time>
   <time name="orth">    0.10    0.10</time>
   <time name="total">    5.36    5.36</time>
   <energy>
    <i name="e_fr_energy">   -156.69858894 </i>
    <i name="e_wo_entrp">   -156.69858894 </i>
    <i name="e_0_energy">   -156.69858894 </i>
   </energy>
  </scstep>
  <scstep>
   <time name="diag">    0.48    0.48</time>
   <time name="diis">    4.42    4.42</time>
   <time name="orth">    0.09    0.09</time>
   <time name="total">    5.26    5.26</time>
   <energy>
    <i name="e_fr_energy">   -156.68862422 </i>
    <i name="e_wo_entrp">   -156.68862422 </i>
    <i name="e_0_energy">   -156.68862422 </i>
   </energy>
  </scstep>
  <scstep>
   <time name="diag">    0.47    0.47</time>
   <time name="diis">    4.60    4.60</time>
   <time name="orth">    0.09    0.09</time>
   <time name="total">    5.42    5.42</time>
   <energy>
    <i name="e_fr_energy">   -156.69536984 </i>
    <i name="e_wo_entrp">   -156.69536984 </i>
    <i name="e_0_energy">   -156.69536984 </i>
   </energy>
  </scstep>
  <scstep>
   <time name="diag">    0.48    0.48</time>
   <time name="diis">    5.07    5.06</time>
   <time name="orth">    0.09    0.09</time>
   <time name="total">    5.89    5.89</time>
   <energy>
    <i name="e_fr_energy">   -156.69592298 </i>
    <i name="e_wo_entrp">   -156.69592298 </i>
    <i name="e_0_energy">   -156.69592298 </i>
   </energy>
  </scstep>
  <scstep>
   <time name="diag">    0.47    0.47</time>
   <time name="diis">    4.29    4.29</time>
   <time name="orth">    0.09    0.09</time>
   <time name="total">    5.11    5.10</time>
   <energy>
    <i name="e_fr_energy">   -156.70107925 </i>
    <i name="e_wo_entrp">   -156.70107925 </i>
    <i name="e_0_energy">   -156.70107925 </i>
   </energy>
  </scstep>
  <scstep>
   <time name="diag">    0.47    0.47</time>
   <time name="diis">    4.60    4.60</time>
   <time name="orth">    0.09    0.09</time>
   <time name="total">    5.40    5.41</time>
   <energy>
    <i name="e_fr_energy">   -156.70110916 </i>
    <i name="e_wo_entrp">   -156.70110916 </i>
    <i name="e_0_energy">   -156.70110916 </i>
   </energy>
  </scstep>
  <scstep>
   <time name="diag">    0.46    0.47</time>
   <time name="diis">    4.99    4.99</time>
   <time name="orth">    0.10    0.10</time>
   <time name="total">    5.80    5.80</time>
   <energy>
    <i name="e_fr_energy">   -156.70122889 </i>
    <i name="e_wo_entrp">   -156.70122889 </i>
    <i name="e_0_energy">   -156.70122889 </i>
   </energy>
  </scstep>
  <scstep>
   <time name="diag">    0.49    0.49</time>
   <time name="diis">    4.75    4.74</time>
   <time name="orth">    0.10    0.10</time>
   <time name="total">    5.59    5.59</time>
   <energy>
    <i name="e_fr_energy">   -156.70136488 </i>
    <i name="e_wo_entrp">   -156.70136488 </i>
    <i name="e_0_energy">   -156.70136488 </i>
   </energy>
  </scstep>
  <scstep>
   <time name="diag">    0.49    0.49</time>
   <time name="diis">    4.50    4.49</time>
   <time name="orth">    0.10    0.10</time>
   <time name="total">    5.34    5.34</time>
   <energy>
    <i name="e_fr_energy">   -156.70139747 </i>
    <i name="e_wo_entrp">   -156.70139747 </i>
    <i name="e_0_energy">   -156.70139747 </i>
   </energy>
  </scstep>
  <scstep>
   <time name="diag">    0.48    0.49</time>
   <time name="diis">    3.24    3.24</time>
   <time name="orth">    0.10    0.10</time>
   <time name="total">    4.08    4.08</time>
   <energy>
    <i name="e_fr_energy">   -156.70141847 </i>
    <i name="e_wo_entrp">   -156.70141847 </i>
    <i name="e_0_energy">   -156.70141847 </i>
   </energy>
  </scstep>
  <scstep>
   <time name="diag">    0.47    0.47</time>
   <time name="diis">    2.86    2.85</time>
   <time name="orth">    0.09    0.09</time>
   <time name="total">    3.50    3.50</time>
   <energy>
    <i name="alphaZ">    572.41385811 </i>
    <i name="ewald">   -747.42484830 </i>
    <i name="hartreedc">  -8387.21618472 </i>
    <i name="XCdc">    341.54351924 </i>
    <i name="pawpsdc">   6145.25114394 </i>
    <i name="pawaedc">  -5975.21996018 </i>
    <i name="eentropy">      0.00000000 </i>
    <i name="bandstr">  -1043.31720592 </i>
    <i name="atom">   8937.26825017 </i>
    <i name="e_fr_energy">   -156.70142766 </i>
    <i name="e_wo_entrp">   -156.70142766 </i>
    <i name="e_0_energy">   -156.70142766 </i>
   </energy>
  </scstep>
  <structure>
   <crystal>
    <varray name="basis" >
     <v>       3.94684634       0.00000000       0.00000000 </v>
     <v>       0.00000000       3.94684634       0.00000000 </v>
     <v>       0.00000000       0.00000000      19.81396220 </v>
    </varray>
    <i name="volume">    308.65389912 </i>
    <varray name="rec_basis" >
     <v>       0.25336684       0.00000000       0.00000000 </v>
     <v>       0.00000000       0.25336684       0.00000000 </v>
     <v>       0.00000000       0.00000000       0.05046946 </v>
    </varray>
   </crystal>
   <varray name="positions" >
    <v>       0.50000000       0.50000000       0.15140838 </v>
    <v>       0.50000000       0.00000000       0.25100599 </v>
    <v>       0.00000000       0.50000000       0.25100599 </v>
    <v>       0.50000000       0.50000000       0.35060359 </v>
    <v>       0.50000000       0.00000000       0.45020120 </v>
    <v>       0.00000000       0.50000000       0.45020120 </v>
    <v>       0.50000000       0.50000000       0.54979880 </v>
    <v>       0.50000000       0.00000000       0.64939641 </v>
    <v>       0.00000000       0.50000000       0.64939641 </v>
    <v>       0.50000000       0.50000000       0.74899401 </v>
    <v>       0.50000000       0.00000000       0.84859162 </v>
    <v>       0.00000000       0.50000000       0.84859162 </v>
    <v>       0.00000000       0.00000000       0.15140838 </v>
    <v>       0.00000000       0.00000000       0.35060359 </v>
    <v>       0.00000000       0.00000000       0.54979880 </v>
    <v>       0.00000000       0.00000000       0.74899401 </v>
    <v>       0.50000000       0.50000000       0.25100599 </v>
    <v>       0.50000000       0.50000000       0.45020120 </v>
    <v>       0.50000000       0.50000000       0.64939641 </v>
    <v>       0.50000000       0.50000000       0.84859162 </v>
   </varray>
  </structure>
  <varray name="forces" >
   <v>       0.00000000      -0.00000000      -0.47408249 </v>
   <v>       0.00000000      -0.00000000       0.07271524 </v>
   <v>       0.00000000      -0.00000000       0.07271524 </v>
   <v>      -0.00000000      -0.00000000       0.62279285 </v>
   <v>       0.00000000      -0.00000000       0.14834386 </v>
   <v>       0.00000000      -0.00000000       0.14834386 </v>
   <v>       0.00000000      -0.00000000       0.54950209 </v>
   <v>       0.00000000      -0.00000000       0.10889858 </v>
   <v>      -0.00000000      -0.00000000       0.10889858 </v>
   <v>      -0.00000000      -0.00000000       1.23144737 </v>
   <v>       0.00000000       0.00000000       0.47780376 </v>
   <v>       0.00000000      -0.00000000       0.47780376 </v>
   <v>       0.00000000       0.00000000       1.19895912 </v>
   <v>       0.00000000      -0.00000000      -0.10910020 </v>
   <v>       0.00000000      -0.00000000      -0.16111142 </v>
   <v>       0.00000000       0.00000000       0.52873942 </v>
   <v>       0.00000000       0.00000000      -1.29396423 </v>
   <v>       0.00000000       0.00000000      -0.62226147 </v>
   <v>       0.00000000      -0.00000000      -0.68251798 </v>
   <v>       0.00000000       0.00000000      -2.40392592 </v>
  </varray>
  <varray name="stress" >
   <v>     -28.85179543       0.00000000       0.00000000 </v>
   <v>       0.00000000     -28.85179543       0.00000000 </v>
   <v>       0.00000000       0.00000000     -19.05397131 </v>
  </varray>
  <energy>
   <i name="e_fr_energy">   -156.70142766 </i>
   <i name="e_wo_entrp">   -156.70142766 </i>
   <i name="e_0_energy">      0.00000000 </i>
  </energy>
  <time name="totalsc">  106.06  106.18</time>
  <eigenvalues>
   <array>
    <dimension dim="1">band</dimension>
    <dimension dim="2">kpoint</dimension>
    <dimension dim="3">spin</dimension>
    <field>eigene</field>
    <field>occ</field>
    <set>
     <set comment="spin 1">
      <set comment="kpoint 1">
       <r>  -32.5249    1.0000 </r>
       <r>  -31.8620    1.0000 </r>
       <r>  -31.8287    1.0000 </r>
       <r>  -31.5805    1.0000 </r>
       <r>  -16.5751    1.0000 </r>
       <r>  -16.3220    1.0000 </r>
       <r>  -16.1561    1.0000 </r>
       <r>  -16.0816    1.0000 </r>
       <r>  -15.5350    1.0000 </r>
       <r>  -15.4928    1.0000 </r>
       <r>  -15.3642    1.0000 </r>
       <r>  -15.2308    1.0000 </r>
       <r>  -15.0966    1.0000 </r>
       <r>  -15.0621    1.0000 </r>
       <r>  -15.0279    1.0000 </r>
       <r>  -14.4706    1.0000 </r>
       <r>  -14.4397    1.0000 </r>
       <r>  -14.4397    1.0000 </r>
       <r>  -14.1962    1.0000 </r>
       <r>  -13.9241    1.0000 </r>
       <r>  -13.9241    1.0000 </r>
       <r>  -13.8700    1.0000 </r>
       <r>  -13.8700    1.0000 </r>
       <r>  -13.7368    1.0000 </r>
       <r>  -13.6196    1.0000 </r>
       <r>  -13.6196    1.0000 </r>
       <r>  -13.4883    1.0000 </r>
       <r>  -13.2677    1.0000 </r>
       <r>   -3.1630    1.0000 </r>
       <r>   -2.5707    1.0000 </r>
       <r>   -2.0173    1.0000 </r>
       <r>   -1.9827    1.0000 </r>
       <r>   -1.9827    1.0000 </r>
       <r>   -1.7258    1.0000 </r>
       <r>   -1.7258    1.0000 </r>
       <r>   -1.5745    1.0000 </r>
       <r>   -1.5745    1.0000 </r>
       <r>   -1.4957    1.0000 </r>
       <r>   -1.4957    1.0000 </r>
       <r>   -1.2933    1.0000 </r>
       <r>   -1.1041    1.0000 </r>
       <r>   -1.0522    1.0000 </r>
       <r>   -1.0522    1.0000 </r>
       <r>   -0.8110    1.0000 </r>
       <r>   -0.8008    1.0000 </r>
       <r>   -0.6846    1.0000 </r>
       <r>   -0.6846    1.0000 </r>
       <r>   -0.4561    1.0000 </r>
       <r>   -0.3176    1.0000 </r>
       <r>   -0.3176    1.0000 </r>
       <r>   -0.2330    1.0000 </r>
       <r>   -0.1083    1.0000 </r>
       <r>    0.0303    1.0000 </r>
       <r>    0.2575    1.0000 </r>
       <r>    0.2575    1.0000 </r>
       <r>    0.2952    1.0000 </r>
       <r>    0.2952    1.0000 </r>
       <r>    0.5461    1.0000 </r>
       <r>    0.5461    1.0000 </r>
       <r>    0.6019    1.0000 </r>
       <r>    0.7502    1.0000 </r>
       <r>    0.7502    1.0000 </r>
       <r>    0.8986    1.0000 </r>
       <r>    0.8986    1.0000 </r>
       <r>    2.5316    0.0000 </r>
       <r>    2.5793    0.0000 </r>
       <r>    2.5793    0.0000 </r>
       <r>    2.7502    0.0000 </r>
       <r>    2.8293    0.0000 </r>
       <r>    3.1128    0.0000 </r>
       <r>    3.2584    0.0000 </r>
       <r>    3.2890    0.0000 </r>
       <r>    3.5345    0.0000 </r>
       <r>    4.1078    0.0000 </r>
       <r>    6.5047    0.0000 </r>
       <r>    6.7522    0.0000 </r>
      </set>
      <set comment="kpoint 2">
       <r>  -32.5220    1.0000 </r>
       <r>  -31.8585    1.0000 </r>
       <r>  -31.8253    1.0000 </r>
       <r>  -31.5770    1.0000 </r>
       <r>  -16.5213    1.0000 </r>
       <r>  -16.2723    1.0000 </r>
       <r>  -16.1135    1.0000 </r>
       <r>  -16.0681    1.0000 </r>
       <r>  -15.5193    1.0000 </r>
       <r>  -15.4999    1.0000 </r>
       <r>  -15.4028    1.0000 </r>
       <r>  -15.2416    1.0000 </r>
       <r>  -15.1593    1.0000 </r>
       <r>  -15.0569    1.0000 </r>
       <r>  -15.0544    1.0000 </r>
       <r>  -14.6960    1.0000 </r>
       <r>  -14.4431    1.0000 </r>
       <r>  -14.4329    1.0000 </r>
       <r>  -13.9241    1.0000 </r>
       <r>  -13.9155    1.0000 </r>
       <r>  -13.8613    1.0000 </r>
       <r>  -13.8374    1.0000 </r>
       <r>  -13.7769    1.0000 </r>
       <r>  -13.7348    1.0000 </r>
       <r>  -13.6110    1.0000 </r>
       <r>  -13.5247    1.0000 </r>
       <r>  -13.4985    1.0000 </r>
       <r>  -13.2983    1.0000 </r>
       <r>   -3.1739    1.0000 </r>
       <r>   -2.6218    1.0000 </r>
       <r>   -2.2870    1.0000 </r>
       <r>   -2.1573    1.0000 </r>
       <r>   -2.0472    1.0000 </r>
       <r>   -1.9891    1.0000 </r>
       <r>   -1.9193    1.0000 </r>
       <r>   -1.7379    1.0000 </r>
       <r>   -1.7282    1.0000 </r>
       <r>   -1.6318    1.0000 </r>
       <r>   -1.6089    1.0000 </r>
       <r>   -1.4963    1.0000 </r>
       <r>   -1.4325    1.0000 </r>
       <r>   -1.1255    1.0000 </r>
       <r>   -1.1154    1.0000 </r>
       <r>   -0.9458    1.0000 </r>
       <r>   -0.8185    1.0000 </r>
       <r>   -0.7779    1.0000 </r>
       <r>   -0.6094    1.0000 </r>
       <r>   -0.4940    1.0000 </r>
       <r>   -0.3757    1.0000 </r>
       <r>   -0.2866    1.0000 </r>
       <r>   -0.2095    1.0000 </r>
       <r>   -0.1297    1.0000 </r>
       <r>    0.0037    1.0000 </r>
       <r>    0.0195    1.0000 </r>
       <r>    0.0470    1.0000 </r>
       <r>    0.0732    1.0000 </r>
       <r>    0.1312    1.0000 </r>
       <r>    0.2951    1.0000 </r>
       <r>    0.3294    1.0000 </r>
       <r>    0.3574    1.0000 </r>
       <r>    0.3823    1.0000 </r>
       <r>    0.4496    1.0000 </r>
       <r>    0.7791    1.0000 </r>
       <r>    0.7964    1.0000 </r>
       <r>    2.5928    0.0000 </r>
       <r>    2.9118    0.0000 </r>
       <r>    2.9385    0.0000 </r>
       <r>    3.1890    0.0000 </r>
       <r>    3.2338    0.0000 </r>
       <r>    3.3717    0.0000 </r>
       <r>    3.5085    0.0000 </r>
       <r>    3.5401    0.0000 </r>
       <r>    3.8930    0.0000 </r>
       <r>    4.1843    0.0000 </r>
       <r>    6.8639    0.0000 </r>
       <r>    7.0062    0.0000 </r>
      </set>
      <set comment="kpoint 3">
       <r>  -32.5154    1.0000 </r>
       <r>  -31.8505    1.0000 </r>
       <r>  -31.8176    1.0000 </r>
       <r>  -31.5693    1.0000 </r>
       <r>  -16.4874    1.0000 </r>
       <r>  -16.1821    1.0000 </r>
       <r>  -16.0296    1.0000 </r>
       <r>  -15.9966    1.0000 </r>
       <r>  -15.5345    1.0000 </r>
       <r>  -15.4477    1.0000 </r>
       <r>  -15.4174    1.0000 </r>
       <r>  -15.2825    1.0000 </r>
       <r>  -15.2323    1.0000 </r>
       <r>  -15.1574    1.0000 </r>
       <r>  -15.0334    1.0000 </r>
       <r>  -14.8187    1.0000 </r>
       <r>  -14.4360    1.0000 </r>
       <r>  -14.4174    1.0000 </r>
       <r>  -13.8959    1.0000 </r>
       <r>  -13.8417    1.0000 </r>
       <r>  -13.7513    1.0000 </r>
       <r>  -13.6603    1.0000 </r>
       <r>  -13.6213    1.0000 </r>
       <r>  -13.6009    1.0000 </r>
       <r>  -13.5917    1.0000 </r>
       <r>  -13.5357    1.0000 </r>
       <r>  -13.3542    1.0000 </r>
       <r>  -13.3177    1.0000 </r>
       <r>   -3.2113    1.0000 </r>
       <r>   -3.0005    1.0000 </r>
       <r>   -2.8180    1.0000 </r>
       <r>   -2.6194    1.0000 </r>
       <r>   -2.4863    1.0000 </r>
       <r>   -2.4397    1.0000 </r>
       <r>   -2.3095    1.0000 </r>
       <r>   -2.2121    1.0000 </r>
       <r>   -2.0023    1.0000 </r>
       <r>   -1.9548    1.0000 </r>
       <r>   -1.7902    1.0000 </r>
       <r>   -1.7248    1.0000 </r>
       <r>   -1.6689    1.0000 </r>
       <r>   -1.4991    1.0000 </r>
       <r>   -1.2798    1.0000 </r>
       <r>   -1.0958    1.0000 </r>
       <r>   -0.9535    1.0000 </r>
       <r>   -0.8667    1.0000 </r>
       <r>   -0.8567    1.0000 </r>
       <r>   -0.7825    1.0000 </r>
       <r>   -0.7023    1.0000 </r>
       <r>   -0.5355    1.0000 </r>
       <r>   -0.4553    1.0000 </r>
       <r>   -0.4345    1.0000 </r>
       <r>   -0.3615    1.0000 </r>
       <r>   -0.3078    1.0000 </r>
       <r>   -0.2390    1.0000 </r>
       <r>   -0.1976    1.0000 </r>
       <r>   -0.0560    1.0000 </r>
       <r>   -0.0225    1.0000 </r>
       <r>    0.1040    1.0000 </r>
       <r>    0.1731    1.0000 </r>
       <r>    0.3692    1.0000 </r>
       <r>    0.5487    1.0000 </r>
       <r>    0.6037    1.0000 </r>
       <r>    0.8903    1.0000 </r>
       <r>    2.6304    0.0000 </r>
       <r>    3.2954    0.0000 </r>
       <r>    3.5780    0.0000 </r>
       <r>    3.6864    0.0000 </r>
       <r>    3.8652    0.0000 </r>
       <r>    3.9229    0.0000 </r>
       <r>    3.9791    0.0000 </r>
       <r>    4.0472    0.0000 </r>
       <r>    4.2360    0.0000 </r>
       <r>    4.3666    0.0000 </r>
       <r>    4.5101    0.0000 </r>
       <r>    7.6747    0.0000 </r>
      </set>
      <set comment="kpoint 4">
       <r>  -32.5101    1.0000 </r>
       <r>  -31.8441    1.0000 </r>
       <r>  -31.8114    1.0000 </r>
       <r>  -31.5631    1.0000 </r>
       <r>  -16.5423    1.0000 </r>
       <r>  -16.2060    1.0000 </r>
       <r>  -15.9562    1.0000 </r>
       <r>  -15.7903    1.0000 </r>
       <r>  -15.5667    1.0000 </r>
       <r>  -15.4499    1.0000 </r>
       <r>  -15.3667    1.0000 </r>
       <r>  -15.3223    1.0000 </r>
       <r>  -15.2384    1.0000 </r>
       <r>  -15.1975    1.0000 </r>
       <r>  -15.0071    1.0000 </r>
       <r>  -14.8641    1.0000 </r>
       <r>  -14.4049    1.0000 </r>
       <r>  -14.4034    1.0000 </r>
       <r>  -13.8801    1.0000 </r>
       <r>  -13.8258    1.0000 </r>
       <r>  -13.7383    1.0000 </r>
       <r>  -13.5816    1.0000 </r>
       <r>  -13.5760    1.0000 </r>
       <r>  -13.5600    1.0000 </r>
       <r>  -13.4566    1.0000 </r>
       <r>  -13.4375    1.0000 </r>
       <r>  -13.3812    1.0000 </r>
       <r>  -13.1886    1.0000 </r>
       <r>   -3.4083    1.0000 </r>
       <r>   -3.3463    1.0000 </r>
       <r>   -3.1793    1.0000 </r>
       <r>   -3.0653    1.0000 </r>
       <r>   -2.9978    1.0000 </r>
       <r>   -2.8641    1.0000 </r>
       <r>   -2.7951    1.0000 </r>
       <r>   -2.4831    1.0000 </r>
       <r>   -2.2092    1.0000 </r>
       <r>   -2.0185    1.0000 </r>
       <r>   -1.9366    1.0000 </r>
       <r>   -1.8291    1.0000 </r>
       <r>   -1.7146    1.0000 </r>
       <r>   -1.5332    1.0000 </r>
       <r>   -1.4604    1.0000 </r>
       <r>   -1.4181    1.0000 </r>
       <r>   -1.1552    1.0000 </r>
       <r>   -1.0579    1.0000 </r>
       <r>   -0.9824    1.0000 </r>
       <r>   -0.9145    1.0000 </r>
       <r>   -0.7820    1.0000 </r>
       <r>   -0.7736    1.0000 </r>
       <r>   -0.6297    1.0000 </r>
       <r>   -0.5754    1.0000 </r>
       <r>   -0.5356    1.0000 </r>
       <r>   -0.4389    1.0000 </r>
       <r>   -0.4019    1.0000 </r>
       <r>   -0.3088    1.0000 </r>
       <r>   -0.2207    1.0000 </r>
       <r>   -0.1774    1.0000 </r>
       <r>   -0.0342    1.0000 </r>
       <r>    0.1225    1.0000 </r>
       <r>    0.4948    1.0000 </r>
       <r>    0.5163    1.0000 </r>
       <r>    0.5891    1.0000 </r>
       <r>    0.9995    1.0000 </r>
       <r>    2.6616    0.0000 </r>
       <r>    3.3250    0.0000 </r>
       <r>    3.8926    0.0000 </r>
       <r>    3.9782    0.0000 </r>
       <r>    4.2029    0.0000 </r>
       <r>    4.2851    0.0000 </r>
       <r>    4.4606    0.0000 </r>
       <r>    4.4882    0.0000 </r>
       <r>    4.5987    0.0000 </r>
       <r>    4.7507    0.0000 </r>
       <r>    4.8390    0.0000 </r>
       <r>    8.2927    0.0000 </r>
      </set>
      <set comment="kpoint 5">
       <r>  -32.5191    1.0000 </r>
       <r>  -31.8550    1.0000 </r>
       <r>  -31.8219    1.0000 </r>
       <r>  -31.5737    1.0000 </r>
       <r>  -16.4710    1.0000 </r>
       <r>  -16.2143    1.0000 </r>
       <r>  -16.0583    1.0000 </r>
       <r>  -16.0399    1.0000 </r>
       <r>  -15.5133    1.0000 </r>
       <r>  -15.4887    1.0000 </r>
       <r>  -15.4123    1.0000 </r>
       <r>  -15.2508    1.0000 </r>
       <r>  -15.1772    1.0000 </r>
       <r>  -15.0783    1.0000 </r>
       <r>  -15.0561    1.0000 </r>
       <r>  -14.8115    1.0000 </r>
       <r>  -14.4434    1.0000 </r>
       <r>  -14.4160    1.0000 </r>
       <r>  -13.9069    1.0000 </r>
       <r>  -13.8490    1.0000 </r>
       <r>  -13.8182    1.0000 </r>
       <r>  -13.8066    1.0000 </r>
       <r>  -13.7440    1.0000 </r>
       <r>  -13.7016    1.0000 </r>
       <r>  -13.6019    1.0000 </r>
       <r>  -13.5387    1.0000 </r>
       <r>  -13.4372    1.0000 </r>
       <r>  -13.3321    1.0000 </r>
       <r>   -3.1825    1.0000 </r>
       <r>   -2.6854    1.0000 </r>
       <r>   -2.4418    1.0000 </r>
       <r>   -2.2550    1.0000 </r>
       <r>   -2.1482    1.0000 </r>
       <r>   -2.0974    1.0000 </r>
       <r>   -2.0023    1.0000 </r>
       <r>   -1.9708    1.0000 </r>
       <r>   -1.7882    1.0000 </r>
       <r>   -1.7767    1.0000 </r>
       <r>   -1.7181    1.0000 </r>
       <r>   -1.6228    1.0000 </r>
       <r>   -1.5148    1.0000 </r>
       <r>   -1.4795    1.0000 </r>
       <r>   -1.2960    1.0000 </r>
       <r>   -1.1971    1.0000 </r>
       <r>   -0.8895    1.0000 </r>
       <r>   -0.8805    1.0000 </r>
       <r>   -0.7877    1.0000 </r>
       <r>   -0.5406    1.0000 </r>
       <r>   -0.5251    1.0000 </r>
       <r>   -0.4810    1.0000 </r>
       <r>   -0.3971    1.0000 </r>
       <r>   -0.2007    1.0000 </r>
       <r>   -0.1484    1.0000 </r>
       <r>   -0.0796    1.0000 </r>
       <r>   -0.0567    1.0000 </r>
       <r>    0.0325    1.0000 </r>
       <r>    0.0881    1.0000 </r>
       <r>    0.1718    1.0000 </r>
       <r>    0.1951    1.0000 </r>
       <r>    0.2288    1.0000 </r>
       <r>    0.3889    1.0000 </r>
       <r>    0.5611    1.0000 </r>
       <r>    0.6817    1.0000 </r>
       <r>    0.7663    1.0000 </r>
       <r>    2.8373    0.0000 </r>
       <r>    3.0092    0.0000 </r>
       <r>    3.1903    0.0000 </r>
       <r>    3.4195    0.0000 </r>
       <r>    3.4783    0.0000 </r>
       <r>    3.4998    0.0000 </r>
       <r>    3.5370    0.0000 </r>
       <r>    3.7481    0.0000 </r>
       <r>    3.8024    0.0000 </r>
       <r>    4.2053    0.0000 </r>
       <r>    7.3006    0.0000 </r>
       <r>    7.4096    0.0000 </r>
      </set>
      <set comment="kpoint 6">
       <r>  -32.5126    1.0000 </r>
       <r>  -31.8472    1.0000 </r>
       <r>  -31.8144    1.0000 </r>
       <r>  -31.5661    1.0000 </r>
       <r>  -16.4241    1.0000 </r>
       <r>  -16.1120    1.0000 </r>
       <r>  -15.9651    1.0000 </r>
       <r>  -15.9218    1.0000 </r>
       <r>  -15.5286    1.0000 </r>
       <r>  -15.4368    1.0000 </r>
       <r>  -15.3697    1.0000 </r>
       <r>  -15.2821    1.0000 </r>
       <r>  -15.1979    1.0000 </r>
       <r>  -15.1669    1.0000 </r>
       <r>  -15.0404    1.0000 </r>
       <r>  -14.8645    1.0000 </r>
       <r>  -14.4797    1.0000 </r>
       <r>  -14.3787    1.0000 </r>
       <r>  -13.9026    1.0000 </r>
       <r>  -13.8360    1.0000 </r>
       <r>  -13.7793    1.0000 </r>
       <r>  -13.6566    1.0000 </r>
       <r>  -13.6533    1.0000 </r>
       <r>  -13.6325    1.0000 </r>
       <r>  -13.5875    1.0000 </r>
       <r>  -13.5341    1.0000 </r>
       <r>  -13.3934    1.0000 </r>
       <r>  -13.3214    1.0000 </r>
       <r>   -3.2135    1.0000 </r>
       <r>   -2.9770    1.0000 </r>
       <r>   -2.8533    1.0000 </r>
       <r>   -2.6248    1.0000 </r>
       <r>   -2.4941    1.0000 </r>
       <r>   -2.4305    1.0000 </r>
       <r>   -2.3141    1.0000 </r>
       <r>   -2.2498    1.0000 </r>
       <r>   -2.1543    1.0000 </r>
       <r>   -2.0770    1.0000 </r>
       <r>   -1.9428    1.0000 </r>
       <r>   -1.9088    1.0000 </r>
       <r>   -1.7662    1.0000 </r>
       <r>   -1.6910    1.0000 </r>
       <r>   -1.6193    1.0000 </r>
       <r>   -1.4804    1.0000 </r>
       <r>   -1.4505    1.0000 </r>
       <r>   -1.2070    1.0000 </r>
       <r>   -1.0863    1.0000 </r>
       <r>   -1.0120    1.0000 </r>
       <r>   -0.9545    1.0000 </r>
       <r>   -0.8371    1.0000 </r>
       <r>   -0.6327    1.0000 </r>
       <r>   -0.3901    1.0000 </r>
       <r>   -0.2256    1.0000 </r>
       <r>   -0.2171    1.0000 </r>
       <r>   -0.1859    1.0000 </r>
       <r>    0.0008    1.0000 </r>
       <r>    0.0602    1.0000 </r>
       <r>    0.1122    1.0000 </r>
       <r>    0.2307    1.0000 </r>
       <r>    0.2820    1.0000 </r>
       <r>    0.4517    1.0000 </r>
       <r>    0.5002    1.0000 </r>
       <r>    0.6436    1.0000 </r>
       <r>    0.8682    1.0000 </r>
       <r>    2.9331    0.0000 </r>
       <r>    3.5023    0.0000 </r>
       <r>    3.6073    0.0000 </r>
       <r>    3.7846    0.0000 </r>
       <r>    3.9700    0.0000 </r>
       <r>    4.0035    0.0000 </r>
       <r>    4.0760    0.0000 </r>
       <r>    4.1130    0.0000 </r>
       <r>    4.1620    0.0000 </r>
       <r>    4.3455    0.0000 </r>
       <r>    4.5129    0.0000 </r>
       <r>    4.6310    0.0000 </r>
      </set>
      <set comment="kpoint 7">
       <r>  -32.5074    1.0000 </r>
       <r>  -31.8410    1.0000 </r>
       <r>  -31.8083    1.0000 </r>
       <r>  -31.5600    1.0000 </r>
       <r>  -16.4541    1.0000 </r>
       <r>  -16.1194    1.0000 </r>
       <r>  -15.8745    1.0000 </r>
       <r>  -15.7138    1.0000 </r>
       <r>  -15.5416    1.0000 </r>
       <r>  -15.4090    1.0000 </r>
       <r>  -15.3327    1.0000 </r>
       <r>  -15.2679    1.0000 </r>
       <r>  -15.2518    1.0000 </r>
       <r>  -15.1764    1.0000 </r>
       <r>  -15.0285    1.0000 </r>
       <r>  -14.8233    1.0000 </r>
       <r>  -14.5290    1.0000 </r>
       <r>  -14.3396    1.0000 </r>
       <r>  -13.9076    1.0000 </r>
       <r>  -13.8399    1.0000 </r>
       <r>  -13.7481    1.0000 </r>
       <r>  -13.6374    1.0000 </r>
       <r>  -13.6187    1.0000 </r>
       <r>  -13.5454    1.0000 </r>
       <r>  -13.5360    1.0000 </r>
       <r>  -13.4911    1.0000 </r>
       <r>  -13.4290    1.0000 </r>
       <r>  -13.2451    1.0000 </r>
       <r>   -3.4063    1.0000 </r>
       <r>   -3.2327    1.0000 </r>
       <r>   -3.1794    1.0000 </r>
       <r>   -3.0524    1.0000 </r>
       <r>   -2.9966    1.0000 </r>
       <r>   -2.8599    1.0000 </r>
       <r>   -2.7266    1.0000 </r>
       <r>   -2.4852    1.0000 </r>
       <r>   -2.3437    1.0000 </r>
       <r>   -2.1699    1.0000 </r>
       <r>   -2.0629    1.0000 </r>
       <r>   -2.0034    1.0000 </r>
       <r>   -1.9770    1.0000 </r>
       <r>   -1.8880    1.0000 </r>
       <r>   -1.7932    1.0000 </r>
       <r>   -1.7163    1.0000 </r>
       <r>   -1.5945    1.0000 </r>
       <r>   -1.4104    1.0000 </r>
       <r>   -1.2566    1.0000 </r>
       <r>   -1.2485    1.0000 </r>
       <r>   -1.0632    1.0000 </r>
       <r>   -0.9137    1.0000 </r>
       <r>   -0.6492    1.0000 </r>
       <r>   -0.5400    1.0000 </r>
       <r>   -0.3145    1.0000 </r>
       <r>   -0.2242    1.0000 </r>
       <r>   -0.1963    1.0000 </r>
       <r>   -0.0639    1.0000 </r>
       <r>   -0.0348    1.0000 </r>
       <r>    0.0431    1.0000 </r>
       <r>    0.1574    1.0000 </r>
       <r>    0.2108    1.0000 </r>
       <r>    0.3718    1.0000 </r>
       <r>    0.5734    1.0000 </r>
       <r>    0.6058    1.0000 </r>
       <r>    1.0040    1.0000 </r>
       <r>    2.9675    0.0000 </r>
       <r>    3.5487    0.0000 </r>
       <r>    4.0353    0.0000 </r>
       <r>    4.2507    0.0000 </r>
       <r>    4.2591    0.0000 </r>
       <r>    4.4077    0.0000 </r>
       <r>    4.5398    0.0000 </r>
       <r>    4.5654    0.0000 </r>
       <r>    4.6281    0.0000 </r>
       <r>    4.8080    0.0000 </r>
       <r>    4.9387    0.0000 </r>
       <r>    8.4826    0.0000 </r>
      </set>
      <set comment="kpoint 8">
       <r>  -32.5064    1.0000 </r>
       <r>  -31.8398    1.0000 </r>
       <r>  -31.8072    1.0000 </r>
       <r>  -31.5588    1.0000 </r>
       <r>  -16.2963    1.0000 </r>
       <r>  -15.9711    1.0000 </r>
       <r>  -15.8089    1.0000 </r>
       <r>  -15.7344    1.0000 </r>
       <r>  -15.5689    1.0000 </r>
       <r>  -15.3730    1.0000 </r>
       <r>  -15.3017    1.0000 </r>
       <r>  -15.2556    1.0000 </r>
       <r>  -15.1579    1.0000 </r>
       <r>  -15.1516    1.0000 </r>
       <r>  -15.0320    1.0000 </r>
       <r>  -14.8988    1.0000 </r>
       <r>  -14.4753    1.0000 </r>
       <r>  -14.3897    1.0000 </r>
       <r>  -13.9287    1.0000 </r>
       <r>  -13.8471    1.0000 </r>
       <r>  -13.7708    1.0000 </r>
       <r>  -13.7649    1.0000 </r>
       <r>  -13.7048    1.0000 </r>
       <r>  -13.6584    1.0000 </r>
       <r>  -13.6029    1.0000 </r>
       <r>  -13.5285    1.0000 </r>
       <r>  -13.4629    1.0000 </r>
       <r>  -13.3398    1.0000 </r>
       <r>   -3.2317    1.0000 </r>
       <r>   -2.9973    1.0000 </r>
       <r>   -2.9816    1.0000 </r>
       <r>   -2.7226    1.0000 </r>
       <r>   -2.6234    1.0000 </r>
       <r>   -2.5262    1.0000 </r>
       <r>   -2.4591    1.0000 </r>
       <r>   -2.3851    1.0000 </r>
       <r>   -2.3433    1.0000 </r>
       <r>   -2.3392    1.0000 </r>
       <r>   -2.3388    1.0000 </r>
       <r>   -2.2564    1.0000 </r>
       <r>   -2.1422    1.0000 </r>
       <r>   -2.1066    1.0000 </r>
       <r>   -2.0477    1.0000 </r>
       <r>   -1.9389    1.0000 </r>
       <r>   -1.8786    1.0000 </r>
       <r>   -1.8163    1.0000 </r>
       <r>   -1.7382    1.0000 </r>
       <r>   -1.5985    1.0000 </r>
       <r>   -1.5191    1.0000 </r>
       <r>   -1.2117    1.0000 </r>
       <r>   -0.9360    1.0000 </r>
       <r>   -0.4154    1.0000 </r>
       <r>   -0.1961    1.0000 </r>
       <r>   -0.1217    1.0000 </r>
       <r>    0.0435    1.0000 </r>
       <r>    0.1304    1.0000 </r>
       <r>    0.2952    1.0000 </r>
       <r>    0.3199    1.0000 </r>
       <r>    0.4050    1.0000 </r>
       <r>    0.5282    1.0000 </r>
       <r>    0.6242    1.0000 </r>
       <r>    0.7506    1.0000 </r>
       <r>    0.8783    1.0000 </r>
       <r>    0.9053    1.0000 </r>
       <r>    3.4569    0.0000 </r>
       <r>    3.7656    0.0000 </r>
       <r>    3.9786    0.0000 </r>
       <r>    4.1042    0.0000 </r>
       <r>    4.1654    0.0000 </r>
       <r>    4.3205    0.0000 </r>
       <r>    4.3426    0.0000 </r>
       <r>    4.4025    0.0000 </r>
       <r>    4.4348    0.0000 </r>
       <r>    4.6978    0.0000 </r>
       <r>    4.7176    0.0000 </r>
       <r>    4.8258    0.0000 </r>
      </set>
      <set comment="kpoint 9">
       <r>  -32.5014    1.0000 </r>
       <r>  -31.8339    1.0000 </r>
       <r>  -31.8014    1.0000 </r>
       <r>  -31.5530    1.0000 </r>
       <r>  -16.2270    1.0000 </r>
       <r>  -15.8973    1.0000 </r>
       <r>  -15.6717    1.0000 </r>
       <r>  -15.5764    1.0000 </r>
       <r>  -15.5149    1.0000 </r>
       <r>  -15.3273    1.0000 </r>
       <r>  -15.3167    1.0000 </r>
       <r>  -15.2300    1.0000 </r>
       <r>  -15.1390    1.0000 </r>
       <r>  -15.1205    1.0000 </r>
       <r>  -15.0342    1.0000 </r>
       <r>  -14.7579    1.0000 </r>
       <r>  -14.5783    1.0000 </r>
       <r>  -14.3558    1.0000 </r>
       <r>  -13.9693    1.0000 </r>
       <r>  -13.8813    1.0000 </r>
       <r>  -13.8136    1.0000 </r>
       <r>  -13.7687    1.0000 </r>
       <r>  -13.7328    1.0000 </r>
       <r>  -13.7172    1.0000 </r>
       <r>  -13.6200    1.0000 </r>
       <r>  -13.5298    1.0000 </r>
       <r>  -13.4877    1.0000 </r>
       <r>  -13.3582    1.0000 </r>
       <r>   -3.4166    1.0000 </r>
       <r>   -3.1920    1.0000 </r>
       <r>   -3.1070    1.0000 </r>
       <r>   -3.0088    1.0000 </r>
       <r>   -2.9339    1.0000 </r>
       <r>   -2.9010    1.0000 </r>
       <r>   -2.8681    1.0000 </r>
       <r>   -2.6879    1.0000 </r>
       <r>   -2.6456    1.0000 </r>
       <r>   -2.5533    1.0000 </r>
       <r>   -2.3833    1.0000 </r>
       <r>   -2.3626    1.0000 </r>
       <r>   -2.3457    1.0000 </r>
       <r>   -2.3122    1.0000 </r>
       <r>   -2.2234    1.0000 </r>
       <r>   -2.1205    1.0000 </r>
       <r>   -2.1089    1.0000 </r>
       <r>   -1.9798    1.0000 </r>
       <r>   -1.9148    1.0000 </r>
       <r>   -1.7365    1.0000 </r>
       <r>   -1.5393    1.0000 </r>
       <r>   -1.4942    1.0000 </r>
       <r>   -1.0196    1.0000 </r>
       <r>   -0.4017    1.0000 </r>
       <r>   -0.2402    1.0000 </r>
       <r>   -0.0488    1.0000 </r>
       <r>    0.0906    1.0000 </r>
       <r>    0.1643    1.0000 </r>
       <r>    0.3665    1.0000 </r>
       <r>    0.3905    1.0000 </r>
       <r>    0.5141    1.0000 </r>
       <r>    0.6553    1.0000 </r>
       <r>    0.7621    1.0000 </r>
       <r>    0.7719    1.0000 </r>
       <r>    1.0171    1.0000 </r>
       <r>    1.0435    1.0000 </r>
       <r>    3.5906    0.0000 </r>
       <r>    4.0555    0.0000 </r>
       <r>    4.1601    0.0000 </r>
       <r>    4.3503    0.0000 </r>
       <r>    4.4229    0.0000 </r>
       <r>    4.4530    0.0000 </r>
       <r>    4.4769    0.0000 </r>
       <r>    4.7309    0.0000 </r>
       <r>    4.7496    0.0000 </r>
       <r>    4.8510    0.0000 </r>
       <r>    5.0165    0.0000 </r>
       <r>    5.0642    0.0000 </r>
      </set>
      <set comment="kpoint 10">
       <r>  -32.4965    1.0000 </r>
       <r>  -31.8282    1.0000 </r>
       <r>  -31.7958    1.0000 </r>
       <r>  -31.5474    1.0000 </r>
       <r>  -15.9839    1.0000 </r>
       <r>  -15.6685    1.0000 </r>
       <r>  -15.6174    1.0000 </r>
       <r>  -15.5223    1.0000 </r>
       <r>  -15.3950    1.0000 </r>
       <r>  -15.3513    1.0000 </r>
       <r>  -15.2438    1.0000 </r>
       <r>  -15.1856    1.0000 </r>
       <r>  -15.1146    1.0000 </r>
       <r>  -15.0376    1.0000 </r>
       <r>  -15.0041    1.0000 </r>
       <r>  -14.7212    1.0000 </r>
       <r>  -14.4871    1.0000 </r>
       <r>  -14.3863    1.0000 </r>
       <r>  -14.0386    1.0000 </r>
       <r>  -13.9927    1.0000 </r>
       <r>  -13.9543    1.0000 </r>
       <r>  -13.9470    1.0000 </r>
       <r>  -13.8252    1.0000 </r>
       <r>  -13.7084    1.0000 </r>
       <r>  -13.7000    1.0000 </r>
       <r>  -13.6232    1.0000 </r>
       <r>  -13.4501    1.0000 </r>
       <r>  -13.4234    1.0000 </r>
       <r>   -3.5345    1.0000 </r>
       <r>   -3.3111    1.0000 </r>
       <r>   -3.2646    1.0000 </r>
       <r>   -3.1776    1.0000 </r>
       <r>   -3.1711    1.0000 </r>
       <r>   -3.0389    1.0000 </r>
       <r>   -2.9669    1.0000 </r>
       <r>   -2.9336    1.0000 </r>
       <r>   -2.9193    1.0000 </r>
       <r>   -2.8977    1.0000 </r>
       <r>   -2.7054    1.0000 </r>
       <r>   -2.6566    1.0000 </r>
       <r>   -2.6166    1.0000 </r>
       <r>   -2.5682    1.0000 </r>
       <r>   -2.4372    1.0000 </r>
       <r>   -2.3054    1.0000 </r>
       <r>   -2.2686    1.0000 </r>
       <r>   -2.2279    1.0000 </r>
       <r>   -1.8624    1.0000 </r>
       <r>   -1.8421    1.0000 </r>
       <r>   -1.7080    1.0000 </r>
       <r>   -1.6127    1.0000 </r>
       <r>   -1.2778    1.0000 </r>
       <r>   -0.2933    1.0000 </r>
       <r>   -0.2268    1.0000 </r>
       <r>    0.0129    1.0000 </r>
       <r>    0.1922    1.0000 </r>
       <r>    0.2422    1.0000 </r>
       <r>    0.5708    1.0000 </r>
       <r>    0.6164    1.0000 </r>
       <r>    0.7085    1.0000 </r>
       <r>    0.9570    1.0000 </r>
       <r>    0.9881    1.0000 </r>
       <r>    1.0429    1.0000 </r>
       <r>    1.1426    1.0000 </r>
       <r>    1.3619    1.0000 </r>
       <r>    4.1895    0.0000 </r>
       <r>    4.2361    0.0000 </r>
       <r>    4.5186    0.0000 </r>
       <r>    4.6582    0.0000 </r>
       <r>    4.7306    0.0000 </r>
       <r>    4.7793    0.0000 </r>
       <r>    5.1054    0.0000 </r>
       <r>    5.1289    0.0000 </r>
       <r>    5.1691    0.0000 </r>
       <r>    8.1646    0.0000 </r>
       <r>    8.1967    0.0000 </r>
       <r>    8.4691    0.0000 </r>
      </set>
     </set>
    </set>
   </array>
  </eigenvalues>
  <separator name="orbital magnetization" >
   <v name="MAGDIPOLOUT">      0.00000000      0.00000000      0.00000000</v>
  </separator>
  <dos>
   <i name="efermi">      1.43609809 </i>
   <total>
    <array>
     <dimension dim="1">gridpoints</dimension>
     <dimension dim="2">spin</dimension>
     <field>energy</field>
     <field>total</field>
     <field>integrated</field>
     <set>
      <set comment="spin 1">
       <r>   -34.5753     0.0000     0.0000 </r>
       <r>   -34.4250     0.0000     0.0000 </r>
       <r>   -34.2746     0.0000     0.0000 </r>
       <r>   -34.1242     0.0000     0.0000 </r>
       <r>   -33.9739     0.0000     0.0000 </r>
       <r>   -33.8235     0.0000     0.0000 </r>
       <r>   -33.6732     0.0000     0.0000 </r>
       <r>   -33.5228     0.0000     0.0000 </r>
       <r>   -33.3724     0.0000     0.0000 </r>
       <r>   -33.2221     0.0000     0.0000 </r>
       <r>   -33.0717     0.0000     0.0000 </r>
       <r>   -32.9213     0.0000     0.0000 </r>
       <r>   -32.7710     0.0000     0.0000 </r>
       <r>   -32.6206     0.0000     0.0000 </r>
       <r>   -32.4703     0.0000     2.0000 </r>
       <r>   -32.3199     0.0000     2.0000 </r>
       <r>   -32.1695     0.0000     2.0000 </r>
       <r>   -32.0192     0.0000     2.0000 </r>
       <r>   -31.8688     0.0000     2.0000 </r>
       <r>   -31.7185     0.0000     6.0000 </r>
       <r>   -31.5681    62.3123     6.5186 </r>
       <r>   -31.4177     0.0000     8.0000 </r>
       <r>   -31.2674     0.0000     8.0000 </r>
       <r>   -31.1170     0.0000     8.0000 </r>
       <r>   -30.9667     0.0000     8.0000 </r>
       <r>   -30.8163     0.0000     8.0000 </r>
       <r>   -30.6659     0.0000     8.0000 </r>
       <r>   -30.5156     0.0000     8.0000 </r>
       <r>   -30.3652     0.0000     8.0000 </r>
       <r>   -30.2149     0.0000     8.0000 </r>
       <r>   -30.0645     0.0000     8.0000 </r>
       <r>   -29.9141     0.0000     8.0000 </r>
       <r>   -29.7638     0.0000     8.0000 </r>
       <r>   -29.6134     0.0000     8.0000 </r>
       <r>   -29.4630     0.0000     8.0000 </r>
       <r>   -29.3127     0.0000     8.0000 </r>
       <r>   -29.1623     0.0000     8.0000 </r>
       <r>   -29.0120     0.0000     8.0000 </r>
       <r>   -28.8616     0.0000     8.0000 </r>
       <r>   -28.7112     0.0000     8.0000 </r>
       <r>   -28.5609     0.0000     8.0000 </r>
       <r>   -28.4105     0.0000     8.0000 </r>
       <r>   -28.2602     0.0000     8.0000 </r>
       <r>   -28.1098     0.0000     8.0000 </r>
       <r>   -27.9594     0.0000     8.0000 </r>
       <r>   -27.8091     0.0000     8.0000 </r>
       <r>   -27.6587     0.0000     8.0000 </r>
       <r>   -27.5084     0.0000     8.0000 </r>
       <r>   -27.3580     0.0000     8.0000 </r>
       <r>   -27.2076     0.0000     8.0000 </r>
       <r>   -27.0573     0.0000     8.0000 </r>
       <r>   -26.9069     0.0000     8.0000 </r>
       <r>   -26.7566     0.0000     8.0000 </r>
       <r>   -26.6062     0.0000     8.0000 </r>
       <r>   -26.4558     0.0000     8.0000 </r>
       <r>   -26.3055     0.0000     8.0000 </r>
       <r>   -26.1551     0.0000     8.0000 </r>
       <r>   -26.0048     0.0000     8.0000 </r>
       <r>   -25.8544     0.0000     8.0000 </r>
       <r>   -25.7040     0.0000     8.0000 </r>
       <r>   -25.5537     0.0000     8.0000 </r>
       <r>   -25.4033     0.0000     8.0000 </r>
       <r>   -25.2529     0.0000     8.0000 </r>
       <r>   -25.1026     0.0000     8.0000 </r>
       <r>   -24.9522     0.0000     8.0000 </r>
       <r>   -24.8019     0.0000     8.0000 </r>
       <r>   -24.6515     0.0000     8.0000 </r>
       <r>   -24.5011     0.0000     8.0000 </r>
       <r>   -24.3508     0.0000     8.0000 </r>
       <r>   -24.2004     0.0000     8.0000 </r>
       <r>   -24.0501     0.0000     8.0000 </r>
       <r>   -23.8997     0.0000     8.0000 </r>
       <r>   -23.7493     0.0000     8.0000 </r>
       <r>   -23.5990     0.0000     8.0000 </r>
       <r>   -23.4486     0.0000     8.0000 </r>
       <r>   -23.2983     0.0000     8.0000 </r>
       <r>   -23.1479     0.0000     8.0000 </r>
       <r>   -22.9975     0.0000     8.0000 </r>
       <r>   -22.8472     0.0000     8.0000 </r>
       <r>   -22.6968     0.0000     8.0000 </r>
       <r>   -22.5465     0.0000     8.0000 </r>
       <r>   -22.3961     0.0000     8.0000 </r>
       <r>   -22.2457     0.0000     8.0000 </r>
       <r>   -22.0954     0.0000     8.0000 </r>
       <r>   -21.9450     0.0000     8.0000 </r>
       <r>   -21.7946     0.0000     8.0000 </r>
       <r>   -21.6443     0.0000     8.0000 </r>
       <r>   -21.4939     0.0000     8.0000 </r>
       <r>   -21.3436     0.0000     8.0000 </r>
       <r>   -21.1932     0.0000     8.0000 </r>
       <r>   -21.0428     0.0000     8.0000 </r>
       <r>   -20.8925     0.0000     8.0000 </r>
       <r>   -20.7421     0.0000     8.0000 </r>
       <r>   -20.5918     0.0000     8.0000 </r>
       <r>   -20.4414     0.0000     8.0000 </r>
       <r>   -20.2910     0.0000     8.0000 </r>
       <r>   -20.1407     0.0000     8.0000 </r>
       <r>   -19.9903     0.0000     8.0000 </r>
       <r>   -19.8400     0.0000     8.0000 </r>
       <r>   -19.6896     0.0000     8.0000 </r>
       <r>   -19.5392     0.0000     8.0000 </r>
       <r>   -19.3889     0.0000     8.0000 </r>
       <r>   -19.2385     0.0000     8.0000 </r>
       <r>   -19.0882     0.0000     8.0000 </r>
       <r>   -18.9378     0.0000     8.0000 </r>
       <r>   -18.7874     0.0000     8.0000 </r>
       <r>   -18.6371     0.0000     8.0000 </r>
       <r>   -18.4867     0.0000     8.0000 </r>
       <r>   -18.3363     0.0000     8.0000 </r>
       <r>   -18.1860     0.0000     8.0000 </r>
       <r>   -18.0356     0.0000     8.0000 </r>
       <r>   -17.8853     0.0000     8.0000 </r>
       <r>   -17.7349     0.0000     8.0000 </r>
       <r>   -17.5845     0.0000     8.0000 </r>
       <r>   -17.4342     0.0000     8.0000 </r>
       <r>   -17.2838     0.0000     8.0000 </r>
       <r>   -17.1335     0.0000     8.0000 </r>
       <r>   -16.9831     0.0000     8.0000 </r>
       <r>   -16.8327     0.0000     8.0000 </r>
       <r>   -16.6824     0.0000     8.0000 </r>
       <r>   -16.5320     5.0879     8.0761 </r>
       <r>   -16.3817     3.6296     9.2581 </r>
       <r>   -16.2313     5.7456     9.8877 </r>
       <r>   -16.0809     8.5496    11.2448 </r>
       <r>   -15.9306    11.5904    13.1242 </r>
       <r>   -15.7802     8.6438    14.3704 </r>
       <r>   -15.6299     6.3331    15.5121 </r>
       <r>   -15.4795     9.3082    18.0546 </r>
       <r>   -15.3291    32.9286    21.2969 </r>
       <r>   -15.1788    36.9189    25.3841 </r>
       <r>   -15.0284    35.1343    29.4204 </r>
       <r>   -14.8781     5.1169    30.0530 </r>
       <r>   -14.7277     6.7505    31.7871 </r>
       <r>   -14.5773     7.2646    31.9853 </r>
       <r>   -14.4270    17.6757    34.0779 </r>
       <r>   -14.2766     0.0000    36.0000 </r>
       <r>   -14.1262     0.2222    36.0078 </r>
       <r>   -13.9759     7.2089    36.4090 </r>
       <r>   -13.8255    13.4758    40.8699 </r>
       <r>   -13.6752    30.4407    45.3302 </r>
       <r>   -13.5248    31.8934    51.0095 </r>
       <r>   -13.3744    12.6769    54.1436 </r>
       <r>   -13.2241     4.7919    55.8638 </r>
       <r>   -13.0737     0.0000    56.0000 </r>
       <r>   -12.9234     0.0000    56.0000 </r>
       <r>   -12.7730     0.0000    56.0000 </r>
       <r>   -12.6226     0.0000    56.0000 </r>
       <r>   -12.4723     0.0000    56.0000 </r>
       <r>   -12.3219     0.0000    56.0000 </r>
       <r>   -12.1716     0.0000    56.0000 </r>
       <r>   -12.0212     0.0000    56.0000 </r>
       <r>   -11.8708     0.0000    56.0000 </r>
       <r>   -11.7205     0.0000    56.0000 </r>
       <r>   -11.5701     0.0000    56.0000 </r>
       <r>   -11.4198     0.0000    56.0000 </r>
       <r>   -11.2694     0.0000    56.0000 </r>
       <r>   -11.1190     0.0000    56.0000 </r>
       <r>   -10.9687     0.0000    56.0000 </r>
       <r>   -10.8183     0.0000    56.0000 </r>
       <r>   -10.6679     0.0000    56.0000 </r>
       <r>   -10.5176     0.0000    56.0000 </r>
       <r>   -10.3672     0.0000    56.0000 </r>
       <r>   -10.2169     0.0000    56.0000 </r>
       <r>   -10.0665     0.0000    56.0000 </r>
       <r>    -9.9161     0.0000    56.0000 </r>
       <r>    -9.7658     0.0000    56.0000 </r>
       <r>    -9.6154     0.0000    56.0000 </r>
       <r>    -9.4651     0.0000    56.0000 </r>
       <r>    -9.3147     0.0000    56.0000 </r>
       <r>    -9.1643     0.0000    56.0000 </r>
       <r>    -9.0140     0.0000    56.0000 </r>
       <r>    -8.8636     0.0000    56.0000 </r>
       <r>    -8.7133     0.0000    56.0000 </r>
       <r>    -8.5629     0.0000    56.0000 </r>
       <r>    -8.4125     0.0000    56.0000 </r>
       <r>    -8.2622     0.0000    56.0000 </r>
       <r>    -8.1118     0.0000    56.0000 </r>
       <r>    -7.9615     0.0000    56.0000 </r>
       <r>    -7.8111     0.0000    56.0000 </r>
       <r>    -7.6607     0.0000    56.0000 </r>
       <r>    -7.5104     0.0000    56.0000 </r>
       <r>    -7.3600     0.0000    56.0000 </r>
       <r>    -7.2096     0.0000    56.0000 </r>
       <r>    -7.0593     0.0000    56.0000 </r>
       <r>    -6.9089     0.0000    56.0000 </r>
       <r>    -6.7586     0.0000    56.0000 </r>
       <r>    -6.6082     0.0000    56.0000 </r>
       <r>    -6.4578     0.0000    56.0000 </r>
       <r>    -6.3075     0.0000    56.0000 </r>
       <r>    -6.1571     0.0000    56.0000 </r>
       <r>    -6.0068     0.0000    56.0000 </r>
       <r>    -5.8564     0.0000    56.0000 </r>
       <r>    -5.7060     0.0000    56.0000 </r>
       <r>    -5.5557     0.0000    56.0000 </r>
       <r>    -5.4053     0.0000    56.0000 </r>
       <r>    -5.2550     0.0000    56.0000 </r>
       <r>    -5.1046     0.0000    56.0000 </r>
       <r>    -4.9542     0.0000    56.0000 </r>
       <r>    -4.8039     0.0000    56.0000 </r>
       <r>    -4.6535     0.0000    56.0000 </r>
       <r>    -4.5032     0.0000    56.0000 </r>
       <r>    -4.3528     0.0000    56.0000 </r>
       <r>    -4.2024     0.0000    56.0000 </r>
       <r>    -4.0521     0.0000    56.0000 </r>
       <r>    -3.9017     0.0000    56.0000 </r>
       <r>    -3.7514     0.0000    56.0000 </r>
       <r>    -3.6010     0.0000    56.0000 </r>
       <r>    -3.4506     2.2613    56.1937 </r>
       <r>    -3.3003     7.1136    57.1854 </r>
       <r>    -3.1499    10.7695    59.4742 </r>
       <r>    -2.9995    10.0174    61.3635 </r>
       <r>    -2.8492    12.6317    64.0510 </r>
       <r>    -2.6988    12.5996    66.1508 </r>
       <r>    -2.5485    14.2717    68.3864 </r>
       <r>    -2.3981    16.9621    70.9378 </r>
       <r>    -2.2477    21.1905    73.9209 </r>
       <r>    -2.0974    21.2724    77.2158 </r>
       <r>    -1.9470    20.1592    80.4322 </r>
       <r>    -1.7967    19.8128    83.7096 </r>
       <r>    -1.6463    18.1457    86.6880 </r>
       <r>    -1.4959    15.3968    89.4959 </r>
       <r>    -1.3456    11.2258    91.3617 </r>
       <r>    -1.1952    12.9613    93.1775 </r>
       <r>    -1.0449    12.2905    95.1980 </r>
       <r>    -0.8945    13.1016    97.0923 </r>
       <r>    -0.7441     8.6037    99.0314 </r>
       <r>    -0.5938     6.0551   100.3823 </r>
       <r>    -0.4434    11.4242   102.0298 </r>
       <r>    -0.2931    17.9414   104.4459 </r>
       <r>    -0.1427    20.1314   107.8304 </r>
       <r>     0.0077    26.7626   110.8813 </r>
       <r>     0.1580    24.1240   114.1934 </r>
       <r>     0.3084    12.3457   117.2162 </r>
       <r>     0.4588    15.8671   119.5939 </r>
       <r>     0.6091    18.8462   122.4214 </r>
       <r>     0.7595     9.7944   124.3246 </r>
       <r>     0.9098     9.1744   126.0169 </r>
       <r>     1.0602     3.2297   127.5344 </r>
       <r>     1.2106     0.8046   127.8595 </r>
       <r>     1.3609     0.5146   127.9587 </r>
       <r>     1.5113     0.0000   128.0000 </r>
       <r>     1.6616     0.0000   128.0000 </r>
       <r>     1.8120     0.0000   128.0000 </r>
       <r>     1.9624     0.0000   128.0000 </r>
       <r>     2.1127     0.0000   128.0000 </r>
       <r>     2.2631     0.0000   128.0000 </r>
       <r>     2.4134     0.0000   128.0000 </r>
       <r>     2.5638     0.9816   128.0158 </r>
       <r>     2.7142     3.6844   128.3916 </r>
       <r>     2.8645     3.8418   128.9478 </r>
       <r>     3.0149     3.0268   129.5072 </r>
       <r>     3.1652     3.4609   129.9876 </r>
       <r>     3.3156     5.7164   130.6117 </r>
       <r>     3.4660     7.8049   131.7293 </r>
       <r>     3.6163     7.5466   132.9270 </r>
       <r>     3.7667     8.2488   134.1087 </r>
       <r>     3.9171    10.6995   135.5302 </r>
       <r>     4.0674    13.5409   137.3249 </r>
       <r>     4.2178    16.9513   139.5782 </r>
       <r>     4.3681    13.2608   141.9563 </r>
       <r>     4.5185    17.3120   144.1464 </r>
       <r>     4.6689     9.8049   146.0666 </r>
       <r>     4.8192     9.8678   147.5719 </r>
       <r>     4.9696     5.3717   148.5644 </r>
       <r>     5.1199     1.7111   149.0664 </r>
       <r>     5.2703     0.8437   149.2996 </r>
       <r>     5.4207     0.8344   149.4258 </r>
       <r>     5.5710     0.8250   149.5505 </r>
       <r>     5.7214     0.8157   149.6739 </r>
       <r>     5.8717     0.8063   149.7958 </r>
       <r>     6.0221     0.7970   149.9164 </r>
       <r>     6.1725     0.7876   150.0355 </r>
       <r>     6.3228     0.7783   150.1532 </r>
       <r>     6.4732     0.7689   150.2696 </r>
       <r>     6.6235     0.9027   150.3930 </r>
       <r>     6.7739     1.1231   150.5421 </r>
       <r>     6.9243     1.4474   150.7425 </r>
       <r>     7.0746     1.2706   150.9561 </r>
       <r>     7.2250     0.9649   151.1242 </r>
       <r>     7.3754     0.7503   151.2497 </r>
       <r>     7.5257     0.5755   151.3502 </r>
       <r>     7.6761     0.3872   151.4225 </r>
       <r>     7.8264     0.4041   151.4820 </r>
       <r>     7.9768     0.4209   151.5440 </r>
       <r>     8.1272     0.4378   151.6086 </r>
       <r>     8.2775     0.3584   151.7478 </r>
       <r>     8.4279     1.0320   151.9055 </r>
       <r>     8.5782     0.0000   152.0000 </r>
       <r>     8.7286     0.0000   152.0000 </r>
       <r>     8.8790     0.0000   152.0000 </r>
       <r>     9.0293     0.0000   152.0000 </r>
       <r>     9.1797     0.0000   152.0000 </r>
       <r>     9.3300     0.0000   152.0000 </r>
       <r>     9.4804     0.0000   152.0000 </r>
       <r>     9.6308     0.0000   152.0000 </r>
       <r>     9.7811     0.0000   152.0000 </r>
       <r>     9.9315     0.0000   152.0000 </r>
       <r>    10.0818     0.0000   152.0000 </r>
       <r>    10.2322     0.0000   152.0000 </r>
       <r>    10.3826     0.0000   152.0000 </r>
       <r>    10.5329     0.0000   152.0000 </r>
      </set>
     </set>
    </array>
   </total>
  </dos>
 </calculation>
 <structure name="finalpos" >
  <crystal>
   <varray name="basis" >
    <v>       3.94684634       0.00000000       0.00000000 </v>
    <v>       0.00000000       3.94684634       0.00000000 </v>
    <v>       0.00000000       0.00000000      19.81396220 </v>
   </varray>
   <i name="volume">    308.65389912 </i>
   <varray name="rec_basis" >
    <v>       0.25336684       0.00000000       0.00000000 </v>
    <v>       0.00000000       0.25336684       0.00000000 </v>
    <v>       0.00000000       0.00000000       0.05046946 </v>
   </varray>
  </crystal>
  <varray name="positions" >
   <v>       0.50000000       0.50000000       0.15140838 </v>
   <v>       0.50000000       0.00000000       0.25100599 </v>
   <v>       0.00000000       0.50000000       0.25100599 </v>
   <v>       0.50000000       0.50000000       0.35060359 </v>
   <v>       0.50000000       0.00000000       0.45020120 </v>
   <v>       0.00000000       0.50000000       0.45020120 </v>
   <v>       0.50000000       0.50000000       0.54979880 </v>
   <v>       0.50000000       0.00000000       0.64939641 </v>
   <v>       0.00000000       0.50000000       0.64939641 </v>
   <v>       0.50000000       0.50000000       0.74899401 </v>
   <v>       0.50000000       0.00000000       0.84859162 </v>
   <v>       0.00000000       0.50000000       0.84859162 </v>
   <v>       0.00000000       0.00000000       0.15140838 </v>
   <v>       0.00000000       0.00000000       0.35060359 </v>
   <v>       0.00000000       0.00000000       0.54979880 </v>
   <v>       0.00000000       0.00000000       0.74899401 </v>
   <v>       0.50000000       0.50000000       0.25100599 </v>
   <v>       0.50000000       0.50000000       0.45020120 </v>
   <v>       0.50000000       0.50000000       0.64939641 </v>
   <v>       0.50000000       0.50000000       0.84859162 </v>
  </varray>
 </structure>
</modeling>
