unknown system                          
           1
     3.946846    0.000000    0.000000
     0.000000    3.946846    0.000000
     0.000000    0.000000   19.813962
   O    Sr   Ti
  12   4   4
Direct configuration=     1
   0.50000000  0.50000000  0.15140838
   0.50000000  0.00000000  0.25100599
   0.00000000  0.50000000  0.25100599
   0.50000000  0.50000000  0.35060359
   0.50000000  0.00000000  0.45020120
   0.00000000  0.50000000  0.45020120
   0.50000000  0.50000000  0.54979880
   0.50000000  0.00000000  0.64939641
   0.00000000  0.50000000  0.64939641
   0.50000000  0.50000000  0.74899401
   0.50000000  0.00000000  0.84859162
   0.00000000  0.50000000  0.84859162
   0.00000000  0.00000000  0.15140838
   0.00000000  0.00000000  0.35060359
   0.00000000  0.00000000  0.54979880
   0.00000000  0.00000000  0.74899401
   0.50000000  0.50000000  0.25100599
   0.50000000  0.50000000  0.45020120
   0.50000000  0.50000000  0.64939641
   0.50000000  0.50000000  0.84859162
