unknown system                          
   4.00000000000000     
     1.000000    0.000000    0.000000
     0.000000    1.000000    0.000000
     0.000000    0.000000    1.000000
   Pt
     4
Direct
  0.000000  0.000000  0.000000
  0.000000  0.500000  0.500000
  0.500000  0.000000  0.500000
  0.500000  0.500000  0.000000
 
   48   48   48
  245.04      240.43      227.78      210.05      190.60      171.74      154.02      136.55      118.13      98.414    
  78.309      59.629      44.132      32.676      24.908      19.603      15.846      13.232      11.405      10.109    
  9.1859      8.5439      8.1260      7.8926      7.8179      7.8926      8.1260      8.5439      9.1859      10.109    
  11.405      13.232      15.846      19.603      24.908      32.676      44.132      59.629      78.309      98.414    
  118.13      136.55      154.02      171.74      190.60      210.05      227.78      240.43      240.43      235.98    
  223.74      206.58      187.70      169.32      151.92      134.67      116.45      96.942      77.111      58.741    
  43.545      32.332      24.725      19.508      15.810      13.235      11.434      10.154      9.2428      8.6088    
  8.1964      7.9663      7.8926      7.9663      8.1964      8.6088      9.2428      10.154      11.434      13.235    
  15.810      19.508      24.725      32.332      43.545      58.741      77.111      96.942      116.45      134.67    
  151.92      169.32      187.70      206.58      223.74      235.98      227.78      223.74      212.64      197.00    
  179.65      162.50      145.97      129.30      111.59      92.705      73.667      56.199      41.871      31.355    
  24.206      19.243      15.717      13.257      11.530      10.300      9.4223      8.8126      8.4169      8.1964    
  8.1260      8.1964      8.4169      8.8126      9.4223      10.300      11.530      13.257      15.717      19.243    
  24.206      31.355      41.871      56.199      73.667      92.705      111.59      129.30      145.97      162.50    
  179.65      197.00      212.64      223.74      210.05      206.58      197.00      183.38      168.03      152.47    
  137.02      121.11      104.12      86.184      68.394      52.337      39.351      29.897      23.433      18.860    
  15.606      13.327      11.719      10.569      9.7489      9.1802      8.8126      8.6088      8.5439      8.6088    
  8.8126      9.1802      9.7489      10.569      11.719      13.327      15.606      18.860      23.433      29.897    
  39.351      52.337      68.394      86.184      104.12      121.11      137.02      152.47      168.03      183.38    
  197.00      206.58      190.60      187.70      179.65      168.03      154.60      140.52      126.06      110.88    
  94.751      78.049      61.880      47.629      36.322      28.167      22.516      18.436      15.531      13.488    
  12.038      10.999      10.259      9.7489      9.4223      9.2428      9.1859      9.2428      9.4223      9.7489    
  10.259      10.999      12.038      13.488      15.531      18.436      22.516      28.167      36.322      47.629    
  61.880      78.049      94.751      110.88      126.06      140.52      154.60      168.03      179.65      187.70    
  171.74      169.32      162.50      152.47      140.52      127.54      113.83      99.359      84.226      69.018    
  54.773      42.591      33.145      26.379      21.571      18.057      15.556      13.789      12.532      11.634    
  10.999      10.569      10.300      10.154      10.109      10.154      10.300      10.569      10.999      11.634    
  12.532      13.789      15.556      18.057      21.571      26.379      33.145      42.591      54.773      69.018    
  84.226      99.359      113.83      127.54      140.52      152.47      162.50      169.32      154.02      151.92    
  145.97      137.02      126.06      113.83      100.76      87.087      73.199      59.769      47.679      37.695    
  30.132      24.704      20.718      17.808      15.742      14.285      13.256      12.532      12.038      11.719    
  11.530      11.434      11.405      11.434      11.530      11.719      12.038      12.532      13.256      14.285    
  15.742      17.808      20.718      24.704      30.132      37.695      47.679      59.769      73.199      87.087    
  100.76      113.83      126.06      137.02      145.97      151.92      136.55      134.67      129.30      121.11    
  110.88      99.359      87.087      74.543      62.262      50.899      41.103      33.300      27.493      23.238    
  20.058      17.765      16.156      15.043      14.285      13.789      13.488      13.327      13.257      13.235    
  13.232      13.235      13.257      13.327      13.488      13.789      14.285      15.043      16.156      17.765    
  20.058      23.238      27.493      33.300      41.103      50.899      62.262      74.543      87.087      99.359    
  110.88      121.11      129.30      134.67      118.13      116.45      111.59      104.12      94.751      84.226    
  73.199      62.262      51.987      42.902      35.402      29.612      25.311      22.061      19.673      17.999    
  16.873      16.156      15.742      15.556      15.531      15.606      15.717      15.810      15.846      15.810    
  15.717      15.606      15.531      15.556      15.742      16.156      16.873      17.999      19.673      22.061    
  25.311      29.612      35.402      42.902      51.987      62.262      73.199      84.226      94.751      104.12    
  111.59      116.45      98.414      96.942      92.705      86.184      78.049      69.018      59.769      50.899    
  42.902      36.136      30.757      26.674      23.569      21.251      19.633      18.589      17.999      17.765    
  17.808      18.057      18.436      18.860      19.243      19.508      19.603      19.508      19.243      18.860    
  18.436      18.057      17.808      17.765      17.999      18.589      19.633      21.251      23.569      26.674    
  30.757      36.136      42.902      50.899      59.769      69.018      78.049      86.184      92.705      96.942    
  78.309      77.111      73.667      68.394      61.880      54.773      47.679      41.103      35.402      30.757    
  27.150      24.378      22.296      20.863      20.003      19.633      19.673      20.058      20.718      21.571    
  22.516      23.433      24.206      24.725      24.908      24.725      24.206      23.433      22.516      21.571    
  20.718      20.058      19.673      19.633      20.003      20.863      22.296      24.378      27.150      30.757    
  35.402      41.103      47.679      54.773      61.880      68.394      73.667      77.111      59.629      58.741    
  56.199      52.337      47.629      42.591      37.695      33.300      29.612      26.674      24.378      22.661    
  21.525      20.939      20.863      21.251      22.061      23.238      24.704      26.379      28.167      29.897    
  31.355      32.332      32.676      32.332      31.355      29.897      28.167      26.379      24.704      23.238    
  22.061      21.251      20.863      20.939      21.525      22.661      24.378      26.674      29.612      33.300    
  37.695      42.591      47.629      52.337      56.199      58.741      44.132      43.545      41.871      39.351    
  36.322      33.145      30.132      27.493      25.311      23.569      22.296      21.525      21.267      21.525    
  22.296      23.569      25.311      27.493      30.132      33.145      36.322      39.351      41.871      43.545    
  44.132      43.545      41.871      39.351      36.322      33.145      30.132      27.493      25.311      23.569    
  22.296      21.525      21.267      21.525      22.296      23.569      25.311      27.493      30.132      33.145    
  36.322      39.351      41.871      43.545      32.676      32.332      31.355      29.897      28.167      26.379    
  24.704      23.238      22.061      21.251      20.863      20.939      21.525      22.661      24.378      26.674    
  29.612      33.300      37.695      42.591      47.629      52.337      56.199      58.741      59.629      58.741    
  56.199      52.337      47.629      42.591      37.695      33.300      29.612      26.674      24.378      22.661    
  21.525      20.939      20.863      21.251      22.061      23.238      24.704      26.379      28.167      29.897    
  31.355      32.332      24.908      24.725      24.206      23.433      22.516      21.571      20.718      20.058    
  19.673      19.633      20.003      20.863      22.296      24.378      27.150      30.757      35.402      41.103    
  47.679      54.773      61.880      68.394      73.667      77.111      78.309      77.111      73.667      68.394    
  61.880      54.773      47.679      41.103      35.402      30.757      27.150      24.378      22.296      20.863    
  20.003      19.633      19.673      20.058      20.718      21.571      22.516      23.433      24.206      24.725    
  19.603      19.508      19.243      18.860      18.436      18.057      17.808      17.765      17.999      18.589    
  19.633      21.251      23.569      26.674      30.757      36.136      42.902      50.899      59.769      69.018    
  78.049      86.184      92.705      96.942      98.414      96.942      92.705      86.184      78.049      69.018    
  59.769      50.899      42.902      36.136      30.757      26.674      23.569      21.251      19.633      18.589    
  17.999      17.765      17.808      18.057      18.436      18.860      19.243      19.508      15.846      15.810    
  15.717      15.606      15.531      15.556      15.742      16.156      16.873      17.999      19.673      22.061    
  25.311      29.612      35.402      42.902      51.987      62.262      73.199      84.226      94.751      104.12    
  111.59      116.45      118.13      116.45      111.59      104.12      94.751      84.226      73.199      62.262    
  51.987      42.902      35.402      29.612      25.311      22.061      19.673      17.999      16.873      16.156    
  15.742      15.556      15.531      15.606      15.717      15.810      13.232      13.235      13.257      13.327    
  13.488      13.789      14.285      15.043      16.156      17.765      20.058      23.238      27.493      33.300    
  41.103      50.899      62.262      74.543      87.087      99.359      110.88      121.11      129.30      134.67    
  136.55      134.67      129.30      121.11      110.88      99.359      87.087      74.543      62.262      50.899    
  41.103      33.300      27.493      23.238      20.058      17.765      16.156      15.043      14.285      13.789    
  13.488      13.327      13.257      13.235      11.405      11.434      11.530      11.719      12.038      12.532    
  13.256      14.285      15.742      17.808      20.718      24.704      30.132      37.695      47.679      59.769    
  73.199      87.087      100.76      113.83      126.06      137.02      145.97      151.92      154.02      151.92    
  145.97      137.02      126.06      113.83      100.76      87.087      73.199      59.769      47.679      37.695    
  30.132      24.704      20.718      17.808      15.742      14.285      13.256      12.532      12.038      11.719    
  11.530      11.434      10.109      10.154      10.300      10.569      10.999      11.634      12.532      13.789    
  15.556      18.057      21.571      26.379      33.145      42.591      54.773      69.018      84.226      99.359    
  113.83      127.54      140.52      152.47      162.50      169.32      171.74      169.32      162.50      152.47    
  140.52      127.54      113.83      99.359      84.226      69.018      54.773      42.591      33.145      26.379    
  21.571      18.057      15.556      13.789      12.532      11.634      10.999      10.569      10.300      10.154    
  9.1859      9.2428      9.4223      9.7489      10.259      10.999      12.038      13.488      15.531      18.436    
  22.516      28.167      36.322      47.629      61.880      78.049      94.751      110.88      126.06      140.52    
  154.60      168.03      179.65      187.70      190.60      187.70      179.65      168.03      154.60      140.52    
  126.06      110.88      94.751      78.049      61.880      47.629      36.322      28.167      22.516      18.436    
  15.531      13.488      12.038      10.999      10.259      9.7489      9.4223      9.2428      8.5439      8.6088    
  8.8126      9.1802      9.7489      10.569      11.719      13.327      15.606      18.860      23.433      29.897    
  39.351      52.337      68.394      86.184      104.12      121.11      137.02      152.47      168.03      183.38    
  197.00      206.58      210.05      206.58      197.00      183.38      168.03      152.47      137.02      121.11    
  104.12      86.184      68.394      52.337      39.351      29.897      23.433      18.860      15.606      13.327    
  11.719      10.569      9.7489      9.1802      8.8126      8.6088      8.1260      8.1964      8.4169      8.8126    
  9.4223      10.300      11.530      13.257      15.717      19.243      24.206      31.355      41.871      56.199    
  73.667      92.705      111.59      129.30      145.97      162.50      179.65      197.00      212.64      223.74    
  227.78      223.74      212.64      197.00      179.65      162.50      145.97      129.30      111.59      92.705    
  73.667      56.199      41.871      31.355      24.206      19.243      15.717      13.257      11.530      10.300    
  9.4223      8.8126      8.4169      8.1964      7.8926      7.9663      8.1964      8.6088      9.2428      10.154    
  11.434      13.235      15.810      19.508      24.725      32.332      43.545      58.741      77.111      96.942    
  116.45      134.67      151.92      169.32      187.70      206.58      223.74      235.98      240.43      235.98    
  223.74      206.58      187.70      169.32      151.92      134.67      116.45      96.942      77.111      58.741    
  43.545      32.332      24.725      19.508      15.810      13.235      11.434      10.154      9.2428      8.6088    
  8.1964      7.9663      7.8179      7.8926      8.1260      8.5439      9.1859      10.109      11.405      13.232    
  15.846      19.603      24.908      32.676      44.132      59.629      78.309      98.414      118.13      136.55    
  154.02      171.74      190.60      210.05      227.78      240.43      245.04      240.43      227.78      210.05    
  190.60      171.74      154.02      136.55      118.13      98.414      78.309      59.629      44.132      32.676    
  24.908      19.603      15.846      13.232      11.405      10.109      9.1859      8.5439      8.1260      7.8926    
  7.8926      7.9663      8.1964      8.6088      9.2428      10.154      11.434      13.235      15.810      19.508    
  24.725      32.332      43.545      58.741      77.111      96.942      116.45      134.67      151.92      169.32    
  187.70      206.58      223.74      235.98      240.43      235.98      223.74      206.58      187.70      169.32    
  151.92      134.67      116.45      96.942      77.111      58.741      43.545      32.332      24.725      19.508    
  15.810      13.235      11.434      10.154      9.2428      8.6088      8.1964      7.9663      8.1260      8.1964    
  8.4169      8.8126      9.4223      10.300      11.530      13.257      15.717      19.243      24.206      31.355    
  41.871      56.199      73.667      92.705      111.59      129.30      145.97      162.50      179.65      197.00    
  212.64      223.74      227.78      223.74      212.64      197.00      179.65      162.50      145.97      129.30    
  111.59      92.705      73.667      56.199      41.871      31.355      24.206      19.243      15.717      13.257    
  11.530      10.300      9.4223      8.8126      8.4169      8.1964      8.5439      8.6088      8.8126      9.1802    
  9.7489      10.569      11.719      13.327      15.606      18.860      23.433      29.897      39.351      52.337    
  68.394      86.184      104.12      121.11      137.02      152.47      168.03      183.38      197.00      206.58    
  210.05      206.58      197.00      183.38      168.03      152.47      137.02      121.11      104.12      86.184    
  68.394      52.337      39.351      29.897      23.433      18.860      15.606      13.327      11.719      10.569    
  9.7489      9.1802      8.8126      8.6088      9.1859      9.2428      9.4223      9.7489      10.259      10.999    
  12.038      13.488      15.531      18.436      22.516      28.167      36.322      47.629      61.880      78.049    
  94.751      110.88      126.06      140.52      154.60      168.03      179.65      187.70      190.60      187.70    
  179.65      168.03      154.60      140.52      126.06      110.88      94.751      78.049      61.880      47.629    
  36.322      28.167      22.516      18.436      15.531      13.488      12.038      10.999      10.259      9.7489    
  9.4223      9.2428      10.109      10.154      10.300      10.569      10.999      11.634      12.532      13.789    
  15.556      18.057      21.571      26.379      33.145      42.591      54.773      69.018      84.226      99.359    
  113.83      127.54      140.52      152.47      162.50      169.32      171.74      169.32      162.50      152.47    
  140.52      127.54      113.83      99.359      84.226      69.018      54.773      42.591      33.145      26.379    
  21.571      18.057      15.556      13.789      12.532      11.634      10.999      10.569      10.300      10.154    
  11.405      11.434      11.530      11.719      12.038      12.532      13.256      14.285      15.742      17.808    
  20.718      24.704      30.132      37.695      47.679      59.769      73.199      87.087      100.76      113.83    
  126.06      137.02      145.97      151.92      154.02      151.92      145.97      137.02      126.06      113.83    
  100.76      87.087      73.199      59.769      47.679      37.695      30.132      24.704      20.718      17.808    
  15.742      14.285      13.256      12.532      12.038      11.719      11.530      11.434      13.232      13.235    
  13.257      13.327      13.488      13.789      14.285      15.043      16.156      17.765      20.058      23.238    
  27.493      33.300      41.103      50.899      62.262      74.543      87.087      99.359      110.88      121.11    
  129.30      134.67      136.55      134.67      129.30      121.11      110.88      99.359      87.087      74.543    
  62.262      50.899      41.103      33.300      27.493      23.238      20.058      17.765      16.156      15.043    
  14.285      13.789      13.488      13.327      13.257      13.235      15.846      15.810      15.717      15.606    
  15.531      15.556      15.742      16.156      16.873      17.999      19.673      22.061      25.311      29.612    
  35.402      42.902      51.987      62.262      73.199      84.226      94.751      104.12      111.59      116.45    
  118.13      116.45      111.59      104.12      94.751      84.226      73.199      62.262      51.987      42.902    
  35.402      29.612      25.311      22.061      19.673      17.999      16.873      16.156      15.742      15.556    
  15.531      15.606      15.717      15.810      19.603      19.508      19.243      18.860      18.436      18.057    
  17.808      17.765      17.999      18.589      19.633      21.251      23.569      26.674      30.757      36.136    
  42.902      50.899      59.769      69.018      78.049      86.184      92.705      96.942      98.414      96.942    
  92.705      86.184      78.049      69.018      59.769      50.899      42.902      36.136      30.757      26.674    
  23.569      21.251      19.633      18.589      17.999      17.765      17.808      18.057      18.436      18.860    
  19.243      19.508      24.908      24.725      24.206      23.433      22.516      21.571      20.718      20.058    
  19.673      19.633      20.003      20.863      22.296      24.378      27.150      30.757      35.402      41.103    
  47.679      54.773      61.880      68.394      73.667      77.111      78.309      77.111      73.667      68.394    
  61.880      54.773      47.679      41.103      35.402      30.757      27.150      24.378      22.296      20.863    
  20.003      19.633      19.673      20.058      20.718      21.571      22.516      23.433      24.206      24.725    
  32.676      32.332      31.355      29.897      28.167      26.379      24.704      23.238      22.061      21.251    
  20.863      20.939      21.525      22.661      24.378      26.674      29.612      33.300      37.695      42.591    
  47.629      52.337      56.199      58.741      59.629      58.741      56.199      52.337      47.629      42.591    
  37.695      33.300      29.612      26.674      24.378      22.661      21.525      20.939      20.863      21.251    
  22.061      23.238      24.704      26.379      28.167      29.897      31.355      32.332      44.132      43.545    
  41.871      39.351      36.322      33.145      30.132      27.493      25.311      23.569      22.296      21.525    
  21.267      21.525      22.296      23.569      25.311      27.493      30.132      33.145      36.322      39.351    
  41.871      43.545      44.132      43.545      41.871      39.351      36.322      33.145      30.132      27.493    
  25.311      23.569      22.296      21.525      21.267      21.525      22.296      23.569      25.311      27.493    
  30.132      33.145      36.322      39.351      41.871      43.545      59.629      58.741      56.199      52.337    
  47.629      42.591      37.695      33.300      29.612      26.674      24.378      22.661      21.525      20.939    
  20.863      21.251      22.061      23.238      24.704      26.379      28.167      29.897      31.355      32.332    
  32.676      32.332      31.355      29.897      28.167      26.379      24.704      23.238      22.061      21.251    
  20.863      20.939      21.525      22.661      24.378      26.674      29.612      33.300      37.695      42.591    
  47.629      52.337      56.199      58.741      78.309      77.111      73.667      68.394      61.880      54.773    
  47.679      41.103      35.402      30.757      27.150      24.378      22.296      20.863      20.003      19.633    
  19.673      20.058      20.718      21.571      22.516      23.433      24.206      24.725      24.908      24.725    
  24.206      23.433      22.516      21.571      20.718      20.058      19.673      19.633      20.003      20.863    
  22.296      24.378      27.150      30.757      35.402      41.103      47.679      54.773      61.880      68.394    
  73.667      77.111      98.414      96.942      92.705      86.184      78.049      69.018      59.769      50.899    
  42.902      36.136      30.757      26.674      23.569      21.251      19.633      18.589      17.999      17.765    
  17.808      18.057      18.436      18.860      19.243      19.508      19.603      19.508      19.243      18.860    
  18.436      18.057      17.808      17.765      17.999      18.589      19.633      21.251      23.569      26.674    
  30.757      36.136      42.902      50.899      59.769      69.018      78.049      86.184      92.705      96.942    
  118.13      116.45      111.59      104.12      94.751      84.226      73.199      62.262      51.987      42.902    
  35.402      29.612      25.311      22.061      19.673      17.999      16.873      16.156      15.742      15.556    
  15.531      15.606      15.717      15.810      15.846      15.810      15.717      15.606      15.531      15.556    
  15.742      16.156      16.873      17.999      19.673      22.061      25.311      29.612      35.402      42.902    
  51.987      62.262      73.199      84.226      94.751      104.12      111.59      116.45      136.55      134.67    
  129.30      121.11      110.88      99.359      87.087      74.543      62.262      50.899      41.103      33.300    
  27.493      23.238      20.058      17.765      16.156      15.043      14.285      13.789      13.488      13.327    
  13.257      13.235      13.232      13.235      13.257      13.327      13.488      13.789      14.285      15.043    
  16.156      17.765      20.058      23.238      27.493      33.300      41.103      50.899      62.262      74.543    
  87.087      99.359      110.88      121.11      129.30      134.67      154.02      151.92      145.97      137.02    
  126.06      113.83      100.76      87.087      73.199      59.769      47.679      37.695      30.132      24.704    
  20.718      17.808      15.742      14.285      13.256      12.532      12.038      11.719      11.530      11.434    
  11.405      11.434      11.530      11.719      12.038      12.532      13.256      14.285      15.742      17.808    
  20.718      24.704      30.132      37.695      47.679      59.769      73.199      87.087      100.76      113.83    
  126.06      137.02      145.97      151.92      171.74      169.32      162.50      152.47      140.52      127.54    
  113.83      99.359      84.226      69.018      54.773      42.591      33.145      26.379      21.571      18.057    
  15.556      13.789      12.532      11.634      10.999      10.569      10.300      10.154      10.109      10.154    
  10.300      10.569      10.999      11.634      12.532      13.789      15.556      18.057      21.571      26.379    
  33.145      42.591      54.773      69.018      84.226      99.359      113.83      127.54      140.52      152.47    
  162.50      169.32      190.60      187.70      179.65      168.03      154.60      140.52      126.06      110.88    
  94.751      78.049      61.880      47.629      36.322      28.167      22.516      18.436      15.531      13.488    
  12.038      10.999      10.259      9.7489      9.4223      9.2428      9.1859      9.2428      9.4223      9.7489    
  10.259      10.999      12.038      13.488      15.531      18.436      22.516      28.167      36.322      47.629    
  61.880      78.049      94.751      110.88      126.06      140.52      154.60      168.03      179.65      187.70    
  210.05      206.58      197.00      183.38      168.03      152.47      137.02      121.11      104.12      86.184    
  68.394      52.337      39.351      29.897      23.433      18.860      15.606      13.327      11.719      10.569    
  9.7489      9.1802      8.8126      8.6088      8.5439      8.6088      8.8126      9.1802      9.7489      10.569    
  11.719      13.327      15.606      18.860      23.433      29.897      39.351      52.337      68.394      86.184    
  104.12      121.11      137.02      152.47      168.03      183.38      197.00      206.58      227.78      223.74    
  212.64      197.00      179.65      162.50      145.97      129.30      111.59      92.705      73.667      56.199    
  41.871      31.355      24.206      19.243      15.717      13.257      11.530      10.300      9.4223      8.8126    
  8.4169      8.1964      8.1260      8.1964      8.4169      8.8126      9.4223      10.300      11.530      13.257    
  15.717      19.243      24.206      31.355      41.871      56.199      73.667      92.705      111.59      129.30    
  145.97      162.50      179.65      197.00      212.64      223.74      240.43      235.98      223.74      206.58    
  187.70      169.32      151.92      134.67      116.45      96.942      77.111      58.741      43.545      32.332    
  24.725      19.508      15.810      13.235      11.434      10.154      9.2428      8.6088      8.1964      7.9663    
  7.8926      7.9663      8.1964      8.6088      9.2428      10.154      11.434      13.235      15.810      19.508    
  24.725      32.332      43.545      58.741      77.111      96.942      116.45      134.67      151.92      169.32    
  187.70      206.58      223.74      235.98      240.43      235.98      223.74      206.58      187.70      169.32    
  151.92      134.67      116.45      96.942      77.111      58.741      43.545      32.332      24.725      19.508    
  15.810      13.235      11.434      10.154      9.2428      8.6088      8.1964      7.9663      7.8926      7.9663    
  8.1964      8.6088      9.2428      10.154      11.434      13.235      15.810      19.508      24.725      32.332    
  43.545      58.741      77.111      96.942      116.45      134.67      151.92      169.32      187.70      206.58    
  223.74      235.98      235.98      231.67      219.83      203.21      184.88      166.94      149.86      132.83    
  114.78      95.494      75.933      57.871      42.970      31.995      24.545      19.415      15.775      13.238    
  11.462      10.199      9.2986      8.6727      8.2658      8.0389      7.9663      8.0389      8.2658      8.6727    
  9.2986      10.199      11.462      13.238      15.775      19.415      24.545      31.995      42.970      57.871    
  75.933      95.494      114.78      132.83      149.86      166.94      184.88      203.21      219.83      231.67    
  223.74      219.83      209.08      193.91      177.03      160.28      144.02      127.54      110.00      91.323    
  72.549      55.378      41.331      31.038      24.034      19.152      15.682      13.258      11.555      10.341    
  9.4751      8.8734      8.4831      8.2658      8.1964      8.2658      8.4831      8.8734      9.4751      10.341    
  11.555      13.258      15.682      19.152      24.034      31.038      41.331      55.378      72.549      91.323    
  110.00      127.54      144.02      160.28      177.03      193.91      209.08      219.83      206.58      203.21    