unknown system                          
   4.00000000000000     
     1.000000    0.000000    0.000000
     0.000000    1.000000    0.000000
     0.000000    0.000000    1.000000
   Pt
     4
Direct
  0.000000  0.000000  0.000000
  0.000000  0.500000  0.500000
  0.500000  0.000000  0.500000
  0.500000  0.500000  0.000000
 
   48   48   48
 0.24504384589E+03 0.24043255620E+03 0.22777822887E+03 0.21004787482E+03 0.19060079783E+03
 0.17174407884E+03 0.15401836264E+03 0.13654529606E+03 0.11813394740E+03 0.98414287424E+02
 0.78309294324E+02 0.59628956782E+02 0.44132314184E+02 0.32675674112E+02 0.24907794712E+02
 0.19603040779E+02 0.15845685208E+02 0.13231635176E+02 0.11404807163E+02 0.10108913375E+02
 0.91858550343E+01 0.85438595547E+01 0.81259784930E+01 0.78925953145E+01 0.78178770095E+01
 0.78925953145E+01 0.81259784930E+01 0.85438595547E+01 0.91858550343E+01 0.10108913375E+02
 0.11404807163E+02 0.13231635176E+02 0.15845685208E+02 0.19603040779E+02 0.24907794712E+02
 0.32675674112E+02 0.44132314184E+02 0.59628956782E+02 0.78309294324E+02 0.98414287424E+02
 0.11813394740E+03 0.13654529606E+03 0.15401836264E+03 0.17174407884E+03 0.19060079783E+03
 0.21004787482E+03 0.22777822887E+03 0.24043255620E+03 0.24043255620E+03 0.23597625242E+03
 0.22374126417E+03 0.20657708585E+03 0.18770253707E+03 0.16931681710E+03 0.15192181667E+03
 0.13467123063E+03 0.11644592769E+03 0.96942434728E+02 0.77110803501E+02 0.58741328558E+02
 0.43545166583E+02 0.32331572324E+02 0.24724698574E+02 0.19508356166E+02 0.15810183318E+02
 0.13235248170E+02 0.11433656381E+02 0.10154382698E+02 0.92427544381E+01 0.86088199727E+01
 0.81964253184E+01 0.79662549547E+01 0.78925953145E+01 0.79662549547E+01 0.81964253184E+01
 0.86088199727E+01 0.92427544381E+01 0.10154382698E+02 0.11433656381E+02 0.13235248170E+02
 0.15810183318E+02 0.19508356166E+02 0.24724698574E+02 0.32331572324E+02 0.43545166583E+02
 0.58741328558E+02 0.77110803501E+02 0.96942434728E+02 0.11644592769E+03 0.13467123063E+03
 0.15192181667E+03 0.16931681710E+03 0.18770253707E+03 0.20657708585E+03 0.22374126417E+03
 0.23597625242E+03 0.22777822887E+03 0.22374126417E+03 0.21263830758E+03 0.19699529360E+03
 0.17964713842E+03 0.16250364067E+03 0.14597160573E+03 0.12930491260E+03 0.11158949682E+03
 0.92704594837E+02 0.73666586033E+02 0.56199344582E+02 0.41870997891E+02 0.31354686198E+02
 0.24205758560E+02 0.19243067711E+02 0.15717445184E+02 0.13256889300E+02 0.11529573545E+02
 0.10299655417E+02 0.94222724822E+01 0.88126448960E+01 0.84168541178E+01 0.81964253184E+01
 0.81259784930E+01 0.81964253184E+01 0.84168541178E+01 0.88126448960E+01 0.94222724822E+01
 0.10299655417E+02 0.11529573545E+02 0.13256889300E+02 0.15717445184E+02 0.19243067711E+02
 0.24205758560E+02 0.31354686198E+02 0.41870997891E+02 0.56199344582E+02 0.73666586033E+02
 0.92704594837E+02 0.11158949682E+03 0.12930491260E+03 0.14597160573E+03 0.16250364067E+03
 0.17964713842E+03 0.19699529360E+03 0.21263830758E+03 0.22374126417E+03 0.21004787482E+03
 0.20657708585E+03 0.19699529360E+03 0.18337582814E+03 0.16802525625E+03 0.15247124633E+03
 0.13702184258E+03 0.12110570965E+03 0.10411607742E+03 0.86184334890E+02 0.68393555664E+02
 0.52337426401E+02 0.39350562318E+02 0.29896755197E+02 0.23432976041E+02 0.18859906649E+02
 0.15605942736E+02 0.13326607294E+02 0.11718553302E+02 0.10569320904E+02 0.97489153033E+01
 0.91802480167E+01 0.88126448960E+01 0.86088199727E+01 0.85438595547E+01 0.86088199727E+01
 0.88126448960E+01 0.91802480167E+01 0.97489153033E+01 0.10569320904E+02 0.11718553302E+02
 0.13326607294E+02 0.15605942736E+02 0.18859906649E+02 0.23432976041E+02 0.29896755197E+02
 0.39350562318E+02 0.52337426401E+02 0.68393555664E+02 0.86184334890E+02 0.10411607742E+03
 0.12110570965E+03 0.13702184258E+03 0.15247124633E+03 0.16802525625E+03 0.18337582814E+03
 0.19699529360E+03 0.20657708585E+03 0.19060079783E+03 0.18770253707E+03 0.17964713842E+03
 0.16802525625E+03 0.15459550180E+03 0.14051825773E+03 0.12605607400E+03 0.11088280387E+03
 0.94751033489E+02 0.78049240597E+02 0.61880085375E+02 0.47629020821E+02 0.36321689083E+02
 0.28166748631E+02 0.22515797289E+02 0.18435578485E+02 0.15531118506E+02 0.13487512378E+02
 0.12037993951E+02 0.10999114348E+02 0.10258811830E+02 0.97489153033E+01 0.94222724822E+01
 0.92427544381E+01 0.91858550343E+01 0.92427544381E+01 0.94222724822E+01 0.97489153033E+01
 0.10258811830E+02 0.10999114348E+02 0.12037993951E+02 0.13487512378E+02 0.15531118506E+02
 0.18435578485E+02 0.22515797289E+02 0.28166748631E+02 0.36321689083E+02 0.47629020821E+02
 0.61880085375E+02 0.78049240597E+02 0.94751033489E+02 0.11088280387E+03 0.12605607400E+03
 0.14051825773E+03 0.15459550180E+03 0.16802525625E+03 0.17964713842E+03 0.18770253707E+03
 0.17174407884E+03 0.16931681710E+03 0.16250364067E+03 0.15247124633E+03 0.14051825773E+03
 0.12753702664E+03 0.11382938480E+03 0.99358678799E+02 0.84226245509E+02 0.69018051415E+02
 0.54772647200E+02 0.42591160586E+02 0.33144966999E+02 0.26379026619E+02 0.21571083980E+02
 0.18056942579E+02 0.15555580672E+02 0.13789053789E+02 0.12532337385E+02 0.11633532132E+02
 0.10999114348E+02 0.10569320904E+02 0.10299655417E+02 0.10154382698E+02 0.10108913375E+02
 0.10154382698E+02 0.10299655417E+02 0.10569320904E+02 0.10999114348E+02 0.11633532132E+02
 0.12532337385E+02 0.13789053789E+02 0.15555580672E+02 0.18056942579E+02 0.21571083980E+02
 0.26379026619E+02 0.33144966999E+02 0.42591160586E+02 0.54772647200E+02 0.69018051415E+02
 0.84226245509E+02 0.99358678799E+02 0.11382938480E+03 0.12753702664E+03 0.14051825773E+03
 0.15247124633E+03 0.16250364067E+03 0.16931681710E+03 0.15401836264E+03 0.15192181667E+03
 0.14597160573E+03 0.13702184258E+03 0.12605607400E+03 0.11382938480E+03 0.10075685377E+03
 0.87087359201E+02 0.73198613427E+02 0.59768948907E+02 0.47679113967E+02 0.37695038818E+02
 0.30132140411E+02 0.24703808469E+02 0.20717545220E+02 0.17808260198E+02 0.15742312280E+02
 0.14285289877E+02 0.13255695003E+02 0.12532337385E+02 0.12037993951E+02 0.11718553302E+02
 0.11529573545E+02 0.11433656381E+02 0.11404807163E+02 0.11433656381E+02 0.11529573545E+02
 0.11718553302E+02 0.12037993951E+02 0.12532337385E+02 0.13255695003E+02 0.14285289877E+02
 0.15742312280E+02 0.17808260198E+02 0.20717545220E+02 0.24703808469E+02 0.30132140411E+02
 0.37695038818E+02 0.47679113967E+02 0.59768948907E+02 0.73198613427E+02 0.87087359201E+02
 0.10075685377E+03 0.11382938480E+03 0.12605607400E+03 0.13702184258E+03 0.14597160573E+03
 0.15192181667E+03 0.13654529606E+03 0.13467123063E+03 0.12930491260E+03 0.12110570965E+03
 0.11088280387E+03 0.99358678799E+02 0.87087359201E+02 0.74542501847E+02 0.62262085473E+02
 0.50898701213E+02 0.41103139678E+02 0.33299598618E+02 0.27493433802E+02 0.23238092539E+02
 0.20057644099E+02 0.17765238543E+02 0.16155967511E+02 0.15042618280E+02 0.14285289877E+02
 0.13789053789E+02 0.13487512378E+02 0.13326607294E+02 0.13256889300E+02 0.13235248170E+02
 0.13231635176E+02 0.13235248170E+02 0.13256889300E+02 0.13326607294E+02 0.13487512378E+02
 0.13789053789E+02 0.14285289877E+02 0.15042618280E+02 0.16155967511E+02 0.17765238543E+02
 0.20057644099E+02 0.23238092539E+02 0.27493433802E+02 0.33299598618E+02 0.41103139678E+02
 0.50898701213E+02 0.62262085473E+02 0.74542501847E+02 0.87087359201E+02 0.99358678799E+02
 0.11088280387E+03 0.12110570965E+03 0.12930491260E+03 0.13467123063E+03 0.11813394740E+03
 0.11644592769E+03 0.11158949682E+03 0.10411607742E+03 0.94751033489E+02 0.84226245509E+02
 0.73198613427E+02 0.62262085473E+02 0.51986524237E+02 0.42902180610E+02 0.35402318892E+02
 0.29612326152E+02 0.25311490386E+02 0.22061262472E+02 0.19673194703E+02 0.17999109981E+02
 0.16873488641E+02 0.16155967511E+02 0.15742312280E+02 0.15555580672E+02 0.15531118506E+02
 0.15605942736E+02 0.15717445184E+02 0.15810183318E+02 0.15845685208E+02 0.15810183318E+02
 0.15717445184E+02 0.15605942736E+02 0.15531118506E+02 0.15555580672E+02 0.15742312280E+02
 0.16155967511E+02 0.16873488641E+02 0.17999109981E+02 0.19673194703E+02 0.22061262472E+02
 0.25311490386E+02 0.29612326152E+02 0.35402318892E+02 0.42902180610E+02 0.51986524237E+02
 0.62262085473E+02 0.73198613427E+02 0.84226245509E+02 0.94751033489E+02 0.10411607742E+03
 0.11158949682E+03 0.11644592769E+03 0.98414287424E+02 0.96942434728E+02 0.92704594837E+02
 0.86184334890E+02 0.78049240597E+02 0.69018051415E+02 0.59768948907E+02 0.50898701213E+02
 0.42902180610E+02 0.36135707616E+02 0.30757313818E+02 0.26674288103E+02 0.23568832576E+02
 0.21251206000E+02 0.19632510345E+02 0.18588648346E+02 0.17999109981E+02 0.17765238543E+02
 0.17808260198E+02 0.18056942579E+02 0.18435578485E+02 0.18859906649E+02 0.19243067711E+02
 0.19508356166E+02 0.19603040779E+02 0.19508356166E+02 0.19243067711E+02 0.18859906649E+02
 0.18435578485E+02 0.18056942579E+02 0.17808260198E+02 0.17765238543E+02 0.17999109981E+02
 0.18588648346E+02 0.19632510345E+02 0.21251206000E+02 0.23568832576E+02 0.26674288103E+02
 0.30757313818E+02 0.36135707616E+02 0.42902180610E+02 0.50898701213E+02 0.59768948907E+02
 0.69018051415E+02 0.78049240597E+02 0.86184334890E+02 0.92704594837E+02 0.96942434728E+02
 0.78309294324E+02 0.77110803501E+02 0.73666586033E+02 0.68393555664E+02 0.61880085375E+02
 0.54772647200E+02 0.47679113967E+02 0.41103139678E+02 0.35402318892E+02 0.30757313818E+02
 0.27150470938E+02 0.24378219835E+02 0.22295718905E+02 0.20862597435E+02 0.20003272866E+02
 0.19632510345E+02 0.19673194703E+02 0.20057644099E+02 0.20717545220E+02 0.21571083980E+02
 0.22515797289E+02 0.23432976041E+02 0.24205758560E+02 0.24724698574E+02 0.24907794712E+02
 0.24724698574E+02 0.24205758560E+02 0.23432976041E+02 0.22515797289E+02 0.21571083980E+02
 0.20717545220E+02 0.20057644099E+02 0.19673194703E+02 0.19632510345E+02 0.20003272866E+02
 0.20862597435E+02 0.22295718905E+02 0.24378219835E+02 0.27150470938E+02 0.30757313818E+02
 0.35402318892E+02 0.41103139678E+02 0.47679113967E+02 0.54772647200E+02 0.61880085375E+02
 0.68393555664E+02 0.73666586033E+02 0.77110803501E+02 0.59628956782E+02 0.58741328558E+02
 0.56199344582E+02 0.52337426401E+02 0.47629020821E+02 0.42591160586E+02 0.37695038818E+02
 0.33299598618E+02 0.29612326152E+02 0.26674288103E+02 0.24378219835E+02 0.22661408291E+02
 0.21524967420E+02 0.20939468148E+02 0.20862597435E+02 0.21251206000E+02 0.22061262472E+02
 0.23238092539E+02 0.24703808469E+02 0.26379026619E+02 0.28166748631E+02 0.29896755197E+02
 0.31354686198E+02 0.32331572324E+02 0.32675674112E+02 0.32331572324E+02 0.31354686198E+02
 0.29896755197E+02 0.28166748631E+02 0.26379026619E+02 0.24703808469E+02 0.23238092539E+02
 0.22061262472E+02 0.21251206000E+02 0.20862597435E+02 0.20939468148E+02 0.21524967420E+02
 0.22661408291E+02 0.24378219835E+02 0.26674288103E+02 0.29612326152E+02 0.33299598618E+02
 0.37695038818E+02 0.42591160586E+02 0.47629020821E+02 0.52337426401E+02 0.56199344582E+02
 0.58741328558E+02 0.44132314184E+02 0.43545166583E+02 0.41870997891E+02 0.39350562318E+02
 0.36321689083E+02 0.33144966999E+02 0.30132140411E+02 0.27493433802E+02 0.25311490386E+02
 0.23568832576E+02 0.22295718905E+02 0.21524967420E+02 0.21267417809E+02 0.21524967420E+02
 0.22295718905E+02 0.23568832576E+02 0.25311490386E+02 0.27493433802E+02 0.30132140411E+02
 0.33144966999E+02 0.36321689083E+02 0.39350562318E+02 0.41870997891E+02 0.43545166583E+02
 0.44132314184E+02 0.43545166583E+02 0.41870997891E+02 0.39350562318E+02 0.36321689083E+02
 0.33144966999E+02 0.30132140411E+02 0.27493433802E+02 0.25311490386E+02 0.23568832576E+02
 0.22295718905E+02 0.21524967420E+02 0.21267417809E+02 0.21524967420E+02 0.22295718905E+02
 0.23568832576E+02 0.25311490386E+02 0.27493433802E+02 0.30132140411E+02 0.33144966999E+02
 0.36321689083E+02 0.39350562318E+02 0.41870997891E+02 0.43545166583E+02 0.32675674112E+02
 0.32331572324E+02 0.31354686198E+02 0.29896755197E+02 0.28166748631E+02 0.26379026619E+02
 0.24703808469E+02 0.23238092539E+02 0.22061262472E+02 0.21251206000E+02 0.20862597435E+02
 0.20939468148E+02 0.21524967420E+02 0.22661408291E+02 0.24378219835E+02 0.26674288103E+02
 0.29612326152E+02 0.33299598618E+02 0.37695038818E+02 0.42591160586E+02 0.47629020821E+02
 0.52337426401E+02 0.56199344582E+02 0.58741328558E+02 0.59628956782E+02 0.58741328558E+02
 0.56199344582E+02 0.52337426401E+02 0.47629020821E+02 0.42591160586E+02 0.37695038818E+02
 0.33299598618E+02 0.29612326152E+02 0.26674288103E+02 0.24378219835E+02 0.22661408291E+02
 0.21524967420E+02 0.20939468148E+02 0.20862597435E+02 0.21251206000E+02 0.22061262472E+02
 0.23238092539E+02 0.24703808469E+02 0.26379026619E+02 0.28166748631E+02 0.29896755197E+02
 0.31354686198E+02 0.32331572324E+02 0.24907794712E+02 0.24724698574E+02 0.24205758560E+02
 0.23432976041E+02 0.22515797289E+02 0.21571083980E+02 0.20717545220E+02 0.20057644099E+02
 0.19673194703E+02 0.19632510345E+02 0.20003272866E+02 0.20862597435E+02 0.22295718905E+02
 0.24378219835E+02 0.27150470938E+02 0.30757313818E+02 0.35402318892E+02 0.41103139678E+02
 0.47679113967E+02 0.54772647200E+02 0.61880085375E+02 0.68393555664E+02 0.73666586033E+02
 0.77110803501E+02 0.78309294324E+02 0.77110803501E+02 0.73666586033E+02 0.68393555664E+02
 0.61880085375E+02 0.54772647200E+02 0.47679113967E+02 0.41103139678E+02 0.35402318892E+02
 0.30757313818E+02 0.27150470938E+02 0.24378219835E+02 0.22295718905E+02 0.20862597435E+02
 0.20003272866E+02 0.19632510345E+02 0.19673194703E+02 0.20057644099E+02 0.20717545220E+02
 0.21571083980E+02 0.22515797289E+02 0.23432976041E+02 0.24205758560E+02 0.24724698574E+02
 0.19603040779E+02 0.19508356166E+02 0.19243067711E+02 0.18859906649E+02 0.18435578485E+02
 0.18056942579E+02 0.17808260198E+02 0.17765238543E+02 0.17999109981E+02 0.18588648346E+02
 0.19632510345E+02 0.21251206000E+02 0.23568832576E+02 0.26674288103E+02 0.30757313818E+02
 0.36135707616E+02 0.42902180610E+02 0.50898701213E+02 0.59768948907E+02 0.69018051415E+02
 0.78049240597E+02 0.86184334890E+02 0.92704594837E+02 0.96942434728E+02 0.98414287424E+02
 0.96942434728E+02 0.92704594837E+02 0.86184334890E+02 0.78049240597E+02 0.69018051415E+02
 0.59768948907E+02 0.50898701213E+02 0.42902180610E+02 0.36135707616E+02 0.30757313818E+02
 0.26674288103E+02 0.23568832576E+02 0.21251206000E+02 0.19632510345E+02 0.18588648346E+02
 0.17999109981E+02 0.17765238543E+02 0.17808260198E+02 0.18056942579E+02 0.18435578485E+02
 0.18859906649E+02 0.19243067711E+02 0.19508356166E+02 0.15845685208E+02 0.15810183318E+02
 0.15717445184E+02 0.15605942736E+02 0.15531118506E+02 0.15555580672E+02 0.15742312280E+02
 0.16155967511E+02 0.16873488641E+02 0.17999109981E+02 0.19673194703E+02 0.22061262472E+02
 0.25311490386E+02 0.29612326152E+02 0.35402318892E+02 0.42902180610E+02 0.51986524237E+02
 0.62262085473E+02 0.73198613427E+02 0.84226245509E+02 0.94751033489E+02 0.10411607742E+03
 0.11158949682E+03 0.11644592769E+03 0.11813394740E+03 0.11644592769E+03 0.11158949682E+03
 0.10411607742E+03 0.94751033489E+02 0.84226245509E+02 0.73198613427E+02 0.62262085473E+02
 0.51986524237E+02 0.42902180610E+02 0.35402318892E+02 0.29612326152E+02 0.25311490386E+02
 0.22061262472E+02 0.19673194703E+02 0.17999109981E+02 0.16873488641E+02 0.16155967511E+02
 0.15742312280E+02 0.15555580672E+02 0.15531118506E+02 0.15605942736E+02 0.15717445184E+02
 0.15810183318E+02 0.13231635176E+02 0.13235248170E+02 0.13256889300E+02 0.13326607294E+02
 0.13487512378E+02 0.13789053789E+02 0.14285289877E+02 0.15042618280E+02 0.16155967511E+02
 0.17765238543E+02 0.20057644099E+02 0.23238092539E+02 0.27493433802E+02 0.33299598618E+02
 0.41103139678E+02 0.50898701213E+02 0.62262085473E+02 0.74542501847E+02 0.87087359201E+02
 0.99358678799E+02 0.11088280387E+03 0.12110570965E+03 0.12930491260E+03 0.13467123063E+03
 0.13654529606E+03 0.13467123063E+03 0.12930491260E+03 0.12110570965E+03 0.11088280387E+03
 0.99358678799E+02 0.87087359201E+02 0.74542501847E+02 0.62262085473E+02 0.50898701213E+02
 0.41103139678E+02 0.33299598618E+02 0.27493433802E+02 0.23238092539E+02 0.20057644099E+02
 0.17765238543E+02 0.16155967511E+02 0.15042618280E+02 0.14285289877E+02 0.13789053789E+02
 0.13487512378E+02 0.13326607294E+02 0.13256889300E+02 0.13235248170E+02 0.11404807163E+02
 0.11433656381E+02 0.11529573545E+02 0.11718553302E+02 0.12037993951E+02 0.12532337385E+02
 0.13255695003E+02 0.14285289877E+02 0.15742312280E+02 0.17808260198E+02 0.20717545220E+02
 0.24703808469E+02 0.30132140411E+02 0.37695038818E+02 0.47679113967E+02 0.59768948907E+02
 0.73198613427E+02 0.87087359201E+02 0.10075685377E+03 0.11382938480E+03 0.12605607400E+03
 0.13702184258E+03 0.14597160573E+03 0.15192181667E+03 0.15401836264E+03 0.15192181667E+03
 0.14597160573E+03 0.13702184258E+03 0.12605607400E+03 0.11382938480E+03 0.10075685377E+03
 0.87087359201E+02 0.73198613427E+02 0.59768948907E+02 0.47679113967E+02 0.37695038818E+02
 0.30132140411E+02 0.24703808469E+02 0.20717545220E+02 0.17808260198E+02 0.15742312280E+02
 0.14285289877E+02 0.13255695003E+02 0.12532337385E+02 0.12037993951E+02 0.11718553302E+02
 0.11529573545E+02 0.11433656381E+02 0.10108913375E+02 0.10154382698E+02 0.10299655417E+02
 0.10569320904E+02 0.10999114348E+02 0.11633532132E+02 0.12532337385E+02 0.13789053789E+02
 0.15555580672E+02 0.18056942579E+02 0.21571083980E+02 0.26379026619E+02 0.33144966999E+02
 0.42591160586E+02 0.54772647200E+02 0.69018051415E+02 0.84226245509E+02 0.99358678799E+02
 0.11382938480E+03 0.12753702664E+03 0.14051825773E+03 0.15247124633E+03 0.16250364067E+03
 0.16931681710E+03 0.17174407884E+03 0.16931681710E+03 0.16250364067E+03 0.15247124633E+03
 0.14051825773E+03 0.12753702664E+03 0.11382938480E+03 0.99358678799E+02 0.84226245509E+02
 0.69018051415E+02 0.54772647200E+02 0.42591160586E+02 0.33144966999E+02 0.26379026619E+02
 0.21571083980E+02 0.18056942579E+02 0.15555580672E+02 0.13789053789E+02 0.12532337385E+02
 0.11633532132E+02 0.10999114348E+02 0.10569320904E+02 0.10299655417E+02 0.10154382698E+02
 0.91858550343E+01 0.92427544381E+01 0.94222724822E+01 0.97489153033E+01 0.10258811830E+02
 0.10999114348E+02 0.12037993951E+02 0.13487512378E+02 0.15531118506E+02 0.18435578485E+02
 0.22515797289E+02 0.28166748631E+02 0.36321689083E+02 0.47629020821E+02 0.61880085375E+02
 0.78049240597E+02 0.94751033489E+02 0.11088280387E+03 0.12605607400E+03 0.14051825773E+03
 0.15459550180E+03 0.16802525625E+03 0.17964713842E+03 0.18770253707E+03 0.19060079783E+03
 0.18770253707E+03 0.17964713842E+03 0.16802525625E+03 0.15459550180E+03 0.14051825773E+03
 0.12605607400E+03 0.11088280387E+03 0.94751033489E+02 0.78049240597E+02 0.61880085375E+02
 0.47629020821E+02 0.36321689083E+02 0.28166748631E+02 0.22515797289E+02 0.18435578485E+02
 0.15531118506E+02 0.13487512378E+02 0.12037993951E+02 0.10999114348E+02 0.10258811830E+02
 0.97489153033E+01 0.94222724822E+01 0.92427544381E+01 0.85438595547E+01 0.86088199727E+01
 0.88126448960E+01 0.91802480167E+01 0.97489153033E+01 0.10569320904E+02 0.11718553302E+02
 0.13326607294E+02 0.15605942736E+02 0.18859906649E+02 0.23432976041E+02 0.29896755197E+02
 0.39350562318E+02 0.52337426401E+02 0.68393555664E+02 0.86184334890E+02 0.10411607742E+03
 0.12110570965E+03 0.13702184258E+03 0.15247124633E+03 0.16802525625E+03 0.18337582814E+03
 0.19699529360E+03 0.20657708585E+03 0.21004787482E+03 0.20657708585E+03 0.19699529360E+03
 0.18337582814E+03 0.16802525625E+03 0.15247124633E+03 0.13702184258E+03 0.12110570965E+03
 0.10411607742E+03 0.86184334890E+02 0.68393555664E+02 0.52337426401E+02 0.39350562318E+02
 0.29896755197E+02 0.23432976041E+02 0.18859906649E+02 0.15605942736E+02 0.13326607294E+02
 0.11718553302E+02 0.10569320904E+02 0.97489153033E+01 0.91802480167E+01 0.88126448960E+01
 0.86088199727E+01 0.81259784930E+01 0.81964253184E+01 0.84168541178E+01 0.88126448960E+01
 0.94222724822E+01 0.10299655417E+02 0.11529573545E+02 0.13256889300E+02 0.15717445184E+02
 0.19243067711E+02 0.24205758560E+02 0.31354686198E+02 0.41870997891E+02 0.56199344582E+02
 0.73666586033E+02 0.92704594837E+02 0.11158949682E+03 0.12930491260E+03 0.14597160573E+03
 0.16250364067E+03 0.17964713842E+03 0.19699529360E+03 0.21263830758E+03 0.22374126417E+03
 0.22777822887E+03 0.22374126417E+03 0.21263830758E+03 0.19699529360E+03 0.17964713842E+03
 0.16250364067E+03 0.14597160573E+03 0.12930491260E+03 0.11158949682E+03 0.92704594837E+02
 0.73666586033E+02 0.56199344582E+02 0.41870997891E+02 0.31354686198E+02 0.24205758560E+02
 0.19243067711E+02 0.15717445184E+02 0.13256889300E+02 0.11529573545E+02 0.10299655417E+02
 0.94222724822E+01 0.88126448960E+01 0.84168541178E+01 0.81964253184E+01 0.78925953145E+01
 0.79662549547E+01 0.81964253184E+01 0.86088199727E+01 0.92427544381E+01 0.10154382698E+02
 0.11433656381E+02 0.13235248170E+02 0.15810183318E+02 0.19508356166E+02 0.24724698574E+02
 0.32331572324E+02 0.43545166583E+02 0.58741328558E+02 0.77110803501E+02 0.96942434728E+02
 0.11644592769E+03 0.13467123063E+03 0.15192181667E+03 0.16931681710E+03 0.18770253707E+03
 0.20657708585E+03 0.22374126417E+03 0.23597625242E+03 0.24043255620E+03 0.23597625242E+03
 0.22374126417E+03 0.20657708585E+03 0.18770253707E+03 0.16931681710E+03 0.15192181667E+03
 0.13467123063E+03 0.11644592769E+03 0.96942434728E+02 0.77110803501E+02 0.58741328558E+02
 0.43545166583E+02 0.32331572324E+02 0.24724698574E+02 0.19508356166E+02 0.15810183318E+02
 0.13235248170E+02 0.11433656381E+02 0.10154382698E+02 0.92427544381E+01 0.86088199727E+01
 0.81964253184E+01 0.79662549547E+01 0.78178770095E+01 0.78925953145E+01 0.81259784930E+01
 0.85438595547E+01 0.91858550343E+01 0.10108913375E+02 0.11404807163E+02 0.13231635176E+02
 0.15845685208E+02 0.19603040779E+02 0.24907794712E+02 0.32675674112E+02 0.44132314184E+02
 0.59628956782E+02 0.78309294324E+02 0.98414287424E+02 0.11813394740E+03 0.13654529606E+03
 0.15401836264E+03 0.17174407884E+03 0.19060079783E+03 0.21004787482E+03 0.22777822887E+03
 0.24043255620E+03 0.24504384589E+03 0.24043255620E+03 0.22777822887E+03 0.21004787482E+03
 0.19060079783E+03 0.17174407884E+03 0.15401836264E+03 0.13654529606E+03 0.11813394740E+03
 0.98414287424E+02 0.78309294324E+02 0.59628956782E+02 0.44132314184E+02 0.32675674112E+02
 0.24907794712E+02 0.19603040779E+02 0.15845685208E+02 0.13231635176E+02 0.11404807163E+02
 0.10108913375E+02 0.91858550343E+01 0.85438595547E+01 0.81259784930E+01 0.78925953145E+01
 0.78925953145E+01 0.79662549547E+01 0.81964253184E+01 0.86088199727E+01 0.92427544381E+01
 0.10154382698E+02 0.11433656381E+02 0.13235248170E+02 0.15810183318E+02 0.19508356166E+02
 0.24724698574E+02 0.32331572324E+02 0.43545166583E+02 0.58741328558E+02 0.77110803501E+02
 0.96942434728E+02 0.11644592769E+03 0.13467123063E+03 0.15192181667E+03 0.16931681710E+03
 0.18770253707E+03 0.20657708585E+03 0.22374126417E+03 0.23597625242E+03 0.24043255620E+03
 0.23597625242E+03 0.22374126417E+03 0.20657708585E+03 0.18770253707E+03 0.16931681710E+03
 0.15192181667E+03 0.13467123063E+03 0.11644592769E+03 0.96942434728E+02 0.77110803501E+02
 0.58741328558E+02 0.43545166583E+02 0.32331572324E+02 0.24724698574E+02 0.19508356166E+02
 0.15810183318E+02 0.13235248170E+02 0.11433656381E+02 0.10154382698E+02 0.92427544381E+01
 0.86088199727E+01 0.81964253184E+01 0.79662549547E+01 0.81259784930E+01 0.81964253184E+01
 0.84168541178E+01 0.88126448960E+01 0.94222724822E+01 0.10299655417E+02 0.11529573545E+02
 0.13256889300E+02 0.15717445184E+02 0.19243067711E+02 0.24205758560E+02 0.31354686198E+02
 0.41870997891E+02 0.56199344582E+02 0.73666586033E+02 0.92704594837E+02 0.11158949682E+03
 0.12930491260E+03 0.14597160573E+03 0.16250364067E+03 0.17964713842E+03 0.19699529360E+03
 0.21263830758E+03 0.22374126417E+03 0.22777822887E+03 0.22374126417E+03 0.21263830758E+03
 0.19699529360E+03 0.17964713842E+03 0.16250364067E+03 0.14597160573E+03 0.12930491260E+03
 0.11158949682E+03 0.92704594837E+02 0.73666586033E+02 0.56199344582E+02 0.41870997891E+02
 0.31354686198E+02 0.24205758560E+02 0.19243067711E+02 0.15717445184E+02 0.13256889300E+02
 0.11529573545E+02 0.10299655417E+02 0.94222724822E+01 0.88126448960E+01 0.84168541178E+01
 0.81964253184E+01 0.85438595547E+01 0.86088199727E+01 0.88126448960E+01 0.91802480167E+01
 0.97489153033E+01 0.10569320904E+02 0.11718553302E+02 0.13326607294E+02 0.15605942736E+02
 0.18859906649E+02 0.23432976041E+02 0.29896755197E+02 0.39350562318E+02 0.52337426401E+02
 0.68393555664E+02 0.86184334890E+02 0.10411607742E+03 0.12110570965E+03 0.13702184258E+03
 0.15247124633E+03 0.16802525625E+03 0.18337582814E+03 0.19699529360E+03 0.20657708585E+03
 0.21004787482E+03 0.20657708585E+03 0.19699529360E+03 0.18337582814E+03 0.16802525625E+03
 0.15247124633E+03 0.13702184258E+03 0.12110570965E+03 0.10411607742E+03 0.86184334890E+02
 0.68393555664E+02 0.52337426401E+02 0.39350562318E+02 0.29896755197E+02 0.23432976041E+02
 0.18859906649E+02 0.15605942736E+02 0.13326607294E+02 0.11718553302E+02 0.10569320904E+02
 0.97489153033E+01 0.91802480167E+01 0.88126448960E+01 0.86088199727E+01 0.91858550343E+01
 0.92427544381E+01 0.94222724822E+01 0.97489153033E+01 0.10258811830E+02 0.10999114348E+02
 0.12037993951E+02 0.13487512378E+02 0.15531118506E+02 0.18435578485E+02 0.22515797289E+02
 0.28166748631E+02 0.36321689083E+02 0.47629020821E+02 0.61880085375E+02 0.78049240597E+02
 0.94751033489E+02 0.11088280387E+03 0.12605607400E+03 0.14051825773E+03 0.15459550180E+03
 0.16802525625E+03 0.17964713842E+03 0.18770253707E+03 0.19060079783E+03 0.18770253707E+03
 0.17964713842E+03 0.16802525625E+03 0.15459550180E+03 0.14051825773E+03 0.12605607400E+03
 0.11088280387E+03 0.94751033489E+02 0.78049240597E+02 0.61880085375E+02 0.47629020821E+02
 0.36321689083E+02 0.28166748631E+02 0.22515797289E+02 0.18435578485E+02 0.15531118506E+02
 0.13487512378E+02 0.12037993951E+02 0.10999114348E+02 0.10258811830E+02 0.97489153033E+01
 0.94222724822E+01 0.92427544381E+01 0.10108913375E+02 0.10154382698E+02 0.10299655417E+02
 0.10569320904E+02 0.10999114348E+02 0.11633532132E+02 0.12532337385E+02 0.13789053789E+02
 0.15555580672E+02 0.18056942579E+02 0.21571083980E+02 0.26379026619E+02 0.33144966999E+02
 0.42591160586E+02 0.54772647200E+02 0.69018051415E+02 0.84226245509E+02 0.99358678799E+02
 0.11382938480E+03 0.12753702664E+03 0.14051825773E+03 0.15247124633E+03 0.16250364067E+03
 0.16931681710E+03 0.17174407884E+03 0.16931681710E+03 0.16250364067E+03 0.15247124633E+03
 0.14051825773E+03 0.12753702664E+03 0.11382938480E+03 0.99358678799E+02 0.84226245509E+02
 0.69018051415E+02 0.54772647200E+02 0.42591160586E+02 0.33144966999E+02 0.26379026619E+02
 0.21571083980E+02 0.18056942579E+02 0.15555580672E+02 0.13789053789E+02 0.12532337385E+02
 0.11633532132E+02 0.10999114348E+02 0.10569320904E+02 0.10299655417E+02 0.10154382698E+02
 0.11404807163E+02 0.11433656381E+02 0.11529573545E+02 0.11718553302E+02 0.12037993951E+02
 0.12532337385E+02 0.13255695003E+02 0.14285289877E+02 0.15742312280E+02 0.17808260198E+02
 0.20717545220E+02 0.24703808469E+02 0.30132140411E+02 0.37695038818E+02 0.47679113967E+02
 0.59768948907E+02 0.73198613427E+02 0.87087359201E+02 0.10075685377E+03 0.11382938480E+03
 0.12605607400E+03 0.13702184258E+03 0.14597160573E+03 0.15192181667E+03 0.15401836264E+03
 0.15192181667E+03 0.14597160573E+03 0.13702184258E+03 0.12605607400E+03 0.11382938480E+03
 0.10075685377E+03 0.87087359201E+02 0.73198613427E+02 0.59768948907E+02 0.47679113967E+02
 0.37695038818E+02 0.30132140411E+02 0.24703808469E+02 0.20717545220E+02 0.17808260198E+02
 0.15742312280E+02 0.14285289877E+02 0.13255695003E+02 0.12532337385E+02 0.12037993951E+02
 0.11718553302E+02 0.11529573545E+02 0.11433656381E+02 0.13231635176E+02 0.13235248170E+02
 0.13256889300E+02 0.13326607294E+02 0.13487512378E+02 0.13789053789E+02 0.14285289877E+02
 0.15042618280E+02 0.16155967511E+02 0.17765238543E+02 0.20057644099E+02 0.23238092539E+02
 0.27493433802E+02 0.33299598618E+02 0.41103139678E+02 0.50898701213E+02 0.62262085473E+02
 0.74542501847E+02 0.87087359201E+02 0.99358678799E+02 0.11088280387E+03 0.12110570965E+03
 0.12930491260E+03 0.13467123063E+03 0.13654529606E+03 0.13467123063E+03 0.12930491260E+03
 0.12110570965E+03 0.11088280387E+03 0.99358678799E+02 0.87087359201E+02 0.74542501847E+02
 0.62262085473E+02 0.50898701213E+02 0.41103139678E+02 0.33299598618E+02 0.27493433802E+02
 0.23238092539E+02 0.20057644099E+02 0.17765238543E+02 0.16155967511E+02 0.15042618280E+02
 0.14285289877E+02 0.13789053789E+02 0.13487512378E+02 0.13326607294E+02 0.13256889300E+02
 0.13235248170E+02 0.15845685208E+02 0.15810183318E+02 0.15717445184E+02 0.15605942736E+02
 0.15531118506E+02 0.15555580672E+02 0.15742312280E+02 0.16155967511E+02 0.16873488641E+02
 0.17999109981E+02 0.19673194703E+02 0.22061262472E+02 0.25311490386E+02 0.29612326152E+02
 0.35402318892E+02 0.42902180610E+02 0.51986524237E+02 0.62262085473E+02 0.73198613427E+02
 0.84226245509E+02 0.94751033489E+02 0.10411607742E+03 0.11158949682E+03 0.11644592769E+03
 0.11813394740E+03 0.11644592769E+03 0.11158949682E+03 0.10411607742E+03 0.94751033489E+02
 0.84226245509E+02 0.73198613427E+02 0.62262085473E+02 0.51986524237E+02 0.42902180610E+02
 0.35402318892E+02 0.29612326152E+02 0.25311490386E+02 0.22061262472E+02 0.19673194703E+02
 0.17999109981E+02 0.16873488641E+02 0.16155967511E+02 0.15742312280E+02 0.15555580672E+02
 0.15531118506E+02 0.15605942736E+02 0.15717445184E+02 0.15810183318E+02 0.19603040779E+02
 0.19508356166E+02 0.19243067711E+02 0.18859906649E+02 0.18435578485E+02 0.18056942579E+02
 0.17808260198E+02 0.17765238543E+02 0.17999109981E+02 0.18588648346E+02 0.19632510345E+02
 0.21251206000E+02 0.23568832576E+02 0.26674288103E+02 0.30757313818E+02 0.36135707616E+02
 0.42902180610E+02 0.50898701213E+02 0.59768948907E+02 0.69018051415E+02 0.78049240597E+02
 0.86184334890E+02 0.92704594837E+02 0.96942434728E+02 0.98414287424E+02 0.96942434728E+02
 0.92704594837E+02 0.86184334890E+02 0.78049240597E+02 0.69018051415E+02 0.59768948907E+02
 0.50898701213E+02 0.42902180610E+02 0.36135707616E+02 0.30757313818E+02 0.26674288103E+02
 0.23568832576E+02 0.21251206000E+02 0.19632510345E+02 0.18588648346E+02 0.17999109981E+02