   4   4   0   0
  0.1600000E+02  0.4000000E-09  0.4000000E-09  0.4000000E-09  0.5000000E-15
  1.000000000000000E-004
  CAR 
 unknown system                          
     15.83803560     -4.56408968  301      6.98539663      1.00000000
     -4.564  0.0000E+00  0.0000E+00
     -4.496  0.0000E+00  0.0000E+00
     -4.428  0.0000E+00  0.0000E+00
     -4.360  0.0000E+00  0.0000E+00
     -4.292  0.0000E+00  0.0000E+00
     -4.224  0.0000E+00  0.0000E+00
     -4.156  0.0000E+00  0.0000E+00
     -4.088  0.0000E+00  0.0000E+00
     -4.020  0.0000E+00  0.0000E+00
     -3.952  0.0000E+00  0.0000E+00
     -3.884  0.0000E+00  0.0000E+00
     -3.816  0.0000E+00  0.0000E+00
     -3.748  0.0000E+00  0.0000E+00
     -3.680  0.0000E+00  0.0000E+00
     -3.612  0.0000E+00  0.0000E+00
     -3.544  0.0000E+00  0.0000E+00
     -3.476  0.0000E+00  0.0000E+00
     -3.408  0.0000E+00  0.0000E+00
     -3.340  0.0000E+00  0.0000E+00
     -3.272  0.0000E+00  0.0000E+00
     -3.204  0.0000E+00  0.0000E+00
     -3.136  0.0000E+00  0.0000E+00
     -3.068  0.0000E+00  0.0000E+00
     -3.000  0.0000E+00  0.0000E+00
     -2.932  0.0000E+00  0.0000E+00
     -2.864  0.0000E+00  0.0000E+00
     -2.796  0.0000E+00  0.0000E+00
     -2.728  0.0000E+00  0.0000E+00
     -2.660  0.0000E+00  0.0000E+00
     -2.592  0.0000E+00  0.0000E+00
     -2.524  0.2245E-02  0.3010E-04
     -2.456  0.1626E-01  0.5866E-03
     -2.388  0.4312E-01  0.2533E-02
     -2.320  0.8283E-01  0.6743E-02
     -2.252  0.1293E+00  0.1400E-01
     -2.184  0.1637E+00  0.2404E-01
     -2.116  0.1851E+00  0.3597E-01
     -2.048  0.1931E+00  0.4891E-01
     -1.980  0.1973E+00  0.6216E-01
     -1.912  0.2071E+00  0.7588E-01
     -1.844  0.2227E+00  0.9046E-01
     -1.776  0.2429E+00  0.1063E+00
     -1.708  0.2645E+00  0.1235E+00
     -1.640  0.2870E+00  0.1423E+00
     -1.572  0.3104E+00  0.1626E+00
     -1.504  0.3323E+00  0.1845E+00
     -1.436  0.3487E+00  0.2076E+00
     -1.368  0.3596E+00  0.2318E+00
     -1.300  0.3683E+00  0.2565E+00
     -1.232  0.3820E+00  0.2820E+00
     -1.164  0.4006E+00  0.3086E+00
     -1.096  0.4200E+00  0.3365E+00
     -1.028  0.4384E+00  0.3657E+00
     -0.960  0.4572E+00  0.3961E+00
     -0.892  0.4763E+00  0.4279E+00
     -0.824  0.4958E+00  0.4609E+00
     -0.756  0.5157E+00  0.4953E+00
     -0.688  0.5360E+00  0.5311E+00
     -0.620  0.5599E+00  0.5683E+00
     -0.552  0.5880E+00  0.6073E+00
     -0.484  0.6185E+00  0.6483E+00
     -0.416  0.7728E+00  0.6954E+00
     -0.348  0.9228E+00  0.7532E+00
     -0.280  0.1112E+01  0.8210E+00
     -0.212  0.1023E+01  0.8935E+00
     -0.144  0.9538E+00  0.9605E+00
     -0.076  0.1013E+01  0.1027E+01
     -0.008  0.1064E+01  0.1098E+01
      0.060  0.1107E+01  0.1172E+01
      0.128  0.1144E+01  0.1248E+01
      0.196  0.1172E+01  0.1327E+01
      0.264  0.2033E+01  0.1446E+01
      0.332  0.2132E+01  0.1606E+01
      0.400  0.9796E+00  0.1722E+01
      0.468  0.1251E+01  0.1817E+01
      0.536  0.1354E+01  0.1904E+01
      0.604  0.1698E+01  0.2006E+01
      0.672  0.2351E+01  0.2143E+01
      0.740  0.3601E+01  0.2344E+01
      0.808  0.4291E+01  0.2605E+01
      0.876  0.4778E+01  0.2915E+01
      0.944  0.5114E+01  0.3251E+01
      1.012  0.4961E+01  0.3607E+01
      1.080  0.5168E+01  0.3949E+01
      1.149  0.5702E+01  0.4318E+01
      1.217  0.5999E+01  0.4719E+01
      1.285  0.6128E+01  0.5128E+01
      1.353  0.6911E+01  0.5566E+01
      1.421  0.5934E+01  0.5990E+01
      1.489  0.5793E+01  0.6384E+01
      1.557  0.5796E+01  0.6778E+01
      1.625  0.5773E+01  0.7172E+01
      1.693  0.5725E+01  0.7563E+01
      1.761  0.6113E+01  0.7968E+01
      1.829  0.6891E+01  0.8403E+01
      1.897  0.6519E+01  0.8870E+01
      1.965  0.3789E+01  0.9208E+01
      2.033  0.3579E+01  0.9458E+01
      2.101  0.3416E+01  0.9696E+01
      2.169  0.3305E+01  0.9924E+01
      2.237  0.3245E+01  0.1015E+02
      2.305  0.3432E+01  0.1037E+02
      2.373  0.7320E+01  0.1065E+02
      2.441  0.5320E+01  0.1109E+02
      2.509  0.5764E+01  0.1148E+02
      2.577  0.6056E+01  0.1188E+02
      2.645  0.5927E+01  0.1228E+02
      2.713  0.5675E+01  0.1268E+02
      2.781  0.5684E+01  0.1307E+02
      2.849  0.5693E+01  0.1345E+02
      2.917  0.5768E+01  0.1384E+02
      2.985  0.6014E+01  0.1424E+02
      3.053  0.6469E+01  0.1466E+02
      3.121  0.5717E+01  0.1506E+02
      3.189  0.6003E+01  0.1547E+02
      3.257  0.6425E+01  0.1591E+02
      3.325  0.9216E+01  0.1638E+02
      3.393  0.8336E+01  0.1705E+02
      3.461  0.6106E+01  0.1754E+02
      3.529  0.6296E+01  0.1796E+02
      3.597  0.8080E+01  0.1852E+02
      3.665  0.9052E+01  0.1909E+02
      3.733  0.1281E+02  0.1986E+02
      3.801  0.1081E+02  0.2062E+02
      3.869  0.1067E+02  0.2135E+02
      3.937  0.7818E+01  0.2205E+02
      4.005  0.6772E+01  0.2256E+02
      4.073  0.4099E+01  0.2292E+02
      4.141  0.4026E+01  0.2317E+02
      4.209  0.4971E+01  0.2349E+02
      4.277  0.4754E+01  0.2382E+02
      4.345  0.4489E+01  0.2413E+02
      4.413  0.4931E+01  0.2444E+02
      4.481  0.7709E+01  0.2483E+02
      4.549  0.7004E+01  0.2537E+02
      4.617  0.6913E+01  0.2585E+02
      4.685  0.6733E+01  0.2631E+02
      4.753  0.5390E+01  0.2674E+02
      4.821  0.5817E+01  0.2712E+02
      4.889  0.6039E+01  0.2754E+02
      4.957  0.6710E+01  0.2796E+02
      5.025  0.5522E+01  0.2841E+02
      5.093  0.5095E+01  0.2877E+02
      5.161  0.4824E+01  0.2910E+02
      5.229  0.4779E+01  0.2943E+02
      5.297  0.4831E+01  0.2975E+02
      5.365  0.5682E+01  0.3020E+02
      5.433  0.6629E+01  0.3061E+02
      5.501  0.6842E+01  0.3113E+02
      5.569  0.6302E+01  0.3159E+02
      5.637  0.5684E+01  0.3202E+02
      5.705  0.5355E+01  0.3239E+02
      5.773  0.5027E+01  0.3275E+02
      5.841  0.4328E+01  0.3306E+02
      5.909  0.4596E+01  0.3336E+02
      5.977  0.4602E+01  0.3368E+02
      6.045  0.4695E+01  0.3400E+02
      6.113  0.4867E+01  0.3432E+02
      6.181  0.5166E+01  0.3466E+02
      6.249  0.5275E+01  0.3502E+02
      6.317  0.6590E+01  0.3539E+02
      6.385  0.6068E+01  0.3581E+02
      6.453  0.5561E+01  0.3620E+02
      6.521  0.5415E+01  0.3657E+02
      6.589  0.5505E+01  0.3694E+02
      6.657  0.5739E+01  0.3732E+02
      6.725  0.7190E+01  0.3778E+02
      6.793  0.8790E+01  0.3828E+02
      6.861  0.9651E+01  0.3892E+02
      6.929  0.8414E+01  0.3954E+02
      6.997  0.7635E+01  0.4009E+02
      7.065  0.6960E+01  0.4061E+02
      7.133  0.6934E+01  0.4111E+02
      7.201  0.4643E+01  0.4149E+02
      7.269  0.3556E+01  0.4177E+02
      7.337  0.2623E+01  0.4197E+02
      7.405  0.1970E+01  0.4213E+02
      7.473  0.1321E+01  0.4223E+02
      7.541  0.1293E+01  0.4232E+02
      7.609  0.1270E+01  0.4241E+02
      7.677  0.1597E+01  0.4252E+02
      7.745  0.1432E+01  0.4262E+02
      7.813  0.1106E+01  0.4270E+02
      7.881  0.1109E+01  0.4277E+02
      7.949  0.1125E+01  0.4285E+02
      8.017  0.1145E+01  0.4293E+02
      8.085  0.1161E+01  0.4301E+02
      8.153  0.1398E+01  0.4310E+02
      8.221  0.1425E+01  0.4320E+02
      8.289  0.1445E+01  0.4330E+02
      8.357  0.1459E+01  0.4340E+02
      8.425  0.1466E+01  0.4350E+02
      8.493  0.1467E+01  0.4360E+02
      8.561  0.1346E+01  0.4369E+02
      8.629  0.1306E+01  0.4378E+02
      8.697  0.1265E+01  0.4387E+02
      8.765  0.8729E+00  0.4400E+02
      8.833  0.8504E+00  0.4406E+02
      8.901  0.8270E+00  0.4412E+02
      8.969  0.8041E+00  0.4417E+02
      9.037  0.7885E+00  0.4423E+02
      9.105  0.7811E+00  0.4428E+02
      9.173  0.7980E+00  0.4433E+02
      9.241  0.8198E+00  0.4439E+02
      9.309  0.8417E+00  0.4445E+02
      9.377  0.8637E+00  0.4450E+02
      9.445  0.8858E+00  0.4456E+02
      9.513  0.9079E+00  0.4462E+02
      9.581  0.1071E+01  0.4469E+02
      9.649  0.1131E+01  0.4476E+02
      9.717  0.1201E+01  0.4484E+02
      9.785  0.2001E+01  0.4495E+02
      9.853  0.1277E+01  0.4505E+02
      9.921  0.1299E+01  0.4514E+02
      9.989  0.1319E+01  0.4523E+02
     10.057  0.1338E+01  0.4532E+02
     10.125  0.1308E+01  0.4541E+02
     10.193  0.1270E+01  0.4550E+02
     10.261  0.1394E+01  0.4558E+02
     10.329  0.1291E+01  0.4568E+02
     10.397  0.1188E+01  0.4576E+02
     10.465  0.1083E+01  0.4584E+02
     10.533  0.1071E+01  0.4591E+02
     10.601  0.1074E+01  0.4598E+02
     10.669  0.1076E+01  0.4606E+02
     10.738  0.1072E+01  0.4613E+02
     10.806  0.1063E+01  0.4620E+02
     10.874  0.1052E+01  0.4627E+02
     10.942  0.1039E+01  0.4634E+02
     11.010  0.1029E+01  0.4641E+02
     11.078  0.1029E+01  0.4648E+02
     11.146  0.1040E+01  0.4655E+02
     11.214  0.1068E+01  0.4663E+02
     11.282  0.1072E+01  0.4670E+02
     11.350  0.1067E+01  0.4677E+02
     11.418  0.1059E+01  0.4684E+02
     11.486  0.1050E+01  0.4692E+02
     11.554  0.1037E+01  0.4699E+02
     11.622  0.1023E+01  0.4706E+02
     11.690  0.1006E+01  0.4713E+02
     11.758  0.9866E+00  0.4719E+02
     11.826  0.9648E+00  0.4726E+02
     11.894  0.1053E+01  0.4733E+02
     11.962  0.9893E+00  0.4739E+02
     12.030  0.9240E+00  0.4746E+02
     12.098  0.8492E+00  0.4752E+02
     12.166  0.7637E+00  0.4758E+02
     12.234  0.6735E+00  0.4762E+02
     12.302  0.6313E+00  0.4767E+02
     12.370  0.6125E+00  0.4771E+02
     12.438  0.5902E+00  0.4775E+02
     12.506  0.5645E+00  0.4779E+02
     12.574  0.5353E+00  0.4783E+02
     12.642  0.4251E+00  0.4786E+02
     12.710  0.3373E+00  0.4789E+02
     12.778  0.2512E+00  0.4791E+02
     12.846  0.1891E+00  0.4792E+02
     12.914  0.1699E+00  0.4793E+02
     12.982  0.1516E+00  0.4795E+02
     13.050  0.1343E+00  0.4796E+02
     13.118  0.1178E+00  0.4796E+02
     13.186  0.1023E+00  0.4797E+02
     13.254  0.8770E-01  0.4798E+02
     13.322  0.7401E-01  0.4798E+02
     13.390  0.6124E-01  0.4799E+02
     13.458  0.4938E-01  0.4799E+02
     13.526  0.3844E-01  0.4799E+02
     13.594  0.2842E-01  0.4800E+02
     13.662  0.1931E-01  0.4800E+02
     13.730  0.1112E-01  0.4800E+02
     13.798  0.3851E-02  0.4800E+02
     13.866  0.0000E+00  0.4800E+02
     13.934  0.0000E+00  0.4800E+02
     14.002  0.0000E+00  0.4800E+02
     14.070  0.0000E+00  0.4800E+02
     14.138  0.0000E+00  0.4800E+02
     14.206  0.0000E+00  0.4800E+02
     14.274  0.0000E+00  0.4800E+02
     14.342  0.0000E+00  0.4800E+02
     14.410  0.0000E+00  0.4800E+02
     14.478  0.0000E+00  0.4800E+02
     14.546  0.0000E+00  0.4800E+02
     14.614  0.0000E+00  0.4800E+02
     14.682  0.0000E+00  0.4800E+02
     14.750  0.0000E+00  0.4800E+02
     14.818  0.0000E+00  0.4800E+02
     14.886  0.0000E+00  0.4800E+02
     14.954  0.0000E+00  0.4800E+02
     15.022  0.0000E+00  0.4800E+02
     15.090  0.0000E+00  0.4800E+02
     15.158  0.0000E+00  0.4800E+02
     15.226  0.0000E+00  0.4800E+02
     15.294  0.0000E+00  0.4800E+02
     15.362  0.0000E+00  0.4800E+02
     15.430  0.0000E+00  0.4800E+02
     15.498  0.0000E+00  0.4800E+02
     15.566  0.0000E+00  0.4800E+02
     15.634  0.0000E+00  0.4800E+02
     15.702  0.0000E+00  0.4800E+02
     15.770  0.0000E+00  0.4800E+02
     15.838  0.0000E+00  0.4800E+02
