    4    4    1    1
  0.1600000E+02  0.4000000E-09  0.4000000E-09  0.4000000E-09  0.5000000E-15
  1.000000000000000E-004
  CAR 
 unknown system                          
     40     20     24
 
  0.0000000E+00  0.0000000E+00  0.0000000E+00  0.2915452E-02
    1       -2.564090   1.000000
    2        0.563007   1.000000
    3        0.563007   1.000000
    4        0.563007   1.000000
    5        0.975040   1.000000
    6        0.975040   1.000000
    7        0.975040   1.000000
    8        3.561195   1.000000
    9        3.561195   1.000000
   10        3.561195   1.000000
   11        5.531492   1.000000
   12        5.531492   1.000000
   13        7.012723   0.999238
   14        7.012723   0.999224
   15        7.012723   0.996565
   16        7.437325   0.334849
   17        7.437325  -0.102411
   18        7.437325  -0.063527
   19        7.437325   0.000000
   20        7.437325   0.000000
   21        7.437325   0.000000
   22        8.925690   0.000000
   23        8.925690   0.000000
   24        8.925690   0.000000
 
  0.1428571E+00  0.0000000E+00  0.0000000E+00  0.1749271E-01
    1       -2.305667   1.000000
    2        0.650397   1.000000
    3        0.749701   1.000000
    4        0.749701   1.000000
    5        1.079913   1.000000
    6        1.132618   1.000000
    7        1.132618   1.000000
    8        3.400790   1.000000
    9        3.691730   1.000000
   10        3.691730   1.000000
   11        5.355198   1.000000
   12        5.597860   1.000000
   13        6.257339   1.000004
   14        6.257339   1.000005
   15        6.748448   0.999611
   16        6.748448   0.980754
   17        6.931236   0.920097
   18        7.127132   0.617579
   19        7.127132   0.168145
   20        7.437867  -0.042535
   21        7.437867   0.000000
   22        7.680013   0.000000
   23       10.253099   0.000000
   24       10.253099   0.000000
 
  0.2857143E+00  0.0000000E+00  0.0000000E+00  0.1749271E-01
    1       -1.563490   1.000000
    2        0.789105   1.000000
    3        1.246477   1.000000
    4        1.246477   1.000000
    5        1.383091   1.000000
    6        1.602153   1.000000
    7        1.602153   1.000000
    8        2.975606   1.000000
    9        4.077220   1.000000
   10        4.077220   1.000000
   11        4.746909   1.000000
   12        4.746909   1.000000
   13        4.898557   1.000000
   14        5.679659   1.000000
   15        5.787219   1.000000
   16        6.057290   1.000000
   17        6.057290   1.000000
   18        6.377465   1.004153
   19        6.377465   1.082842
   20        6.708012   0.921605
   21        7.439143  -0.000684
   22        7.439143  -0.000107
   23       12.183846   0.000000
   24       12.183846   0.000000
 
  0.4285714E+00  0.0000000E+00  0.0000000E+00  0.1749271E-01
    1       -0.478835   1.000000
    2        0.510219   1.000000
    3        1.781938   1.000000
    4        1.781938   1.000000
    5        1.849611   1.000000
    6        2.374230   1.000000
    7        2.374230   1.000000
    8        2.414208   1.000000
    9        3.431873   1.000000
   10        3.431873   1.000000
   11        4.406913   1.000000
   12        4.441177   1.000000
   13        4.695810   1.000000
   14        4.695810   1.000000
   15        5.349440   1.000000
   16        5.349440   1.000000
   17        5.497845   1.000000
   18        5.497845   1.000000
   19        6.070062   1.002063
   20        6.398191   1.071831
   21        7.440179  -0.010444
   22        7.440179  -0.009956
   23       13.837503   0.000000
   24       13.838036   0.000000
 
  0.1428571E+00  0.1428571E+00  0.0000000E+00  0.3498542E-01
    1       -2.055967   1.000000
    2        0.842177   1.000000
    3        0.842177   1.000000
    4        0.879524   1.000000
    5        1.231455   1.000000
    6        1.231455   1.000000
    7        1.323222   1.000000
    8        3.334998   1.000000
    9        3.741657   1.000000
   10        3.785169   1.000000
   11        5.315299   1.000000
   12        5.575497   1.000000
   13        5.736379   1.000037
   14        5.736379   1.000039
   15        5.740080   1.000380
   16        6.534989   1.003624
   17        6.745100   0.997427
   18        6.745100   0.983776
   19        7.125765   0.296051
   20        7.125765   0.034387
   21        7.238263  -0.009130
   22        9.110986   0.000000
   23        9.110986   0.000000
   24       11.123789   0.000000
 
  0.2857143E+00  0.1428571E+00  0.0000000E+00  0.6997085E-01
    1       -1.338777   1.000000
    2        0.992516   1.000000
    3        1.271067   1.000000
    4        1.358215   1.000000
    5        1.516876   1.000000
    6        1.682009   1.000000
    7        1.821695   1.000000
    8        2.986517   1.000000
    9        4.019277   1.000000
   10        4.085441   1.000000
   11        4.308757   1.000000
   12        4.584982   1.000000
   13        4.684430   1.000000
   14        4.990303   1.000000
   15        5.807837   1.000000
   16        5.951328   1.000000
   17        6.137204   1.000000
   18        6.373376   1.002374
   19        6.392949   1.109368
   20        7.121856   0.305721
   21        7.134162   0.038857
   22        7.606917  -0.000125
   23       10.693900   0.000000
   24       12.822099   0.000000
 
  0.4285714E+00  0.1428571E+00  0.0000000E+00  0.6997085E-01
    1       -0.285211   1.000000
    2        0.703683   1.000000
    3        1.847815   1.000000
    4        1.932747   1.000000
    5        1.953530   1.000000
    6        2.397223   1.000000
    7        2.417311   1.000000
    8        2.476942   1.000000
    9        3.133005   1.000000
   10        3.407492   1.000000
   11        3.943217   1.000000
   12        4.020134   1.000000
   13        4.694111   1.000000
   14        5.000056   1.000000
   15        5.354450   1.000000
   16        5.453134   1.000000
   17        5.493236   1.000000
   18        5.652091   1.000000
   19        6.217789   1.003165
   20        6.755371   1.010062
   21        7.115123   0.070106
   22        7.116623  -0.000706
   23       11.890387   0.000000
   24       12.626383   0.000000
 
  0.2857143E+00  0.2857143E+00  0.0000000E+00  0.3498542E-01
    1       -0.696332   1.000000
    2        1.468652   1.000000
    3        1.553511   1.000000
    4        1.553511   1.000000
    5        1.909334   1.000000
    6        1.909334   1.000000
    7        2.287326   1.000000
    8        2.901279   1.000000
    9        3.541060   1.000000
   10        3.541060   1.000000
   11        3.953927   1.000000
   12        4.069318   1.000000
   13        4.254840   1.000000
   14        4.888976   1.000000
   15        5.604269   1.000000
   16        5.947772   1.000000
   17        5.947772   1.000000
   18        6.168219   1.000000
   19        6.366268   1.044794
   20        6.366268   1.162621
   21        6.681013   1.097207
   22        8.935731  -0.000085
   23        8.935731   0.000000
   24       11.989147   0.000000
 
  0.4285714E+00  0.2857143E+00  0.0000000E+00  0.6997085E-01
    1        0.250590   1.000000
    2        1.214318   1.000000
    3        1.908817   1.000000
    4        2.245328   1.000000
    5        2.267980   1.000000
    6        2.529380   1.000000
    7        2.604227   1.000000
    8        2.613735   1.000000
    9        2.616576   1.000000
   10        3.303147   1.000000
   11        3.313510   1.000000
   12        3.710999   1.000000
   13        4.748942   1.000000
   14        4.889523   1.000000
   15        5.215763   1.000000
   16        5.378048   1.000000
   17        5.390152   1.000000
   18        5.500672   1.000000
   19        6.375629   1.003369
   20        6.448581   1.016394
   21        6.855434   0.795142
   22        7.724189  -0.002996
   23       10.062766   0.000000
   24       10.967990   0.000000
 
  0.4285714E+00  0.4285714E+00  0.0000000E+00  0.3498542E-01
    1        0.989173   1.000000
    2        1.744912   1.000000
    3        1.744912   1.000000
    4        1.905949   1.000000
    5        2.655429   1.000000
    6        2.655429   1.000000
    7        2.703944   1.000000
    8        2.934172   1.000000
    9        3.013736   1.000000
   10        3.013736   1.000000
   11        3.051168   1.000000
   12        3.498903   1.000000
   13        4.658242   1.000000
   14        4.887378   1.000000
   15        4.948099   1.000000
   16        4.948099   1.000000
   17        5.015237   1.000000
   18        5.590637   1.000000
   19        5.590637   1.000000
   20        5.882906   1.000000
   21        7.756238  -0.151460
   22        8.762308   0.000000
   23        8.762308   0.000000
   24        9.755610   0.000000
 
  0.1428571E+00  0.1428571E+00  0.1428571E+00  0.2332362E-01
    1       -1.818890   1.000000
    2        0.962984   1.000000
    3        0.962984   1.000000
    4        0.962984   1.000000
    5        1.426399   1.000000
    6        1.426399   1.000000
    7        1.426399   1.000000
    8        3.298996   1.000000
    9        3.809724   1.000000
   10        3.809724   1.000000
   11        5.299145   1.000000
   12        5.299145   1.000000
   13        5.299145   1.000026
   14        5.438335   1.000025
   15        5.438335   1.000084
   16        6.231496   1.007468
   17        6.231496   1.016812
   18        6.231496   1.029544
   19        7.246380   0.126163
   20        7.246380  -0.006916
   21        7.246380  -0.025001
   22        9.842056   0.000000
   23        9.842056   0.000000
   24        9.842056   0.000000
 
  0.2857143E+00  0.1428571E+00  0.1428571E+00  0.6997085E-01
    1       -1.139966   1.000000
    2        1.088070   1.000000
    3        1.334045   1.000000
    4        1.334045   1.000000
    5        1.722286   1.000000
    6        1.925602   1.000000
    7        1.925602   1.000000
    8        3.035414   1.000000
    9        3.985597   1.000000
   10        4.027886   1.000000
   11        4.230576   1.000000
   12        4.230576   1.000000
   13        4.341032   1.000000
   14        5.178470   1.000000
   15        5.614723   1.000000
   16        5.772720   1.000000
   17        5.788234   1.000000
   18        5.788234   1.002068
   19        7.084221   0.593314
   20        7.098610   0.287151
   21        7.098610   0.064580
   22        7.977850  -0.000068
   23       11.171081   0.000000
   24       11.171081   0.000000
 
  0.4285714E+00  0.1428571E+00  0.1428571E+00  0.6997085E-01
    1       -0.146505   1.000000
    2        0.793122   1.000000
    3        1.918342   1.000000
    4        1.918342   1.000000
    5        2.137670   1.000000
    6        2.355393   1.000000
    7        2.355393   1.000000
    8        2.599418   1.000000
    9        3.334129   1.000000
   10        3.334129   1.000000
   11        3.740183   1.000000
   12        3.899194   1.000000
   13        4.415860   1.000000
   14        4.964596   1.000000
   15        5.303436   1.000000
   16        5.303436   1.000000
   17        5.449443   1.000000
   18        6.233488   1.000000
   19        6.465408   1.021739
   20        6.711347   1.027417
   21        6.974992   0.552182
   22        6.974992   0.012320
   23       12.254646   0.000000
   24       12.254652   0.000000
 
  0.2857143E+00  0.2857143E+00  0.1428571E+00  0.6997085E-01
    1       -0.578804   1.000000
    2        1.372006   1.000000
    3        1.372006   1.000000
    4        1.444293   1.000000
    5        2.250063   1.000000
    6        2.250063   1.000000
    7        2.376577   1.000000
    8        3.066744   1.000000
    9        3.580821   1.000000
   10        3.580821   1.000000
   11        3.931049   1.000000
   12        3.937839   1.000000
   13        4.039703   1.000000
   14        5.246498   1.000000
   15        5.270698   1.000000
   16        5.270698   1.000000
   17        5.271464   1.000000
   18        6.072145   1.000000
   19        6.915761   0.882109
   20        6.926198   0.810728
   21        6.926198   0.674677
   22        9.129623  -0.000039
   23        9.129623   0.000000
   24       12.271471   0.000000
 
  0.4285714E+00  0.2857143E+00  0.1428571E+00  0.1399417E+00
    1        0.225249   1.000000
    2        1.011171   1.000000
    3        1.707826   1.000000
    4        1.736932   1.000000
    5        2.574446   1.000000
    6        2.575526   1.000000
    7        2.665297   1.000000
    8        2.926360   1.000000
    9        3.295095   1.000000
   10        3.343772   1.000000
   11        3.624090   1.000000
   12        3.702522   1.000000
   13        4.241528   1.000000
   14        4.677538   1.000000
   15        4.902543   1.000000
   16        4.977399   1.000000
   17        5.568336   1.000000
   18        6.350971   1.000000
   19        6.674639   1.016329
   20        6.674974   1.027238
   21        6.746567   0.966372
   22        7.643231  -0.001818
   23       10.251694   0.000000
   24       11.266270   0.000000
 
  0.4285714E+00  0.4285714E+00  0.1428571E+00  0.6997085E-01
    1        0.724596   1.000000
    2        1.255518   1.000000
    3        1.255518   1.000000
    4        1.473845   1.000000
    5        2.879361   1.000000
    6        3.067368   1.000000
    7        3.067368   1.000000
    8        3.224745   1.000000
    9        3.372118   1.000000
   10        3.372118   1.000000
   11        3.578336   1.000000
   12        3.750337   1.000000
   13        4.174873   1.000000
   14        4.478948   1.000000
   15        4.478948   1.000000
   16        4.505637   1.000000
   17        5.612489   1.000000
   18        6.134307   1.000000
   19        6.134307   1.010364
   20        6.283881   1.010279
   21        7.639112  -0.126265
   22        8.710653   0.000000
   23        8.710653   0.000000
   24        9.808251   0.000000
 
  0.2857143E+00  0.2857143E+00  0.2857143E+00  0.2332362E-01
    1       -0.249248   1.000000
    2        1.235068   1.000000
    3        1.235068   1.000000
    4        1.235068   1.000000
    5        2.704924   1.000000
    6        2.704924   1.000000
    7        2.704924   1.000000
    8        3.468460   1.000000
    9        3.735929   1.000000
   10        3.735929   1.000000
   11        3.735929   1.000000
   12        3.856837   1.000000
   13        3.856837   1.000000
   14        4.660919   1.000000
   15        4.660919   1.000000
   16        4.660919   1.000000
   17        5.923853   1.000000
   18        5.923853   1.000000
   19        7.124613   0.359765
   20        7.124613   0.313036
   21        7.124613   0.004299
   22        9.748132  -0.000015
   23        9.748132   0.000000
   24        9.748132   0.000000
 
  0.4285714E+00  0.2857143E+00  0.2857143E+00  0.6997085E-01
    1        0.233201   1.000000
    2        0.777821   1.000000
    3        1.200427   1.000000
    4        1.200427   1.000000
    5        2.840395   1.000000
    6        2.840395   1.000000
    7        3.223738   1.000000
    8        3.640815   1.000000
    9        3.684313   1.000000
   10        3.737638   1.000000
   11        3.897438   1.000000
   12        4.094612   1.000000
   13        4.094612   1.000000
   14        4.177105   1.000000
   15        4.386299   1.000000
   16        4.386299   1.000000
   17        6.307726   1.000000
   18        6.556876   1.000000
   19        6.925705   0.959103
   20        6.925705   0.957467
   21        7.001646   0.322998
   22        7.680107  -0.000398
   23       10.474872   0.000000
   24       10.474872   0.000000
 
  0.4285714E+00  0.4285714E+00  0.2857143E+00  0.6997085E-01
    1        0.383707   1.000000
    2        0.714970   1.000000
    3        0.714970   1.000000
    4        0.854269   1.000000
    5        3.117718   1.000000
    6        3.247943   1.000000
    7        3.247943   1.000000
    8        3.564305   1.000000
    9        3.747900   1.000000
   10        3.929804   1.000000
   11        3.929804   1.000000
   12        3.987394   1.000000
   13        4.530937   1.000000
   14        4.541589   1.000000
   15        4.541589   1.000000
   16        4.707976   1.000000
   17        6.334885   1.000000
   18        6.789730   1.000000
   19        6.789730   1.046062
   20        6.812031   1.042314
   21        7.284082  -0.030142
   22        8.500667   0.000000
   23        8.500667   0.000000
   24        9.564404   0.000000
 
  0.4285714E+00  0.4285714E+00  0.4285714E+00  0.2332362E-01
    1        0.265412   1.000000
    2        0.425846   1.000000
    3        0.425846   1.000000
    4        0.425846   1.000000
    5        3.400055   1.000000
    6        3.400055   1.000000
    7        3.400055   1.000000
    8        3.565668   1.000000
    9        3.565668   1.000000
   10        3.650611   1.000000
   11        3.650611   1.000000
   12        3.650611   1.000000
   13        5.624763   1.000000
   14        5.624763   1.000000
   15        5.624763   1.000000
   16        5.912238   1.000000
   17        6.869728   1.000000
   18        6.869728   1.000000
   19        7.047733   0.439415
   20        7.047733   0.410778
   21        7.047733   0.000000
   22        8.144701   0.000000
   23        8.144701   0.000000
   24        8.144701   0.000000
