Starting job 28218136 ("jobfile") on c16-27 at Fri Sep 20 12:15:23 CEST 2019
 running on    4 total cores
 distrk:  each k-point on    4 cores,    1 groups
 distr:  one band on    2 cores,    2 groups
 using from now: INCAR     
 vasp.5.4.1 05Feb16 (build Mar 02 2016 14:09:44) complex                        
  
 POSCAR found type information on POSCAR  Pt
 POSCAR found :  1 types and       4 ions

 ----------------------------------------------------------------------------- 
|                                                                             |
|  ADVICE TO THIS USER RUNNING 'VASP/VAMP'   (HEAR YOUR MASTER'S VOICE ...):  |
|                                                                             |
|      You have a (more or less) 'small supercell' and for smaller cells      |
|      it is recommended  to use the reciprocal-space projection scheme!      |
|      The real space optimization is not  efficient for small cells and it   |
|      is also less accurate ...                                              |
|      Therefore set LREAL=.FALSE. in the  INCAR file                         |
|                                                                             |
 ----------------------------------------------------------------------------- 

 LDA part: xc-table for Pade appr. of Perdew
 POSCAR, INCAR and KPOINTS ok, starting setup
 WARNING: small aliasing (wrap around) errors must be expected
 FFT: planning ...
 WAVECAR not read
 entering main loop
       N       E                     dE             d eps       ncg     rms          rms(c)
DAV:   1     0.466142703267E+03    0.46614E+03   -0.18356E+04   960   0.163E+03
DAV:   2     0.625345180364E+01   -0.45989E+03   -0.44511E+03   976   0.531E+02
DAV:   3    -0.246745325175E+02   -0.30928E+02   -0.30099E+02  1320   0.127E+02
DAV:   4    -0.257061819642E+02   -0.10316E+01   -0.10223E+01  1016   0.304E+01
DAV:   5    -0.257345219696E+02   -0.28340E-01   -0.28182E-01  1184   0.328E+00    0.728E+00
RMM:   6    -0.243646970802E+02    0.13698E+01   -0.31333E+00   960   0.190E+01    0.240E+00
RMM:   7    -0.242686525390E+02    0.96045E-01   -0.11852E+00   992   0.815E+00    0.642E-01
RMM:   8    -0.242552167572E+02    0.13436E-01   -0.55038E-02   994   0.240E+00    0.198E-01
RMM:   9    -0.242551145931E+02    0.10216E-03   -0.95303E-03  1074   0.450E-01    0.413E-02
RMM:  10    -0.242552532935E+02   -0.13870E-03   -0.14504E-03  1010   0.433E-01    0.707E-02
RMM:  11    -0.242551298545E+02    0.12344E-03   -0.62179E-04   974   0.306E-01    0.340E-03
RMM:  12    -0.242551308433E+02   -0.98879E-06   -0.35114E-05   619   0.301E-02
   1 F= -.24255131E+02 E0= -.24255131E+02  d E =0.000000E+00

Currently Loaded Modulefiles:
  1) intel/2016.1       2) vasp/5.4.1.Feb16

Job script resource usage:
       JobID  MaxVMSize     MaxRSS 
------------ ---------- ---------- 
28218136.ba+    216752K      2235K 

Job step resource usage:
       JobID    JobName  AllocCPUS  MaxVMSize     MaxRSS    Elapsed ExitCode 
------------ ---------- ---------- ---------- ---------- ---------- -------- 
28218136        jobfile          4                         00:00:10      0:0 
28218136.0    pmi_proxy          1    279832K       511K   00:00:08      0:0 

Job 28218136 ("jobfile") completed on c16-27 at Fri Sep 20 12:15:32 CEST 2019
