<?xml version="1.0" encoding="ISO-8859-1"?>
<modeling>
 <generator>
  <i name="program" type="string">vasp </i>
  <i name="version" type="string">5.4.1  </i>
  <i name="subversion" type="string">05Feb16 (build Mar 02 2016 14:09:44) complex                          parallel </i>
  <i name="platform" type="string">Abel-impi-ifc-cuda </i>
  <i name="date" type="string">2019 09 20 </i>
  <i name="time" type="string">12:15:24 </i>
 </generator>
 <incar>
  <i type="string" name="PREC">normal    ! low/normal/accurate</i>
  <i type="string" name="ALGO"> Fast      ! Algorithm for electronic re</i>
  <i type="int" name="ISPIN">     1</i>
  <i type="int" name="NELMIN">     4</i>
  <i name="EDIFF">      0.00001000</i>
  <i type="int" name="NSW">     0</i>
  <i name="ENCUT">    500.00000000</i>
  <i type="string" name="LREAL"> Auto      ! Projection in reciprocal sp</i>
  <i type="int" name="ISMEAR">    -5</i>
  <i name="SIGMA">      0.20000000</i>
  <i type="logical" name="LWAVE"> F  </i>
  <v type="int" name="KPOINT_BSE">    -1     0     0     0</v>
 </incar>
 <kpoints>
  <generation param="Gamma">
   <v type="int" name="divisions">       7        7        7 </v>
   <v name="usershift">      0.00000000       0.00000000       0.00000000 </v>
   <v name="genvec1">      0.14285714       0.00000000       0.00000000 </v>
   <v name="genvec2">      0.00000000       0.14285714       0.00000000 </v>
   <v name="genvec3">      0.00000000       0.00000000       0.14285714 </v>
   <v name="shift">      0.00000000       0.00000000       0.00000000 </v>
  </generation>
  <varray name="kpointlist" >
   <v>       0.00000000       0.00000000       0.00000000 </v>
   <v>       0.14285714       0.00000000       0.00000000 </v>
   <v>       0.28571429       0.00000000       0.00000000 </v>
   <v>       0.42857143       0.00000000       0.00000000 </v>
   <v>       0.14285714       0.14285714       0.00000000 </v>
   <v>       0.28571429       0.14285714       0.00000000 </v>
   <v>       0.42857143       0.14285714       0.00000000 </v>
   <v>       0.28571429       0.28571429       0.00000000 </v>
   <v>       0.42857143       0.28571429       0.00000000 </v>
   <v>       0.42857143       0.42857143       0.00000000 </v>
   <v>       0.14285714       0.14285714       0.14285714 </v>
   <v>       0.28571429       0.14285714       0.14285714 </v>
   <v>       0.42857143       0.14285714       0.14285714 </v>
   <v>       0.28571429       0.28571429       0.14285714 </v>
   <v>       0.42857143       0.28571429       0.14285714 </v>
   <v>       0.42857143       0.42857143       0.14285714 </v>
   <v>       0.28571429       0.28571429       0.28571429 </v>
   <v>       0.42857143       0.28571429       0.28571429 </v>
   <v>       0.42857143       0.42857143       0.28571429 </v>
   <v>       0.42857143       0.42857143       0.42857143 </v>
  </varray>
  <varray name="weights" >
   <v>       0.00291545 </v>
   <v>       0.01749271 </v>
   <v>       0.01749271 </v>
   <v>       0.01749271 </v>
   <v>       0.03498542 </v>
   <v>       0.06997085 </v>
   <v>       0.06997085 </v>
   <v>       0.03498542 </v>
   <v>       0.06997085 </v>
   <v>       0.03498542 </v>
   <v>       0.02332362 </v>
   <v>       0.06997085 </v>
   <v>       0.06997085 </v>
   <v>       0.06997085 </v>
   <v>       0.13994169 </v>
   <v>       0.06997085 </v>
   <v>       0.02332362 </v>
   <v>       0.06997085 </v>
   <v>       0.06997085 </v>
   <v>       0.02332362 </v>
  </varray>
  <varray name="tetrahedronlist"  type="int" >
   <v type="int" >       12        1        2        2        5 </v>
   <v type="int" >       12        2        2        5        5 </v>
   <v type="int" >       12        2        5        5       11 </v>
   <v type="int" >       12        2        3        5        6 </v>
   <v type="int" >       12        2        5        5        6 </v>
   <v type="int" >       12        5        5        6       11 </v>
   <v type="int" >       12        3        5        6        6 </v>
   <v type="int" >       24        5        6        6       12 </v>
   <v type="int" >       24        5        6       11       12 </v>
   <v type="int" >       12        3        4        6        7 </v>
   <v type="int" >       12        3        6        6        7 </v>
   <v type="int" >       12        6        6        7       12 </v>
   <v type="int" >       12        4        6        7        7 </v>
   <v type="int" >       12        6        7        7       13 </v>
   <v type="int" >       12        6        7       12       13 </v>
   <v type="int" >        6        4        4        7        7 </v>
   <v type="int" >       12        4        7        7        7 </v>
   <v type="int" >       12        7        7        7       13 </v>
   <v type="int" >        6        7        7       13       13 </v>
   <v type="int" >       12        5        6        8       11 </v>
   <v type="int" >       12        6        8       11       12 </v>
   <v type="int" >       12        8       11       12       14 </v>
   <v type="int" >       12        6        7        9       12 </v>
   <v type="int" >       12        6        8        9       12 </v>
   <v type="int" >       12        8        9       12       14 </v>
   <v type="int" >       12        7        9       12       13 </v>
   <v type="int" >       12        9       12       13       15 </v>
   <v type="int" >       12        9       12       14       15 </v>
   <v type="int" >       12        7        7        9       13 </v>
   <v type="int" >       12        7        9        9       13 </v>
   <v type="int" >       12        9        9       13       15 </v>
   <v type="int" >       12        7        9       13       13 </v>
   <v type="int" >       12        9       13       13       15 </v>
   <v type="int" >       12        9       13       15       15 </v>
   <v type="int" >       12        6        7        8       13 </v>
   <v type="int" >       12        7        8        9       13 </v>
   <v type="int" >       12        8        9       13       15 </v>
   <v type="int" >       12        6        8       12       13 </v>
   <v type="int" >       12        8       12       13       14 </v>
   <v type="int" >       12        8       13       14       15 </v>
   <v type="int" >       12        6        6        8       12 </v>
   <v type="int" >       12        6        8       12       14 </v>
   <v type="int" >       12        6       11       12       12 </v>
   <v type="int" >       12        6       12       12       14 </v>
   <v type="int" >       12        2        3        5       11 </v>
   <v type="int" >       12        3        5        6       11 </v>
   <v type="int" >       12        3        6       11       12 </v>
   <v type="int" >       12        8        9       10       14 </v>
   <v type="int" >       12        9       10       14       15 </v>
   <v type="int" >       12       10       14       15       16 </v>
   <v type="int" >       24        9        9       10       15 </v>
   <v type="int" >       12        9       10       10       15 </v>
   <v type="int" >       12       10       10       15       16 </v>
   <v type="int" >       12        9       10       15       15 </v>
   <v type="int" >       12       10       15       15       16 </v>
   <v type="int" >       12       10       15       16       16 </v>
   <v type="int" >       12        8        9        9       15 </v>
   <v type="int" >       12        9       10       15       16 </v>
   <v type="int" >       12        8        9       14       15 </v>
   <v type="int" >       12        9       14       15       15 </v>
   <v type="int" >       24        9       15       15       16 </v>
   <v type="int" >       12        6        7        8       14 </v>
   <v type="int" >       12        7        8        9       14 </v>
   <v type="int" >       12        7        9       14       15 </v>
   <v type="int" >       12        6        7       12       14 </v>
   <v type="int" >       12        7       12       13       14 </v>
   <v type="int" >       12        7       13       14       15 </v>
   <v type="int" >       12        3        4        6       12 </v>
   <v type="int" >       12        4        6        7       12 </v>
   <v type="int" >       12        4        7       12       13 </v>
   <v type="int" >       12       10       10       10       16 </v>
   <v type="int" >       12       10       10       16       16 </v>
   <v type="int" >       12       10       16       16       16 </v>
   <v type="int" >       12        9        9       10       16 </v>
   <v type="int" >       12        9       10       10       16 </v>
   <v type="int" >       12        9       10       16       16 </v>
   <v type="int" >       12        9        9       15       16 </v>
   <v type="int" >       12        9       15       16       16 </v>
   <v type="int" >       12        7        7        9       15 </v>
   <v type="int" >       12        7        9        9       15 </v>
   <v type="int" >       12        7        9       15       15 </v>
   <v type="int" >       12        7        7       13       15 </v>
   <v type="int" >       12        7       13       13       15 </v>
   <v type="int" >       12        7       13       15       15 </v>
   <v type="int" >       12        4        4        7       13 </v>
   <v type="int" >       12        4        7        7       13 </v>
   <v type="int" >       12        4        7       13       13 </v>
   <v type="int" >       12        8        9       10       16 </v>
   <v type="int" >       12        8        9       15       16 </v>
   <v type="int" >       12        8       14       15       16 </v>
   <v type="int" >       12        6        7        9       15 </v>
   <v type="int" >       12        6        8        9       15 </v>
   <v type="int" >       12        6        8       14       15 </v>
   <v type="int" >       12        6        7       13       15 </v>
   <v type="int" >       12        6       12       13       15 </v>
   <v type="int" >       12        6       12       14       15 </v>
   <v type="int" >       12        3        4        7       13 </v>
   <v type="int" >       12        3        6        7       13 </v>
   <v type="int" >       12        3        6       12       13 </v>
   <v type="int" >       12        5        6        8       14 </v>
   <v type="int" >       12        5        6       12       14 </v>
   <v type="int" >       12        5       11       12       14 </v>
   <v type="int" >       12        2        3        6       12 </v>
   <v type="int" >       12        2        5        6       12 </v>
   <v type="int" >       12        2        5       11       12 </v>
   <v type="int" >       12        1        2        5       11 </v>
   <v type="int" >       12       11       12       12       14 </v>
   <v type="int" >       12       12       12       14       14 </v>
   <v type="int" >       12       12       14       14       17 </v>
   <v type="int" >       12       12       13       14       15 </v>
   <v type="int" >       12       12       14       14       15 </v>
   <v type="int" >       12       14       14       15       17 </v>
   <v type="int" >       12       13       14       15       15 </v>
   <v type="int" >       24       14       15       15       18 </v>
   <v type="int" >       24       14       15       17       18 </v>
   <v type="int" >        6       13       13       15       15 </v>
   <v type="int" >       12       13       15       15       15 </v>
   <v type="int" >       12       15       15       15       18 </v>
   <v type="int" >        6       15       15       18       18 </v>
   <v type="int" >       12       14       15       16       17 </v>
   <v type="int" >       12       15       16       17       18 </v>
   <v type="int" >       12       16       17       18       19 </v>
   <v type="int" >       24       15       15       16       18 </v>
   <v type="int" >       12       15       16       16       18 </v>
   <v type="int" >       12       16       16       18       19 </v>
   <v type="int" >       12       15       16       18       18 </v>
   <v type="int" >       12       16       18       18       19 </v>
   <v type="int" >       12       16       18       19       19 </v>
   <v type="int" >       12       15       16       18       19 </v>
   <v type="int" >       12       15       17       18       18 </v>
   <v type="int" >       24       15       18       18       19 </v>
   <v type="int" >       12       12       13       14       17 </v>
   <v type="int" >       12       13       14       15       17 </v>
   <v type="int" >       12       13       15       17       18 </v>
   <v type="int" >       12       16       16       16       19 </v>
   <v type="int" >       12       16       16       19       19 </v>
   <v type="int" >       12       16       19       19       19 </v>
   <v type="int" >       12       15       15       16       19 </v>
   <v type="int" >       12       15       16       16       19 </v>
   <v type="int" >       12       15       16       19       19 </v>
   <v type="int" >       12       15       15       18       19 </v>
   <v type="int" >       12       15       18       19       19 </v>
   <v type="int" >       12       13       13       15       18 </v>
   <v type="int" >       12       13       15       15       18 </v>
   <v type="int" >       12       13       15       18       18 </v>
   <v type="int" >       12       14       15       16       19 </v>
   <v type="int" >       12       14       15       18       19 </v>
   <v type="int" >       12       14       17       18       19 </v>
   <v type="int" >       12       12       13       15       18 </v>
   <v type="int" >       12       12       14       15       18 </v>
   <v type="int" >       12       12       14       17       18 </v>
   <v type="int" >       12       11       12       14       17 </v>
   <v type="int" >       12       17       18       18       19 </v>
   <v type="int" >       18       18       18       19       19 </v>
   <v type="int" >       24       18       19       19       20 </v>
   <v type="int" >       12       18       19       19       19 </v>
   <v type="int" >       24       19       19       19       20 </v>
   <v type="int" >       18       19       19       20       20 </v>
   <v type="int" >       12       19       20       20       20 </v>
   <v type="int" >       12       18       18       19       20 </v>
   <v type="int" >       12       18       19       20       20 </v>
   <v type="int" >       12       17       18       19       20 </v>
   <v type="int" >        6       20       20       20       20 </v>
  </varray>
  <i name="volumeweight">      0.00048591 </i>
 </kpoints>
 <parameters>
  <separator name="general" >
   <i type="string" name="SYSTEM">unknown system</i>
   <i type="logical" name="LCOMPAT"> F  </i>
  </separator>
  <separator name="electronic" >
   <i type="string" name="PREC">normal</i>
   <i name="ENMAX">    500.00000000</i>
   <i name="ENAUG">    358.96600000</i>
   <i name="EDIFF">      0.00001000</i>
   <i type="int" name="IALGO">    68</i>
   <i type="int" name="IWAVPR">    10</i>
   <i type="int" name="NBANDS">    24</i>
   <i name="NELECT">     40.00000000</i>
   <i type="int" name="TURBO">     0</i>
   <i type="int" name="IRESTART">     0</i>
   <i type="int" name="NREBOOT">     0</i>
   <i type="int" name="NMIN">     0</i>
   <i name="EREF">      0.00000000</i>
   <separator name="electronic smearing" >
    <i type="int" name="ISMEAR">    -5</i>
    <i name="SIGMA">      0.20000000</i>
    <i name="KSPACING">      0.50000000</i>
    <i type="logical" name="KGAMMA"> T  </i>
   </separator>
   <separator name="electronic projectors" >
    <i type="logical" name="LREAL"> T  </i>
    <v name="ROPT">     -0.00050000</v>
    <i type="int" name="LMAXPAW">  -100</i>
    <i type="int" name="LMAXMIX">     2</i>
    <i type="logical" name="NLSPLINE"> F  </i>
   </separator>
   <separator name="electronic startup" >
    <i type="int" name="ISTART">     0</i>
    <i type="int" name="ICHARG">     2</i>
    <i type="int" name="INIWAV">     1</i>
   </separator>
   <separator name="electronic spin" >
    <i type="int" name="ISPIN">     1</i>
    <i type="logical" name="LNONCOLLINEAR"> F  </i>
    <v name="MAGMOM">      1.00000000      1.00000000      1.00000000      1.00000000</v>
    <i name="NUPDOWN">     -1.00000000</i>
    <i type="logical" name="LSORBIT"> F  </i>
    <v name="SAXIS">      0.00000000      0.00000000      1.00000000</v>
    <i type="logical" name="LSPIRAL"> F  </i>
    <v name="QSPIRAL">      0.00000000      0.00000000      0.00000000</v>
    <i type="logical" name="LZEROZ"> F  </i>
   </separator>
   <separator name="electronic exchange-correlation" >
    <i type="logical" name="LASPH"> F  </i>
    <i type="logical" name="LMETAGGA"> F  </i>
   </separator>
   <separator name="electronic convergence" >
    <i type="int" name="NELM">    60</i>
    <i type="int" name="NELMDL">    -5</i>
    <i type="int" name="NELMIN">     4</i>
    <i name="ENINI">    500.00000000</i>
    <separator name="electronic convergence detail" >
     <i type="logical" name="LDIAG"> T  </i>
     <i type="logical" name="LSUBROT"> F  </i>
     <i name="WEIMIN">      0.00000000</i>
     <i name="EBREAK">      0.00000010</i>
     <i name="DEPER">      0.30000000</i>
     <i type="int" name="NRMM">     4</i>
     <i name="TIME">      0.40000000</i>
    </separator>
   </separator>
   <separator name="electronic mixer" >
    <i name="AMIX">      0.40000000</i>
    <i name="BMIX">      1.00000000</i>
    <i name="AMIN">      0.10000000</i>
    <i name="AMIX_MAG">      1.60000000</i>
    <i name="BMIX_MAG">      1.00000000</i>
    <separator name="electronic mixer details" >
     <i type="int" name="IMIX">     4</i>
     <i type="logical" name="MIXFIRST"> F  </i>
     <i type="int" name="MAXMIX">   -45</i>
     <i name="WC">    100.00000000</i>
     <i type="int" name="INIMIX">     1</i>
     <i type="int" name="MIXPRE">     1</i>
     <i type="int" name="MREMOVE">     5</i>
    </separator>
   </separator>
   <separator name="electronic dipolcorrection" >
    <i type="logical" name="LDIPOL"> F  </i>
    <i type="logical" name="LMONO"> F  </i>
    <i type="int" name="IDIPOL">     0</i>
    <i name="EPSILON">      1.00000000</i>
    <v name="DIPOL">   -100.00000000   -100.00000000   -100.00000000</v>
    <i name="EFIELD">      0.00000000</i>
   </separator>
  </separator>
  <separator name="grids" >
   <i type="int" name="NGX">    24</i>
   <i type="int" name="NGY">    24</i>
   <i type="int" name="NGZ">    24</i>
   <i type="int" name="NGXF">    48</i>
   <i type="int" name="NGYF">    48</i>
   <i type="int" name="NGZF">    48</i>
   <i type="logical" name="ADDGRID"> F  </i>
  </separator>
  <separator name="ionic" >
   <i type="int" name="NSW">     0</i>
   <i type="int" name="IBRION">    -1</i>
   <i type="int" name="ISIF">     2</i>
   <i name="PSTRESS">      0.00000000</i>
   <i name="EDIFFG">      0.00010000</i>
   <i type="int" name="NFREE">     0</i>
   <i name="POTIM">      0.50000000</i>
   <i name="SMASS">     -3.00000000</i>
   <i name="SCALEE">      1.00000000</i>
  </separator>
  <separator name="ionic md" >
   <i name="TEBEG">      0.00010000</i>
   <i name="TEEND">      0.00010000</i>
   <i type="int" name="NBLOCK">     1</i>
   <i type="int" name="KBLOCK">     1</i>
   <i type="int" name="NPACO">   256</i>
   <i name="APACO">     16.00000000</i>
  </separator>
  <separator name="symmetry" >
   <i type="int" name="ISYM">     2</i>
   <i name="SYMPREC">      0.00001000</i>
  </separator>
  <separator name="dos" >
   <i type="logical" name="LORBIT"> F  </i>
   <v name="RWIGS">     -1.00000000</v>
   <i type="int" name="NEDOS">   301</i>
   <i name="EMIN">     10.00000000</i>
   <i name="EMAX">    -10.00000000</i>
   <i name="EFERMI">      0.00000000</i>
  </separator>
  <separator name="writing" >
   <i type="int" name="NWRITE">     2</i>
   <i type="logical" name="LWAVE"> F  </i>
   <i type="logical" name="LCHARG"> T  </i>
   <i type="logical" name="LPARD"> F  </i>
   <i type="logical" name="LVTOT"> F  </i>
   <i type="logical" name="LVHAR"> F  </i>
   <i type="logical" name="LELF"> F  </i>
   <i type="logical" name="LOPTICS"> F  </i>
   <v name="STM">      0.00000000      0.00000000      0.00000000      0.00000000      0.00000000      0.00000000      0.00000000</v>
  </separator>
  <separator name="performance" >
   <i type="int" name="NPAR">     2</i>
   <i type="int" name="NSIM">     4</i>
   <i type="int" name="NBLK">    -1</i>
   <i type="logical" name="LPLANE"> T  </i>
   <i type="logical" name="LSCALAPACK"> F  </i>
   <i type="logical" name="LSCAAWARE"> F  </i>
   <i type="logical" name="LSCALU"> F  </i>
   <i type="logical" name="LASYNC"> F  </i>
   <i type="logical" name="LORBITALREAL"> F  </i>
  </separator>
  <separator name="miscellaneous" >
   <i type="int" name="IDIOT">     3</i>
   <i type="logical" name="LMUSIC"> F  </i>
   <v name="POMASS">    195.08000000</v>
   <v name="DARWINR">      0.00000000</v>
   <v name="DARWINV">      1.00000000</v>
   <i type="logical" name="LCORR"> T  </i>
  </separator>
  <i type="logical" name="GGA_COMPAT"> T  </i>
  <i type="logical" name="LBERRY"> F  </i>
  <i type="int" name="ICORELEVEL">     0</i>
  <i type="logical" name="LDAU"> F  </i>
  <i type="int" name="I_CONSTRAINED_M">     0</i>
  <separator name="electronic exchange-correlation" >
   <i type="string" name="GGA">--</i>
   <i type="int" name="VOSKOWN">     0</i>
   <i type="logical" name="LHFCALC"> F  </i>
   <i type="string" name="PRECFOCK"></i>
   <i type="logical" name="LSYMGRAD"> F  </i>
   <i type="logical" name="LHFONE"> F  </i>
   <i type="logical" name="LRHFCALC"> F  </i>
   <i type="logical" name="LTHOMAS"> F  </i>
   <i type="logical" name="LMODELHF"> F  </i>
   <i name="ENCUT4O">     -1.00000000</i>
   <i type="int" name="EXXOEP">     0</i>
   <i type="int" name="FOURORBIT">     0</i>
   <i name="AEXX">      0.00000000</i>
   <i name="HFALPHA">      0.00000000</i>
   <i name="MCALPHA">      0.00000000</i>
   <i name="ALDAX">      1.00000000</i>
   <i name="AGGAX">      1.00000000</i>
   <i name="ALDAC">      1.00000000</i>
   <i name="AGGAC">      1.00000000</i>
   <i type="int" name="NKREDX">     1</i>
   <i type="int" name="NKREDY">     1</i>
   <i type="int" name="NKREDZ">     1</i>
   <i type="logical" name="SHIFTRED"> F  </i>
   <i type="logical" name="ODDONLY"> F  </i>
   <i type="logical" name="EVENONLY"> F  </i>
   <i type="int" name="LMAXFOCK">     0</i>
   <i type="int" name="NMAXFOCKAE">     0</i>
   <i type="logical" name="LFOCKAEDFT"> F  </i>
   <i name="HFSCREEN">      0.00000000</i>
   <i name="HFSCREENC">      0.00000000</i>
   <i type="int" name="NBANDSGWLOW">     0</i>
  </separator>
  <separator name="vdW DFT" >
   <i type="logical" name="LUSE_VDW"> F  </i>
   <i name="Zab_VDW">     -0.84910000</i>
   <i name="PARAM1">      0.12340000</i>
   <i name="PARAM2">      1.00000000</i>
   <i name="PARAM3">      0.00000000</i>
  </separator>
  <separator name="model GW" >
   <i type="int" name="MODEL_GW">     0</i>
   <i name="MODEL_EPS0">      9.60000000</i>
   <i name="MODEL_ALPHA">      1.00000000</i>
  </separator>
  <separator name="linear response parameters" >
   <i type="logical" name="LEPSILON"> F  </i>
   <i type="logical" name="LRPA"> F  </i>
   <i type="logical" name="LNABLA"> F  </i>
   <i type="logical" name="LVEL"> F  </i>
   <i type="int" name="KINTER">     0</i>
   <i name="CSHIFT">      0.10000000</i>
   <i name="OMEGAMAX">     -1.00000000</i>
   <i name="DEG_THRESHOLD">      0.00200000</i>
  </separator>
  <separator name="orbital magnetization" >
   <i type="logical" name="NUCIND"> F  </i>
   <v name="MAGPOS">      0.00000000      0.00000000      0.00000000</v>
   <i type="logical" name="LNICSALL"> T  </i>
   <i type="logical" name="ORBITALMAG"> F  </i>
   <i type="logical" name="LMAGBLOCH"> F  </i>
   <i type="logical" name="LCHIMAG"> F  </i>
   <i type="logical" name="LGAUGE"> T  </i>
   <i type="int" name="MAGATOM">     0</i>
   <v name="MAGDIPOL">      0.00000000      0.00000000      0.00000000</v>
   <v name="AVECCONST">      0.00000000      0.00000000      0.00000000</v>
  </separator>
  <separator name="response functions" >
   <i type="logical" name="LADDER"> F  </i>
   <i type="logical" name="LFXC"> F  </i>
   <i type="logical" name="LHARTREE"> T  </i>
   <i type="int" name="IBSE">     0</i>
   <v type="int" name="KPOINT">    -1     0     0     0</v>
   <i type="logical" name="LTCTE"> F  </i>
   <i type="logical" name="LTETE"> F  </i>
   <i type="logical" name="LTRIPLET"> F  </i>
   <i type="logical" name="LFXCEPS"> F  </i>
   <i type="logical" name="LFXHEG"> F  </i>
   <i type="int" name="NATURALO">     0</i>
   <i type="logical" name="L2ORDER"> F  </i>
   <i type="logical" name="LUSEW"> F  </i>
   <i name="ENCUTGW">     -2.00000000</i>
   <i name="ENCUTGWSOFT">     -2.00000000</i>
   <i name="ENCUTLF">     -1.00000000</i>
   <i type="int" name="LMAXMP2">    -1</i>
   <i name="SCISSOR">      0.00000000</i>
   <i type="int" name="NOMEGA">     0</i>
   <i type="int" name="NOMEGAR">     0</i>
   <i type="int" name="NBANDSGW">    -1</i>
   <i type="int" name="NBANDSO">    -1</i>
   <i type="int" name="NBANDSV">    -1</i>
   <i type="int" name="NELM">     1</i>
   <i type="int" name="NELMHF">     1</i>
   <i type="int" name="DIM">     3</i>
   <i type="int" name="ANTIRES">     0</i>
   <i name="OMEGAMAX">    -30.00000000</i>
   <i name="OMEGAMIN">    -30.00000000</i>
   <i name="OMEGATL">   -200.00000000</i>
   <i type="int" name="OMEGAGRID">     0</i>
   <i name="CSHIFT">     -0.10000000</i>
   <i type="logical" name="SELFENERGY"> F  </i>
   <i type="logical" name="LSPECTRAL"> F  </i>
   <i type="logical" name="LSPECTRALGW"> F  </i>
   <i type="logical" name="LSINGLES"> F  </i>
   <i type="logical" name="LFERMIGW"> F  </i>
   <i type="logical" name="ODDONLYGW"> F  </i>
   <i type="logical" name="EVENONLYGW"> F  </i>
   <i type="int" name="NKREDLFX">     1</i>
   <i type="int" name="NKREDLFY">     1</i>
   <i type="int" name="NKREDLFZ">     1</i>
   <i type="int" name="MAXMEM">  1800</i>
   <i type="int" name="TELESCOPE">     0</i>
   <i type="int" name="TAUPAR">     1</i>
   <i type="int" name="OMEGAPAR">    -1</i>
   <i name="LAMBDA">      1.00000000</i>
  </separator>
  <separator name="External order field" >
   <i name="OFIELD_KAPPA">      0.00000000</i>
   <v name="OFIELD_K">      0.00000000      0.00000000      0.00000000</v>
   <i name="OFIELD_Q6_NEAR">      0.00000000</i>
   <i name="OFIELD_Q6_FAR">      0.00000000</i>
   <i name="OFIELD_A">      0.00000000</i>
  </separator>
 </parameters>
 <atominfo>
  <atoms>       4 </atoms>
  <types>       1 </types>
  <array name="atoms" >
   <dimension dim="1">ion</dimension>
   <field type="string">element</field>
   <field type="int">atomtype</field>
   <set>
    <rc><c>Pt</c><c>   1</c></rc>
    <rc><c>Pt</c><c>   1</c></rc>
    <rc><c>Pt</c><c>   1</c></rc>
    <rc><c>Pt</c><c>   1</c></rc>
   </set>
  </array>
  <array name="atomtypes" >
   <dimension dim="1">type</dimension>
   <field type="int">atomspertype</field>
   <field type="string">element</field>
   <field>mass</field>
   <field>valence</field>
   <field type="string">pseudopotential</field>
   <set>
    <rc><c>   4</c><c>Pt</c><c>    195.08000000</c><c>     10.00000000</c><c> PAW_PBE Pt 05Jan2001                   </c></rc>
   </set>
  </array>
 </atominfo>
 <structure name="initialpos" >
  <crystal>
   <varray name="basis" >
    <v>       4.00000000       0.00000000       0.00000000 </v>
    <v>       0.00000000       4.00000000       0.00000000 </v>
    <v>       0.00000000       0.00000000       4.00000000 </v>
   </varray>
   <i name="volume">     64.00000000 </i>
   <varray name="rec_basis" >
    <v>       0.25000000       0.00000000       0.00000000 </v>
    <v>       0.00000000       0.25000000       0.00000000 </v>
    <v>       0.00000000       0.00000000       0.25000000 </v>
   </varray>
  </crystal>
  <varray name="positions" >
   <v>       0.00000000       0.00000000       0.00000000 </v>
   <v>       0.00000000       0.50000000       0.50000000 </v>
   <v>       0.50000000       0.00000000       0.50000000 </v>
   <v>       0.50000000       0.50000000       0.00000000 </v>
  </varray>
 </structure>
 <calculation>
  <scstep>
   <time name="dav">    0.35    0.35</time>
   <time name="total">    0.38    0.66</time>
   <energy>
    <i name="alphaZ">    363.73820000 </i>
    <i name="ewald">  -3301.05193786 </i>
    <i name="hartreedc">   -307.27343439 </i>
    <i name="XCdc">     14.24297255 </i>
    <i name="pawpsdc">   2292.98197300 </i>
    <i name="pawaedc">  -2179.84848231 </i>
    <i name="eentropy">      0.00000000 </i>
    <i name="bandstr">    666.90074505 </i>
    <i name="atom">   2916.45266723 </i>
    <i name="e_fr_energy">    466.14270327 </i>
    <i name="e_wo_entrp">    466.14270327 </i>
    <i name="e_0_energy">    466.14270327 </i>
   </energy>
  </scstep>
  <scstep>
   <time name="dav">    0.35    0.35</time>
   <time name="total">    0.36    0.36</time>
   <energy>
    <i name="e_fr_energy">      6.25345180 </i>
    <i name="e_wo_entrp">      6.25345180 </i>
    <i name="e_0_energy">      6.25345180 </i>
   </energy>
  </scstep>
  <scstep>
   <time name="dav">    0.44    0.44</time>
   <time name="total">    0.45    0.46</time>
   <energy>
    <i name="e_fr_energy">    -24.67453252 </i>
    <i name="e_wo_entrp">    -24.67453252 </i>
    <i name="e_0_energy">    -24.67453252 </i>
   </energy>
  </scstep>
  <scstep>
   <time name="dav">    0.35    0.35</time>
   <time name="total">    0.36    0.36</time>
   <energy>
    <i name="e_fr_energy">    -25.70618196 </i>
    <i name="e_wo_entrp">    -25.70618196 </i>
    <i name="e_0_energy">    -25.70618196 </i>
   </energy>
  </scstep>
  <scstep>
   <time name="dav">    0.40    0.40</time>
   <time name="total">    0.44    0.44</time>
   <energy>
    <i name="e_fr_energy">    -25.73452197 </i>
    <i name="e_wo_entrp">    -25.73452197 </i>
    <i name="e_0_energy">    -25.73452197 </i>
   </energy>
  </scstep>
  <scstep>
   <time name="diag">    0.05    0.06</time>
   <time name="diis">    0.21    0.21</time>
   <time name="orth">    0.01    0.01</time>
   <time name="total">    0.33    0.33</time>
   <energy>
    <i name="e_fr_energy">    -24.36469708 </i>
    <i name="e_wo_entrp">    -24.36469708 </i>
    <i name="e_0_energy">    -24.36469708 </i>
   </energy>
  </scstep>
  <scstep>
   <time name="diag">    0.05    0.05</time>
   <time name="diis">    0.22    0.22</time>
   <time name="orth">    0.01    0.01</time>
   <time name="total">    0.34    0.34</time>
   <energy>
    <i name="e_fr_energy">    -24.26865254 </i>
    <i name="e_wo_entrp">    -24.26865254 </i>
    <i name="e_0_energy">    -24.26865254 </i>
   </energy>
  </scstep>
  <scstep>
   <time name="diag">    0.05    0.05</time>
   <time name="diis">    0.22    0.22</time>
   <time name="orth">    0.01    0.01</time>
   <time name="total">    0.34    0.34</time>
   <energy>
    <i name="e_fr_energy">    -24.25521676 </i>
    <i name="e_wo_entrp">    -24.25521676 </i>
    <i name="e_0_energy">    -24.25521676 </i>
   </energy>
  </scstep>
  <scstep>
   <time name="diag">    0.05    0.05</time>
   <time name="diis">    0.24    0.24</time>
   <time name="orth">    0.01    0.01</time>
   <time name="total">    0.35    0.36</time>
   <energy>
    <i name="e_fr_energy">    -24.25511459 </i>
    <i name="e_wo_entrp">    -24.25511459 </i>
    <i name="e_0_energy">    -24.25511459 </i>
   </energy>
  </scstep>
  <scstep>
   <time name="diag">    0.05    0.05</time>
   <time name="diis">    0.22    0.22</time>
   <time name="orth">    0.01    0.01</time>
   <time name="total">    0.34    0.34</time>
   <energy>
    <i name="e_fr_energy">    -24.25525329 </i>
    <i name="e_wo_entrp">    -24.25525329 </i>
    <i name="e_0_energy">    -24.25525329 </i>
   </energy>
  </scstep>
  <scstep>
   <time name="diag">    0.05    0.05</time>
   <time name="diis">    0.21    0.21</time>
   <time name="orth">    0.01    0.01</time>
   <time name="total">    0.33    0.33</time>
   <energy>
    <i name="e_fr_energy">    -24.25512985 </i>
    <i name="e_wo_entrp">    -24.25512985 </i>
    <i name="e_0_energy">    -24.25512985 </i>
   </energy>
  </scstep>
  <scstep>
   <time name="diag">    0.05    0.05</time>
   <time name="diis">    0.15    0.15</time>
   <time name="orth">    0.01    0.01</time>
   <time name="total">    0.24    0.25</time>
   <energy>
    <i name="alphaZ">    363.73820000 </i>
    <i name="ewald">  -3301.05193786 </i>
    <i name="hartreedc">   -267.82517672 </i>
    <i name="XCdc">     12.78199054 </i>
    <i name="pawpsdc">   2360.63833188 </i>
    <i name="pawaedc">  -2257.10695952 </i>
    <i name="eentropy">      0.00000000 </i>
    <i name="bandstr">    148.11775361 </i>
    <i name="atom">   2916.45266723 </i>
    <i name="e_fr_energy">    -24.25513084 </i>
    <i name="e_wo_entrp">    -24.25513084 </i>
    <i name="e_0_energy">    -24.25513084 </i>
   </energy>
  </scstep>
  <structure>
   <crystal>
    <varray name="basis" >
     <v>       4.00000000       0.00000000       0.00000000 </v>
     <v>       0.00000000       4.00000000       0.00000000 </v>
     <v>       0.00000000       0.00000000       4.00000000 </v>
    </varray>
    <i name="volume">     64.00000000 </i>
    <varray name="rec_basis" >
     <v>       0.25000000       0.00000000       0.00000000 </v>
     <v>       0.00000000       0.25000000       0.00000000 </v>
     <v>       0.00000000       0.00000000       0.25000000 </v>
    </varray>
   </crystal>
   <varray name="positions" >
    <v>       0.00000000       0.00000000       0.00000000 </v>
    <v>       0.00000000       0.50000000       0.50000000 </v>
    <v>       0.50000000       0.00000000       0.50000000 </v>
    <v>       0.50000000       0.50000000       0.00000000 </v>
   </varray>
  </structure>
  <varray name="forces" >
   <v>      -0.00000000       0.00000000      -0.00000000 </v>
   <v>       0.00000000      -0.00000000       0.00000000 </v>
   <v>      -0.00000000       0.00000000       0.00000000 </v>
   <v>       0.00000000       0.00000000      -0.00000000 </v>
  </varray>
  <varray name="stress" >
   <v>     -46.05271609       0.00000000       0.00000000 </v>
   <v>       0.00000000     -46.05271609       0.00000000 </v>
   <v>      -0.00000000      -0.00000000     -46.05271609 </v>
  </varray>
  <energy>
   <i name="e_fr_energy">    -24.25513084 </i>
   <i name="e_wo_entrp">    -24.25513084 </i>
   <i name="e_0_energy">      0.00000000 </i>
  </energy>
  <time name="totalsc">    4.96    5.37</time>
  <eigenvalues>
   <array>
    <dimension dim="1">band</dimension>
    <dimension dim="2">kpoint</dimension>
    <dimension dim="3">spin</dimension>
    <field>eigene</field>
    <field>occ</field>
    <set>
     <set comment="spin 1">
      <set comment="kpoint 1">
       <r>   -2.5641    1.0000 </r>
       <r>    0.5630    1.0000 </r>
       <r>    0.5630    1.0000 </r>
       <r>    0.5630    1.0000 </r>
       <r>    0.9750    1.0000 </r>
       <r>    0.9750    1.0000 </r>
       <r>    0.9750    1.0000 </r>
       <r>    3.5612    1.0000 </r>
       <r>    3.5612    1.0000 </r>
       <r>    3.5612    1.0000 </r>
       <r>    5.5315    1.0000 </r>
       <r>    5.5315    1.0000 </r>
       <r>    7.0127    0.9992 </r>
       <r>    7.0127    0.9992 </r>
       <r>    7.0127    0.9966 </r>
       <r>    7.4373    0.3348 </r>
       <r>    7.4373   -0.1024 </r>
       <r>    7.4373   -0.0635 </r>
       <r>    7.4373    0.0000 </r>
       <r>    7.4373    0.0000 </r>
       <r>    7.4373    0.0000 </r>
       <r>    8.9257    0.0000 </r>
       <r>    8.9257    0.0000 </r>
       <r>    8.9257    0.0000 </r>
      </set>
      <set comment="kpoint 2">
       <r>   -2.3057    1.0000 </r>
       <r>    0.6504    1.0000 </r>
       <r>    0.7497    1.0000 </r>
       <r>    0.7497    1.0000 </r>
       <r>    1.0799    1.0000 </r>
       <r>    1.1326    1.0000 </r>
       <r>    1.1326    1.0000 </r>
       <r>    3.4008    1.0000 </r>
       <r>    3.6917    1.0000 </r>
       <r>    3.6917    1.0000 </r>
       <r>    5.3552    1.0000 </r>
       <r>    5.5979    1.0000 </r>
       <r>    6.2573    1.0000 </r>
       <r>    6.2573    1.0000 </r>
       <r>    6.7484    0.9996 </r>
       <r>    6.7484    0.9808 </r>
       <r>    6.9312    0.9201 </r>
       <r>    7.1271    0.6176 </r>
       <r>    7.1271    0.1681 </r>
       <r>    7.4379   -0.0425 </r>
       <r>    7.4379    0.0000 </r>
       <r>    7.6800    0.0000 </r>
       <r>   10.2531    0.0000 </r>
       <r>   10.2531    0.0000 </r>
      </set>
      <set comment="kpoint 3">
       <r>   -1.5635    1.0000 </r>
       <r>    0.7891    1.0000 </r>
       <r>    1.2465    1.0000 </r>
       <r>    1.2465    1.0000 </r>
       <r>    1.3831    1.0000 </r>
       <r>    1.6022    1.0000 </r>
       <r>    1.6022    1.0000 </r>
       <r>    2.9756    1.0000 </r>
       <r>    4.0772    1.0000 </r>
       <r>    4.0772    1.0000 </r>
       <r>    4.7469    1.0000 </r>
       <r>    4.7469    1.0000 </r>
       <r>    4.8986    1.0000 </r>
       <r>    5.6797    1.0000 </r>
       <r>    5.7872    1.0000 </r>
       <r>    6.0573    1.0000 </r>
       <r>    6.0573    1.0000 </r>
       <r>    6.3775    1.0042 </r>
       <r>    6.3775    1.0828 </r>
       <r>    6.7080    0.9216 </r>
       <r>    7.4391   -0.0007 </r>
       <r>    7.4391   -0.0001 </r>
       <r>   12.1838    0.0000 </r>
       <r>   12.1838    0.0000 </r>
      </set>
      <set comment="kpoint 4">
       <r>   -0.4788    1.0000 </r>
       <r>    0.5102    1.0000 </r>
       <r>    1.7819    1.0000 </r>
       <r>    1.7819    1.0000 </r>
       <r>    1.8496    1.0000 </r>
       <r>    2.3742    1.0000 </r>
       <r>    2.3742    1.0000 </r>
       <r>    2.4142    1.0000 </r>
       <r>    3.4319    1.0000 </r>
       <r>    3.4319    1.0000 </r>
       <r>    4.4069    1.0000 </r>
       <r>    4.4412    1.0000 </r>
       <r>    4.6958    1.0000 </r>
       <r>    4.6958    1.0000 </r>
       <r>    5.3494    1.0000 </r>
       <r>    5.3494    1.0000 </r>
       <r>    5.4978    1.0000 </r>
       <r>    5.4978    1.0000 </r>
       <r>    6.0701    1.0021 </r>
       <r>    6.3982    1.0718 </r>
       <r>    7.4402   -0.0104 </r>
       <r>    7.4402   -0.0100 </r>
       <r>   13.8375    0.0000 </r>
       <r>   13.8380    0.0000 </r>
      </set>
      <set comment="kpoint 5">
       <r>   -2.0560    1.0000 </r>
       <r>    0.8422    1.0000 </r>
       <r>    0.8422    1.0000 </r>
       <r>    0.8795    1.0000 </r>
       <r>    1.2315    1.0000 </r>
       <r>    1.2315    1.0000 </r>
       <r>    1.3232    1.0000 </r>
       <r>    3.3350    1.0000 </r>
       <r>    3.7417    1.0000 </r>
       <r>    3.7852    1.0000 </r>
       <r>    5.3153    1.0000 </r>
       <r>    5.5755    1.0000 </r>
       <r>    5.7364    1.0000 </r>
       <r>    5.7364    1.0000 </r>
       <r>    5.7401    1.0004 </r>
       <r>    6.5350    1.0036 </r>
       <r>    6.7451    0.9974 </r>
       <r>    6.7451    0.9838 </r>
       <r>    7.1258    0.2961 </r>
       <r>    7.1258    0.0344 </r>
       <r>    7.2383   -0.0091 </r>
       <r>    9.1110    0.0000 </r>
       <r>    9.1110    0.0000 </r>
       <r>   11.1238    0.0000 </r>
      </set>
      <set comment="kpoint 6">
       <r>   -1.3388    1.0000 </r>
       <r>    0.9925    1.0000 </r>
       <r>    1.2711    1.0000 </r>
       <r>    1.3582    1.0000 </r>
       <r>    1.5169    1.0000 </r>
       <r>    1.6820    1.0000 </r>
       <r>    1.8217    1.0000 </r>
       <r>    2.9865    1.0000 </r>
       <r>    4.0193    1.0000 </r>
       <r>    4.0854    1.0000 </r>
       <r>    4.3088    1.0000 </r>
       <r>    4.5850    1.0000 </r>
       <r>    4.6844    1.0000 </r>
       <r>    4.9903    1.0000 </r>
       <r>    5.8078    1.0000 </r>
       <r>    5.9513    1.0000 </r>
       <r>    6.1372    1.0000 </r>
       <r>    6.3734    1.0024 </r>
       <r>    6.3929    1.1094 </r>
       <r>    7.1219    0.3057 </r>
       <r>    7.1342    0.0389 </r>
       <r>    7.6069   -0.0001 </r>
       <r>   10.6939    0.0000 </r>
       <r>   12.8221    0.0000 </r>
      </set>
      <set comment="kpoint 7">
       <r>   -0.2852    1.0000 </r>
       <r>    0.7037    1.0000 </r>
       <r>    1.8478    1.0000 </r>
       <r>    1.9327    1.0000 </r>
       <r>    1.9535    1.0000 </r>
       <r>    2.3972    1.0000 </r>
       <r>    2.4173    1.0000 </r>
       <r>    2.4769    1.0000 </r>
       <r>    3.1330    1.0000 </r>
       <r>    3.4075    1.0000 </r>
       <r>    3.9432    1.0000 </r>
       <r>    4.0201    1.0000 </r>
       <r>    4.6941    1.0000 </r>
       <r>    5.0001    1.0000 </r>
       <r>    5.3544    1.0000 </r>
       <r>    5.4531    1.0000 </r>
       <r>    5.4932    1.0000 </r>
       <r>    5.6521    1.0000 </r>
       <r>    6.2178    1.0032 </r>
       <r>    6.7554    1.0101 </r>
       <r>    7.1151    0.0701 </r>
       <r>    7.1166   -0.0007 </r>
       <r>   11.8904    0.0000 </r>
       <r>   12.6264    0.0000 </r>
      </set>
      <set comment="kpoint 8">
       <r>   -0.6963    1.0000 </r>
       <r>    1.4687    1.0000 </r>
       <r>    1.5535    1.0000 </r>
       <r>    1.5535    1.0000 </r>
       <r>    1.9093    1.0000 </r>
       <r>    1.9093    1.0000 </r>
       <r>    2.2873    1.0000 </r>
       <r>    2.9013    1.0000 </r>
       <r>    3.5411    1.0000 </r>
       <r>    3.5411    1.0000 </r>
       <r>    3.9539    1.0000 </r>
       <r>    4.0693    1.0000 </r>
       <r>    4.2548    1.0000 </r>
       <r>    4.8890    1.0000 </r>
       <r>    5.6043    1.0000 </r>
       <r>    5.9478    1.0000 </r>
       <r>    5.9478    1.0000 </r>
       <r>    6.1682    1.0000 </r>
       <r>    6.3663    1.0448 </r>
       <r>    6.3663    1.1626 </r>
       <r>    6.6810    1.0972 </r>
       <r>    8.9357   -0.0001 </r>
       <r>    8.9357    0.0000 </r>
       <r>   11.9891    0.0000 </r>
      </set>
      <set comment="kpoint 9">
       <r>    0.2506    1.0000 </r>
       <r>    1.2143    1.0000 </r>
       <r>    1.9088    1.0000 </r>
       <r>    2.2453    1.0000 </r>
       <r>    2.2680    1.0000 </r>
       <r>    2.5294    1.0000 </r>
       <r>    2.6042    1.0000 </r>
       <r>    2.6137    1.0000 </r>
       <r>    2.6166    1.0000 </r>
       <r>    3.3031    1.0000 </r>
       <r>    3.3135    1.0000 </r>
       <r>    3.7110    1.0000 </r>
       <r>    4.7489    1.0000 </r>
       <r>    4.8895    1.0000 </r>
       <r>    5.2158    1.0000 </r>
       <r>    5.3780    1.0000 </r>
       <r>    5.3902    1.0000 </r>
       <r>    5.5007    1.0000 </r>
       <r>    6.3756    1.0034 </r>
       <r>    6.4486    1.0164 </r>
       <r>    6.8554    0.7951 </r>
       <r>    7.7242   -0.0030 </r>
       <r>   10.0628    0.0000 </r>
       <r>   10.9680    0.0000 </r>
      </set>
      <set comment="kpoint 10">
       <r>    0.9892    1.0000 </r>
       <r>    1.7449    1.0000 </r>
       <r>    1.7449    1.0000 </r>
       <r>    1.9059    1.0000 </r>
       <r>    2.6554    1.0000 </r>
       <r>    2.6554    1.0000 </r>
       <r>    2.7039    1.0000 </r>
       <r>    2.9342    1.0000 </r>
       <r>    3.0137    1.0000 </r>
       <r>    3.0137    1.0000 </r>
       <r>    3.0512    1.0000 </r>
       <r>    3.4989    1.0000 </r>
       <r>    4.6582    1.0000 </r>
       <r>    4.8874    1.0000 </r>
       <r>    4.9481    1.0000 </r>
       <r>    4.9481    1.0000 </r>
       <r>    5.0152    1.0000 </r>
       <r>    5.5906    1.0000 </r>
       <r>    5.5906    1.0000 </r>
       <r>    5.8829    1.0000 </r>
       <r>    7.7562   -0.1515 </r>
       <r>    8.7623    0.0000 </r>
       <r>    8.7623    0.0000 </r>
       <r>    9.7556    0.0000 </r>
      </set>
      <set comment="kpoint 11">
       <r>   -1.8189    1.0000 </r>
       <r>    0.9630    1.0000 </r>
       <r>    0.9630    1.0000 </r>
       <r>    0.9630    1.0000 </r>
       <r>    1.4264    1.0000 </r>
       <r>    1.4264    1.0000 </r>
       <r>    1.4264    1.0000 </r>
       <r>    3.2990    1.0000 </r>
       <r>    3.8097    1.0000 </r>
       <r>    3.8097    1.0000 </r>
       <r>    5.2991    1.0000 </r>
       <r>    5.2991    1.0000 </r>
       <r>    5.2991    1.0000 </r>
       <r>    5.4383    1.0000 </r>
       <r>    5.4383    1.0001 </r>
       <r>    6.2315    1.0075 </r>
       <r>    6.2315    1.0168 </r>
       <r>    6.2315    1.0295 </r>
       <r>    7.2464    0.1262 </r>
       <r>    7.2464   -0.0069 </r>
       <r>    7.2464   -0.0250 </r>
       <r>    9.8421    0.0000 </r>
       <r>    9.8421    0.0000 </r>
       <r>    9.8421    0.0000 </r>
      </set>
      <set comment="kpoint 12">
       <r>   -1.1400    1.0000 </r>
       <r>    1.0881    1.0000 </r>
       <r>    1.3340    1.0000 </r>
       <r>    1.3340    1.0000 </r>
       <r>    1.7223    1.0000 </r>
       <r>    1.9256    1.0000 </r>
       <r>    1.9256    1.0000 </r>
       <r>    3.0354    1.0000 </r>
       <r>    3.9856    1.0000 </r>
       <r>    4.0279    1.0000 </r>
       <r>    4.2306    1.0000 </r>
       <r>    4.2306    1.0000 </r>
       <r>    4.3410    1.0000 </r>
       <r>    5.1785    1.0000 </r>
       <r>    5.6147    1.0000 </r>
       <r>    5.7727    1.0000 </r>
       <r>    5.7882    1.0000 </r>
       <r>    5.7882    1.0021 </r>
       <r>    7.0842    0.5933 </r>
       <r>    7.0986    0.2872 </r>
       <r>    7.0986    0.0646 </r>
       <r>    7.9778   -0.0001 </r>
       <r>   11.1711    0.0000 </r>
       <r>   11.1711    0.0000 </r>
      </set>
      <set comment="kpoint 13">
       <r>   -0.1465    1.0000 </r>
       <r>    0.7931    1.0000 </r>
       <r>    1.9183    1.0000 </r>
       <r>    1.9183    1.0000 </r>
       <r>    2.1377    1.0000 </r>
       <r>    2.3554    1.0000 </r>
       <r>    2.3554    1.0000 </r>
       <r>    2.5994    1.0000 </r>
       <r>    3.3341    1.0000 </r>
       <r>    3.3341    1.0000 </r>
       <r>    3.7402    1.0000 </r>
       <r>    3.8992    1.0000 </r>
       <r>    4.4159    1.0000 </r>
       <r>    4.9646    1.0000 </r>
       <r>    5.3034    1.0000 </r>
       <r>    5.3034    1.0000 </r>
       <r>    5.4494    1.0000 </r>
       <r>    6.2335    1.0000 </r>
       <r>    6.4654    1.0217 </r>
       <r>    6.7113    1.0274 </r>
       <r>    6.9750    0.5522 </r>
       <r>    6.9750    0.0123 </r>
       <r>   12.2546    0.0000 </r>
       <r>   12.2547    0.0000 </r>
      </set>
      <set comment="kpoint 14">
       <r>   -0.5788    1.0000 </r>
       <r>    1.3720    1.0000 </r>
       <r>    1.3720    1.0000 </r>
       <r>    1.4443    1.0000 </r>
       <r>    2.2501    1.0000 </r>
       <r>    2.2501    1.0000 </r>
       <r>    2.3766    1.0000 </r>
       <r>    3.0667    1.0000 </r>
       <r>    3.5808    1.0000 </r>
       <r>    3.5808    1.0000 </r>
       <r>    3.9310    1.0000 </r>
       <r>    3.9378    1.0000 </r>
       <r>    4.0397    1.0000 </r>
       <r>    5.2465    1.0000 </r>
       <r>    5.2707    1.0000 </r>
       <r>    5.2707    1.0000 </r>
       <r>    5.2715    1.0000 </r>
       <r>    6.0721    1.0000 </r>
       <r>    6.9158    0.8821 </r>
       <r>    6.9262    0.8107 </r>
       <r>    6.9262    0.6747 </r>
       <r>    9.1296   -0.0000 </r>
       <r>    9.1296    0.0000 </r>
       <r>   12.2715    0.0000 </r>
      </set>
      <set comment="kpoint 15">
       <r>    0.2252    1.0000 </r>
       <r>    1.0112    1.0000 </r>
       <r>    1.7078    1.0000 </r>
       <r>    1.7369    1.0000 </r>
       <r>    2.5744    1.0000 </r>
       <r>    2.5755    1.0000 </r>
       <r>    2.6653    1.0000 </r>
       <r>    2.9264    1.0000 </r>
       <r>    3.2951    1.0000 </r>
       <r>    3.3438    1.0000 </r>
       <r>    3.6241    1.0000 </r>
       <r>    3.7025    1.0000 </r>
       <r>    4.2415    1.0000 </r>
       <r>    4.6775    1.0000 </r>
       <r>    4.9025    1.0000 </r>
       <r>    4.9774    1.0000 </r>
       <r>    5.5683    1.0000 </r>
       <r>    6.3510    1.0000 </r>
       <r>    6.6746    1.0163 </r>
       <r>    6.6750    1.0272 </r>
       <r>    6.7466    0.9664 </r>
       <r>    7.6432   -0.0018 </r>
       <r>   10.2517    0.0000 </r>
       <r>   11.2663    0.0000 </r>
      </set>
      <set comment="kpoint 16">
       <r>    0.7246    1.0000 </r>
       <r>    1.2555    1.0000 </r>
       <r>    1.2555    1.0000 </r>
       <r>    1.4738    1.0000 </r>
       <r>    2.8794    1.0000 </r>
       <r>    3.0674    1.0000 </r>
       <r>    3.0674    1.0000 </r>
       <r>    3.2247    1.0000 </r>
       <r>    3.3721    1.0000 </r>
       <r>    3.3721    1.0000 </r>
       <r>    3.5783    1.0000 </r>
       <r>    3.7503    1.0000 </r>
       <r>    4.1749    1.0000 </r>
       <r>    4.4789    1.0000 </r>
       <r>    4.4789    1.0000 </r>
       <r>    4.5056    1.0000 </r>
       <r>    5.6125    1.0000 </r>
       <r>    6.1343    1.0000 </r>
       <r>    6.1343    1.0104 </r>
       <r>    6.2839    1.0103 </r>
       <r>    7.6391   -0.1263 </r>
       <r>    8.7107    0.0000 </r>
       <r>    8.7107    0.0000 </r>
       <r>    9.8083    0.0000 </r>
      </set>
      <set comment="kpoint 17">
       <r>   -0.2492    1.0000 </r>
       <r>    1.2351    1.0000 </r>
       <r>    1.2351    1.0000 </r>
       <r>    1.2351    1.0000 </r>
       <r>    2.7049    1.0000 </r>
       <r>    2.7049    1.0000 </r>
       <r>    2.7049    1.0000 </r>
       <r>    3.4685    1.0000 </r>
       <r>    3.7359    1.0000 </r>
       <r>    3.7359    1.0000 </r>
       <r>    3.7359    1.0000 </r>
       <r>    3.8568    1.0000 </r>
       <r>    3.8568    1.0000 </r>
       <r>    4.6609    1.0000 </r>
       <r>    4.6609    1.0000 </r>
       <r>    4.6609    1.0000 </r>
       <r>    5.9239    1.0000 </r>
       <r>    5.9239    1.0000 </r>
       <r>    7.1246    0.3598 </r>
       <r>    7.1246    0.3130 </r>
       <r>    7.1246    0.0043 </r>
       <r>    9.7481   -0.0000 </r>
       <r>    9.7481    0.0000 </r>
       <r>    9.7481    0.0000 </r>
      </set>
      <set comment="kpoint 18">
       <r>    0.2332    1.0000 </r>
       <r>    0.7778    1.0000 </r>
       <r>    1.2004    1.0000 </r>
       <r>    1.2004    1.0000 </r>
       <r>    2.8404    1.0000 </r>
       <r>    2.8404    1.0000 </r>
       <r>    3.2237    1.0000 </r>
       <r>    3.6408    1.0000 </r>
       <r>    3.6843    1.0000 </r>
       <r>    3.7376    1.0000 </r>
       <r>    3.8974    1.0000 </r>
       <r>    4.0946    1.0000 </r>
       <r>    4.0946    1.0000 </r>
       <r>    4.1771    1.0000 </r>
       <r>    4.3863    1.0000 </r>
       <r>    4.3863    1.0000 </r>
       <r>    6.3077    1.0000 </r>
       <r>    6.5569    1.0000 </r>
       <r>    6.9257    0.9591 </r>
       <r>    6.9257    0.9575 </r>
       <r>    7.0016    0.3230 </r>
       <r>    7.6801   -0.0004 </r>
       <r>   10.4749    0.0000 </r>
       <r>   10.4749    0.0000 </r>
      </set>
      <set comment="kpoint 19">
       <r>    0.3837    1.0000 </r>
       <r>    0.7150    1.0000 </r>
       <r>    0.7150    1.0000 </r>
       <r>    0.8543    1.0000 </r>
       <r>    3.1177    1.0000 </r>
       <r>    3.2479    1.0000 </r>
       <r>    3.2479    1.0000 </r>
       <r>    3.5643    1.0000 </r>
       <r>    3.7479    1.0000 </r>
       <r>    3.9298    1.0000 </r>
       <r>    3.9298    1.0000 </r>
       <r>    3.9874    1.0000 </r>
       <r>    4.5309    1.0000 </r>
       <r>    4.5416    1.0000 </r>
       <r>    4.5416    1.0000 </r>
       <r>    4.7080    1.0000 </r>
       <r>    6.3349    1.0000 </r>
       <r>    6.7897    1.0000 </r>
       <r>    6.7897    1.0461 </r>
       <r>    6.8120    1.0423 </r>
       <r>    7.2841   -0.0301 </r>
       <r>    8.5007    0.0000 </r>
       <r>    8.5007    0.0000 </r>
       <r>    9.5644    0.0000 </r>
      </set>
      <set comment="kpoint 20">
       <r>    0.2654    1.0000 </r>
       <r>    0.4258    1.0000 </r>
       <r>    0.4258    1.0000 </r>
       <r>    0.4258    1.0000 </r>
       <r>    3.4001    1.0000 </r>
       <r>    3.4001    1.0000 </r>
       <r>    3.4001    1.0000 </r>
       <r>    3.5657    1.0000 </r>
       <r>    3.5657    1.0000 </r>
       <r>    3.6506    1.0000 </r>
       <r>    3.6506    1.0000 </r>
       <r>    3.6506    1.0000 </r>
       <r>    5.6248    1.0000 </r>
       <r>    5.6248    1.0000 </r>
       <r>    5.6248    1.0000 </r>
       <r>    5.9122    1.0000 </r>
       <r>    6.8697    1.0000 </r>
       <r>    6.8697    1.0000 </r>
       <r>    7.0477    0.4394 </r>
       <r>    7.0477    0.4108 </r>
       <r>    7.0477    0.0000 </r>
       <r>    8.1447    0.0000 </r>
       <r>    8.1447    0.0000 </r>
       <r>    8.1447    0.0000 </r>
      </set>
     </set>
    </set>
   </array>
  </eigenvalues>
  <separator name="orbital magnetization" >
   <v name="MAGDIPOLOUT">      0.00000000      0.00000000      0.00000000</v>
  </separator>
  <dos>
   <i name="efermi">      6.98539663 </i>
   <total>
    <array>
     <dimension dim="1">gridpoints</dimension>
     <dimension dim="2">spin</dimension>
     <field>energy</field>
     <field>total</field>
     <field>integrated</field>
     <set>
      <set comment="spin 1">
       <r>    -4.5641     0.0000     0.0000 </r>
       <r>    -4.4961     0.0000     0.0000 </r>
       <r>    -4.4281     0.0000     0.0000 </r>
       <r>    -4.3601     0.0000     0.0000 </r>
       <r>    -4.2921     0.0000     0.0000 </r>
       <r>    -4.2241     0.0000     0.0000 </r>
       <r>    -4.1560     0.0000     0.0000 </r>
       <r>    -4.0880     0.0000     0.0000 </r>
       <r>    -4.0200     0.0000     0.0000 </r>
       <r>    -3.9520     0.0000     0.0000 </r>
       <r>    -3.8840     0.0000     0.0000 </r>
       <r>    -3.8160     0.0000     0.0000 </r>
       <r>    -3.7480     0.0000     0.0000 </r>
       <r>    -3.6800     0.0000     0.0000 </r>
       <r>    -3.6120     0.0000     0.0000 </r>
       <r>    -3.5440     0.0000     0.0000 </r>
       <r>    -3.4760     0.0000     0.0000 </r>
       <r>    -3.4080     0.0000     0.0000 </r>
       <r>    -3.3400     0.0000     0.0000 </r>
       <r>    -3.2720     0.0000     0.0000 </r>
       <r>    -3.2039     0.0000     0.0000 </r>
       <r>    -3.1359     0.0000     0.0000 </r>
       <r>    -3.0679     0.0000     0.0000 </r>
       <r>    -2.9999     0.0000     0.0000 </r>
       <r>    -2.9319     0.0000     0.0000 </r>
       <r>    -2.8639     0.0000     0.0000 </r>
       <r>    -2.7959     0.0000     0.0000 </r>
       <r>    -2.7279     0.0000     0.0000 </r>
       <r>    -2.6599     0.0000     0.0000 </r>
       <r>    -2.5919     0.0000     0.0000 </r>
       <r>    -2.5239     0.0022     0.0000 </r>
       <r>    -2.4559     0.0163     0.0006 </r>
       <r>    -2.3879     0.0431     0.0025 </r>
       <r>    -2.3199     0.0828     0.0067 </r>
       <r>    -2.2518     0.1293     0.0140 </r>
       <r>    -2.1838     0.1637     0.0240 </r>
       <r>    -2.1158     0.1851     0.0360 </r>
       <r>    -2.0478     0.1931     0.0489 </r>
       <r>    -1.9798     0.1973     0.0622 </r>
       <r>    -1.9118     0.2071     0.0759 </r>
       <r>    -1.8438     0.2227     0.0905 </r>
       <r>    -1.7758     0.2429     0.1063 </r>
       <r>    -1.7078     0.2645     0.1235 </r>
       <r>    -1.6398     0.2870     0.1423 </r>
       <r>    -1.5718     0.3104     0.1626 </r>
       <r>    -1.5038     0.3323     0.1845 </r>
       <r>    -1.4358     0.3487     0.2076 </r>
       <r>    -1.3678     0.3596     0.2318 </r>
       <r>    -1.2997     0.3683     0.2565 </r>
       <r>    -1.2317     0.3820     0.2820 </r>
       <r>    -1.1637     0.4006     0.3086 </r>
       <r>    -1.0957     0.4200     0.3365 </r>
       <r>    -1.0277     0.4384     0.3657 </r>
       <r>    -0.9597     0.4572     0.3961 </r>
       <r>    -0.8917     0.4763     0.4279 </r>
       <r>    -0.8237     0.4958     0.4609 </r>
       <r>    -0.7557     0.5157     0.4953 </r>
       <r>    -0.6877     0.5360     0.5311 </r>
       <r>    -0.6197     0.5599     0.5683 </r>
       <r>    -0.5517     0.5880     0.6073 </r>
       <r>    -0.4837     0.6185     0.6483 </r>
       <r>    -0.4157     0.7728     0.6954 </r>
       <r>    -0.3477     0.9228     0.7532 </r>
       <r>    -0.2796     1.1119     0.8210 </r>
       <r>    -0.2116     1.0232     0.8935 </r>
       <r>    -0.1436     0.9538     0.9605 </r>
       <r>    -0.0756     1.0125     1.0274 </r>
       <r>    -0.0076     1.0638     1.0980 </r>
       <r>     0.0604     1.1075     1.1719 </r>
       <r>     0.1284     1.1436     1.2485 </r>
       <r>     0.1964     1.1722     1.3273 </r>
       <r>     0.2644     2.0332     1.4458 </r>
       <r>     0.3324     2.1317     1.6055 </r>
       <r>     0.4004     0.9796     1.7224 </r>
       <r>     0.4684     1.2507     1.8171 </r>
       <r>     0.5364     1.3544     1.9041 </r>
       <r>     0.6044     1.6980     2.0063 </r>
       <r>     0.6725     2.3511     2.1431 </r>
       <r>     0.7405     3.6013     2.3439 </r>
       <r>     0.8085     4.2910     2.6050 </r>
       <r>     0.8765     4.7781     2.9147 </r>
       <r>     0.9445     5.1144     3.2508 </r>
       <r>     1.0125     4.9610     3.6073 </r>
       <r>     1.0805     5.1680     3.9491 </r>
       <r>     1.1485     5.7016     4.3176 </r>
       <r>     1.2165     5.9987     4.7186 </r>
       <r>     1.2845     6.1275     5.1283 </r>
       <r>     1.3525     6.9109     5.5658 </r>
       <r>     1.4205     5.9341     5.9896 </r>
       <r>     1.4885     5.7932     6.3839 </r>
       <r>     1.5565     5.7961     6.7784 </r>
       <r>     1.6246     5.7727     7.1718 </r>
       <r>     1.6926     5.7250     7.5627 </r>
       <r>     1.7606     6.1132     7.9684 </r>
       <r>     1.8286     6.8911     8.4028 </r>
       <r>     1.8966     6.5189     8.8704 </r>
       <r>     1.9646     3.7888     9.2081 </r>
       <r>     2.0326     3.5787     9.4584 </r>
       <r>     2.1006     3.4155     9.6959 </r>
       <r>     2.1686     3.3050     9.9241 </r>
       <r>     2.2366     3.2451    10.1466 </r>
       <r>     2.3046     3.4320    10.3721 </r>
       <r>     2.3726     7.3197    10.6485 </r>
       <r>     2.4406     5.3202    11.0908 </r>
       <r>     2.5086     5.7636    11.4762 </r>
       <r>     2.5767     6.0561    11.8794 </r>
       <r>     2.6447     5.9266    12.2805 </r>
       <r>     2.7127     5.6747    12.6806 </r>
       <r>     2.7807     5.6838    13.0669 </r>
       <r>     2.8487     5.6930    13.4535 </r>
       <r>     2.9167     5.7684    13.8432 </r>
       <r>     2.9847     6.0135    14.2428 </r>
       <r>     3.0527     6.4689    14.6645 </r>
       <r>     3.1207     5.7168    15.0638 </r>
       <r>     3.1887     6.0028    15.4676 </r>
       <r>     3.2567     6.4254    15.9089 </r>
       <r>     3.3247     9.2160    16.3837 </r>
       <r>     3.3927     8.3361    17.0510 </r>
       <r>     3.4607     6.1064    17.5380 </r>
       <r>     3.5288     6.2955    17.9557 </r>
       <r>     3.5968     8.0796    18.5152 </r>
       <r>     3.6648     9.0517    19.0867 </r>
       <r>     3.7328    12.8141    19.8624 </r>
       <r>     3.8008    10.8061    20.6203 </r>
       <r>     3.8688    10.6701    21.3518 </r>
       <r>     3.9368     7.8176    22.0498 </r>
       <r>     4.0048     6.7718    22.5579 </r>
       <r>     4.0728     4.0992    22.9246 </r>
       <r>     4.1408     4.0263    23.1737 </r>
       <r>     4.2088     4.9707    23.4851 </r>
       <r>     4.2768     4.7539    23.8187 </r>
       <r>     4.3448     4.4895    24.1318 </r>
       <r>     4.4128     4.9310    24.4396 </r>
       <r>     4.4809     7.7088    24.8289 </r>
       <r>     4.5489     7.0042    25.3743 </r>
       <r>     4.6169     6.9133    25.8478 </r>
       <r>     4.6849     6.7327    26.3114 </r>
       <r>     4.7529     5.3900    26.7389 </r>
       <r>     4.8209     5.8170    27.1182 </r>
       <r>     4.8889     6.0385    27.5367 </r>
       <r>     4.9569     6.7102    27.9606 </r>
       <r>     5.0249     5.5221    28.4063 </r>
       <r>     5.0929     5.0949    28.7664 </r>
       <r>     5.1609     4.8240    29.1028 </r>
       <r>     5.2289     4.7794    29.4319 </r>
       <r>     5.2969     4.8311    29.7505 </r>
       <r>     5.3649     5.6822    30.1974 </r>
       <r>     5.4330     6.6289    30.6065 </r>
       <r>     5.5010     6.8416    31.1349 </r>
       <r>     5.5690     6.3017    31.5862 </r>
       <r>     5.6370     5.6842    32.0188 </r>
       <r>     5.7050     5.3548    32.3931 </r>
       <r>     5.7730     5.0266    32.7463 </r>
       <r>     5.8410     4.3282    33.0584 </r>
       <r>     5.9090     4.5961    33.3603 </r>
       <r>     5.9770     4.6015    33.6804 </r>
       <r>     6.0450     4.6950    33.9970 </r>
       <r>     6.1130     4.8674    34.3202 </r>
       <r>     6.1810     5.1663    34.6618 </r>
       <r>     6.2490     5.2749    35.0169 </r>
       <r>     6.3170     6.5905    35.3925 </r>
       <r>     6.3851     6.0679    35.8097 </r>
       <r>     6.4531     5.5613    36.2002 </r>
       <r>     6.5211     5.4154    36.5722 </r>
       <r>     6.5891     5.5050    36.9417 </r>
       <r>     6.6571     5.7386    37.3237 </r>
       <r>     6.7251     7.1895    37.7817 </r>
       <r>     6.7931     8.7904    38.2792 </r>
       <r>     6.8611     9.6514    38.9219 </r>
       <r>     6.9291     8.4136    39.5393 </r>
       <r>     6.9971     7.6355    40.0909 </r>
       <r>     7.0651     6.9600    40.6053 </r>
       <r>     7.1331     6.9344    41.1071 </r>
       <r>     7.2011     4.6430    41.4908 </r>
       <r>     7.2691     3.5561    41.7651 </r>
       <r>     7.3372     2.6232    41.9689 </r>
       <r>     7.4052     1.9695    42.1254 </r>
       <r>     7.4732     1.3205    42.2313 </r>
       <r>     7.5412     1.2926    42.3201 </r>
       <r>     7.6092     1.2701    42.4072 </r>
       <r>     7.6772     1.5971    42.5184 </r>
       <r>     7.7452     1.4316    42.6194 </r>
       <r>     7.8132     1.1065    42.6983 </r>
       <r>     7.8812     1.1088    42.7736 </r>
       <r>     7.9492     1.1250    42.8494 </r>
       <r>     8.0172     1.1455    42.9267 </r>
       <r>     8.0852     1.1609    43.0051 </r>
       <r>     8.1532     1.3983    43.1040 </r>
       <r>     8.2212     1.4250    43.2000 </r>
       <r>     8.2892     1.4452    43.2976 </r>
       <r>     8.3573     1.4589    43.3964 </r>
       <r>     8.4253     1.4660    43.4959 </r>
       <r>     8.4933     1.4666    43.5957 </r>
       <r>     8.5613     1.3462    43.6892 </r>
       <r>     8.6293     1.3060    43.7794 </r>
       <r>     8.6973     1.2651    43.8668 </r>
       <r>     8.7653     0.8729    44.0027 </r>
       <r>     8.8333     0.8504    44.0613 </r>
       <r>     8.9013     0.8270    44.1183 </r>
       <r>     8.9693     0.8041    44.1738 </r>
       <r>     9.0373     0.7885    44.2279 </r>
       <r>     9.1053     0.7811    44.2812 </r>
       <r>     9.1733     0.7980    44.3348 </r>
       <r>     9.2413     0.8198    44.3898 </r>
       <r>     9.3094     0.8417    44.4463 </r>
       <r>     9.3774     0.8637    44.5043 </r>
       <r>     9.4454     0.8858    44.5637 </r>
       <r>     9.5134     0.9079    44.6247 </r>
       <r>     9.5814     1.0706    44.6896 </r>
       <r>     9.6494     1.1308    44.7644 </r>
       <r>     9.7174     1.2011    44.8436 </r>
       <r>     9.7854     2.0014    44.9486 </r>
       <r>     9.8534     1.2767    45.0524 </r>
       <r>     9.9214     1.2985    45.1400 </r>
       <r>     9.9894     1.3189    45.2290 </r>
       <r>    10.0574     1.3379    45.3193 </r>
       <r>    10.1254     1.3079    45.4094 </r>
       <r>    10.1934     1.2702    45.4971 </r>
       <r>    10.2615     1.3942    45.5838 </r>
       <r>    10.3295     1.2914    45.6751 </r>
       <r>    10.3975     1.1876    45.7594 </r>
       <r>    10.4655     1.0826    45.8366 </r>
       <r>    10.5335     1.0708    45.9094 </r>
       <r>    10.6015     1.0736    45.9823 </r>
       <r>    10.6695     1.0760    46.0554 </r>
       <r>    10.7375     1.0718    46.1285 </r>
       <r>    10.8055     1.0626    46.2011 </r>
       <r>    10.8735     1.0517    46.2730 </r>
       <r>    10.9415     1.0391    46.3441 </r>
       <r>    11.0095     1.0288    46.4144 </r>
       <r>    11.0775     1.0286    46.4843 </r>
       <r>    11.1455     1.0397    46.5545 </r>
       <r>    11.2136     1.0680    46.6261 </r>
       <r>    11.2816     1.0716    46.6992 </r>
       <r>    11.3496     1.0667    46.7719 </r>
       <r>    11.4176     1.0593    46.8442 </r>
       <r>    11.4856     1.0496    46.9160 </r>
       <r>    11.5536     1.0375    46.9869 </r>
       <r>    11.6216     1.0229    47.0570 </r>
       <r>    11.6896     1.0060    47.1260 </r>
       <r>    11.7576     0.9866    47.1938 </r>
       <r>    11.8256     0.9648    47.2602 </r>
       <r>    11.8936     1.0528    47.3253 </r>
       <r>    11.9616     0.9893    47.3948 </r>
       <r>    12.0296     0.9240    47.4599 </r>
       <r>    12.0976     0.8492    47.5202 </r>
       <r>    12.1657     0.7637    47.5751 </r>
       <r>    12.2337     0.6735    47.6239 </r>
       <r>    12.3017     0.6313    47.6678 </r>
       <r>    12.3697     0.6125    47.7101 </r>
       <r>    12.4377     0.5902    47.7510 </r>
       <r>    12.5057     0.5645    47.7903 </r>
       <r>    12.5737     0.5353    47.8277 </r>
       <r>    12.6417     0.4251    47.8619 </r>
       <r>    12.7097     0.3373    47.8879 </r>
       <r>    12.7777     0.2512    47.9079 </r>
       <r>    12.8457     0.1891    47.9223 </r>
       <r>    12.9137     0.1699    47.9345 </r>
       <r>    12.9817     0.1516    47.9455 </r>
       <r>    13.0497     0.1343    47.9552 </r>
       <r>    13.1178     0.1178    47.9637 </r>
       <r>    13.1858     0.1023    47.9712 </r>
       <r>    13.2538     0.0877    47.9777 </r>
       <r>    13.3218     0.0740    47.9832 </r>
       <r>    13.3898     0.0612    47.9878 </r>
       <r>    13.4578     0.0494    47.9915 </r>
       <r>    13.5258     0.0384    47.9945 </r>
       <r>    13.5938     0.0284    47.9968 </r>
       <r>    13.6618     0.0193    47.9984 </r>
       <r>    13.7298     0.0111    47.9994 </r>
       <r>    13.7978     0.0039    47.9999 </r>
       <r>    13.8658     0.0000    48.0000 </r>
       <r>    13.9338     0.0000    48.0000 </r>
       <r>    14.0018     0.0000    48.0000 </r>
       <r>    14.0699     0.0000    48.0000 </r>
       <r>    14.1379     0.0000    48.0000 </r>
       <r>    14.2059     0.0000    48.0000 </r>
       <r>    14.2739     0.0000    48.0000 </r>
       <r>    14.3419     0.0000    48.0000 </r>
       <r>    14.4099     0.0000    48.0000 </r>
       <r>    14.4779     0.0000    48.0000 </r>
       <r>    14.5459     0.0000    48.0000 </r>
       <r>    14.6139     0.0000    48.0000 </r>
       <r>    14.6819     0.0000    48.0000 </r>
       <r>    14.7499     0.0000    48.0000 </r>
       <r>    14.8179     0.0000    48.0000 </r>
       <r>    14.8859     0.0000    48.0000 </r>
       <r>    14.9539     0.0000    48.0000 </r>
       <r>    15.0220     0.0000    48.0000 </r>
       <r>    15.0900     0.0000    48.0000 </r>
       <r>    15.1580     0.0000    48.0000 </r>
       <r>    15.2260     0.0000    48.0000 </r>
       <r>    15.2940     0.0000    48.0000 </r>
       <r>    15.3620     0.0000    48.0000 </r>
       <r>    15.4300     0.0000    48.0000 </r>
       <r>    15.4980     0.0000    48.0000 </r>
       <r>    15.5660     0.0000    48.0000 </r>
       <r>    15.6340     0.0000    48.0000 </r>
       <r>    15.7020     0.0000    48.0000 </r>
       <r>    15.7700     0.0000    48.0000 </r>
       <r>    15.8380     0.0000    48.0000 </r>
      </set>
     </set>
    </array>
   </total>
  </dos>
 </calculation>
 <structure name="finalpos" >
  <crystal>
   <varray name="basis" >
    <v>       4.00000000       0.00000000       0.00000000 </v>
    <v>       0.00000000       4.00000000       0.00000000 </v>
    <v>       0.00000000       0.00000000       4.00000000 </v>
   </varray>
   <i name="volume">     64.00000000 </i>
   <varray name="rec_basis" >
    <v>       0.25000000       0.00000000       0.00000000 </v>
    <v>       0.00000000       0.25000000       0.00000000 </v>
    <v>       0.00000000       0.00000000       0.25000000 </v>
   </varray>
  </crystal>
  <varray name="positions" >
   <v>       0.00000000       0.00000000       0.00000000 </v>
   <v>       0.00000000       0.50000000       0.50000000 </v>
   <v>       0.50000000       0.00000000       0.50000000 </v>
   <v>       0.50000000       0.50000000       0.00000000 </v>
  </varray>
 </structure>
</modeling>
