unknown system                          
   1.00000000000000     
     3.905268    0.000000    0.000000
     0.000000    3.905268    0.000000
     0.000000    0.000000    3.905268
   Sr   Ti   O 
     1     1     3
Direct
  0.000000  0.000000  0.000000
  0.500000  0.500000  0.500000
  0.500000  0.500000  0.000000
  0.500000  0.000000  0.500000
  0.000000  0.500000  0.500000
 
   48   48   48
  193.27      193.30      192.90      190.78      185.39      175.49      160.60      141.23      118.78      95.201    
  72.594      52.720      36.662      24.688      16.376      10.894      7.3875      5.2050      3.8653      3.0479    
  2.5537      2.2623      2.0994      2.0190      1.9950      2.0190      2.0994      2.2623      2.5537      3.0479    
  3.8653      5.2050      7.3875      10.894      16.376      24.688      36.662      52.720      72.594      95.201    
  118.78      141.23      160.60      175.49      185.39      190.78      192.90      193.30      193.30      193.25    
  192.61      190.17      184.44      174.24      159.15      139.72      117.33      93.913      71.537      51.917    
  36.098      24.322      16.154      10.768      7.3223      5.1774      3.8607      3.0579      2.5738      2.2897    
  2.1321      2.0549      2.0321      2.0549      2.1321      2.2897      2.5738      3.0579      3.8607      5.1774    
  7.3223      10.768      16.154      24.322      36.098      51.917      71.537      93.913      117.33      139.72    
  159.15      174.24      184.44      190.17      192.61      193.25      192.90      192.61      191.34      188.01    
  181.34      170.34      154.76      135.19      113.02      90.117      68.438      49.575      34.459      23.261    
  15.515      10.406      7.1387      5.1041      3.8550      3.0946      2.6383      2.3729      2.2276      2.1574    
  2.1369      2.1574      2.2276      2.3729      2.6383      3.0946      3.8550      5.1041      7.1387      10.406    
  15.515      23.261      34.459      49.575      68.438      90.117      113.02      135.19      154.76      170.34    
  181.34      188.01      191.34      192.61      190.78      190.17      188.01      183.45      175.50      163.47    
  147.29      127.68      106.01      84.027      63.520      45.891      31.903      21.617      14.531      9.8580    
  6.8707      5.0110      3.8698      3.1766      2.7623      2.5230      2.3929      2.3305      2.3122      2.3305    
  2.3929      2.5230      2.7623      3.1766      3.8698      5.0110      6.8707      9.8580      14.531      21.617    
  31.903      45.891      63.520      84.027      106.01      127.68      147.29      163.47      175.50      183.45    
  188.01      190.17      185.39      184.44      181.34      175.50      166.27      153.29      136.73      117.39    
  96.609      76.011      57.145      41.177      28.670      19.560      13.315      9.1958      6.5678      4.9340    
  3.9339      3.3297      2.9722      2.7687      2.6600      2.6086      2.5937      2.6086      2.6600      2.7687    
  2.9722      3.3297      3.9339      4.9340      6.5678      9.1958      13.315      19.560      28.670      41.177    
  57.145      76.011      96.609      117.39      136.73      153.29      166.27      175.50      181.34      184.44    
  175.49      174.24      170.34      163.47      153.29      139.76      123.26      104.69      85.324      66.590    
  49.793      35.832      25.059      17.297      11.997      8.5065      6.2876      4.9137      4.0795      3.5840    
  3.3001      3.1466      3.0705      3.0376      3.0287      3.0376      3.0705      3.1466      3.3001      3.5840    
  4.0795      4.9137      6.2876      8.5065      11.997      17.297      25.059      35.832      49.793      66.590    
  85.324      104.69      123.26      139.76      153.29      163.47      170.34      174.24      160.60      159.15    
  154.76      147.29      136.73      123.26      107.47      90.271      72.846      56.420      42.023      30.292    
  21.385      15.034      10.711      7.8779      6.0897      4.9950      4.3453      3.9766      3.7830      3.6943    
  3.6624      3.6554      3.6551      3.6554      3.6624      3.6943      3.7830      3.9766      4.3453      4.9950    
  6.0897      7.8779      10.711      15.034      21.385      30.292      42.023      56.420      72.846      90.271    
  107.47      123.26      136.73      147.29      154.76      159.15      141.23      139.72      135.19      127.68    
  117.39      104.69      90.271      75.030      60.014      46.219      34.407      24.976      17.929      12.950    
  9.5752      7.3890      6.0325      5.2286      4.7822      4.5623      4.4804      4.4745      4.5004      4.5276    
  4.5386      4.5276      4.5004      4.4745      4.4804      4.5623      4.7822      5.2286      6.0325      7.3890    
  9.5752      12.950      17.929      24.976      34.407      46.219      60.014      75.030      90.271      104.69    
  117.39      127.68      135.19      139.72      118.78      117.33      113.02      106.01      96.609      85.324    
  72.846      60.014      47.702      36.672      27.445      20.223      14.904      11.174      8.6826      7.1086    
  6.1775      5.6797      5.4657      5.4303      5.4968      5.6070      5.7168      5.7949      5.8230      5.7949    
  5.7168      5.6070      5.4968      5.4303      5.4657      5.6797      6.1775      7.1086      8.6826      11.174    
  14.904      20.223      27.445      36.672      47.702      60.014      72.846      85.324      96.609      106.01    
  113.02      117.33      95.201      93.913      90.117      84.027      76.011      66.590      56.420      46.219    
  36.672      28.324      21.494      16.247      12.431      9.7988      8.1024      7.1021      6.5983      6.4374    
  6.5048      6.7118      6.9861      7.2672      7.5053      7.6633      7.7185      7.6633      7.5053      7.2672    
  6.9861      6.7118      6.5048      6.4374      6.5983      7.1021      8.1024      9.7988      12.431      16.247    
  21.494      28.324      36.672      46.219      56.420      66.590      76.011      84.027      90.117      93.913    
  72.594      71.537      68.438      63.520      57.145      49.793      42.023      34.407      27.445      21.494    
  16.725      13.124      10.560      8.8736      7.8883      7.4385      7.3855      7.6172      8.0404      8.5727    
  9.1378      9.6646      10.091      10.368      10.463      10.368      10.091      9.6646      9.1378      8.5727    
  8.0404      7.6172      7.3855      7.4385      7.8883      8.8736      10.560      13.124      16.725      21.494    
  27.445      34.407      42.023      49.793      57.145      63.520      68.438      71.537      52.720      51.917    
  49.575      45.891      41.177      35.832      30.292      24.976      20.223      16.247      13.124      10.830    
  9.2965      8.4193      8.0861      8.1917      8.6422      9.3517      10.236      11.210      12.182      13.062    
  13.764      14.217      14.374      14.217      13.764      13.062      12.182      11.210      10.236      9.3517    
  8.6422      8.1917      8.0861      8.4193      9.2965      10.830      13.124      16.247      20.223      24.976    
  30.292      35.832      41.177      45.891      49.575      51.917      36.662      36.098      34.459      31.903    
  28.670      25.059      21.385      17.929      14.904      12.431      10.560      9.2965      8.6072      8.4397    
  8.7356      9.4352      10.475      11.786      13.287      14.881      16.452      17.873      19.011      19.749    
  20.004      19.749      19.011      17.873      16.452      14.881      13.287      11.786      10.475      9.4352    
  8.7356      8.4397      8.6072      9.2965      10.560      12.431      14.904      17.929      21.385      25.059    
  28.670      31.903      34.459      36.098      24.688      24.322      23.261      21.617      19.560      17.297    
  15.034      12.950      11.174      9.7988      8.8736      8.4193      8.4397      8.9280      9.8688      11.237    
  12.997      15.096      17.459      19.976      22.490      24.798      26.674      27.903      28.331      27.903    
  26.674      24.798      22.490      19.976      17.459      15.096      12.997      11.237      9.8688      8.9280    
  8.4397      8.4193      8.8736      9.7988      11.174      12.950      15.034      17.297      19.560      21.617    
  23.261      24.322      16.376      16.154      15.515      14.531      13.315      11.997      10.711      9.5752    
  8.6826      8.1024      7.8883      8.0861      8.7356      9.8688      11.507      13.664      16.340      19.523    
  23.158      27.114      31.160      34.953      38.086      40.160      40.887      40.160      38.086      34.953    
  31.160      27.114      23.158      19.523      16.340      13.664      11.507      9.8688      8.7356      8.0861    
  7.8883      8.1024      8.6826      9.5752      10.711      11.997      13.315      14.531      15.515      16.154    
  10.894      10.768      10.406      9.8580      9.1958      8.5065      7.8779      7.3890      7.1086      7.1021    
  7.4385      8.1917      9.4352      11.237      13.664      16.786      20.681      25.411      30.964      37.180    
  43.685      49.891      55.073      58.528      59.743      58.528      55.073      49.891      43.685      37.180    
  30.964      25.411      20.681      16.786      13.664      11.237      9.4352      8.1917      7.4385      7.1021    
  7.1086      7.3890      7.8779      8.5065      9.1958      9.8580      10.406      10.768      7.3875      7.3223    
  7.1387      6.8707      6.5678      6.2876      6.0897      6.0325      6.1775      6.5983      7.3855      8.6422    
  10.475      12.997      16.340      20.681      26.230      33.178      41.583      51.218      61.461      71.339    
  79.753      85.482      87.520      85.482      79.753      71.339      61.461      51.218      41.583      33.178    
  26.230      20.681      16.340      12.997      10.475      8.6422      7.3855      6.5983      6.1775      6.0325    
  6.0897      6.2876      6.5678      6.8707      7.1387      7.3223      5.2050      5.1774      5.1041      5.0110    
  4.9340      4.9137      4.9950      5.2286      5.6797      6.4374      7.6172      9.3517      11.786      15.096    
  19.523      25.411      33.178      43.209      55.634      70.088      85.906      101.87      115.86      125.49    
  128.93      125.49      115.86      101.87      85.906      70.088      55.634      43.209      33.178      25.411    
  19.523      15.096      11.786      9.3517      7.6172      6.4374      5.6797      5.2286      4.9950      4.9137    
  4.9340      5.0110      5.1041      5.1774      3.8653      3.8607      3.8550      3.8698      3.9339      4.0795    
  4.3453      4.7822      5.4657      6.5048      8.0404      10.236      13.287      17.459      23.158      30.964    
  41.583      55.634      73.316      94.763      119.30      144.39      166.31      181.27      186.58      181.27    
  166.31      144.39      119.30      94.763      73.316      55.634      41.583      30.964      23.158      17.459    
  13.287      10.236      8.0404      6.5048      5.4657      4.7822      4.3453      4.0795      3.9339      3.8698    
  3.8550      3.8607      3.0479      3.0579      3.0946      3.1766      3.3297      3.5840      3.9766      4.5623    
  5.4303      6.7118      8.5727      11.210      14.881      19.976      27.114      37.180      51.218      70.088    
  94.763      125.96      161.85      198.04      229.01      249.75      257.03      249.75      229.01      198.04    
  161.85      125.96      94.763      70.088      51.218      37.180      27.114      19.976      14.881      11.210    
  8.5727      6.7118      5.4303      4.5623      3.9766      3.5840      3.3297      3.1766      3.0946      3.0579    
  2.5537      2.5738      2.6383      2.7623      2.9722      3.3001      3.7830      4.4804      5.4968      6.9861    
  9.1378      12.182      16.452      22.490      31.160      43.685      61.461      85.906      119.30      161.85    
  209.99      257.24      296.46      322.07      330.92      322.07      296.46      257.24      209.99      161.85    
  119.30      85.906      61.461      43.685      31.160      22.490      16.452      12.182      9.1378      6.9861    
  5.4968      4.4804      3.7830      3.3001      2.9722      2.7623      2.6383      2.5738      2.2623      2.2897    
  2.3729      2.5230      2.7687      3.1466      3.6943      4.4745      5.6070      7.2672      9.6646      13.062    
  17.873      24.798      34.953      49.891      71.339      101.87      144.39      198.04      257.24      313.46    
  358.52      387.05      396.73      387.05      358.52      313.46      257.24      198.04      144.39      101.87    
  71.339      49.891      34.953      24.798      17.873      13.062      9.6646      7.2672      5.6070      4.4745    
  3.6943      3.1466      2.7687      2.5230      2.3729      2.2897      2.0994      2.1321      2.2276      2.3929    
  2.6600      3.0705      3.6624      4.5004      5.7168      7.5053      10.091      13.764      19.011      26.674    
  38.086      55.073      79.753      115.86      166.31      229.01      296.46      358.52      406.55      436.00    
  445.79      436.00      406.55      358.52      296.46      229.01      166.31      115.86      79.753      55.073    
  38.086      26.674      19.011      13.764      10.091      7.5053      5.7168      4.5004      3.6624      3.0705    
  2.6600      2.3929      2.2276      2.1321      2.0190      2.0549      2.1574      2.3305      2.6086      3.0376    
  3.6554      4.5276      5.7949      7.6633      10.368      14.217      19.749      27.903      40.160      58.528    
  85.482      125.49      181.27      249.75      322.07      387.05      436.00      465.22      474.78      465.22    
  436.00      387.05      322.07      249.75      181.27      125.49      85.482      58.528      40.160      27.903    
  19.749      14.217      10.368      7.6633      5.7949      4.5276      3.6554      3.0376      2.6086      2.3305    
  2.1574      2.0549      1.9950      2.0321      2.1369      2.3122      2.5937      3.0287      3.6551      4.5386    
  5.8230      7.7185      10.463      14.374      20.004      28.331      40.887      59.743      87.520      128.93    
  186.58      257.03      330.92      396.73      445.79      474.78      484.18      474.78      445.79      396.73    
  330.92      257.03      186.58      128.93      87.520      59.743      40.887      28.331      20.004      14.374    
  10.463      7.7185      5.8230      4.5386      3.6551      3.0287      2.5937      2.3122      2.1369      2.0321    
  2.0190      2.0549      2.1574      2.3305      2.6086      3.0376      3.6554      4.5276      5.7949      7.6633    
  10.368      14.217      19.749      27.903      40.160      58.528      85.482      125.49      181.27      249.75    
  322.07      387.05      436.00      465.22      474.78      465.22      436.00      387.05      322.07      249.75    
  181.27      125.49      85.482      58.528      40.160      27.903      19.749      14.217      10.368      7.6633    
  5.7949      4.5276      3.6554      3.0376      2.6086      2.3305      2.1574      2.0549      2.0994      2.1321    
  2.2276      2.3929      2.6600      3.0705      3.6624      4.5004      5.7168      7.5053      10.091      13.764    
  19.011      26.674      38.086      55.073      79.753      115.86      166.31      229.01      296.46      358.52    
  406.55      436.00      445.79      436.00      406.55      358.52      296.46      229.01      166.31      115.86    
  79.753      55.073      38.086      26.674      19.011      13.764      10.091      7.5053      5.7168      4.5004    
  3.6624      3.0705      2.6600      2.3929      2.2276      2.1321      2.2623      2.2897      2.3729      2.5230    
  2.7687      3.1466      3.6943      4.4745      5.6070      7.2672      9.6646      13.062      17.873      24.798    
  34.953      49.891      71.339      101.87      144.39      198.04      257.24      313.46      358.52      387.05    
  396.73      387.05      358.52      313.46      257.24      198.04      144.39      101.87      71.339      49.891    
  34.953      24.798      17.873      13.062      9.6646      7.2672      5.6070      4.4745      3.6943      3.1466    
  2.7687      2.5230      2.3729      2.2897      2.5537      2.5738      2.6383      2.7623      2.9722      3.3001    
  3.7830      4.4804      5.4968      6.9861      9.1378      12.182      16.452      22.490      31.160      43.685    
  61.461      85.906      119.30      161.85      209.99      257.24      296.46      322.07      330.92      322.07    
  296.46      257.24      209.99      161.85      119.30      85.906      61.461      43.685      31.160      22.490    
  16.452      12.182      9.1378      6.9861      5.4968      4.4804      3.7830      3.3001      2.9722      2.7623    
  2.6383      2.5738      3.0479      3.0579      3.0946      3.1766      3.3297      3.5840      3.9766      4.5623    
  5.4303      6.7118      8.5727      11.210      14.881      19.976      27.114      37.180      51.218      70.088    
  94.763      125.96      161.85      198.04      229.01      249.75      257.03      249.75      229.01      198.04    
  161.85      125.96      94.763      70.088      51.218      37.180      27.114      19.976      14.881      11.210    
  8.5727      6.7118      5.4303      4.5623      3.9766      3.5840      3.3297      3.1766      3.0946      3.0579    
  3.8653      3.8607      3.8550      3.8698      3.9339      4.0795      4.3453      4.7822      5.4657      6.5048    
  8.0404      10.236      13.287      17.459      23.158      30.964      41.583      55.634      73.316      94.763    
  119.30      144.39      166.31      181.27      186.58      181.27      166.31      144.39      119.30      94.763    
  73.316      55.634      41.583      30.964      23.158      17.459      13.287      10.236      8.0404      6.5048    
  5.4657      4.7822      4.3453      4.0795      3.9339      3.8698      3.8550      3.8607      5.2050      5.1774    
  5.1041      5.0110      4.9340      4.9137      4.9950      5.2286      5.6797      6.4374      7.6172      9.3517    
  11.786      15.096      19.523      25.411      33.178      43.209      55.634      70.088      85.906      101.87    
  115.86      125.49      128.93      125.49      115.86      101.87      85.906      70.088      55.634      43.209    
  33.178      25.411      19.523      15.096      11.786      9.3517      7.6172      6.4374      5.6797      5.2286    
  4.9950      4.9137      4.9340      5.0110      5.1041      5.1774      7.3875      7.3223      7.1387      6.8707    
  6.5678      6.2876      6.0897      6.0325      6.1775      6.5983      7.3855      8.6422      10.475      12.997    
  16.340      20.681      26.230      33.178      41.583      51.218      61.461      71.339      79.753      85.482    
  87.520      85.482      79.753      71.339      61.461      51.218      41.583      33.178      26.230      20.681    
  16.340      12.997      10.475      8.6422      7.3855      6.5983      6.1775      6.0325      6.0897      6.2876    
  6.5678      6.8707      7.1387      7.3223      10.894      10.768      10.406      9.8580      9.1958      8.5065    
  7.8779      7.3890      7.1086      7.1021      7.4385      8.1917      9.4352      11.237      13.664      16.786    
  20.681      25.411      30.964      37.180      43.685      49.891      55.073      58.528      59.743      58.528    
  55.073      49.891      43.685      37.180      30.964      25.411      20.681      16.786      13.664      11.237    
  9.4352      8.1917      7.4385      7.1021      7.1086      7.3890      7.8779      8.5065      9.1958      9.8580    
  10.406      10.768      16.376      16.154      15.515      14.531      13.315      11.997      10.711      9.5752    
  8.6826      8.1024      7.8883      8.0861      8.7356      9.8688      11.507      13.664      16.340      19.523    
  23.158      27.114      31.160      34.953      38.086      40.160      40.887      40.160      38.086      34.953    
  31.160      27.114      23.158      19.523      16.340      13.664      11.507      9.8688      8.7356      8.0861    
  7.8883      8.1024      8.6826      9.5752      10.711      11.997      13.315      14.531      15.515      16.154    
  24.688      24.322      23.261      21.617      19.560      17.297      15.034      12.950      11.174      9.7988    
  8.8736      8.4193      8.4397      8.9280      9.8688      11.237      12.997      15.096      17.459      19.976    
  22.490      24.798      26.674      27.903      28.331      27.903      26.674      24.798      22.490      19.976    
  17.459      15.096      12.997      11.237      9.8688      8.9280      8.4397      8.4193      8.8736      9.7988    
  11.174      12.950      15.034      17.297      19.560      21.617      23.261      24.322      36.662      36.098    
  34.459      31.903      28.670      25.059      21.385      17.929      14.904      12.431      10.560      9.2965    
  8.6072      8.4397      8.7356      9.4352      10.475      11.786      13.287      14.881      16.452      17.873    
  19.011      19.749      20.004      19.749      19.011      17.873      16.452      14.881      13.287      11.786    
  10.475      9.4352      8.7356      8.4397      8.6072      9.2965      10.560      12.431      14.904      17.929    
  21.385      25.059      28.670      31.903      34.459      36.098      52.720      51.917      49.575      45.891    
  41.177      35.832      30.292      24.976      20.223      16.247      13.124      10.830      9.2965      8.4193    
  8.0861      8.1917      8.6422      9.3517      10.236      11.210      12.182      13.062      13.764      14.217    
  14.374      14.217      13.764      13.062      12.182      11.210      10.236      9.3517      8.6422      8.1917    
  8.0861      8.4193      9.2965      10.830      13.124      16.247      20.223      24.976      30.292      35.832    
  41.177      45.891      49.575      51.917      72.594      71.537      68.438      63.520      57.145      49.793    
  42.023      34.407      27.445      21.494      16.725      13.124      10.560      8.8736      7.8883      7.4385    
  7.3855      7.6172      8.0404      8.5727      9.1378      9.6646      10.091      10.368      10.463      10.368    
  10.091      9.6646      9.1378      8.5727      8.0404      7.6172      7.3855      7.4385      7.8883      8.8736    
  10.560      13.124      16.725      21.494      27.445      34.407      42.023      49.793      57.145      63.520    
  68.438      71.537      95.201      93.913      90.117      84.027      76.011      66.590      56.420      46.219    
  36.672      28.324      21.494      16.247      12.431      9.7988      8.1024      7.1021      6.5983      6.4374    
  6.5048      6.7118      6.9861      7.2672      7.5053      7.6633      7.7185      7.6633      7.5053      7.2672    
  6.9861      6.7118      6.5048      6.4374      6.5983      7.1021      8.1024      9.7988      12.431      16.247    
  21.494      28.324      36.672      46.219      56.420      66.590      76.011      84.027      90.117      93.913    
  118.78      117.33      113.02      106.01      96.609      85.324      72.846      60.014      47.702      36.672    
  27.445      20.223      14.904      11.174      8.6826      7.1086      6.1775      5.6797      5.4657      5.4303    
  5.4968      5.6070      5.7168      5.7949      5.8230      5.7949      5.7168      5.6070      5.4968      5.4303    
  5.4657      5.6797      6.1775      7.1086      8.6826      11.174      14.904      20.223      27.445      36.672    
  47.702      60.014      72.846      85.324      96.609      106.01      113.02      117.33      141.23      139.72    
  135.19      127.68      117.39      104.69      90.271      75.030      60.014      46.219      34.407      24.976    
  17.929      12.950      9.5752      7.3890      6.0325      5.2286      4.7822      4.5623      4.4804      4.4745    
  4.5004      4.5276      4.5386      4.5276      4.5004      4.4745      4.4804      4.5623      4.7822      5.2286    
  6.0325      7.3890      9.5752      12.950      17.929      24.976      34.407      46.219      60.014      75.030    
  90.271      104.69      117.39      127.68      135.19      139.72      160.60      159.15      154.76      147.29    
  136.73      123.26      107.47      90.271      72.846      56.420      42.023      30.292      21.385      15.034    
  10.711      7.8779      6.0897      4.9950      4.3453      3.9766      3.7830      3.6943      3.6624      3.6554    
  3.6551      3.6554      3.6624      3.6943      3.7830      3.9766      4.3453      4.9950      6.0897      7.8779    
  10.711      15.034      21.385      30.292      42.023      56.420      72.846      90.271      107.47      123.26    
  136.73      147.29      154.76      159.15      175.49      174.24      170.34      163.47      153.29      139.76    
  123.26      104.69      85.324      66.590      49.793      35.832      25.059      17.297      11.997      8.5065    
  6.2876      4.9137      4.0795      3.5840      3.3001      3.1466      3.0705      3.0376      3.0287      3.0376    
  3.0705      3.1466      3.3001      3.5840      4.0795      4.9137      6.2876      8.5065      11.997      17.297    
  25.059      35.832      49.793      66.590      85.324      104.69      123.26      139.76      153.29      163.47    
  170.34      174.24      185.39      184.44      181.34      175.50      166.27      153.29      136.73      117.39    
  96.609      76.011      57.145      41.177      28.670      19.560      13.315      9.1958      6.5678      4.9340    
  3.9339      3.3297      2.9722      2.7687      2.6600      2.6086      2.5937      2.6086      2.6600      2.7687    
  2.9722      3.3297      3.9339      4.9340      6.5678      9.1958      13.315      19.560      28.670      41.177    
  57.145      76.011      96.609      117.39      136.73      153.29      166.27      175.50      181.34      184.44    
  190.78      190.17      188.01      183.45      175.50      163.47      147.29      127.68      106.01      84.027    
  63.520      45.891      31.903      21.617      14.531      9.8580      6.8707      5.0110      3.8698      3.1766    
  2.7623      2.5230      2.3929      2.3305      2.3122      2.3305      2.3929      2.5230      2.7623      3.1766    
  3.8698      5.0110      6.8707      9.8580      14.531      21.617      31.903      45.891      63.520      84.027    
  106.01      127.68      147.29      163.47      175.50      183.45      188.01      190.17      192.90      192.61    
  191.34      188.01      181.34      170.34      154.76      135.19      113.02      90.117      68.438      49.575    
  34.459      23.261      15.515      10.406      7.1387      5.1041      3.8550      3.0946      2.6383      2.3729    
  2.2276      2.1574      2.1369      2.1574      2.2276      2.3729      2.6383      3.0946      3.8550      5.1041    
  7.1387      10.406      15.515      23.261      34.459      49.575      68.438      90.117      113.02      135.19    
  154.76      170.34      181.34      188.01      191.34      192.61      193.30      193.25      192.61      190.17    
  184.44      174.24      159.15      139.72      117.33      93.913      71.537      51.917      36.098      24.322    
  16.154      10.768      7.3223      5.1774      3.8607      3.0579      2.5738      2.2897      2.1321      2.0549    
  2.0321      2.0549      2.1321      2.2897      2.5738      3.0579      3.8607      5.1774      7.3223      10.768    
  16.154      24.322      36.098      51.917      71.537      93.913      117.33      139.72      159.15      174.24    
  184.44      190.17      192.61      193.25      193.30      193.25      192.61      190.17      184.44      174.24    
  159.15      139.72      117.33      93.913      71.537      51.917      36.098      24.322      16.154      10.768    
  7.3223      5.1774      3.8607      3.0579      2.5738      2.2897      2.1321      2.0549      2.0321      2.0549    
  2.1321      2.2897      2.5738      3.0579      3.8607      5.1774      7.3223      10.768      16.154      24.322    
  36.098      51.917      71.537      93.913      117.33      139.72      159.15      174.24      184.44      190.17    
  192.61      193.25      193.25      193.11      192.26      189.51      183.44      172.96      157.70      138.21    
  115.88      92.636      70.491      51.125      35.542      23.961      15.936      10.644      7.2581      5.1501    
  3.8559      3.0674      2.5930      2.3160      2.1634      2.0893      2.0674      2.0893      2.1634      2.3160    
  2.5930      3.0674      3.8559      5.1501      7.2581      10.644      15.936      23.961      35.542      51.125    
  70.491      92.636      115.88      138.21      157.70      172.96      183.44      189.51      192.26      193.11    
  192.61      192.26      190.79      187.19      180.24      169.00      153.28      133.68      111.59      88.874    
  67.429      48.815      33.929      22.918      15.308      10.288      7.0774      5.0777      3.8499      3.1029    
  2.6555      2.3964      2.2555      2.1880      2.1683      2.1880      2.2555      2.3964      2.6555      3.1029    
  3.8499      5.0777      7.0774      10.288      15.308      22.918      33.929      48.815      67.429      88.874    