unknown system                          
   1.00000000000000     
     3.905268    0.000000    0.000000
     0.000000    3.905268    0.000000
     0.000000    0.000000    3.905268
   Sr   Ti   O 
     1     1     3
Direct
  0.000000  0.000000  0.000000
  0.500000  0.500000  0.500000
  0.500000  0.500000  0.000000
  0.500000  0.000000  0.500000
  0.000000  0.500000  0.500000
 
   48   48   48
 0.19327195597E+03 0.19330164495E+03 0.19289798901E+03 0.19078149563E+03 0.18539212062E+03
 0.17548596052E+03 0.16059695020E+03 0.14123116966E+03 0.11877842083E+03 0.95201466308E+02
 0.72594205923E+02 0.52720295716E+02 0.36661818501E+02 0.24688481047E+02 0.16375837709E+02
 0.10893750371E+02 0.73874795549E+01 0.52050200221E+01 0.38653387392E+01 0.30479010396E+01
 0.25537379474E+01 0.22622980144E+01 0.20994129866E+01 0.20189940902E+01 0.19950239642E+01
 0.20189940902E+01 0.20994129866E+01 0.22622980144E+01 0.25537379474E+01 0.30479010396E+01
 0.38653387392E+01 0.52050200221E+01 0.73874795549E+01 0.10893750371E+02 0.16375837709E+02
 0.24688481047E+02 0.36661818501E+02 0.52720295716E+02 0.72594205923E+02 0.95201466308E+02
 0.11877842083E+03 0.14123116966E+03 0.16059695020E+03 0.17548596052E+03 0.18539212062E+03
 0.19078149563E+03 0.19289798901E+03 0.19330164495E+03 0.19330164495E+03 0.19324754817E+03
 0.19261274945E+03 0.19017205732E+03 0.18443748612E+03 0.17423526977E+03 0.15915160300E+03
 0.13971872770E+03 0.11732589055E+03 0.93913082009E+02 0.71536634674E+02 0.51917099303E+02
 0.36097775153E+02 0.24321888175E+02 0.16154179729E+02 0.10767705210E+02 0.73222638863E+01
 0.51773528168E+01 0.38606644420E+01 0.30578771244E+01 0.25737804038E+01 0.22896940381E+01
 0.21320997742E+01 0.20549465883E+01 0.20320867511E+01 0.20549465883E+01 0.21320997742E+01
 0.22896940381E+01 0.25737804038E+01 0.30578771244E+01 0.38606644420E+01 0.51773528168E+01
 0.73222638863E+01 0.10767705210E+02 0.16154179729E+02 0.24321888175E+02 0.36097775153E+02
 0.51917099303E+02 0.71536634674E+02 0.93913082009E+02 0.11732589055E+03 0.13971872770E+03
 0.15915160300E+03 0.17423526977E+03 0.18443748612E+03 0.19017205732E+03 0.19261274945E+03
 0.19324754817E+03 0.19289798901E+03 0.19261274945E+03 0.19134142901E+03 0.18801157665E+03
 0.18133756371E+03 0.17034209635E+03 0.15475707944E+03 0.13518654640E+03 0.11301570515E+03
 0.90117255229E+02 0.68438230439E+02 0.49574779066E+02 0.34459347852E+02 0.23260724841E+02
 0.15514782515E+02 0.10406367934E+02 0.71387228813E+01 0.51040509005E+01 0.38549715023E+01
 0.30946010191E+01 0.26382663999E+01 0.23728841450E+01 0.22275687467E+01 0.21574326281E+01
 0.21368564384E+01 0.21574326281E+01 0.22275687467E+01 0.23728841450E+01 0.26382663999E+01
 0.30946010191E+01 0.38549715023E+01 0.51040509005E+01 0.71387228813E+01 0.10406367934E+02
 0.15514782515E+02 0.23260724841E+02 0.34459347852E+02 0.49574779066E+02 0.68438230439E+02
 0.90117255229E+02 0.11301570515E+03 0.13518654640E+03 0.15475707944E+03 0.17034209635E+03
 0.18133756371E+03 0.18801157665E+03 0.19134142901E+03 0.19261274945E+03 0.19078149563E+03
 0.19017205732E+03 0.18801157665E+03 0.18345120187E+03 0.17550064667E+03 0.16346794883E+03
 0.14729447755E+03 0.12768367292E+03 0.10600672423E+03 0.84027220649E+02 0.63520499135E+02
 0.45890666519E+02 0.31902598823E+02 0.21616577966E+02 0.14531241848E+02 0.98580148751E+01
 0.68707151788E+01 0.50110178894E+01 0.38698495381E+01 0.31765591848E+01 0.27623114738E+01
 0.25229850549E+01 0.23928883969E+01 0.23304647122E+01 0.23122061844E+01 0.23304647122E+01
 0.23928883969E+01 0.25229850549E+01 0.27623114738E+01 0.31765591848E+01 0.38698495381E+01
 0.50110178894E+01 0.68707151788E+01 0.98580148751E+01 0.14531241848E+02 0.21616577966E+02
 0.31902598823E+02 0.45890666519E+02 0.63520499135E+02 0.84027220649E+02 0.10600672423E+03
 0.12768367292E+03 0.14729447755E+03 0.16346794883E+03 0.17550064667E+03 0.18345120187E+03
 0.18801157665E+03 0.19017205732E+03 0.18539212062E+03 0.18443748612E+03 0.18133756371E+03
 0.17550064667E+03 0.16627466532E+03 0.15329185923E+03 0.13672725446E+03 0.11738705918E+03
 0.96609412875E+02 0.76010554864E+02 0.57145006303E+02 0.41177060374E+02 0.28669623498E+02
 0.19560182874E+02 0.13314904104E+02 0.91957603769E+01 0.65677529656E+01 0.49339579023E+01
 0.39338657583E+01 0.33296563075E+01 0.29722477190E+01 0.27687389501E+01 0.26599844678E+01
 0.26086128650E+01 0.25937291544E+01 0.26086128650E+01 0.26599844678E+01 0.27687389501E+01
 0.29722477190E+01 0.33296563075E+01 0.39338657583E+01 0.49339579023E+01 0.65677529656E+01
 0.91957603769E+01 0.13314904104E+02 0.19560182874E+02 0.28669623498E+02 0.41177060374E+02
 0.57145006303E+02 0.76010554864E+02 0.96609412875E+02 0.11738705918E+03 0.13672725446E+03
 0.15329185923E+03 0.16627466532E+03 0.17550064667E+03 0.18133756371E+03 0.18443748612E+03
 0.17548596052E+03 0.17423526977E+03 0.17034209635E+03 0.16346794883E+03 0.15329185923E+03
 0.13975947905E+03 0.12326417130E+03 0.10469352401E+03 0.85324026413E+02 0.66590459489E+02
 0.49792997135E+02 0.35831784613E+02 0.25059079500E+02 0.17296920324E+02 0.11997115684E+02
 0.85065007814E+01 0.62876097876E+01 0.49137316012E+01 0.40795286583E+01 0.35840485026E+01
 0.33000775822E+01 0.31465584869E+01 0.30704510412E+01 0.30375725528E+01 0.30286762806E+01
 0.30375725528E+01 0.30704510412E+01 0.31465584869E+01 0.33000775822E+01 0.35840485026E+01
 0.40795286583E+01 0.49137316012E+01 0.62876097876E+01 0.85065007814E+01 0.11997115684E+02
 0.17296920324E+02 0.25059079500E+02 0.35831784613E+02 0.49792997135E+02 0.66590459489E+02
 0.85324026413E+02 0.10469352401E+03 0.12326417130E+03 0.13975947905E+03 0.15329185923E+03
 0.16346794883E+03 0.17034209635E+03 0.17423526977E+03 0.16059695020E+03 0.15915160300E+03
 0.15475707944E+03 0.14729447755E+03 0.13672725446E+03 0.12326417130E+03 0.10746960677E+03
 0.90270589114E+02 0.72845799332E+02 0.56420153348E+02 0.42023429980E+02 0.30292188692E+02
 0.21384777029E+02 0.15034340174E+02 0.10711070337E+02 0.78779367056E+01 0.60897332935E+01
 0.49949773060E+01 0.43452579169E+01 0.39766115506E+01 0.37830181673E+01 0.36942670013E+01
 0.36623844262E+01 0.36554298074E+01 0.36550897290E+01 0.36554298074E+01 0.36623844262E+01
 0.36942670013E+01 0.37830181673E+01 0.39766115506E+01 0.43452579169E+01 0.49949773060E+01
 0.60897332935E+01 0.78779367056E+01 0.10711070337E+02 0.15034340174E+02 0.21384777029E+02
 0.30292188692E+02 0.42023429980E+02 0.56420153348E+02 0.72845799332E+02 0.90270589114E+02
 0.10746960677E+03 0.12326417130E+03 0.13672725446E+03 0.14729447755E+03 0.15475707944E+03
 0.15915160300E+03 0.14123116966E+03 0.13971872770E+03 0.13518654640E+03 0.12768367292E+03
 0.11738705918E+03 0.10469352401E+03 0.90270589114E+02 0.75029943411E+02 0.60013925771E+02
 0.46218617354E+02 0.34406871163E+02 0.24976292087E+02 0.17929309877E+02 0.12949695661E+02
 0.95752066570E+01 0.73890085158E+01 0.60325184166E+01 0.52286009963E+01 0.47822335038E+01
 0.45623204763E+01 0.44804070726E+01 0.44745482913E+01 0.45003882025E+01 0.45275977440E+01
 0.45385777442E+01 0.45275977440E+01 0.45003882025E+01 0.44745482913E+01 0.44804070726E+01
 0.45623204763E+01 0.47822335038E+01 0.52286009963E+01 0.60325184166E+01 0.73890085158E+01
 0.95752066570E+01 0.12949695661E+02 0.17929309877E+02 0.24976292087E+02 0.34406871163E+02
 0.46218617354E+02 0.60013925771E+02 0.75029943411E+02 0.90270589114E+02 0.10469352401E+03
 0.11738705918E+03 0.12768367292E+03 0.13518654640E+03 0.13971872770E+03 0.11877842083E+03
 0.11732589055E+03 0.11301570515E+03 0.10600672423E+03 0.96609412875E+02 0.85324026413E+02
 0.72845799332E+02 0.60013925771E+02 0.47701649200E+02 0.36671925004E+02 0.27444574996E+02
 0.20222791549E+02 0.14904387277E+02 0.11174212406E+02 0.86825601638E+01 0.71086221620E+01
 0.61774964428E+01 0.56796961784E+01 0.54657468680E+01 0.54303292325E+01 0.54967892867E+01
 0.56069828219E+01 0.57167737030E+01 0.57949455703E+01 0.58230284847E+01 0.57949455703E+01
 0.57167737030E+01 0.56069828219E+01 0.54967892867E+01 0.54303292325E+01 0.54657468680E+01
 0.56796961784E+01 0.61774964428E+01 0.71086221620E+01 0.86825601638E+01 0.11174212406E+02
 0.14904387277E+02 0.20222791549E+02 0.27444574996E+02 0.36671925004E+02 0.47701649200E+02
 0.60013925771E+02 0.72845799332E+02 0.85324026413E+02 0.96609412875E+02 0.10600672423E+03
 0.11301570515E+03 0.11732589055E+03 0.95201466308E+02 0.93913082009E+02 0.90117255229E+02
 0.84027220649E+02 0.76010554864E+02 0.66590459489E+02 0.56420153348E+02 0.46218617354E+02
 0.36671925004E+02 0.28324188395E+02 0.21494007335E+02 0.16246565194E+02 0.12430501528E+02
 0.97988290458E+01 0.81023619039E+01 0.71020916741E+01 0.65982548745E+01 0.64374435254E+01
 0.65048062256E+01 0.67117666875E+01 0.69861253916E+01 0.72671857283E+01 0.75052614383E+01
 0.76632997928E+01 0.77185311182E+01 0.76632997928E+01 0.75052614383E+01 0.72671857283E+01
 0.69861253916E+01 0.67117666875E+01 0.65048062256E+01 0.64374435254E+01 0.65982548745E+01
 0.71020916741E+01 0.81023619039E+01 0.97988290458E+01 0.12430501528E+02 0.16246565194E+02
 0.21494007335E+02 0.28324188395E+02 0.36671925004E+02 0.46218617354E+02 0.56420153348E+02
 0.66590459489E+02 0.76010554864E+02 0.84027220649E+02 0.90117255229E+02 0.93913082009E+02
 0.72594205923E+02 0.71536634674E+02 0.68438230439E+02 0.63520499135E+02 0.57145006303E+02
 0.49792997135E+02 0.42023429980E+02 0.34406871163E+02 0.27444574996E+02 0.21494007335E+02
 0.16725320883E+02 0.13123750317E+02 0.10559674057E+02 0.88736083137E+01 0.78883063746E+01
 0.74384703593E+01 0.73854842031E+01 0.76171852951E+01 0.80403895522E+01 0.85727409246E+01
 0.91378037848E+01 0.96646235340E+01 0.10090866219E+02 0.10367538920E+02 0.10463347112E+02
 0.10367538920E+02 0.10090866219E+02 0.96646235340E+01 0.91378037848E+01 0.85727409246E+01
 0.80403895522E+01 0.76171852951E+01 0.73854842031E+01 0.74384703593E+01 0.78883063746E+01
 0.88736083137E+01 0.10559674057E+02 0.13123750317E+02 0.16725320883E+02 0.21494007335E+02
 0.27444574996E+02 0.34406871163E+02 0.42023429980E+02 0.49792997135E+02 0.57145006303E+02
 0.63520499135E+02 0.68438230439E+02 0.71536634674E+02 0.52720295716E+02 0.51917099303E+02
 0.49574779066E+02 0.45890666519E+02 0.41177060374E+02 0.35831784613E+02 0.30292188692E+02
 0.24976292087E+02 0.20222791549E+02 0.16246565194E+02 0.13123750317E+02 0.10830051973E+02
 0.92965100802E+01 0.84193405795E+01 0.80860949930E+01 0.81916682370E+01 0.86422048323E+01
 0.93517255219E+01 0.10236409010E+02 0.11210005980E+02 0.12182434766E+02 0.13062495706E+02
 0.13764497479E+02 0.14217359769E+02 0.14373841405E+02 0.14217359769E+02 0.13764497479E+02
 0.13062495706E+02 0.12182434766E+02 0.11210005980E+02 0.10236409010E+02 0.93517255219E+01
 0.86422048323E+01 0.81916682370E+01 0.80860949930E+01 0.84193405795E+01 0.92965100802E+01
 0.10830051973E+02 0.13123750317E+02 0.16246565194E+02 0.20222791549E+02 0.24976292087E+02
 0.30292188692E+02 0.35831784613E+02 0.41177060374E+02 0.45890666519E+02 0.49574779066E+02
 0.51917099303E+02 0.36661818501E+02 0.36097775153E+02 0.34459347852E+02 0.31902598823E+02
 0.28669623498E+02 0.25059079500E+02 0.21384777029E+02 0.17929309877E+02 0.14904387277E+02
 0.12430501528E+02 0.10559674057E+02 0.92965100802E+01 0.86072484273E+01 0.84396816586E+01
 0.87356330363E+01 0.94351572811E+01 0.10475282855E+02 0.11786259828E+02 0.13286961371E+02
 0.14880536460E+02 0.16452354868E+02 0.17873370361E+02 0.19011284799E+02 0.19748802068E+02
 0.20004396637E+02 0.19748802068E+02 0.19011284799E+02 0.17873370361E+02 0.16452354868E+02
 0.14880536460E+02 0.13286961371E+02 0.11786259828E+02 0.10475282855E+02 0.94351572811E+01
 0.87356330363E+01 0.84396816586E+01 0.86072484273E+01 0.92965100802E+01 0.10559674057E+02
 0.12430501528E+02 0.14904387277E+02 0.17929309877E+02 0.21384777029E+02 0.25059079500E+02
 0.28669623498E+02 0.31902598823E+02 0.34459347852E+02 0.36097775153E+02 0.24688481047E+02
 0.24321888175E+02 0.23260724841E+02 0.21616577966E+02 0.19560182874E+02 0.17296920324E+02
 0.15034340174E+02 0.12949695661E+02 0.11174212406E+02 0.97988290458E+01 0.88736083137E+01
 0.84193405795E+01 0.84396816586E+01 0.89279708838E+01 0.98688397277E+01 0.11237263980E+02
 0.12996778490E+02 0.15095722252E+02 0.17459072296E+02 0.19976137693E+02 0.22489979956E+02
 0.24798358070E+02 0.26673887345E+02 0.27902727961E+02 0.28331043496E+02 0.27902727961E+02
 0.26673887345E+02 0.24798358070E+02 0.22489979956E+02 0.19976137693E+02 0.17459072296E+02
 0.15095722252E+02 0.12996778490E+02 0.11237263980E+02 0.98688397277E+01 0.89279708838E+01
 0.84396816586E+01 0.84193405795E+01 0.88736083137E+01 0.97988290458E+01 0.11174212406E+02
 0.12949695661E+02 0.15034340174E+02 0.17296920324E+02 0.19560182874E+02 0.21616577966E+02
 0.23260724841E+02 0.24321888175E+02 0.16375837709E+02 0.16154179729E+02 0.15514782515E+02
 0.14531241848E+02 0.13314904104E+02 0.11997115684E+02 0.10711070337E+02 0.95752066570E+01
 0.86825601638E+01 0.81023619039E+01 0.78883063746E+01 0.80860949930E+01 0.87356330363E+01
 0.98688397277E+01 0.11507484382E+02 0.13663748073E+02 0.16340487072E+02 0.19523252609E+02
 0.23157528603E+02 0.27114275800E+02 0.31159872471E+02 0.34953206101E+02 0.38085605546E+02
 0.40160259552E+02 0.40887272119E+02 0.40160259552E+02 0.38085605546E+02 0.34953206101E+02
 0.31159872471E+02 0.27114275800E+02 0.23157528603E+02 0.19523252609E+02 0.16340487072E+02
 0.13663748073E+02 0.11507484382E+02 0.98688397277E+01 0.87356330363E+01 0.80860949930E+01
 0.78883063746E+01 0.81023619039E+01 0.86825601638E+01 0.95752066570E+01 0.10711070337E+02
 0.11997115684E+02 0.13314904104E+02 0.14531241848E+02 0.15514782515E+02 0.16154179729E+02
 0.10893750371E+02 0.10767705210E+02 0.10406367934E+02 0.98580148751E+01 0.91957603769E+01
 0.85065007814E+01 0.78779367056E+01 0.73890085158E+01 0.71086221620E+01 0.71020916741E+01
 0.74384703593E+01 0.81916682370E+01 0.94351572811E+01 0.11237263980E+02 0.13663748073E+02
 0.16785809389E+02 0.20681100438E+02 0.25410850736E+02 0.30963969486E+02 0.37179744488E+02
 0.43684984083E+02 0.49890605184E+02 0.55073388202E+02 0.58528498448E+02 0.59742762466E+02
 0.58528498448E+02 0.55073388202E+02 0.49890605184E+02 0.43684984083E+02 0.37179744488E+02
 0.30963969486E+02 0.25410850736E+02 0.20681100438E+02 0.16785809389E+02 0.13663748073E+02
 0.11237263980E+02 0.94351572811E+01 0.81916682370E+01 0.74384703593E+01 0.71020916741E+01
 0.71086221620E+01 0.73890085158E+01 0.78779367056E+01 0.85065007814E+01 0.91957603769E+01
 0.98580148751E+01 0.10406367934E+02 0.10767705210E+02 0.73874795549E+01 0.73222638863E+01
 0.71387228813E+01 0.68707151788E+01 0.65677529656E+01 0.62876097876E+01 0.60897332935E+01
 0.60325184166E+01 0.61774964428E+01 0.65982548745E+01 0.73854842031E+01 0.86422048323E+01
 0.10475282855E+02 0.12996778490E+02 0.16340487072E+02 0.20681100438E+02 0.26229676333E+02
 0.33178225877E+02 0.41583433099E+02 0.51217810195E+02 0.61460706003E+02 0.71338543724E+02
 0.79753080310E+02 0.85481959032E+02 0.87520457884E+02 0.85481959032E+02 0.79753080310E+02
 0.71338543724E+02 0.61460706003E+02 0.51217810195E+02 0.41583433099E+02 0.33178225877E+02
 0.26229676333E+02 0.20681100438E+02 0.16340487072E+02 0.12996778490E+02 0.10475282855E+02
 0.86422048323E+01 0.73854842031E+01 0.65982548745E+01 0.61774964428E+01 0.60325184166E+01
 0.60897332935E+01 0.62876097876E+01 0.65677529656E+01 0.68707151788E+01 0.71387228813E+01
 0.73222638863E+01 0.52050200221E+01 0.51773528168E+01 0.51040509005E+01 0.50110178894E+01
 0.49339579023E+01 0.49137316012E+01 0.49949773060E+01 0.52286009963E+01 0.56796961784E+01
 0.64374435254E+01 0.76171852951E+01 0.93517255219E+01 0.11786259828E+02 0.15095722252E+02
 0.19523252609E+02 0.25410850736E+02 0.33178225877E+02 0.43208955653E+02 0.55633882447E+02
 0.70088131209E+02 0.85906184880E+02 0.10187142580E+03 0.11585999018E+03 0.12548954122E+03
 0.12892701417E+03 0.12548954122E+03 0.11585999018E+03 0.10187142580E+03 0.85906184880E+02
 0.70088131209E+02 0.55633882447E+02 0.43208955653E+02 0.33178225877E+02 0.25410850736E+02
 0.19523252609E+02 0.15095722252E+02 0.11786259828E+02 0.93517255219E+01 0.76171852951E+01
 0.64374435254E+01 0.56796961784E+01 0.52286009963E+01 0.49949773060E+01 0.49137316012E+01
 0.49339579023E+01 0.50110178894E+01 0.51040509005E+01 0.51773528168E+01 0.38653387392E+01
 0.38606644420E+01 0.38549715023E+01 0.38698495381E+01 0.39338657583E+01 0.40795286583E+01
 0.43452579169E+01 0.47822335038E+01 0.54657468680E+01 0.65048062256E+01 0.80403895522E+01
 0.10236409010E+02 0.13286961371E+02 0.17459072296E+02 0.23157528603E+02 0.30963969486E+02
 0.41583433099E+02 0.55633882447E+02 0.73315699095E+02 0.94762613764E+02 0.11929627136E+03
 0.14439112628E+03 0.16630555139E+03 0.18126766780E+03 0.18657748811E+03 0.18126766780E+03
 0.16630555139E+03 0.14439112628E+03 0.11929627136E+03 0.94762613764E+02 0.73315699095E+02
 0.55633882447E+02 0.41583433099E+02 0.30963969486E+02 0.23157528603E+02 0.17459072296E+02
 0.13286961371E+02 0.10236409010E+02 0.80403895522E+01 0.65048062256E+01 0.54657468680E+01
 0.47822335038E+01 0.43452579169E+01 0.40795286583E+01 0.39338657583E+01 0.38698495381E+01
 0.38549715023E+01 0.38606644420E+01 0.30479010396E+01 0.30578771244E+01 0.30946010191E+01
 0.31765591848E+01 0.33296563075E+01 0.35840485026E+01 0.39766115506E+01 0.45623204763E+01
 0.54303292325E+01 0.67117666875E+01 0.85727409246E+01 0.11210005980E+02 0.14880536460E+02
 0.19976137693E+02 0.27114275800E+02 0.37179744488E+02 0.51217810195E+02 0.70088131209E+02
 0.94762613764E+02 0.12596017228E+03 0.16184583400E+03 0.19804295393E+03 0.22900608113E+03
 0.24975103962E+03 0.25703169933E+03 0.24975103962E+03 0.22900608113E+03 0.19804295393E+03
 0.16184583400E+03 0.12596017228E+03 0.94762613764E+02 0.70088131209E+02 0.51217810195E+02
 0.37179744488E+02 0.27114275800E+02 0.19976137693E+02 0.14880536460E+02 0.11210005980E+02
 0.85727409246E+01 0.67117666875E+01 0.54303292325E+01 0.45623204763E+01 0.39766115506E+01
 0.35840485026E+01 0.33296563075E+01 0.31765591848E+01 0.30946010191E+01 0.30578771244E+01
 0.25537379474E+01 0.25737804038E+01 0.26382663999E+01 0.27623114738E+01 0.29722477190E+01
 0.33000775822E+01 0.37830181673E+01 0.44804070726E+01 0.54967892867E+01 0.69861253916E+01
 0.91378037848E+01 0.12182434766E+02 0.16452354868E+02 0.22489979956E+02 0.31159872471E+02
 0.43684984083E+02 0.61460706003E+02 0.85906184880E+02 0.11929627136E+03 0.16184583400E+03
 0.20999101669E+03 0.25723966414E+03 0.29645902129E+03 0.32206611304E+03 0.33091864955E+03
 0.32206611304E+03 0.29645902129E+03 0.25723966414E+03 0.20999101669E+03 0.16184583400E+03
 0.11929627136E+03 0.85906184880E+02 0.61460706003E+02 0.43684984083E+02 0.31159872471E+02
 0.22489979956E+02 0.16452354868E+02 0.12182434766E+02 0.91378037848E+01 0.69861253916E+01
 0.54967892867E+01 0.44804070726E+01 0.37830181673E+01 0.33000775822E+01 0.29722477190E+01
 0.27623114738E+01 0.26382663999E+01 0.25737804038E+01 0.22622980144E+01 0.22896940381E+01
 0.23728841450E+01 0.25229850549E+01 0.27687389501E+01 0.31465584869E+01 0.36942670013E+01
 0.44745482913E+01 0.56069828219E+01 0.72671857283E+01 0.96646235340E+01 0.13062495706E+02
 0.17873370361E+02 0.24798358070E+02 0.34953206101E+02 0.49890605184E+02 0.71338543724E+02
 0.10187142580E+03 0.14439112628E+03 0.19804295393E+03 0.25723966414E+03 0.31345854454E+03
 0.35851778272E+03 0.38704640205E+03 0.39672808354E+03 0.38704640205E+03 0.35851778272E+03
 0.31345854454E+03 0.25723966414E+03 0.19804295393E+03 0.14439112628E+03 0.10187142580E+03
 0.71338543724E+02 0.49890605184E+02 0.34953206101E+02 0.24798358070E+02 0.17873370361E+02
 0.13062495706E+02 0.96646235340E+01 0.72671857283E+01 0.56069828219E+01 0.44745482913E+01
 0.36942670013E+01 0.31465584869E+01 0.27687389501E+01 0.25229850549E+01 0.23728841450E+01
 0.22896940381E+01 0.20994129866E+01 0.21320997742E+01 0.22275687467E+01 0.23928883969E+01
 0.26599844678E+01 0.30704510412E+01 0.36623844262E+01 0.45003882025E+01 0.57167737030E+01
 0.75052614383E+01 0.10090866219E+02 0.13764497479E+02 0.19011284799E+02 0.26673887345E+02
 0.38085605546E+02 0.55073388202E+02 0.79753080310E+02 0.11585999018E+03 0.16630555139E+03
 0.22900608113E+03 0.29645902129E+03 0.35851778272E+03 0.40654998956E+03 0.43599544803E+03
 0.44578783863E+03 0.43599544803E+03 0.40654998956E+03 0.35851778272E+03 0.29645902129E+03
 0.22900608113E+03 0.16630555139E+03 0.11585999018E+03 0.79753080310E+02 0.55073388202E+02
 0.38085605546E+02 0.26673887345E+02 0.19011284799E+02 0.13764497479E+02 0.10090866219E+02
 0.75052614383E+01 0.57167737030E+01 0.45003882025E+01 0.36623844262E+01 0.30704510412E+01
 0.26599844678E+01 0.23928883969E+01 0.22275687467E+01 0.21320997742E+01 0.20189940902E+01
 0.20549465883E+01 0.21574326281E+01 0.23304647122E+01 0.26086128650E+01 0.30375725528E+01
 0.36554298074E+01 0.45275977440E+01 0.57949455703E+01 0.76632997928E+01 0.10367538920E+02
 0.14217359769E+02 0.19748802068E+02 0.27902727961E+02 0.40160259552E+02 0.58528498448E+02
 0.85481959032E+02 0.12548954122E+03 0.18126766780E+03 0.24975103962E+03 0.32206611304E+03
 0.38704640205E+03 0.43599544803E+03 0.46522220771E+03 0.47477509588E+03 0.46522220771E+03
 0.43599544803E+03 0.38704640205E+03 0.32206611304E+03 0.24975103962E+03 0.18126766780E+03
 0.12548954122E+03 0.85481959032E+02 0.58528498448E+02 0.40160259552E+02 0.27902727961E+02
 0.19748802068E+02 0.14217359769E+02 0.10367538920E+02 0.76632997928E+01 0.57949455703E+01
 0.45275977440E+01 0.36554298074E+01 0.30375725528E+01 0.26086128650E+01 0.23304647122E+01
 0.21574326281E+01 0.20549465883E+01 0.19950239642E+01 0.20320867511E+01 0.21368564384E+01
 0.23122061844E+01 0.25937291544E+01 0.30286762806E+01 0.36550897290E+01 0.45385777442E+01
 0.58230284847E+01 0.77185311182E+01 0.10463347112E+02 0.14373841405E+02 0.20004396637E+02
 0.28331043496E+02 0.40887272119E+02 0.59742762466E+02 0.87520457884E+02 0.12892701417E+03
 0.18657748811E+03 0.25703169933E+03 0.33091864955E+03 0.39672808354E+03 0.44578783863E+03
 0.47477509588E+03 0.48418278562E+03 0.47477509588E+03 0.44578783863E+03 0.39672808354E+03
 0.33091864955E+03 0.25703169933E+03 0.18657748811E+03 0.12892701417E+03 0.87520457884E+02
 0.59742762466E+02 0.40887272119E+02 0.28331043496E+02 0.20004396637E+02 0.14373841405E+02
 0.10463347112E+02 0.77185311182E+01 0.58230284847E+01 0.45385777442E+01 0.36550897290E+01
 0.30286762806E+01 0.25937291544E+01 0.23122061844E+01 0.21368564384E+01 0.20320867511E+01
 0.20189940902E+01 0.20549465883E+01 0.21574326281E+01 0.23304647122E+01 0.26086128650E+01
 0.30375725528E+01 0.36554298074E+01 0.45275977440E+01 0.57949455703E+01 0.76632997928E+01
 0.10367538920E+02 0.14217359769E+02 0.19748802068E+02 0.27902727961E+02 0.40160259552E+02
 0.58528498448E+02 0.85481959032E+02 0.12548954122E+03 0.18126766780E+03 0.24975103962E+03
 0.32206611304E+03 0.38704640205E+03 0.43599544803E+03 0.46522220771E+03 0.47477509588E+03
 0.46522220771E+03 0.43599544803E+03 0.38704640205E+03 0.32206611304E+03 0.24975103962E+03
 0.18126766780E+03 0.12548954122E+03 0.85481959032E+02 0.58528498448E+02 0.40160259552E+02
 0.27902727961E+02 0.19748802068E+02 0.14217359769E+02 0.10367538920E+02 0.76632997928E+01
 0.57949455703E+01 0.45275977440E+01 0.36554298074E+01 0.30375725528E+01 0.26086128650E+01
 0.23304647122E+01 0.21574326281E+01 0.20549465883E+01 0.20994129866E+01 0.21320997742E+01
 0.22275687467E+01 0.23928883969E+01 0.26599844678E+01 0.30704510412E+01 0.36623844262E+01
 0.45003882025E+01 0.57167737030E+01 0.75052614383E+01 0.10090866219E+02 0.13764497479E+02
 0.19011284799E+02 0.26673887345E+02 0.38085605546E+02 0.55073388202E+02 0.79753080310E+02
 0.11585999018E+03 0.16630555139E+03 0.22900608113E+03 0.29645902129E+03 0.35851778272E+03
 0.40654998956E+03 0.43599544803E+03 0.44578783863E+03 0.43599544803E+03 0.40654998956E+03
 0.35851778272E+03 0.29645902129E+03 0.22900608113E+03 0.16630555139E+03 0.11585999018E+03
 0.79753080310E+02 0.55073388202E+02 0.38085605546E+02 0.26673887345E+02 0.19011284799E+02
 0.13764497479E+02 0.10090866219E+02 0.75052614383E+01 0.57167737030E+01 0.45003882025E+01
 0.36623844262E+01 0.30704510412E+01 0.26599844678E+01 0.23928883969E+01 0.22275687467E+01
 0.21320997742E+01 0.22622980144E+01 0.22896940381E+01 0.23728841450E+01 0.25229850549E+01
 0.27687389501E+01 0.31465584869E+01 0.36942670013E+01 0.44745482913E+01 0.56069828219E+01
 0.72671857283E+01 0.96646235340E+01 0.13062495706E+02 0.17873370361E+02 0.24798358070E+02
 0.34953206101E+02 0.49890605184E+02 0.71338543724E+02 0.10187142580E+03 0.14439112628E+03
 0.19804295393E+03 0.25723966414E+03 0.31345854454E+03 0.35851778272E+03 0.38704640205E+03
 0.39672808354E+03 0.38704640205E+03 0.35851778272E+03 0.31345854454E+03 0.25723966414E+03
 0.19804295393E+03 0.14439112628E+03 0.10187142580E+03 0.71338543724E+02 0.49890605184E+02
 0.34953206101E+02 0.24798358070E+02 0.17873370361E+02 0.13062495706E+02 0.96646235340E+01
 0.72671857283E+01 0.56069828219E+01 0.44745482913E+01 0.36942670013E+01 0.31465584869E+01
 0.27687389501E+01 0.25229850549E+01 0.23728841450E+01 0.22896940381E+01 0.25537379474E+01
 0.25737804038E+01 0.26382663999E+01 0.27623114738E+01 0.29722477190E+01 0.33000775822E+01
 0.37830181673E+01 0.44804070726E+01 0.54967892867E+01 0.69861253916E+01 0.91378037848E+01
 0.12182434766E+02 0.16452354868E+02 0.22489979956E+02 0.31159872471E+02 0.43684984083E+02
 0.61460706003E+02 0.85906184880E+02 0.11929627136E+03 0.16184583400E+03 0.20999101669E+03
 0.25723966414E+03 0.29645902129E+03 0.32206611304E+03 0.33091864955E+03 0.32206611304E+03
 0.29645902129E+03 0.25723966414E+03 0.20999101669E+03 0.16184583400E+03 0.11929627136E+03
 0.85906184880E+02 0.61460706003E+02 0.43684984083E+02 0.31159872471E+02 0.22489979956E+02
 0.16452354868E+02 0.12182434766E+02 0.91378037848E+01 0.69861253916E+01 0.54967892867E+01
 0.44804070726E+01 0.37830181673E+01 0.33000775822E+01 0.29722477190E+01 0.27623114738E+01
 0.26382663999E+01 0.25737804038E+01 0.30479010396E+01 0.30578771244E+01 0.30946010191E+01
 0.31765591848E+01 0.33296563075E+01 0.35840485026E+01 0.39766115506E+01 0.45623204763E+01
 0.54303292325E+01 0.67117666875E+01 0.85727409246E+01 0.11210005980E+02 0.14880536460E+02
 0.19976137693E+02 0.27114275800E+02 0.37179744488E+02 0.51217810195E+02 0.70088131209E+02
 0.94762613764E+02 0.12596017228E+03 0.16184583400E+03 0.19804295393E+03 0.22900608113E+03
 0.24975103962E+03 0.25703169933E+03 0.24975103962E+03 0.22900608113E+03 0.19804295393E+03
 0.16184583400E+03 0.12596017228E+03 0.94762613764E+02 0.70088131209E+02 0.51217810195E+02
 0.37179744488E+02 0.27114275800E+02 0.19976137693E+02 0.14880536460E+02 0.11210005980E+02
 0.85727409246E+01 0.67117666875E+01 0.54303292325E+01 0.45623204763E+01 0.39766115506E+01
 0.35840485026E+01 0.33296563075E+01 0.31765591848E+01 0.30946010191E+01 0.30578771244E+01
 0.38653387392E+01 0.38606644420E+01 0.38549715023E+01 0.38698495381E+01 0.39338657583E+01
 0.40795286583E+01 0.43452579169E+01 0.47822335038E+01 0.54657468680E+01 0.65048062256E+01
 0.80403895522E+01 0.10236409010E+02 0.13286961371E+02 0.17459072296E+02 0.23157528603E+02
 0.30963969486E+02 0.41583433099E+02 0.55633882447E+02 0.73315699095E+02 0.94762613764E+02
 0.11929627136E+03 0.14439112628E+03 0.16630555139E+03 0.18126766780E+03 0.18657748811E+03
 0.18126766780E+03 0.16630555139E+03 0.14439112628E+03 0.11929627136E+03 0.94762613764E+02
 0.73315699095E+02 0.55633882447E+02 0.41583433099E+02 0.30963969486E+02 0.23157528603E+02
 0.17459072296E+02 0.13286961371E+02 0.10236409010E+02 0.80403895522E+01 0.65048062256E+01
 0.54657468680E+01 0.47822335038E+01 0.43452579169E+01 0.40795286583E+01 0.39338657583E+01
 0.38698495381E+01 0.38549715023E+01 0.38606644420E+01 0.52050200221E+01 0.51773528168E+01
 0.51040509005E+01 0.50110178894E+01 0.49339579023E+01 0.49137316012E+01 0.49949773060E+01
 0.52286009963E+01 0.56796961784E+01 0.64374435254E+01 0.76171852951E+01 0.93517255219E+01
 0.11786259828E+02 0.15095722252E+02 0.19523252609E+02 0.25410850736E+02 0.33178225877E+02
 0.43208955653E+02 0.55633882447E+02 0.70088131209E+02 0.85906184880E+02 0.10187142580E+03
 0.11585999018E+03 0.12548954122E+03 0.12892701417E+03 0.12548954122E+03 0.11585999018E+03
 0.10187142580E+03 0.85906184880E+02 0.70088131209E+02 0.55633882447E+02 0.43208955653E+02
 0.33178225877E+02 0.25410850736E+02 0.19523252609E+02 0.15095722252E+02 0.11786259828E+02
 0.93517255219E+01 0.76171852951E+01 0.64374435254E+01 0.56796961784E+01 0.52286009963E+01
 0.49949773060E+01 0.49137316012E+01 0.49339579023E+01 0.50110178894E+01 0.51040509005E+01
 0.51773528168E+01 0.73874795549E+01 0.73222638863E+01 0.71387228813E+01 0.68707151788E+01
 0.65677529656E+01 0.62876097876E+01 0.60897332935E+01 0.60325184166E+01 0.61774964428E+01
 0.65982548745E+01 0.73854842031E+01 0.86422048323E+01 0.10475282855E+02 0.12996778490E+02
 0.16340487072E+02 0.20681100438E+02 0.26229676333E+02 0.33178225877E+02 0.41583433099E+02
 0.51217810195E+02 0.61460706003E+02 0.71338543724E+02 0.79753080310E+02 0.85481959032E+02
 0.87520457884E+02 0.85481959032E+02 0.79753080310E+02 0.71338543724E+02 0.61460706003E+02
 0.51217810195E+02 0.41583433099E+02 0.33178225877E+02 0.26229676333E+02 0.20681100438E+02
 0.16340487072E+02 0.12996778490E+02 0.10475282855E+02 0.86422048323E+01 0.73854842031E+01
 0.65982548745E+01 0.61774964428E+01 0.60325184166E+01 0.60897332935E+01 0.62876097876E+01
 0.65677529656E+01 0.68707151788E+01 0.71387228813E+01 0.73222638863E+01 0.10893750371E+02
 0.10767705210E+02 0.10406367934E+02 0.98580148751E+01 0.91957603769E+01 0.85065007814E+01
 0.78779367056E+01 0.73890085158E+01 0.71086221620E+01 0.71020916741E+01 0.74384703593E+01
 0.81916682370E+01 0.94351572811E+01 0.11237263980E+02 0.13663748073E+02 0.16785809389E+02
 0.20681100438E+02 0.25410850736E+02 0.30963969486E+02 0.37179744488E+02 0.43684984083E+02
 0.49890605184E+02 0.55073388202E+02 0.58528498448E+02 0.59742762466E+02 0.58528498448E+02
 0.55073388202E+02 0.49890605184E+02 0.43684984083E+02 0.37179744488E+02 0.30963969486E+02
 0.25410850736E+02 0.20681100438E+02 0.16785809389E+02 0.13663748073E+02 0.11237263980E+02
 0.94351572811E+01 0.81916682370E+01 0.74384703593E+01 0.71020916741E+01 0.71086221620E+01