   5   5   0   0
  0.1191194E+02  0.3905268E-09  0.3905268E-09  0.3905268E-09  0.5000000E-15
  1.000000000000000E-004
  CAR 
 unknown system                          
     12.70835020    -32.11996212  301      2.62197993      1.00000000
    -32.120  0.0000E+00  0.0000E+00
    -31.971  0.0000E+00  0.0000E+00
    -31.821  0.0000E+00  0.0000E+00
    -31.672  0.0000E+00  0.0000E+00
    -31.522  0.0000E+00  0.0000E+00
    -31.373  0.0000E+00  0.0000E+00
    -31.223  0.0000E+00  0.0000E+00
    -31.074  0.0000E+00  0.0000E+00
    -30.925  0.0000E+00  0.0000E+00
    -30.775  0.0000E+00  0.0000E+00
    -30.626  0.0000E+00  0.0000E+00
    -30.476  0.0000E+00  0.0000E+00
    -30.327  0.0000E+00  0.0000E+00
    -30.177  0.0000E+00  0.0000E+00
    -30.028  0.1575E+02  0.1945E+01
    -29.879  0.0000E+00  0.2000E+01
    -29.729  0.0000E+00  0.2000E+01
    -29.580  0.0000E+00  0.2000E+01
    -29.430  0.0000E+00  0.2000E+01
    -29.281  0.0000E+00  0.2000E+01
    -29.131  0.0000E+00  0.2000E+01
    -28.982  0.0000E+00  0.2000E+01
    -28.833  0.0000E+00  0.2000E+01
    -28.683  0.0000E+00  0.2000E+01
    -28.534  0.0000E+00  0.2000E+01
    -28.384  0.0000E+00  0.2000E+01
    -28.235  0.0000E+00  0.2000E+01
    -28.085  0.0000E+00  0.2000E+01
    -27.936  0.0000E+00  0.2000E+01
    -27.787  0.0000E+00  0.2000E+01
    -27.637  0.0000E+00  0.2000E+01
    -27.488  0.0000E+00  0.2000E+01
    -27.338  0.0000E+00  0.2000E+01
    -27.189  0.0000E+00  0.2000E+01
    -27.039  0.0000E+00  0.2000E+01
    -26.890  0.0000E+00  0.2000E+01
    -26.741  0.0000E+00  0.2000E+01
    -26.591  0.0000E+00  0.2000E+01
    -26.442  0.0000E+00  0.2000E+01
    -26.292  0.0000E+00  0.2000E+01
    -26.143  0.0000E+00  0.2000E+01
    -25.993  0.0000E+00  0.2000E+01
    -25.844  0.0000E+00  0.2000E+01
    -25.695  0.0000E+00  0.2000E+01
    -25.545  0.0000E+00  0.2000E+01
    -25.396  0.0000E+00  0.2000E+01
    -25.246  0.0000E+00  0.2000E+01
    -25.097  0.0000E+00  0.2000E+01
    -24.947  0.0000E+00  0.2000E+01
    -24.798  0.0000E+00  0.2000E+01
    -24.649  0.0000E+00  0.2000E+01
    -24.499  0.0000E+00  0.2000E+01
    -24.350  0.0000E+00  0.2000E+01
    -24.200  0.0000E+00  0.2000E+01
    -24.051  0.0000E+00  0.2000E+01
    -23.901  0.0000E+00  0.2000E+01
    -23.752  0.0000E+00  0.2000E+01
    -23.603  0.0000E+00  0.2000E+01
    -23.453  0.0000E+00  0.2000E+01
    -23.304  0.0000E+00  0.2000E+01
    -23.154  0.0000E+00  0.2000E+01
    -23.005  0.0000E+00  0.2000E+01
    -22.855  0.0000E+00  0.2000E+01
    -22.706  0.0000E+00  0.2000E+01
    -22.557  0.0000E+00  0.2000E+01
    -22.407  0.0000E+00  0.2000E+01
    -22.258  0.0000E+00  0.2000E+01
    -22.108  0.0000E+00  0.2000E+01
    -21.959  0.0000E+00  0.2000E+01
    -21.809  0.0000E+00  0.2000E+01
    -21.660  0.0000E+00  0.2000E+01
    -21.511  0.0000E+00  0.2000E+01
    -21.361  0.0000E+00  0.2000E+01
    -21.212  0.0000E+00  0.2000E+01
    -21.062  0.0000E+00  0.2000E+01
    -20.913  0.0000E+00  0.2000E+01
    -20.763  0.0000E+00  0.2000E+01
    -20.614  0.0000E+00  0.2000E+01
    -20.465  0.0000E+00  0.2000E+01
    -20.315  0.0000E+00  0.2000E+01
    -20.166  0.0000E+00  0.2000E+01
    -20.016  0.0000E+00  0.2000E+01
    -19.867  0.0000E+00  0.2000E+01
    -19.717  0.0000E+00  0.2000E+01
    -19.568  0.0000E+00  0.2000E+01
    -19.419  0.0000E+00  0.2000E+01
    -19.269  0.0000E+00  0.2000E+01
    -19.120  0.0000E+00  0.2000E+01
    -18.970  0.0000E+00  0.2000E+01
    -18.821  0.0000E+00  0.2000E+01
    -18.671  0.0000E+00  0.2000E+01
    -18.522  0.0000E+00  0.2000E+01
    -18.373  0.0000E+00  0.2000E+01
    -18.223  0.0000E+00  0.2000E+01
    -18.074  0.0000E+00  0.2000E+01
    -17.924  0.0000E+00  0.2000E+01
    -17.775  0.0000E+00  0.2000E+01
    -17.625  0.0000E+00  0.2000E+01
    -17.476  0.0000E+00  0.2000E+01
    -17.327  0.0000E+00  0.2000E+01
    -17.177  0.0000E+00  0.2000E+01
    -17.028  0.0000E+00  0.2000E+01
    -16.878  0.0000E+00  0.2000E+01
    -16.729  0.0000E+00  0.2000E+01
    -16.579  0.0000E+00  0.2000E+01
    -16.430  0.0000E+00  0.2000E+01
    -16.281  0.0000E+00  0.2000E+01
    -16.131  0.0000E+00  0.2000E+01
    -15.982  0.0000E+00  0.2000E+01
    -15.832  0.0000E+00  0.2000E+01
    -15.683  0.0000E+00  0.2000E+01
    -15.533  0.0000E+00  0.2000E+01
    -15.384  0.0000E+00  0.2000E+01
    -15.235  0.0000E+00  0.2000E+01
    -15.085  0.0000E+00  0.2000E+01
    -14.936  0.1135E+01  0.2039E+01
    -14.786  0.3978E+01  0.2579E+01
    -14.637  0.2728E+01  0.3042E+01
    -14.487  0.1887E+01  0.3370E+01
    -14.338  0.1757E+01  0.3627E+01
    -14.189  0.8448E+00  0.3810E+01
    -14.039  0.1350E+01  0.3920E+01
    -13.890  0.1134E+02  0.4671E+01
    -13.740  0.2925E+02  0.7214E+01
    -13.591  0.0000E+00  0.8000E+01
    -13.441  0.0000E+00  0.8000E+01
    -13.292  0.0000E+00  0.8000E+01
    -13.143  0.0000E+00  0.8000E+01
    -12.993  0.0000E+00  0.8000E+01
    -12.844  0.0000E+00  0.8000E+01
    -12.694  0.0000E+00  0.8000E+01
    -12.545  0.0000E+00  0.8000E+01
    -12.396  0.0000E+00  0.8000E+01
    -12.246  0.2728E+01  0.8233E+01
    -12.097  0.2351E+02  0.9916E+01
    -11.947  0.9751E+01  0.1141E+02
    -11.798  0.8221E+01  0.1269E+02
    -11.648  0.2485E+01  0.1392E+02
    -11.499  0.0000E+00  0.1400E+02
    -11.350  0.0000E+00  0.1400E+02
    -11.200  0.0000E+00  0.1400E+02
    -11.051  0.0000E+00  0.1400E+02
    -10.901  0.0000E+00  0.1400E+02
    -10.752  0.0000E+00  0.1400E+02
    -10.602  0.0000E+00  0.1400E+02
    -10.453  0.0000E+00  0.1400E+02
    -10.304  0.0000E+00  0.1400E+02
    -10.154  0.0000E+00  0.1400E+02
    -10.005  0.0000E+00  0.1400E+02
     -9.855  0.0000E+00  0.1400E+02
     -9.706  0.0000E+00  0.1400E+02
     -9.556  0.0000E+00  0.1400E+02
     -9.407  0.0000E+00  0.1400E+02
     -9.258  0.0000E+00  0.1400E+02
     -9.108  0.0000E+00  0.1400E+02
     -8.959  0.0000E+00  0.1400E+02
     -8.809  0.0000E+00  0.1400E+02
     -8.660  0.0000E+00  0.1400E+02
     -8.510  0.0000E+00  0.1400E+02
     -8.361  0.0000E+00  0.1400E+02
     -8.212  0.0000E+00  0.1400E+02
     -8.062  0.0000E+00  0.1400E+02
     -7.913  0.0000E+00  0.1400E+02
     -7.763  0.0000E+00  0.1400E+02
     -7.614  0.0000E+00  0.1400E+02
     -7.464  0.0000E+00  0.1400E+02
     -7.315  0.0000E+00  0.1400E+02
     -7.166  0.0000E+00  0.1400E+02
     -7.016  0.0000E+00  0.1400E+02
     -6.867  0.0000E+00  0.1400E+02
     -6.717  0.0000E+00  0.1400E+02
     -6.568  0.0000E+00  0.1400E+02
     -6.418  0.0000E+00  0.1400E+02
     -6.269  0.0000E+00  0.1400E+02
     -6.120  0.0000E+00  0.1400E+02
     -5.970  0.0000E+00  0.1400E+02
     -5.821  0.0000E+00  0.1400E+02
     -5.671  0.0000E+00  0.1400E+02
     -5.522  0.0000E+00  0.1400E+02
     -5.372  0.0000E+00  0.1400E+02
     -5.223  0.0000E+00  0.1400E+02
     -5.074  0.0000E+00  0.1400E+02
     -4.924  0.0000E+00  0.1400E+02
     -4.775  0.0000E+00  0.1400E+02
     -4.625  0.0000E+00  0.1400E+02
     -4.476  0.0000E+00  0.1400E+02
     -4.326  0.0000E+00  0.1400E+02
     -4.177  0.0000E+00  0.1400E+02
     -4.028  0.0000E+00  0.1400E+02
     -3.878  0.0000E+00  0.1400E+02
     -3.729  0.0000E+00  0.1400E+02
     -3.579  0.0000E+00  0.1400E+02
     -3.430  0.0000E+00  0.1400E+02
     -3.280  0.0000E+00  0.1400E+02
     -3.131  0.0000E+00  0.1400E+02
     -2.982  0.0000E+00  0.1400E+02
     -2.832  0.0000E+00  0.1400E+02
     -2.683  0.0000E+00  0.1400E+02
     -2.533  0.0000E+00  0.1400E+02
     -2.384  0.0000E+00  0.1400E+02
     -2.234  0.0000E+00  0.1400E+02
     -2.085  0.0000E+00  0.1400E+02
     -1.936  0.0000E+00  0.1400E+02
     -1.786  0.4193E+01  0.1428E+02
     -1.637  0.5100E+01  0.1515E+02
     -1.487  0.3902E+01  0.1568E+02
     -1.338  0.4175E+01  0.1648E+02
     -1.188  0.3287E+01  0.1701E+02
     -1.039  0.3855E+01  0.1754E+02
     -0.890  0.4727E+01  0.1824E+02
     -0.740  0.5045E+01  0.1900E+02
     -0.591  0.5366E+01  0.1977E+02
     -0.441  0.6653E+01  0.2069E+02
     -0.292  0.9716E+01  0.2189E+02
     -0.142  0.3518E+01  0.2281E+02
      0.007  0.2779E+01  0.2330E+02
      0.156  0.2302E+01  0.2367E+02
      0.306  0.1863E+01  0.2400E+02
      0.455  0.2020E+01  0.2427E+02
      0.605  0.2966E+01  0.2466E+02
      0.754  0.3254E+01  0.2512E+02
      0.904  0.2512E+01  0.2562E+02
      1.053  0.1272E+01  0.2583E+02
      1.202  0.2904E+01  0.2612E+02
      1.352  0.6502E+01  0.2677E+02
      1.501  0.8197E+01  0.2776E+02
      1.651  0.5912E+01  0.2877E+02
      1.800  0.5757E+01  0.2965E+02
      1.950  0.4260E+01  0.3040E+02
      2.099  0.3266E+01  0.3095E+02
      2.248  0.2390E+01  0.3140E+02
      2.398  0.1842E+01  0.3171E+02
      2.547  0.8055E+00  0.3199E+02
      2.697  0.0000E+00  0.3200E+02
      2.846  0.0000E+00  0.3200E+02
      2.996  0.0000E+00  0.3200E+02
      3.145  0.0000E+00  0.3200E+02
      3.294  0.0000E+00  0.3200E+02
      3.444  0.0000E+00  0.3200E+02
      3.593  0.0000E+00  0.3200E+02
      3.743  0.0000E+00  0.3200E+02
      3.892  0.0000E+00  0.3200E+02
      4.042  0.0000E+00  0.3200E+02
      4.191  0.0000E+00  0.3200E+02
      4.340  0.0000E+00  0.3200E+02
      4.490  0.2343E+00  0.3202E+02
      4.639  0.6437E+00  0.3208E+02
      4.789  0.1088E+01  0.3221E+02
      4.938  0.1565E+01  0.3243E+02
      5.088  0.1420E+01  0.3266E+02
      5.237  0.1513E+01  0.3287E+02
      5.386  0.1717E+01  0.3311E+02
      5.536  0.1928E+01  0.3339E+02
      5.685  0.2941E+01  0.3373E+02
      5.835  0.3219E+01  0.3419E+02
      5.984  0.3623E+01  0.3471E+02
      6.134  0.4183E+01  0.3529E+02
      6.283  0.4829E+01  0.3645E+02
      6.432  0.3718E+01  0.3709E+02
      6.582  0.1993E+01  0.3753E+02
      6.731  0.3141E+00  0.3777E+02
      6.881  0.1146E+00  0.3780E+02
      7.030  0.1083E+00  0.3782E+02
      7.180  0.1021E+00  0.3784E+02
      7.329  0.9609E-01  0.3785E+02
      7.478  0.9026E-01  0.3787E+02
      7.628  0.8461E-01  0.3788E+02
      7.777  0.7913E-01  0.3789E+02
      7.927  0.7382E-01  0.3790E+02
      8.076  0.6978E-01  0.3791E+02
      8.226  0.8643E-01  0.3792E+02
      8.375  0.1309E+00  0.3794E+02
      8.524  0.1815E+00  0.3796E+02
      8.674  0.2171E+00  0.3799E+02
      8.823  0.2364E+00  0.3803E+02
      8.973  0.2733E+00  0.3807E+02
      9.122  0.3238E+00  0.3811E+02
      9.272  0.3818E+00  0.3816E+02
      9.421  0.4503E+00  0.3823E+02
      9.570  0.5686E+00  0.3830E+02
      9.720  0.6818E+00  0.3839E+02
      9.869  0.9799E+00  0.3852E+02
     10.019  0.1978E+01  0.3872E+02
     10.168  0.1818E+01  0.3898E+02
     10.318  0.2146E+01  0.3928E+02
     10.467  0.3302E+01  0.3965E+02
     10.616  0.4930E+00  0.3998E+02
     10.766  0.0000E+00  0.4000E+02
     10.915  0.0000E+00  0.4000E+02
     11.065  0.0000E+00  0.4000E+02
     11.214  0.0000E+00  0.4000E+02
     11.364  0.0000E+00  0.4000E+02
     11.513  0.0000E+00  0.4000E+02
     11.662  0.0000E+00  0.4000E+02
     11.812  0.0000E+00  0.4000E+02
     11.961  0.0000E+00  0.4000E+02
     12.111  0.0000E+00  0.4000E+02
     12.260  0.0000E+00  0.4000E+02
     12.409  0.0000E+00  0.4000E+02
     12.559  0.0000E+00  0.4000E+02
     12.708  0.0000E+00  0.4000E+02
