unknown system                          
   1.00000000000000     
     2.573869    0.000000    0.000000
     1.286934    2.229036    0.000000
     0.000000    0.000000   30.304665
   Cu   H 
     4     1
Direct
  0.000000  0.000000  0.396440
  0.333333  0.333333  0.465152
  0.666667  0.666667  0.533916
  0.000000  0.000000  0.606744
  0.333333  0.333333  0.634767
 
   20   20  240
 0.47847E-01 0.44033E-01 0.34573E-01 0.23043E-01 0.12969E-01 0.63169E-02 0.28316E-02 0.79240E-03 -.11866E-02 -.30160E-02
 -.37560E-02 -.29771E-02 -.11866E-02 0.87865E-03 0.31541E-02 0.66468E-02 0.12969E-01 0.22856E-01 0.34608E-01 0.44248E-01
 0.44033E-01 0.37482E-01 0.27374E-01 0.16914E-01 0.86814E-02 0.35963E-02 0.54647E-03 -.21860E-02 -.48864E-02 -.63624E-02
 -.58024E-02 -.38024E-02 -.14608E-02 0.81652E-03 0.36075E-02 0.82579E-02 0.16131E-01 0.26966E-01 0.37786E-01 0.44328E-01
 0.34573E-01 0.27374E-01 0.18484E-01 0.10141E-01 0.38071E-02 -.75576E-03 -.51078E-02 -.99212E-02 -.13757E-01 -.14753E-01
 -.12789E-01 -.92119E-02 -.51862E-02 -.10411E-02 0.35631E-02 0.95975E-02 0.17906E-01 0.27483E-01 0.35118E-01 0.37701E-01
 0.23043E-01 0.16914E-01 0.10141E-01 0.38707E-02 -.17058E-02 -.77906E-02 -.15383E-01 -.23090E-01 -.27774E-01 -.27528E-01
 -.23026E-01 -.16150E-01 -.85897E-02 -.16209E-02 0.43413E-02 0.10206E-01 0.16922E-01 0.23497E-01 0.27397E-01 0.27058E-01
 0.12969E-01 0.86814E-02 0.38071E-02 -.17058E-02 -.88399E-02 -.18825E-01 -.30727E-01 -.40611E-01 -.44338E-01 -.40732E-01
 -.31615E-01 -.19963E-01 -.88412E-02 -.57988E-03 0.46317E-02 0.86777E-02 0.12965E-01 0.16593E-01 0.17816E-01 0.16293E-01
 0.63169E-02 0.35963E-02 -.75576E-03 -.77906E-02 -.18825E-01 -.33658E-01 -.48554E-01 -.57726E-01 -.57519E-01 -.48532E-01
 -.34232E-01 -.18999E-01 -.68912E-02 0.10356E-03 0.33210E-02 0.56233E-02 0.81074E-02 0.96764E-02 0.95037E-02 0.81773E-02
 0.28316E-02 0.54647E-03 -.51078E-02 -.15383E-01 -.30727E-01 -.48554E-01 -.62830E-01 -.67787E-01 -.61915E-01 -.48005E-01
 -.30752E-01 -.15083E-01 -.46928E-02 -.36595E-04 0.15921E-02 0.28123E-02 0.38020E-02 0.38187E-02 0.33420E-02 0.32139E-02
 0.79240E-03 -.21860E-02 -.99212E-02 -.23090E-01 -.40611E-01 -.57726E-01 -.67787E-01 -.67027E-01 -.56600E-01 -.40513E-01
 -.23435E-01 -.98677E-02 -.24609E-02 -.26432E-03 -.24576E-03 -.67629E-03 -.15428E-02 -.22703E-02 -.15682E-02 0.23987E-03
 -.11866E-02 -.48864E-02 -.13757E-01 -.27774E-01 -.44338E-01 -.57519E-01 -.61915E-01 -.56600E-01 -.44339E-01 -.28832E-01
 -.14147E-01 -.43815E-02 -.11820E-02 -.25099E-02 -.53363E-02 -.82229E-02 -.10228E-01 -.96637E-02 -.61162E-02 -.21545E-02
 -.30160E-02 -.63624E-02 -.14753E-01 -.27528E-01 -.40732E-01 -.48532E-01 -.48005E-01 -.40513E-01 -.28832E-01 -.15833E-01
 -.55480E-02 -.17726E-02 -.46106E-02 -.10668E-01 -.16751E-01 -.21121E-01 -.21878E-01 -.17673E-01 -.10431E-01 -.45545E-02
 -.37560E-02 -.58024E-02 -.12789E-01 -.23026E-01 -.31615E-01 -.34232E-01 -.30752E-01 -.23435E-01 -.14147E-01 -.55480E-02
 -.20106E-02 -.60516E-02 -.15356E-01 -.25431E-01 -.33264E-01 -.36770E-01 -.33805E-01 -.24751E-01 -.14033E-01 -.64814E-02
 -.29771E-02 -.38024E-02 -.92119E-02 -.16150E-01 -.19963E-01 -.18999E-01 -.15083E-01 -.98677E-02 -.43815E-02 -.17726E-02
 -.60516E-02 -.17265E-01 -.31054E-01 -.43057E-01 -.50646E-01 -.51175E-01 -.43067E-01 -.29255E-01 -.15892E-01 -.69839E-02
 -.11866E-02 -.14608E-02 -.51862E-02 -.85897E-02 -.88412E-02 -.68912E-02 -.46928E-02 -.24609E-02 -.11820E-02 -.46106E-02
 -.15356E-01 -.31054E-01 -.46837E-01 -.59081E-01 -.64714E-01 -.60529E-01 -.46835E-01 -.29448E-01 -.14930E-01 -.56355E-02
 0.87865E-03 0.81652E-03 -.10411E-02 -.16209E-02 -.57988E-03 0.10356E-03 -.36595E-04 -.26432E-03 -.25099E-02 -.10668E-01
 -.25431E-01 -.43057E-01 -.59081E-01 -.69840E-01 -.71268E-01 -.61094E-01 -.42990E-01 -.24691E-01 -.11265E-01 -.30075E-02
 0.31541E-02 0.36075E-02 0.35631E-02 0.43413E-02 0.46317E-02 0.33210E-02 0.15921E-02 -.24576E-03 -.53363E-02 -.16751E-01
 -.33264E-01 -.50646E-01 -.64714E-01 -.71268E-01 -.66595E-01 -.51485E-01 -.32595E-01 -.16904E-01 -.64306E-02 0.37233E-04
 0.66468E-02 0.82579E-02 0.95975E-02 0.10206E-01 0.86777E-02 0.56233E-02 0.28123E-02 -.67629E-03 -.82229E-02 -.21121E-01
 -.36770E-01 -.51175E-01 -.60529E-01 -.61094E-01 -.51485E-01 -.35616E-01 -.20281E-01 -.92088E-02 -.16996E-02 0.35510E-02
 0.12969E-01 0.16131E-01 0.17906E-01 0.16922E-01 0.12965E-01 0.81074E-02 0.38020E-02 -.15428E-02 -.10228E-01 -.21878E-01
 -.33805E-01 -.43067E-01 -.46835E-01 -.42990E-01 -.32595E-01 -.20281E-01 -.10226E-01 -.28586E-02 0.33340E-02 0.87444E-02
 0.22856E-01 0.26966E-01 0.27483E-01 0.23497E-01 0.16593E-01 0.96764E-02 0.38187E-02 -.22703E-02 -.96637E-02 -.17673E-01
 -.24751E-01 -.29255E-01 -.29448E-01 -.24691E-01 -.16904E-01 -.92088E-02 -.28586E-02 0.31995E-02 0.99043E-02 0.16789E-01
 0.34608E-01 0.37786E-01 0.35118E-01 0.27397E-01 0.17816E-01 0.95037E-02 0.33420E-02 -.15682E-02 -.61162E-02 -.10431E-01
 -.14033E-01 -.15892E-01 -.14930E-01 -.11265E-01 -.64306E-02 -.16996E-02 0.33340E-02 0.99043E-02 0.18289E-01 0.27261E-01
 0.44248E-01 0.44328E-01 0.37701E-01 0.27058E-01 0.16293E-01 0.81773E-02 0.32139E-02 0.23987E-03 -.21545E-02 -.45545E-02
 -.64814E-02 -.69839E-02 -.56355E-02 -.30075E-02 0.37233E-04 0.35510E-02 0.87444E-02 0.16789E-01 0.27261E-01 0.37630E-01
 -.22600E-01 -.20756E-01 -.16510E-01 -.11045E-01 -.57002E-02 -.18276E-02 0.52564E-05 0.39424E-03 0.24140E-03 -.84004E-04
 -.42169E-03 -.36108E-03 0.24208E-03 0.72692E-03 0.15727E-03 -.19490E-02 -.57023E-02 -.10957E-01 -.16748E-01 -.21178E-01
 -.20756E-01 -.17767E-01 -.12811E-01 -.74371E-02 -.31538E-02 -.78511E-03 -.13208E-03 -.32304E-03 -.55822E-03 -.50301E-03
 -.15466E-03 0.33559E-03 0.64680E-03 0.32332E-03 -.10588E-02 -.37910E-02 -.79357E-02 -.13025E-01 -.17835E-01 -.20776E-01
 -.16510E-01 -.12811E-01 -.81033E-02 -.40901E-02 -.16291E-02 -.60995E-03 -.45699E-03 -.51915E-03 -.33066E-03 0.10191E-03
 0.37468E-03 0.23279E-03 -.17826E-03 -.79381E-03 -.20594E-02 -.45500E-02 -.82782E-02 -.12521E-01 -.16095E-01 -.17707E-01
 -.11045E-01 -.74371E-02 -.40901E-02 -.19924E-02 -.90364E-03 -.35014E-03 -.16587E-03 -.11268E-03 0.73267E-04 0.16393E-03
 -.22609E-03 -.79998E-03 -.93166E-03 -.86425E-03 -.16760E-02 -.39498E-02 -.71860E-02 -.10448E-01 -.12778E-01 -.13138E-01
 -.57002E-02 -.31538E-02 -.16291E-02 -.90364E-03 -.27140E-03 0.15029E-03 0.37586E-04 -.23040E-03 -.28558E-03 -.47789E-03
 -.94703E-03 -.97777E-03 -.27188E-03 0.89306E-04 -.10209E-02 -.32992E-02 -.57048E-02 -.76536E-02 -.86738E-02 -.80105E-02
 -.18276E-02 -.78511E-03 -.60995E-03 -.35014E-03 0.15029E-03 0.89472E-04 -.51642E-03 -.74380E-03 -.48190E-03 -.46120E-03
 -.59324E-03 -.11796E-03 0.59503E-03 0.25494E-03 -.12593E-02 -.27564E-02 -.36602E-02 -.43218E-02 -.45119E-02 -.35232E-02
 0.52564E-05 -.13208E-03 -.45699E-03 -.16587E-03 0.37586E-04 -.51642E-03 -.93584E-03 -.39755E-03 0.25227E-03 0.10659E-03
 -.16495E-03 0.15447E-03 0.27471E-03 -.52264E-03 -.13345E-02 -.12618E-02 -.10210E-02 -.13687E-02 -.15244E-02 -.76381E-03
 0.39424E-03 -.32304E-03 -.51915E-03 -.11268E-03 -.23040E-03 -.74380E-03 -.39755E-03 0.58470E-03 0.65682E-03 -.24862E-03
 -.65811E-03 -.28775E-03 -.24527E-03 -.55086E-03 -.11283E-03 0.81758E-03 0.82203E-03 -.11654E-04 -.19158E-03 0.39433E-03
 0.24140E-03 -.55822E-03 -.33066E-03 0.73267E-04 -.28558E-03 -.48190E-03 0.25227E-03 0.65682E-03 -.28593E-03 -.12564E-02
 -.86111E-03 0.33127E-04 0.24500E-03 0.45363E-03 0.13700E-02 0.18631E-02 0.10505E-02 0.21418E-03 0.53287E-03 0.93111E-03
 -.84004E-04 -.50301E-03 0.10191E-03 0.16393E-03 -.47789E-03 -.46120E-03 0.10659E-03 -.24862E-03 -.12564E-02 -.10933E-02
 0.26432E-03 0.10136E-02 0.84804E-03 0.11634E-02 0.19837E-02 0.18861E-02 0.10063E-02 0.92851E-03 0.15445E-02 0.11877E-02
 -.42169E-03 -.15466E-03 0.37468E-03 -.22609E-03 -.94703E-03 -.59324E-03 -.16495E-03 -.65811E-03 -.86111E-03 0.26432E-03
 0.13423E-02 0.10932E-02 0.75364E-03 0.16400E-02 0.26338E-02 0.24398E-02 0.19991E-02 0.23096E-02 0.22260E-02 0.81987E-03
 -.36108E-03 0.33559E-03 0.23279E-03 -.79998E-03 -.97777E-03 -.11796E-03 0.15447E-03 -.28775E-03 0.33127E-04 0.10136E-02
 0.10932E-02 0.56159E-03 0.13066E-02 0.32040E-02 0.41350E-02 0.36363E-02 0.32031E-02 0.30218E-02 0.18435E-02 0.95666E-04
 0.24208E-03 0.64680E-03 -.17826E-03 -.93166E-03 -.27188E-03 0.59503E-03 0.27471E-03 -.24527E-03 0.24500E-03 0.84804E-03
 0.75364E-03 0.13066E-02 0.34201E-02 0.52941E-02 0.51636E-02 0.40422E-02 0.34225E-02 0.26673E-02 0.10470E-02 -.10449E-03
 0.72692E-03 0.32332E-03 -.79381E-03 -.86425E-03 0.89306E-04 0.25494E-03 -.52264E-03 -.55086E-03 0.45363E-03 0.11634E-02
 0.16400E-02 0.32040E-02 0.52941E-02 0.57878E-02 0.45589E-02 0.35230E-02 0.31541E-02 0.21907E-02 0.73739E-03 0.30593E-03
 0.15727E-03 -.10588E-02 -.20594E-02 -.16760E-02 -.10209E-02 -.12593E-02 -.13345E-02 -.11283E-03 0.13700E-02 0.19837E-02
 0.26338E-02 0.41350E-02 0.51636E-02 0.45589E-02 0.35241E-02 0.33550E-02 0.31351E-02 0.18487E-02 0.57436E-03 0.36915E-03
 -.19490E-02 -.37910E-02 -.45500E-02 -.39498E-02 -.32992E-02 -.27564E-02 -.12618E-02 0.81758E-03 0.18631E-02 0.18861E-02
 0.24398E-02 0.36363E-02 0.40422E-02 0.35230E-02 0.33550E-02 0.35040E-02 0.26430E-02 0.90271E-03 -.22048E-03 -.71005E-03
 -.57023E-02 -.79357E-02 -.82782E-02 -.71860E-02 -.57048E-02 -.36602E-02 -.10210E-02 0.82203E-03 0.10505E-02 0.10063E-02
 0.19991E-02 0.32031E-02 0.34225E-02 0.31541E-02 0.31351E-02 0.26430E-02 0.10535E-02 -.65355E-03 -.17182E-02 -.31567E-02
 -.10957E-01 -.13025E-01 -.12521E-01 -.10448E-01 -.76536E-02 -.43218E-02 -.13687E-02 -.11654E-04 0.21418E-03 0.92851E-03
 0.23096E-02 0.30218E-02 0.26673E-02 0.21907E-02 0.18487E-02 0.90271E-03 -.65355E-03 -.21567E-02 -.40175E-02 -.72118E-02
 -.16748E-01 -.17835E-01 -.16095E-01 -.12778E-01 -.86738E-02 -.45119E-02 -.15244E-02 -.19158E-03 0.53287E-03 0.15445E-02
 0.22260E-02 0.18435E-02 0.10470E-02 0.73739E-03 0.57436E-03 -.22048E-03 -.17182E-02 -.40175E-02 -.77842E-02 -.12735E-01
 -.21178E-01 -.20776E-01 -.17707E-01 -.13138E-01 -.80105E-02 -.35232E-02 -.76381E-03 0.39433E-03 0.93111E-03 0.11877E-02
 0.81987E-03 0.95666E-04 -.10449E-03 0.30593E-03 0.36915E-03 -.71005E-03 -.31567E-02 -.72118E-02 -.12735E-01 -.18159E-01
 -.47455E-01 -.43350E-01 -.34305E-01 -.23116E-01 -.12578E-01 -.52270E-02 -.16628E-02 -.26849E-04 0.15317E-02 0.28091E-02
 0.29145E-02 0.22162E-02 0.15322E-02 0.55025E-03 -.16830E-02 -.58000E-02 -.12581E-01 -.22751E-01 -.34815E-01 -.44406E-01
 -.43350E-01 -.37002E-01 -.27035E-01 -.16361E-01 -.77706E-02 -.27142E-02 -.22361E-03 0.18420E-02 0.42460E-02 0.59613E-02
 0.60986E-02 0.49509E-02 0.30576E-02 0.41800E-03 -.32723E-02 -.86221E-02 -.16576E-01 -.27057E-01 -.37443E-01 -.43684E-01
 -.34305E-01 -.27035E-01 -.17862E-01 -.95445E-02 -.35465E-02 0.67160E-03 0.47946E-02 0.96248E-02 0.13996E-01 0.15903E-01
 0.14441E-01 0.10421E-01 0.54312E-02 0.59059E-03 -.41615E-02 -.99208E-02 -.17636E-01 -.26566E-01 -.34021E-01 -.37014E-01
 -.23116E-01 -.16361E-01 -.95445E-02 -.39171E-02 0.13879E-02 0.79129E-02 0.15955E-01 0.23890E-01 0.28955E-01 0.28891E-01
 0.23600E-01 0.15453E-01 0.75479E-02 0.13828E-02 -.37535E-02 -.93286E-02 -.15867E-01 -.22375E-01 -.26803E-01 -.27186E-01
 -.12578E-01 -.77706E-02 -.35465E-02 0.13879E-02 0.92071E-02 0.20120E-01 0.31878E-01 0.41139E-01 0.44682E-01 0.40765E-01
 0.30796E-01 0.19000E-01 0.92068E-02 0.22478E-02 -.31559E-02 -.80582E-02 -.12580E-01 -.16267E-01 -.18030E-01 -.16684E-01
 -.52270E-02 -.27142E-02 0.67160E-03 0.79129E-02 0.20120E-01 0.34927E-01 0.48446E-01 0.56948E-01 0.57266E-01 0.48536E-01
 0.34135E-01 0.19757E-01 0.89046E-02 0.15422E-02 -.33892E-02 -.63922E-02 -.81505E-02 -.93737E-02 -.95826E-02 -.79481E-02
 -.16628E-02 -.22361E-03 0.47946E-02 0.15955E-01 0.31878E-01 0.48446E-01 0.61571E-01 0.67450E-01 0.63035E-01 0.49144E-01
 0.31496E-01 0.16296E-01 0.58462E-02 -.41983E-03 -.31046E-02 -.31366E-02 -.26268E-02 -.29166E-02 -.31722E-02 -.25392E-02
 -.26849E-04 0.18420E-02 0.96248E-02 0.23890E-01 0.41139E-01 0.56948E-01 0.67450E-01 0.68656E-01 0.58626E-01 0.41003E-01
 0.23143E-01 0.10035E-01 0.22748E-02 -.86004E-03 -.54502E-04 0.24025E-02 0.34503E-02 0.25103E-02 0.12767E-02 0.47550E-03
 0.15317E-02 0.42460E-02 0.13996E-01 0.28955E-01 0.44682E-01 0.57266E-01 0.63035E-01 0.58626E-01 0.44683E-01 0.27354E-01
 0.13325E-01 0.49236E-02 0.15327E-02 0.26381E-02 0.67744E-02 0.10317E-01 0.10583E-01 0.84562E-02 0.58780E-02 0.32390E-02
 0.28091E-02 0.59613E-02 0.15903E-01 0.28891E-01 0.40765E-01 0.48536E-01 0.49144E-01 0.41003E-01 0.27354E-01 0.14592E-01
 0.66827E-02 0.37603E-02 0.53637E-02 0.11047E-01 0.17893E-01 0.21552E-01 0.20549E-01 0.16702E-01 0.11572E-01 0.59892E-02
 0.29145E-02 0.60986E-02 0.14441E-01 0.23600E-01 0.30796E-01 0.34135E-01 0.31496E-01 0.23143E-01 0.13325E-01 0.66827E-02
 0.46989E-02 0.72412E-02 0.14530E-01 0.24969E-01 0.33700E-01 0.36407E-01 0.32973E-01 0.25629E-01 0.16153E-01 0.71233E-02
 0.22162E-02 0.49509E-02 0.10421E-01 0.15453E-01 0.19000E-01 0.19757E-01 0.16296E-01 0.10035E-01 0.49236E-02 0.37603E-02
 0.72412E-02 0.15908E-01 0.29359E-01 0.43437E-01 0.51838E-01 0.51371E-01 0.43446E-01 0.30989E-01 0.17097E-01 0.61773E-02
 0.15322E-02 0.30576E-02 0.54312E-02 0.75479E-02 0.92068E-02 0.89046E-02 0.58462E-02 0.22748E-02 0.15327E-02 0.53637E-02
 0.14530E-01 0.29359E-01 0.47179E-01 0.61426E-01 0.66130E-01 0.60370E-01 0.47181E-01 0.30473E-01 0.14692E-01 0.44851E-02
 0.55025E-03 0.41800E-03 0.59059E-03 0.13828E-02 0.22478E-02 0.15422E-02 -.41983E-03 -.86004E-03 0.26381E-02 0.11047E-01
 0.24969E-01 0.43437E-01 0.61426E-01 0.71792E-01 0.70763E-01 0.59898E-01 0.43272E-01 0.25332E-01 0.10792E-01 0.28395E-02
 -.16830E-02 -.32723E-02 -.41615E-02 -.37535E-02 -.31559E-02 -.33892E-02 -.31046E-02 -.54502E-04 0.67744E-02 0.17893E-01
 0.33700E-01 0.51838E-01 0.66130E-01 0.70763E-01 0.64733E-01 0.51118E-01 0.34034E-01 0.17775E-01 0.62770E-02 0.62550E-03
 -.58000E-02 -.86221E-02 -.99208E-02 -.93286E-02 -.80582E-02 -.63922E-02 -.31366E-02 0.24025E-02 0.10317E-01 0.21552E-01
 0.36407E-01 0.51371E-01 0.60370E-01 0.59898E-01 0.51118E-01 0.37379E-01 0.22223E-01 0.93809E-02 0.13516E-02 -.27696E-02
 -.12581E-01 -.16576E-01 -.17636E-01 -.15867E-01 -.12580E-01 -.81505E-02 -.26268E-02 0.34503E-02 0.10583E-01 0.20549E-01
 0.32973E-01 0.43446E-01 0.47181E-01 0.43272E-01 0.34034E-01 0.22223E-01 0.10586E-01 0.18162E-02 -.35518E-02 -.77809E-02
 -.22751E-01 -.27057E-01 -.26566E-01 -.22375E-01 -.16267E-01 -.93737E-02 -.29166E-02 0.25103E-02 0.84562E-02 0.16702E-01
 0.25629E-01 0.30989E-01 0.30473E-01 0.25332E-01 0.17775E-01 0.93809E-02 0.18162E-02 -.38748E-02 -.89960E-02 -.15581E-01
 -.34815E-01 -.37443E-01 -.34021E-01 -.26803E-01 -.18030E-01 -.95826E-02 -.31722E-02 0.12767E-02 0.58780E-02 0.11572E-01
 0.16153E-01 0.17097E-01 0.14692E-01 0.10792E-01 0.62770E-02 0.13516E-02 -.35518E-02 -.89960E-02 -.16726E-01 -.26581E-01
 -.44406E-01 -.43684E-01 -.37014E-01 -.27186E-01 -.16684E-01 -.79481E-02 -.25392E-02 0.47550E-03 0.32390E-02 0.59892E-02
 0.71233E-02 0.61773E-02 0.44851E-02 0.28395E-02 0.62550E-03 -.27696E-02 -.77809E-02 -.15581E-01 -.26581E-01 -.37845E-01
 0.21372E-01 0.20583E-01 0.15887E-01 0.99356E-02 0.56816E-02 0.31927E-02 0.12840E-02 0.13430E-03 0.14378E-03 0.25416E-03
 -.35008E-03 -.65369E-03 0.14374E-03 0.95371E-03 0.10898E-02 0.21681E-02 0.56794E-02 0.10578E-01 0.15106E-01 0.18892E-01
 0.20583E-01 0.17481E-01 0.11999E-01 0.71038E-02 0.40417E-02 0.18949E-02 0.20203E-03 -.35634E-03 0.10484E-03 0.43027E-03
 0.35751E-03 0.62217E-03 0.11046E-02 0.10280E-02 0.10513E-02 0.29761E-02 0.71717E-02 0.12169E-01 0.16668E-01 0.19935E-01
 0.15887E-01 0.11999E-01 0.76031E-02 0.42704E-02 0.20405E-02 0.47382E-03 -.16528E-03 0.33483E-03 0.11965E-02 0.15240E-02
 0.13814E-02 0.11749E-02 0.82935E-03 0.49622E-03 0.12414E-02 0.39773E-02 0.82293E-02 0.12646E-01 0.16040E-01 0.17386E-01
 0.99356E-02 0.71038E-02 0.42704E-02 0.20231E-02 0.73562E-03 0.50765E-03 0.10525E-02 0.17798E-02 0.21330E-02 0.19141E-02
 0.13126E-02 0.68222E-03 0.36013E-03 0.68765E-03 0.20345E-02 0.45610E-02 0.78404E-02 0.10821E-01 0.12368E-01 0.11962E-01
 0.56816E-02 0.40417E-02 0.20405E-02 0.73562E-03 0.87419E-03 0.17173E-02 0.21197E-02 0.19921E-02 0.17978E-02 0.14917E-02
 0.94029E-03 0.60440E-03 0.87455E-03 0.14632E-02 0.22132E-02 0.36111E-02 0.56832E-02 0.73244E-02 0.76018E-02 0.68455E-02
 0.31927E-02 0.18949E-02 0.47382E-03 0.50765E-03 0.17173E-02 0.22267E-02 0.16121E-02 0.12540E-02 0.16290E-02 0.17366E-02
 0.13243E-02 0.12572E-02 0.15459E-02 0.13501E-02 0.10184E-02 0.17907E-02 0.34076E-02 0.42871E-02 0.40588E-02 0.36750E-02
 0.12840E-02 0.20203E-03 -.16528E-03 0.10525E-02 0.21197E-02 0.16121E-02 0.95090E-03 0.16917E-02 0.26904E-02 0.23846E-02
 0.15578E-02 0.14143E-02 0.12064E-02 0.20040E-03 -.26013E-03 0.90801E-03 0.22749E-02 0.22753E-02 0.16871E-02 0.16049E-02
 0.13430E-03 -.35634E-03 0.33483E-03 0.17798E-02 0.19921E-02 0.12540E-02 0.16917E-02 0.31224E-02 0.32111E-02 0.17386E-02
 0.82888E-03 0.92413E-03 0.43239E-03 -.58632E-03 -.32486E-03 0.10350E-02 0.13203E-02 0.27372E-03 -.20810E-03 0.22757E-03
 0.14378E-03 0.10484E-03 0.11965E-02 0.21330E-02 0.17978E-02 0.16290E-02 0.26904E-02 0.32111E-02 0.18013E-02 0.25959E-03
 0.38645E-03 0.86907E-03 0.14204E-03 -.56473E-03 0.71370E-04 0.59573E-03 -.42454E-03 -.14766E-02 -.88441E-03 0.15978E-03
 0.25416E-03 0.43027E-03 0.15240E-02 0.19141E-02 0.14917E-02 0.17366E-02 0.23846E-02 0.17386E-02 0.25959E-03 0.99646E-04
 0.11061E-02 0.10584E-02 -.20398E-03 -.71215E-03 -.31268E-03 -.76008E-03 -.18876E-02 -.16393E-02 -.41258E-04 0.70867E-03
 -.35008E-03 0.35751E-03 0.13814E-02 0.13126E-02 0.94029E-03 0.13243E-02 0.15578E-02 0.82888E-03 0.38645E-03 0.11061E-02
 0.14544E-02 0.20400E-03 -.12081E-02 -.13193E-02 -.11548E-02 -.17895E-02 -.19738E-02 -.66776E-03 0.56490E-03 0.24145E-03
 -.65369E-03 0.62217E-03 0.11749E-02 0.68222E-03 0.60440E-03 0.12572E-02 0.14143E-02 0.92413E-03 0.86907E-03 0.10584E-02
 0.20400E-03 -.13711E-02 -.20030E-02 -.16305E-02 -.16715E-02 -.21071E-02 -.16115E-02 -.45939E-03 -.27727E-03 -.92644E-03
 0.14374E-03 0.11046E-02 0.82935E-03 0.36013E-03 0.87455E-03 0.15459E-02 0.12064E-02 0.43239E-03 0.14204E-03 -.20398E-03
 -.12081E-02 -.20030E-02 -.18579E-02 -.16730E-02 -.22090E-02 -.25325E-02 -.18562E-02 -.11364E-02 -.11785E-02 -.10077E-02
 0.95371E-03 0.10280E-02 0.49622E-03 0.68765E-03 0.14632E-02 0.13501E-02 0.20040E-03 -.58632E-03 -.56473E-03 -.71215E-03
 -.13193E-02 -.16305E-02 -.16730E-02 -.22606E-02 -.30906E-02 -.29574E-02 -.19115E-02 -.11423E-02 -.79260E-03 -.14482E-04
 0.10898E-02 0.10513E-02 0.12414E-02 0.20345E-02 0.22132E-02 0.10184E-02 -.26013E-03 -.32486E-03 0.71370E-04 -.31268E-03
 -.11548E-02 -.16715E-02 -.22090E-02 -.30906E-02 -.33621E-02 -.23303E-02 -.98848E-03 -.41245E-03 -.12665E-03 0.55291E-03
 0.21681E-02 0.29761E-02 0.39773E-02 0.45610E-02 0.36111E-02 0.17907E-02 0.90801E-03 0.10350E-02 0.59573E-03 -.76008E-03
 -.17895E-02 -.21071E-02 -.25325E-02 -.29574E-02 -.23303E-02 -.91105E-03 -.17753E-03 -.31542E-03 -.27064E-04 0.10916E-02
 0.56794E-02 0.71717E-02 0.82293E-02 0.78404E-02 0.56832E-02 0.34076E-02 0.22749E-02 0.13203E-02 -.42454E-03 -.18876E-02
 -.19738E-02 -.16115E-02 -.18562E-02 -.19115E-02 -.98848E-03 -.17753E-03 -.42274E-03 -.47155E-03 0.11230E-02 0.36436E-02
 0.10578E-01 0.12169E-01 0.12646E-01 0.10821E-01 0.73244E-02 0.42871E-02 0.22753E-02 0.27372E-03 -.14766E-02 -.16393E-02
 -.66776E-03 -.45939E-03 -.11364E-02 -.11423E-02 -.41245E-03 -.31542E-03 -.47155E-03 0.11468E-02 0.47363E-02 0.82540E-02
 0.15106E-01 0.16668E-01 0.16040E-01 0.12368E-01 0.76018E-02 0.40588E-02 0.16871E-02 -.20810E-03 -.88441E-03 -.41258E-04
 0.56490E-03 -.27727E-03 -.11785E-02 -.79260E-03 -.12665E-03 -.27064E-04 0.11230E-02 0.47363E-02 0.93193E-02 0.12769E-01
 0.18892E-01 0.19935E-01 0.17386E-01 0.11962E-01 0.68455E-02 0.36750E-02 0.16049E-02 0.22757E-03 0.15978E-03 0.70867E-03
 0.24145E-03 -.92644E-03 -.10077E-02 -.14482E-04 0.55291E-03 0.10916E-02 0.36436E-02 0.82540E-02 0.12769E-01 0.16176E-01
 0.47817E-01 0.45281E-01 0.35104E-01 0.22486E-01 0.12971E-01 0.72288E-02 0.31969E-02 0.32736E-03 -.11797E-02 -.24047E-02
 -.37885E-02 -.36273E-02 -.11798E-02 0.13894E-02 0.28287E-02 0.57525E-02 0.12969E-01 0.23406E-01 0.34053E-01 0.42953E-01
 0.45281E-01 0.38465E-01 0.26873E-01 0.16213E-01 0.91549E-02 0.42400E-02 0.46796E-04 -.29807E-02 -.47541E-02 -.60257E-02
 -.63078E-02 -.44233E-02 -.12747E-02 0.10554E-02 0.31092E-02 0.78755E-02 0.16566E-01 0.27235E-01 0.37277E-01 0.44317E-01
 0.35104E-01 0.26873E-01 0.17411E-01 0.99286E-02 0.43368E-02 -.90381E-03 -.60082E-02 -.10221E-01 -.13230E-01 -.14606E-01
 -.13305E-01 -.93371E-02 -.46553E-02 -.77860E-03 0.33523E-02 0.97178E-02 0.18438E-01 0.27700E-01 0.35128E-01 0.38199E-01
 0.22486E-01 0.16213E-01 0.99286E-02 0.42689E-02 -.14856E-02 -.81481E-02 -.15588E-01 -.22588E-01 -.27209E-01 -.27584E-01
 -.23234E-01 -.15826E-01 -.80766E-02 -.15760E-02 0.41272E-02 0.10293E-01 0.17193E-01 0.23518E-01 0.27191E-01 0.26761E-01
 0.12971E-01 0.91549E-02 0.43368E-02 -.14856E-02 -.88536E-02 -.18711E-01 -.30359E-01 -.40285E-01 -.44337E-01 -.40913E-01
 -.31637E-01 -.19816E-01 -.88518E-02 -.88943E-03 0.42931E-02 0.85821E-02 0.12974E-01 0.16354E-01 0.17269E-01 0.15815E-01
 0.72288E-02 0.42400E-02 -.90381E-03 -.81481E-02 -.18711E-01 -.33367E-01 -.48696E-01 -.58161E-01 -.57729E-01 -.48537E-01
 -.34378E-01 -.19267E-01 -.70640E-02 -.21835E-04 0.31630E-02 0.55896E-02 0.81979E-02 0.96071E-02 0.93612E-02 0.85329E-02
 0.31969E-02 0.46796E-04 -.60082E-02 -.15588E-01 -.30359E-01 -.48696E-01 -.63552E-01 -.68068E-01 -.61536E-01 -.47848E-01
 -.31100E-01 -.15206E-01 -.43190E-02 0.23808E-03 0.15511E-02 0.29243E-02 0.41587E-02 0.40389E-02 0.35283E-02 0.37195E-02
 0.32736E-03 -.29807E-02 -.10221E-01 -.22588E-01 -.40285E-01 -.58161E-01 -.68068E-01 -.66414E-01 -.55927E-01 -.40656E-01
 -.23742E-01 -.94541E-02 -.18376E-02 -.28036E-03 -.53309E-03 -.50390E-03 -.12008E-02 -.23544E-02 -.18657E-02 0.39838E-04
 -.11797E-02 -.47541E-02 -.13230E-01 -.27209E-01 -.44337E-01 -.57729E-01 -.61536E-01 -.55927E-01 -.44333E-01 -.29354E-01
 -.14179E-01 -.39027E-02 -.11829E-02 -.31328E-02 -.56519E-02 -.79770E-02 -.10235E-01 -.10260E-01 -.66670E-02 -.22860E-02
 -.24047E-02 -.60257E-02 -.14606E-01 -.27584E-01 -.40913E-01 -.48537E-01 -.47848E-01 -.40656E-01 -.29354E-01 -.16144E-01
 -.53953E-02 -.17471E-02 -.50941E-02 -.11094E-01 -.16594E-01 -.20841E-01 -.22091E-01 -.18054E-01 -.10277E-01 -.38949E-02
 -.37885E-02 -.63078E-02 -.13305E-01 -.23234E-01 -.31637E-01 -.34378E-01 -.31100E-01 -.23742E-01 -.14179E-01 -.53953E-02
 -.19652E-02 -.61808E-02 -.15391E-01 -.25174E-01 -.32917E-01 -.36646E-01 -.33827E-01 -.24531E-01 -.13467E-01 -.59873E-02
 -.36273E-02 -.44233E-02 -.93371E-02 -.15826E-01 -.19816E-01 -.19267E-01 -.15206E-01 -.94541E-02 -.39027E-02 -.17471E-02
 -.61808E-02 -.17028E-01 -.30621E-01 -.42919E-01 -.50769E-01 -.51173E-01 -.42890E-01 -.29165E-01 -.16030E-01 -.73778E-02
 -.11798E-02 -.12747E-02 -.46553E-02 -.80766E-02 -.88518E-02 -.70640E-02 -.43190E-02 -.18376E-02 -.11829E-02 -.50941E-02
 -.15391E-01 -.30621E-01 -.46840E-01 -.59667E-01 -.65039E-01 -.60332E-01 -.46841E-01 -.30003E-01 -.15494E-01 -.58244E-02
 0.13894E-02 0.10554E-02 -.77860E-03 -.15760E-02 -.88943E-03 -.21835E-04 0.23808E-03 -.28036E-03 -.31328E-02 -.11094E-01
 -.25174E-01 -.42919E-01 -.59667E-01 -.70373E-01 -.71004E-01 -.60709E-01 -.43315E-01 -.25183E-01 -.11000E-01 -.22340E-02
 0.28287E-02 0.31092E-02 0.33523E-02 0.41272E-02 0.42931E-02 0.31630E-02 0.15511E-02 -.53309E-03 -.56519E-02 -.16594E-01
 -.32917E-01 -.50769E-01 -.65039E-01 -.71004E-01 -.65948E-01 -.51366E-01 -.32917E-01 -.16674E-01 -.55499E-02 0.54292E-03
 0.57525E-02 0.78755E-02 0.97178E-02 0.10293E-01 0.85821E-02 0.55896E-02 0.29243E-02 -.50390E-03 -.79770E-02 -.20841E-01
 -.36646E-01 -.51173E-01 -.60332E-01 -.60709E-01 -.51366E-01 -.35859E-01 -.20345E-01 -.88640E-02 -.15777E-02 0.29245E-02
 0.12969E-01 0.16566E-01 0.18438E-01 0.17193E-01 0.12974E-01 0.81979E-02 0.41587E-02 -.12008E-02 -.10235E-01 -.22091E-01
 -.33827E-01 -.42890E-01 -.46841E-01 -.43315E-01 -.32917E-01 -.20345E-01 -.10236E-01 -.31520E-02 0.27799E-02 0.83020E-02
 0.23406E-01 0.27235E-01 0.27700E-01 0.23518E-01 0.16354E-01 0.96071E-02 0.40389E-02 -.23544E-02 -.10260E-01 -.18054E-01
 -.24531E-01 -.29165E-01 -.30003E-01 -.25183E-01 -.16674E-01 -.88640E-02 -.31520E-02 0.27403E-02 0.10129E-01 0.17527E-01
 0.34053E-01 0.37277E-01 0.35128E-01 0.27191E-01 0.17269E-01 0.93612E-02 0.35283E-02 -.18657E-02 -.66670E-02 -.10277E-01
 -.13467E-01 -.16030E-01 -.15494E-01 -.11000E-01 -.55499E-02 -.15777E-02 0.27799E-02 0.10129E-01 0.19399E-01 0.27771E-01
 0.42953E-01 0.44317E-01 0.38199E-01 0.26761E-01 0.15815E-01 0.85329E-02 0.37195E-02 0.39838E-04 -.22860E-02 -.38949E-02
 -.59873E-02 -.73778E-02 -.58244E-02 -.22340E-02 0.54292E-03 0.29245E-02 0.83020E-02 0.17527E-01 0.27771E-01 0.36610E-01
 -.19450E-01 -.16578E-01 -.13692E-01 -.10108E-01 -.48929E-02 -.56186E-03 0.49141E-03 -.63982E-04 0.17501E-03 0.38781E-03
 -.62106E-03 -.11501E-02 0.17549E-03 0.12426E-02 -.49977E-04 -.24902E-02 -.48934E-02 -.89097E-02 -.15016E-01 -.19542E-01
 -.16578E-01 -.14295E-01 -.11533E-01 -.70831E-02 -.21716E-02 0.42111E-04 -.62658E-03 -.12412E-02 -.66626E-03 -.48350E-03
 -.97492E-03 -.52115E-03 0.71098E-03 0.56468E-03 -.13765E-02 -.36643E-02 -.64436E-02 -.10978E-01 -.15859E-01 -.17859E-01
 -.13692E-01 -.11533E-01 -.80201E-02 -.36923E-02 -.87706E-03 -.80425E-03 -.16385E-02 -.13406E-02 -.52635E-03 -.55391E-03
 -.86315E-03 -.41184E-03 0.73985E-04 -.57628E-03 -.20492E-02 -.38223E-02 -.65922E-02 -.10525E-01 -.13798E-01 -.14723E-01
 -.10108E-01 -.70831E-02 -.36923E-02 -.13542E-02 -.76389E-03 -.11347E-02 -.12030E-02 -.83865E-03 -.84187E-03 -.13742E-02
 -.16653E-02 -.13091E-02 -.84324E-03 -.89759E-03 -.16511E-02 -.32537E-02 -.58585E-02 -.89286E-02 -.11206E-01 -.11659E-01
 -.48929E-02 -.21716E-02 -.87706E-03 -.76389E-03 -.76811E-03 -.76435E-03 -.12370E-02 -.20440E-02 -.26178E-02 -.28002E-02
 -.26136E-02 -.18622E-02 -.76557E-03 -.29833E-03 -.11346E-02 -.28849E-02 -.48894E-02 -.68417E-02 -.80715E-02 -.74362E-02
 -.56186E-03 0.42111E-04 -.80425E-03 -.11347E-02 -.76435E-03 -.14209E-02 -.32086E-02 -.41915E-02 -.37025E-02 -.30123E-02
 -.25407E-02 -.14167E-02 -.51354E-05 0.84945E-04 -.12332E-02 -.24388E-02 -.30745E-02 -.38028E-02 -.40643E-02 -.26686E-02
 0.49141E-03 -.62658E-03 -.16385E-02 -.12030E-02 -.12370E-02 -.32086E-02 -.49309E-02 -.42280E-02 -.26394E-02 -.22828E-02
 -.21539E-02 -.80107E-03 0.36611E-03 -.24481E-03 -.12568E-02 -.98549E-03 -.47474E-03 -.94928E-03 -.11486E-02 -.92748E-04
 -.63982E-04 -.12412E-02 -.13406E-02 -.83865E-03 -.20440E-02 -.41915E-02 -.42280E-02 -.23519E-02 -.16826E-02 -.25330E-02
 -.21933E-02 -.39546E-03 0.25412E-03 -.56056E-03 -.41618E-03 0.90651E-03 0.10324E-02 -.22932E-03 -.57609E-03 0.17672E-03
 0.17501E-03 -.66626E-03 -.52635E-03 -.84187E-03 -.26178E-02 -.37025E-02 -.26394E-02 -.16826E-02 -.26159E-02 -.32604E-02
 -.16146E-02 0.27368E-03 0.17194E-03 -.31349E-03 0.73208E-03 0.16247E-02 0.49436E-03 -.86920E-03 -.34247E-03 0.65475E-03
 0.38781E-03 -.48350E-03 -.55391E-03 -.13742E-02 -.28002E-02 -.30123E-02 -.22828E-02 -.25330E-02 -.32604E-02 -.22067E-02
 0.10113E-03 0.90016E-03 0.10372E-03 0.17057E-03 0.12433E-02 0.10593E-02 -.31344E-03 -.35016E-03 0.11330E-02 0.15880E-02
 -.62106E-03 -.97492E-03 -.86315E-03 -.16653E-02 -.26136E-02 -.25407E-02 -.21539E-02 -.21933E-02 -.16146E-02 0.10113E-03
 0.12207E-02 0.62573E-03 -.52458E-04 0.59274E-03 0.12453E-02 0.66454E-03 0.24434E-03 0.12288E-02 0.20232E-02 0.97612E-03
 -.11501E-02 -.52115E-03 -.41184E-03 -.13091E-02 -.18622E-02 -.14167E-02 -.80107E-03 -.39546E-03 0.27368E-03 0.90016E-03
 0.62573E-03 -.52878E-04 0.17998E-03 0.10990E-02 0.13493E-02 0.97629E-03 0.11375E-02 0.15528E-02 0.85357E-03 -.63838E-03
 0.17549E-03 0.71098E-03 0.73985E-04 -.84324E-03 -.76557E-03 -.51354E-05 0.36611E-03 0.25412E-03 0.17194E-03 0.10372E-03
 -.52458E-04 0.17998E-03 0.97824E-03 0.15758E-02 0.14409E-02 0.11043E-02 0.97626E-03 0.55241E-03 -.28838E-03 -.55637E-03
 0.12426E-02 0.56468E-03 -.57628E-03 -.89759E-03 -.29833E-03 0.84945E-04 -.24481E-03 -.56056E-03 -.31349E-03 0.17057E-03
 0.59274E-03 0.10990E-02 0.15758E-02 0.15785E-02 0.11445E-02 0.77337E-03 0.58600E-03 0.39728E-03 0.43541E-03 0.93399E-03
 -.49977E-04 -.13765E-02 -.20492E-02 -.16511E-02 -.11346E-02 -.12332E-02 -.12568E-02 -.41618E-03 0.73208E-03 0.12433E-02
 0.12453E-02 0.13493E-02 0.14409E-02 0.11445E-02 0.77279E-03 0.81288E-03 0.10801E-02 0.11816E-02 0.11336E-02 0.85961E-03
 -.24902E-02 -.36643E-02 -.38223E-02 -.32537E-02 -.28849E-02 -.24388E-02 -.98549E-03 0.90651E-03 0.16247E-02 0.10593E-02
 0.66454E-03 0.97629E-03 0.11043E-02 0.77337E-03 0.81288E-03 0.13622E-02 0.14710E-02 0.76126E-03 -.18223E-03 -.11697E-02
 -.48934E-02 -.64436E-02 -.65922E-02 -.58585E-02 -.48894E-02 -.30745E-02 -.47474E-03 0.10324E-02 0.49436E-03 -.31344E-03
 0.24434E-03 0.11375E-02 0.97626E-03 0.58600E-03 0.10801E-02 0.14710E-02 0.49142E-03 -.10814E-02 -.20822E-02 -.31008E-02
 -.89097E-02 -.10978E-01 -.10525E-01 -.89286E-02 -.68417E-02 -.38028E-02 -.94928E-03 -.22932E-03 -.86920E-03 -.35016E-03
 0.12288E-02 0.15528E-02 0.55241E-03 0.39728E-03 0.11816E-02 0.76126E-03 -.10814E-02 -.24177E-02 -.32041E-02 -.54221E-02
 -.15016E-01 -.15859E-01 -.13798E-01 -.11206E-01 -.80715E-02 -.40643E-02 -.11486E-02 -.57609E-03 -.34247E-03 0.11330E-02
 0.20232E-02 0.85357E-03 -.28838E-03 0.43541E-03 0.11336E-02 -.18223E-03 -.20822E-02 -.32041E-02 -.55274E-02 -.10448E-01
 -.19542E-01 -.17859E-01 -.14723E-01 -.11659E-01 -.74362E-02 -.26686E-02 -.92748E-04 0.17672E-03 0.65475E-03 0.15880E-02
 0.97612E-03 -.63838E-03 -.55637E-03 0.93399E-03 0.85961E-03 -.11697E-02 -.31008E-02 -.54221E-02 -.10448E-01 -.16691E-01
 -.47488E-01 -.42108E-01 -.33790E-01 -.23696E-01 -.12595E-01 -.43236E-02 -.13004E-02 -.49360E-03 0.15413E-02 0.34312E-02
 0.28968E-02 0.15767E-02 0.15419E-02 0.10581E-02 -.20151E-02 -.67048E-02 -.12595E-01 -.22219E-01 -.35386E-01 -.45712E-01
 -.42108E-01 -.36024E-01 -.27548E-01 -.17082E-01 -.73139E-02 -.20773E-02 -.72165E-03 0.10520E-02 0.43846E-02 0.63078E-02
 0.56068E-02 0.43440E-02 0.32512E-02 0.65317E-03 -.37832E-02 -.90189E-02 -.16154E-01 -.26801E-01 -.37966E-01 -.43708E-01