unknown system                          
   1.00000000000000     
     2.573869    0.000000    0.000000
     1.286934    2.229036    0.000000
     0.000000    0.000000   30.304665
   Cu   H 
     4     1
Direct
  0.000000  0.000000  0.396440
  0.333333  0.333333  0.465152
  0.666667  0.666667  0.533916
  0.000000  0.000000  0.606744
  0.333333  0.333333  0.634767
 
   20   20  240
 0.47846865201E-01 0.44033495747E-01 0.34573114979E-01 0.23043090652E-01 0.12969199373E-01
 0.63169476558E-02 0.28316450289E-02 0.79239756275E-03 -.11865930227E-02 -.30159635030E-02
 -.37560069017E-02 -.29771476386E-02 -.11866210820E-02 0.87864984446E-03 0.31540624945E-02
 0.66468408732E-02 0.12968804446E-01 0.22856263697E-01 0.34608087971E-01 0.44247983595E-01
 0.44033495748E-01 0.37481787843E-01 0.27374016036E-01 0.16914149574E-01 0.86813531691E-02
 0.35963325752E-02 0.54647380356E-03 -.21859528016E-02 -.48863787279E-02 -.63624498548E-02
 -.58024346571E-02 -.38023691531E-02 -.14607515348E-02 0.81652307163E-03 0.36074805122E-02
 0.82579485357E-02 0.16130957682E-01 0.26966204110E-01 0.37785784722E-01 0.44327822853E-01
 0.34573114979E-01 0.27374016036E-01 0.18484107085E-01 0.10140921990E-01 0.38070676815E-02
 -.75575743787E-03 -.51078159988E-02 -.99211813342E-02 -.13756541087E-01 -.14753396493E-01
 -.12789319645E-01 -.92119401903E-02 -.51862196059E-02 -.10410958295E-02 0.35631011480E-02
 0.95975424957E-02 0.17906244860E-01 0.27482515964E-01 0.35118416633E-01 0.37700530847E-01
 0.23043090652E-01 0.16914149574E-01 0.10140921990E-01 0.38706815908E-02 -.17057736531E-02
 -.77906483992E-02 -.15382552003E-01 -.23089849511E-01 -.27773891220E-01 -.27528050883E-01
 -.23026459859E-01 -.16149957096E-01 -.85896961977E-02 -.16209490714E-02 0.43413361905E-02
 0.10205731210E-01 0.16922012314E-01 0.23497032989E-01 0.27397256558E-01 0.27058104368E-01
 0.12969199373E-01 0.86813531690E-02 0.38070676814E-02 -.17057736532E-02 -.88399388283E-02
 -.18825325531E-01 -.30726727602E-01 -.40611434134E-01 -.44337708108E-01 -.40732268371E-01
 -.31615208681E-01 -.19962944208E-01 -.88412228277E-02 -.57988067044E-03 0.46316639703E-02
 0.86777110657E-02 0.12964606420E-01 0.16593166109E-01 0.17815644043E-01 0.16292771664E-01
 0.63169476558E-02 0.35963325752E-02 -.75575743779E-03 -.77906483994E-02 -.18825325531E-01
 -.33657840394E-01 -.48553640550E-01 -.57725571157E-01 -.57519193979E-01 -.48532175522E-01
 -.34232084533E-01 -.18998898691E-01 -.68912235034E-02 0.10355551461E-03 0.33209711037E-02
 0.56233384829E-02 0.81073835181E-02 0.96764121438E-02 0.95036946699E-02 0.81772668605E-02
 0.28316450288E-02 0.54647380368E-03 -.51078159987E-02 -.15382552003E-01 -.30726727602E-01
 -.48553640550E-01 -.62830117965E-01 -.67787011853E-01 -.61914943539E-01 -.48004988155E-01
 -.30752011647E-01 -.15083153863E-01 -.46928161444E-02 -.36595118914E-04 0.15921195870E-02
 0.28123130994E-02 0.38019903099E-02 0.38186661245E-02 0.33420423390E-02 0.32138528853E-02
 0.79239756288E-03 -.21859528014E-02 -.99211813341E-02 -.23089849510E-01 -.40611434134E-01
 -.57725571158E-01 -.67787011853E-01 -.67026887450E-01 -.56600416833E-01 -.40512937129E-01
 -.23434638592E-01 -.98676726779E-02 -.24608830716E-02 -.26432255249E-03 -.24576417546E-03
 -.67628799340E-03 -.15427624973E-02 -.22703144510E-02 -.15682333019E-02 0.23986749501E-03
 -.11865930227E-02 -.48863787279E-02 -.13756541087E-01 -.27773891220E-01 -.44337708108E-01
 -.57519193979E-01 -.61914943539E-01 -.56600416833E-01 -.44339054155E-01 -.28832014618E-01
 -.14147102632E-01 -.43815036691E-02 -.11819970836E-02 -.25098610571E-02 -.53363164250E-02
 -.82229401454E-02 -.10228045233E-01 -.96637420279E-02 -.61161905174E-02 -.21545495249E-02
 -.30159635027E-02 -.63624498544E-02 -.14753396493E-01 -.27528050883E-01 -.40732268371E-01
 -.48532175522E-01 -.48004988155E-01 -.40512937129E-01 -.28832014618E-01 -.15833100371E-01
 -.55480001509E-02 -.17725925280E-02 -.46105853139E-02 -.10667997450E-01 -.16751250752E-01
 -.21120832958E-01 -.21878254898E-01 -.17672687281E-01 -.10430570276E-01 -.45544685525E-02
 -.37560069016E-02 -.58024346570E-02 -.12789319645E-01 -.23026459859E-01 -.31615208682E-01
 -.34232084533E-01 -.30752011647E-01 -.23434638592E-01 -.14147102632E-01 -.55480001508E-02
 -.20105978266E-02 -.60516087420E-02 -.15355740360E-01 -.25430917843E-01 -.33263594356E-01
 -.36769570639E-01 -.33805187649E-01 -.24750868524E-01 -.14033243748E-01 -.64814299068E-02
 -.29771476383E-02 -.38023691529E-02 -.92119401902E-02 -.16149957096E-01 -.19962944208E-01
 -.18998898691E-01 -.15083153863E-01 -.98676726780E-02 -.43815036690E-02 -.17725925281E-02
 -.60516087420E-02 -.17264864886E-01 -.31054372773E-01 -.43056998031E-01 -.50645911374E-01
 -.51175422810E-01 -.43067303023E-01 -.29254990144E-01 -.15891763811E-01 -.69838832743E-02
 -.11866210820E-02 -.14607515347E-02 -.51862196059E-02 -.85896961978E-02 -.88412228279E-02
 -.68912235035E-02 -.46928161445E-02 -.24608830717E-02 -.11819970836E-02 -.46105853140E-02
 -.15355740360E-01 -.31054372773E-01 -.46836769342E-01 -.59080635878E-01 -.64713919865E-01
 -.60528874946E-01 -.46835132743E-01 -.29447765262E-01 -.14929823636E-01 -.56354742104E-02
 0.87864984454E-03 0.81652307180E-03 -.10410958296E-02 -.16209490713E-02 -.57988067058E-03
 0.10355551446E-03 -.36595118921E-04 -.26432255257E-03 -.25098610571E-02 -.10667997450E-01
 -.25430917843E-01 -.43056998031E-01 -.59080635878E-01 -.69840032190E-01 -.71267923332E-01
 -.61094071448E-01 -.42989894491E-01 -.24690959640E-01 -.11264594975E-01 -.30074975520E-02
 0.31540624945E-02 0.36074805122E-02 0.35631011480E-02 0.43413361905E-02 0.46316639700E-02
 0.33209711035E-02 0.15921195870E-02 -.24576417528E-03 -.53363164248E-02 -.16751250752E-01
 -.33263594356E-01 -.50645911373E-01 -.64713919865E-01 -.71267923331E-01 -.66594752837E-01
 -.51485394722E-01 -.32594907496E-01 -.16903947457E-01 -.64306268624E-02 0.37233362512E-04
 0.66468408731E-02 0.82579485358E-02 0.95975424956E-02 0.10205731210E-01 0.86777110658E-02
 0.56233384829E-02 0.28123130995E-02 -.67628799343E-03 -.82229401453E-02 -.21120832958E-01
 -.36769570639E-01 -.51175422810E-01 -.60528874946E-01 -.61094071448E-01 -.51485394722E-01
 -.35615888493E-01 -.20281331196E-01 -.92087571551E-02 -.16995683040E-02 0.35509702109E-02
 0.12968804446E-01 0.16130957682E-01 0.17906244860E-01 0.16922012314E-01 0.12964606420E-01
 0.81073835181E-02 0.38019903100E-02 -.15427624972E-02 -.10228045232E-01 -.21878254898E-01
 -.33805187649E-01 -.43067303023E-01 -.46835132743E-01 -.42989894491E-01 -.32594907496E-01
 -.20281331196E-01 -.10225822442E-01 -.28586173453E-02 0.33339915163E-02 0.87443519251E-02
 0.22856263698E-01 0.26966204110E-01 0.27482515964E-01 0.23497032989E-01 0.16593166108E-01
 0.96764121437E-02 0.38186661245E-02 -.22703144509E-02 -.96637420278E-02 -.17672687281E-01
 -.24750868524E-01 -.29254990144E-01 -.29447765262E-01 -.24690959640E-01 -.16903947457E-01
 -.92087571552E-02 -.28586173451E-02 0.31995304909E-02 0.99043238581E-02 0.16788524076E-01
 0.34608087971E-01 0.37785784721E-01 0.35118416633E-01 0.27397256557E-01 0.17815644043E-01
 0.95036946698E-02 0.33420423391E-02 -.15682333019E-02 -.61161905173E-02 -.10430570276E-01
 -.14033243748E-01 -.15891763811E-01 -.14929823637E-01 -.11264594975E-01 -.64306268625E-02
 -.16995683040E-02 0.33339915164E-02 0.99043238581E-02 0.18289087357E-01 0.27261055953E-01
 0.44247983595E-01 0.44327822852E-01 0.37700530847E-01 0.27058104367E-01 0.16292771664E-01
 0.81772668602E-02 0.32138528853E-02 0.23986749481E-03 -.21545495249E-02 -.45544685528E-02
 -.64814299068E-02 -.69838832747E-02 -.56354742105E-02 -.30074975522E-02 0.37233362470E-04
 0.35509702109E-02 0.87443519253E-02 0.16788524075E-01 0.27261055953E-01 0.37629620108E-01
 -.22599855983E-01 -.20756380724E-01 -.16510486224E-01 -.11045223327E-01 -.57002211424E-02
 -.18275573705E-02 0.52563917592E-05 0.39423652194E-03 0.24139657166E-03 -.84003986839E-04
 -.42168754368E-03 -.36107776127E-03 0.24207555879E-03 0.72692115291E-03 0.15727140546E-03
 -.19489896650E-02 -.57022649811E-02 -.10956831625E-01 -.16747945127E-01 -.21177554289E-01
 -.20756380724E-01 -.17767033254E-01 -.12810546388E-01 -.74371032055E-02 -.31538310402E-02
 -.78511240639E-03 -.13208113396E-03 -.32304326450E-03 -.55821609323E-03 -.50300958723E-03
 -.15466181561E-03 0.33558517568E-03 0.64680163542E-03 0.32332068592E-03 -.10588298765E-02
 -.37909818346E-02 -.79356840226E-02 -.13024892560E-01 -.17835310752E-01 -.20776469961E-01
 -.16510486225E-01 -.12810546388E-01 -.81033175267E-02 -.40901124478E-02 -.16291028850E-02
 -.60994566682E-03 -.45698526020E-03 -.51915178067E-03 -.33065992974E-03 0.10190715404E-03
 0.37467657820E-03 0.23278739231E-03 -.17826136693E-03 -.79381367364E-03 -.20594098041E-02
 -.45499995439E-02 -.82782209278E-02 -.12520910502E-01 -.16095206858E-01 -.17707188748E-01
 -.11045223327E-01 -.74371032056E-02 -.40901124476E-02 -.19924454832E-02 -.90364360976E-03
 -.35013668992E-03 -.16586748927E-03 -.11268164302E-03 0.73266735892E-04 0.16392823205E-03
 -.22608991674E-03 -.79998378849E-03 -.93165934883E-03 -.86424868026E-03 -.16760077583E-02
 -.39498239545E-02 -.71860044585E-02 -.10448134721E-01 -.12777538321E-01 -.13138250007E-01
 -.57002211424E-02 -.31538310403E-02 -.16291028851E-02 -.90364360986E-03 -.27140186617E-03
 0.15028547611E-03 0.37585770464E-04 -.23039696866E-03 -.28557933765E-03 -.47789292619E-03
 -.94702805908E-03 -.97777382736E-03 -.27188394719E-03 0.89306157705E-04 -.10209192537E-02
 -.32991894865E-02 -.57047804785E-02 -.76535716100E-02 -.86738360935E-02 -.80104594587E-02
 -.18275573705E-02 -.78511240639E-03 -.60994566676E-03 -.35013669007E-03 0.15028547606E-03
 0.89472430371E-04 -.51641903731E-03 -.74379818514E-03 -.48189820014E-03 -.46119778268E-03
 -.59324298793E-03 -.11796007947E-03 0.59502900963E-03 0.25493882392E-03 -.12593099792E-02
 -.27563896501E-02 -.36602423559E-02 -.43217797285E-02 -.45118523375E-02 -.35231901815E-02
 0.52563917023E-05 -.13208113395E-03 -.45698526009E-03 -.16586748931E-03 0.37585770624E-04
 -.51641903733E-03 -.93583674410E-03 -.39754742221E-03 0.25226963736E-03 0.10658820236E-03
 -.16494500493E-03 0.15446955542E-03 0.27470975246E-03 -.52263880514E-03 -.13344636552E-02
 -.12618462127E-02 -.10210311285E-02 -.13686554053E-02 -.15243678764E-02 -.76381036980E-03
 0.39423652201E-03 -.32304326437E-03 -.51915178049E-03 -.11268164303E-03 -.23039696883E-03
 -.74379818532E-03 -.39754742228E-03 0.58469575886E-03 0.65681706599E-03 -.24861605828E-03
 -.65810713773E-03 -.28774539764E-03 -.24526848872E-03 -.55086379357E-03 -.11283387170E-03
 0.81757538729E-03 0.82203375599E-03 -.11653714928E-04 -.19157801700E-03 0.39433456870E-03
 0.24139657159E-03 -.55821609321E-03 -.33065992981E-03 0.73266735797E-04 -.28557933789E-03
 -.48189820013E-03 0.25226963687E-03 0.65681706588E-03 -.28593413958E-03 -.12563998644E-02
 -.86111154604E-03 0.33126550740E-04 0.24499734595E-03 0.45363498335E-03 0.13699542849E-02
 0.18630913897E-02 0.10505181008E-02 0.21417975272E-03 0.53286600749E-03 0.93111467352E-03
 -.84003986633E-04 -.50300958682E-03 0.10190715410E-03 0.16392823205E-03 -.47789292625E-03
 -.46119778282E-03 0.10658820241E-03 -.24861605838E-03 -.12563998644E-02 -.10933125658E-02
 0.26432000030E-03 0.10136275881E-02 0.84804073881E-03 0.11634146107E-02 0.19837495574E-02
 0.18861080455E-02 0.10063299827E-02 0.92851187104E-03 0.15444890789E-02 0.11876735839E-02
 -.42168754364E-03 -.15466181549E-03 0.37467657815E-03 -.22608991678E-03 -.94702805902E-03
 -.59324298807E-03 -.16494500502E-03 -.65810713775E-03 -.86111154602E-03 0.26432000035E-03
 0.13423022007E-02 0.10931788077E-02 0.75363959534E-03 0.16400136828E-02 0.26338018844E-02
 0.24398068537E-02 0.19990988939E-02 0.23096450432E-02 0.22259889613E-02 0.81987343073E-03
 -.36107776097E-03 0.33558517599E-03 0.23278739242E-03 -.79998378843E-03 -.97777382731E-03
 -.11796007939E-03 0.15446955546E-03 -.28774539777E-03 0.33126550736E-04 0.10136275880E-02
 0.10931788077E-02 0.56159359751E-03 0.13065628489E-02 0.32039791088E-02 0.41349772083E-02
 0.36363139762E-02 0.32030509683E-02 0.30217593650E-02 0.18435335330E-02 0.95665730754E-04
 0.24207555886E-03 0.64680163547E-03 -.17826136699E-03 -.93165934895E-03 -.27188394728E-03
 0.59502900957E-03 0.27470975240E-03 -.24526848879E-03 0.24499734588E-03 0.84804073866E-03
 0.75363959521E-03 0.13065628488E-02 0.34201356986E-02 0.52940849716E-02 0.51636149407E-02
 0.40421571796E-02 0.34224998492E-02 0.26672724567E-02 0.10470050444E-02 -.10448853118E-03
 0.72692115297E-03 0.32332068606E-03 -.79381367358E-03 -.86424868021E-03 0.89306157648E-04
 0.25493882382E-03 -.52263880514E-03 -.55086379372E-03 0.45363498333E-03 0.11634146107E-02
 0.16400136828E-02 0.32039791089E-02 0.52940849718E-02 0.57878161621E-02 0.45589295529E-02
 0.35230132411E-02 0.31541203306E-02 0.21906534548E-02 0.73739425511E-03 0.30592899478E-03
 0.15727140541E-03 -.10588298764E-02 -.20594098042E-02 -.16760077583E-02 -.10209192540E-02
 -.12593099794E-02 -.13344636553E-02 -.11283387163E-03 0.13699542850E-02 0.19837495574E-02
 0.26338018847E-02 0.41349772085E-02 0.51636149409E-02 0.45589295530E-02 0.35241340935E-02
 0.33549893993E-02 0.31351246386E-02 0.18486526146E-02 0.57435816345E-03 0.36914985125E-03
 -.19489896649E-02 -.37909818344E-02 -.45499995439E-02 -.39498239545E-02 -.32991894865E-02
 -.27563896501E-02 -.12618462126E-02 0.81757538715E-03 0.18630913898E-02 0.18861080455E-02
 0.24398068537E-02 0.36363139762E-02 0.40421571798E-02 0.35230132411E-02 0.33549893994E-02
 0.35040076190E-02 0.26429512917E-02 0.90271427987E-03 -.22048168200E-03 -.71004758605E-03
 -.57022649813E-02 -.79356840229E-02 -.82782209277E-02 -.71860044587E-02 -.57047804788E-02
 -.36602423561E-02 -.10210311285E-02 0.82203375601E-03 0.10505181010E-02 0.10063299826E-02
 0.19990988940E-02 0.32030509684E-02 0.34224998494E-02 0.31541203307E-02 0.31351246387E-02
 0.26429512919E-02 0.10534918138E-02 -.65354622739E-03 -.17181556753E-02 -.31567291601E-02
 -.10956831625E-01 -.13024892560E-01 -.12520910502E-01 -.10448134721E-01 -.76535716099E-02
 -.43217797285E-02 -.13686554053E-02 -.11653714822E-04 0.21417975280E-03 0.92851187109E-03
 0.23096450433E-02 0.30217593648E-02 0.26672724565E-02 0.21906534546E-02 0.18486526146E-02
 0.90271427986E-03 -.65354622728E-03 -.21566869336E-02 -.40175201789E-02 -.72117769941E-02
 -.16747945127E-01 -.17835310752E-01 -.16095206858E-01 -.12777538321E-01 -.86738360935E-02
 -.45118523375E-02 -.15243678762E-02 -.19157801692E-03 0.53286600766E-03 0.15444890789E-02
 0.22259889613E-02 0.18435335330E-02 0.10470050442E-02 0.73739425489E-03 0.57435816323E-03
 -.22048168204E-03 -.17181556752E-02 -.40175201788E-02 -.77842256787E-02 -.12734654712E-01
 -.21177554289E-01 -.20776469960E-01 -.17707188748E-01 -.13138250007E-01 -.80104594585E-02
 -.35231901816E-02 -.76381036973E-03 0.39433456853E-03 0.93111467351E-03 0.11876735837E-02
 0.81987343060E-03 0.95665730445E-04 -.10448853144E-03 0.30592899461E-03 0.36914985121E-03
 -.71004758607E-03 -.31567291599E-02 -.72117769944E-02 -.12734654712E-01 -.18158615462E-01
 -.47454615373E-01 -.43349612399E-01 -.34305414315E-01 -.23116084268E-01 -.12578461642E-01
 -.52270184440E-02 -.16627744669E-02 -.26848852322E-04 0.15316951828E-02 0.28090824805E-02
 0.29144606898E-02 0.22162478686E-02 0.15322453093E-02 0.55025098111E-03 -.16829666765E-02
 -.58000276690E-02 -.12581087061E-01 -.22751298928E-01 -.34814747408E-01 -.44406356532E-01
 -.43349612398E-01 -.37002169934E-01 -.27035187772E-01 -.16360974431E-01 -.77705724390E-02
 -.27141654555E-02 -.22360806580E-03 0.18419592655E-02 0.42460004137E-02 0.59613210448E-02
 0.60986160877E-02 0.49508793178E-02 0.30575949525E-02 0.41800150973E-03 -.32723252166E-02
 -.86220590946E-02 -.16576482689E-01 -.27057364101E-01 -.37442995110E-01 -.43684000359E-01
 -.34305414315E-01 -.27035187772E-01 -.17862342228E-01 -.95444548359E-02 -.35464570450E-02
 0.67160326545E-03 0.47946305751E-02 0.96248080764E-02 0.13995980448E-01 0.15902724259E-01
 0.14440658078E-01 0.10420521913E-01 0.54312223551E-02 0.59059428361E-03 -.41615100431E-02
 -.99208430082E-02 -.17636098904E-01 -.26566282596E-01 -.34020945648E-01 -.37013760314E-01
 -.23116084267E-01 -.16360974431E-01 -.95444548357E-02 -.39170711367E-02 0.13879159574E-02
 0.79128696555E-02 0.15954701024E-01 0.23890473791E-01 0.28955369183E-01 0.28891289099E-01
 0.23600342694E-01 0.15452543461E-01 0.75478626219E-02 0.13827702304E-02 -.37535068957E-02
 -.93286006731E-02 -.15866802539E-01 -.22374981637E-01 -.26803327667E-01 -.27186303082E-01
 -.12578461641E-01 -.77705724389E-02 -.35464570451E-02 0.13879159573E-02 0.92071024327E-02
 0.20120216232E-01 0.31878168278E-01 0.41138703578E-01 0.44681752899E-01 0.40764790310E-01
 0.30796408244E-01 0.18999975960E-01 0.92067939640E-02 0.22477879761E-02 -.31559183126E-02
 -.80582236724E-02 -.12580190391E-01 -.16267185050E-01 -.18030278525E-01 -.16684488949E-01
 -.52270184440E-02 -.27141654555E-02 0.67160326543E-03 0.79128696552E-02 0.20120216232E-01
 0.34926904823E-01 0.48446356834E-01 0.56947789300E-01 0.57266025044E-01 0.48536017555E-01
 0.34134686340E-01 0.19756513142E-01 0.89046348262E-02 0.15421944997E-02 -.33891700219E-02
 -.63921546977E-02 -.81505120960E-02 -.93736848509E-02 -.95826186740E-02 -.79480806660E-02
 -.16627744670E-02 -.22360806580E-03 0.47946305752E-02 0.15954701024E-01 0.31878168278E-01
 0.48446356834E-01 0.61571360404E-01 0.67449800590E-01 0.63034729598E-01 0.49144091910E-01
 0.31496473411E-01 0.16296152077E-01 0.58462195700E-02 -.41982948923E-03 -.31045696760E-02
 -.31366105285E-02 -.26267865708E-02 -.29165963887E-02 -.31722272871E-02 -.25392341287E-02
 -.26848852329E-04 0.18419592656E-02 0.96248080765E-02 0.23890473790E-01 0.41138703578E-01
 0.56947789300E-01 0.67449800590E-01 0.68656027418E-01 0.58626289720E-01 0.41002993414E-01
 0.23142661213E-01 0.10035126406E-01 0.22748144315E-02 -.86003962700E-03 -.54501788711E-04
 0.24025497715E-02 0.34502749247E-02 0.25102720646E-02 0.12766523443E-02 0.47550243453E-03
 0.15316951827E-02 0.42460004137E-02 0.13995980448E-01 0.28955369183E-01 0.44681752899E-01
 0.57266025044E-01 0.63034729597E-01 0.58626289720E-01 0.44683112558E-01 0.27353573934E-01
 0.13325406691E-01 0.49236077555E-02 0.15327085474E-02 0.26381299409E-02 0.67743572561E-02
 0.10316633907E-01 0.10583082278E-01 0.84562263089E-02 0.58780272501E-02 0.32389965004E-02
 0.28090824807E-02 0.59613210452E-02 0.15902724259E-01 0.28891289099E-01 0.40764790311E-01
 0.48536017555E-01 0.49144091910E-01 0.41002993414E-01 0.27353573934E-01 0.14592357611E-01
 0.66826655377E-02 0.37603434408E-02 0.53636913153E-02 0.11046508771E-01 0.17893191279E-01
 0.21552352245E-01 0.20548580740E-01 0.16701929928E-01 0.11571959839E-01 0.59892384961E-02
 0.29144606899E-02 0.60986160878E-02 0.14440658078E-01 0.23600342694E-01 0.30796408244E-01
 0.34134686340E-01 0.31496473411E-01 0.23142661213E-01 0.13325406691E-01 0.66826655377E-02
 0.46989439475E-02 0.72411609303E-02 0.14530199832E-01 0.24968958592E-01 0.33700246398E-01
 0.36407070042E-01 0.32972852067E-01 0.25629192191E-01 0.16153029855E-01 0.71233255869E-02
 0.22162478688E-02 0.49508793181E-02 0.10420521914E-01 0.15452543461E-01 0.18999975960E-01
 0.19756513142E-01 0.16296152077E-01 0.10035126405E-01 0.49236077555E-02 0.37603434407E-02
 0.72411609302E-02 0.15908184071E-01 0.29358521778E-01 0.43437311619E-01 0.51838071090E-01
 0.51370776692E-01 0.43446421445E-01 0.30988877247E-01 0.17097124724E-01 0.61772501452E-02
 0.15322453094E-02 0.30575949527E-02 0.54312223551E-02 0.75478626219E-02 0.92067939639E-02
 0.89046348262E-02 0.58462195700E-02 0.22748144313E-02 0.15327085473E-02 0.53636913151E-02
 0.14530199832E-01 0.29358521777E-01 0.47178824398E-01 0.61425991142E-01 0.66130090965E-01
 0.60370327973E-01 0.47181434601E-01 0.30472882805E-01 0.14691651161E-01 0.44850688590E-02
 0.55025098117E-03 0.41800150996E-03 0.59059428364E-03 0.13827702305E-02 0.22477879761E-02
 0.15421944995E-02 -.41982948926E-03 -.86003962726E-03 0.26381299409E-02 0.11046508771E-01
 0.24968958592E-01 0.43437311620E-01 0.61425991142E-01 0.71792461479E-01 0.70762711863E-01
 0.59897750687E-01 0.43271642875E-01 0.25332192746E-01 0.10792433951E-01 0.28395202002E-02
 -.16829666764E-02 -.32723252166E-02 -.41615100431E-02 -.37535068958E-02 -.31559183129E-02
 -.33891700221E-02 -.31045696761E-02 -.54501788725E-04 0.67743572561E-02 0.17893191278E-01
 0.33700246398E-01 0.51838071090E-01 0.66130090966E-01 0.70762711864E-01 0.64732707843E-01
 0.51118021324E-01 0.34034079030E-01 0.17775481009E-01 0.62769607566E-02 0.62550489900E-03
 -.58000276690E-02 -.86220590944E-02 -.99208430082E-02 -.93286006733E-02 -.80582236724E-02
 -.63921546979E-02 -.31366105285E-02 0.24025497713E-02 0.10316633907E-01 0.21552352245E-01
 0.36407070042E-01 0.51370776693E-01 0.60370327973E-01 0.59897750687E-01 0.51118021324E-01
 0.37379298937E-01 0.22223349975E-01 0.93809484368E-02 0.13516134776E-02 -.27695504845E-02
 -.12581087061E-01 -.16576482690E-01 -.17636098905E-01 -.15866802540E-01 -.12580190391E-01
 -.81505120960E-02 -.26267865708E-02 0.34502749246E-02 0.10583082278E-01 0.20548580740E-01
 0.32972852067E-01 0.43446421444E-01 0.47181434601E-01 0.43271642875E-01 0.34034079030E-01
 0.22223349975E-01 0.10586258218E-01 0.18162093748E-02 -.35517816030E-02 -.77809203460E-02
 -.22751298927E-01 -.27057364101E-01 -.26566282596E-01 -.22374981637E-01 -.16267185050E-01
 -.93736848510E-02 -.29165963885E-02 0.25102720646E-02 0.84562263090E-02 0.16701929928E-01
 0.25629192191E-01 0.30988877247E-01 0.30472882804E-01 0.25332192746E-01 0.17775481009E-01
 0.93809484368E-02 0.18162093749E-02 -.38748276645E-02 -.89960242984E-02 -.15580757741E-01
 -.34814747408E-01 -.37442995111E-01 -.34020945648E-01 -.26803327668E-01 -.18030278525E-01
 -.95826186740E-02 -.31722272870E-02 0.12766523445E-02 0.58780272502E-02 0.11571959839E-01
 0.16153029855E-01 0.17097124724E-01 0.14691651161E-01 0.10792433951E-01 0.62769607564E-02
 0.13516134776E-02 -.35517816030E-02 -.89960242984E-02 -.16725533196E-01 -.26580663231E-01
 -.44406356532E-01 -.43684000359E-01 -.37013760314E-01 -.27186303082E-01 -.16684488949E-01
 -.79480806662E-02 -.25392341286E-02 0.47550243436E-03 0.32389965004E-02 0.59892384959E-02
 0.71233255868E-02 0.61772501448E-02 0.44850688587E-02 0.28395202001E-02 0.62550489897E-03
 -.27695504845E-02 -.77809203459E-02 -.15580757741E-01 -.26580663231E-01 -.37845346600E-01
 0.21372217853E-01 0.20583305714E-01 0.15886737175E-01 0.99356039429E-02 0.56815847817E-02
 0.31927074234E-02 0.12840132674E-02 0.13429855918E-03 0.14377947237E-03 0.25416028949E-03
 -.35008180515E-03 -.65369383965E-03 0.14373717807E-03 0.95370702286E-03 0.10898370200E-02
 0.21681120680E-02 0.56794177657E-02 0.10577771045E-01 0.15106352685E-01 0.18891623168E-01
 0.20583305714E-01 0.17481209953E-01 0.11999073968E-01 0.71038296071E-02 0.40416704276E-02
 0.18949230105E-02 0.20202532428E-03 -.35633738840E-03 0.10483872229E-03 0.43027288949E-03
 0.35751405344E-03 0.62217104974E-03 0.11045844193E-02 0.10279944552E-02 0.10512616490E-02
 0.29760621091E-02 0.71717103620E-02 0.12168899612E-01 0.16667593183E-01 0.19934552523E-01
 0.15886737175E-01 0.11999073967E-01 0.76030745363E-02 0.42704494080E-02 0.20405402263E-02
 0.47381519337E-03 -.16528192975E-03 0.33482585233E-03 0.11964963875E-02 0.15240287721E-02
 0.13813726517E-02 0.11749142902E-02 0.82935313140E-03 0.49621757113E-03 0.12414444791E-02
 0.39772708596E-02 0.82292753903E-02 0.12646480325E-01 0.16040405428E-01 0.17386341236E-01
 0.99356039428E-02 0.71038296068E-02 0.42704494080E-02 0.20230919176E-02 0.73561646789E-03
 0.50765064833E-03 0.10525322836E-02 0.17797836032E-02 0.21329621150E-02 0.19140778689E-02
 0.13126469498E-02 0.68222044828E-03 0.36012796540E-03 0.68764629094E-03 0.20344658414E-02
 0.45609960173E-02 0.78404100351E-02 0.10821387302E-01 0.12367575075E-01 0.11961706381E-01
 0.56815847815E-02 0.40416704276E-02 0.20405402263E-02 0.73561646776E-03 0.87418545136E-03
 0.17172920362E-02 0.21197444062E-02 0.19920505888E-02 0.17978319103E-02 0.14916675966E-02
 0.94029330592E-03 0.60439802007E-03 0.87455302207E-03 0.14632102462E-02 0.22132216505E-02
 0.36110722457E-02 0.56831658405E-02 0.73244337934E-02 0.76018214341E-02 0.68455306063E-02
 0.31927074233E-02 0.18949230104E-02 0.47381519332E-03 0.50765064814E-03 0.17172920361E-02
 0.22266739982E-02 0.16120968293E-02 0.12540226834E-02 0.16290244329E-02 0.17365593596E-02
 0.13242636252E-02 0.12572262172E-02 0.15458807998E-02 0.13500717870E-02 0.10184045567E-02
 0.17907325744E-02 0.34076472614E-02 0.42870697511E-02 0.40588422689E-02 0.36750443977E-02
 0.12840132673E-02 0.20202532421E-03 -.16528192965E-03 0.10525322835E-02 0.21197444063E-02
 0.16120968293E-02 0.95089644413E-03 0.16916782646E-02 0.26904220485E-02 0.23846412364E-02
 0.15577706060E-02 0.14142869696E-02 0.12064120161E-02 0.20040078793E-03 -.26013286980E-03
 0.90800510300E-03 0.22748595979E-02 0.22752684502E-02 0.16871380249E-02 0.16049063624E-02
 0.13429855914E-03 -.35633738834E-03 0.33482585252E-03 0.17797836030E-02 0.19920505884E-02
 0.12540226833E-02 0.16916782647E-02 0.31224142647E-02 0.32110854364E-02 0.17385576226E-02
 0.82888219182E-03 0.92413417676E-03 0.43238524373E-03 -.58632175061E-03 -.32486429417E-03
 0.10349793079E-02 0.13202839265E-02 0.27371828735E-03 -.20810471762E-03 0.22757024534E-03
 0.14377947227E-03 0.10483872229E-03 0.11964963874E-02 0.21329621149E-02 0.17978319099E-02
 0.16290244328E-02 0.26904220480E-02 0.32110854363E-02 0.18013033029E-02 0.25959473709E-03
 0.38644699584E-03 0.86906606689E-03 0.14203782765E-03 -.56473056340E-03 0.71370390753E-04
 0.59573477579E-03 -.42453623941E-03 -.14766147591E-02 -.88441411801E-03 0.15977701430E-03
 0.25416028963E-03 0.43027288983E-03 0.15240287721E-02 0.19140778688E-02 0.14916675967E-02
 0.17365593592E-02 0.23846412363E-02 0.17385576225E-02 0.25959473713E-03 0.99645889353E-04
 0.11061422101E-02 0.10584470480E-02 -.20398258663E-03 -.71215023623E-03 -.31267605696E-03
 -.76008223774E-03 -.18876392026E-02 -.16393193352E-02 -.41257873050E-04 0.70867025388E-03
 -.35008180508E-03 0.35751405361E-03 0.13813726518E-02 0.13126469497E-02 0.94029330590E-03
 0.13242636252E-02 0.15577706058E-02 0.82888219179E-03 0.38644699586E-03 0.11061422101E-02
 0.14544250882E-02 0.20399879548E-03 -.12081244399E-02 -.13192509050E-02 -.11548257498E-02
 -.17895374890E-02 -.19738309001E-02 -.66776340497E-03 0.56489637013E-03 0.24144609652E-03
 -.65369383939E-03 0.62217105010E-03 0.11749142904E-02 0.68222044840E-03 0.60439802012E-03
 0.12572262172E-02 0.14142869696E-02 0.92413417660E-03 0.86906606685E-03 0.10584470479E-02
 0.20399879540E-03 -.13710920442E-02 -.20029875013E-02 -.16305466279E-02 -.16715464720E-02
 -.21070742282E-02 -.16115112020E-02 -.45939030836E-03 -.27726703295E-03 -.92643763654E-03
 0.14373717824E-03 0.11045844194E-02 0.82935313146E-03 0.36012796543E-03 0.87455302212E-03
 0.15458807999E-02 0.12064120160E-02 0.43238524370E-03 0.14203782752E-03 -.20398258682E-03
 -.12081244402E-02 -.20029875013E-02 -.18578693187E-02 -.16729681006E-02 -.22089624161E-02
 -.25324746061E-02 -.18562133186E-02 -.11364487576E-02 -.11785042891E-02 -.10076974828E-02
 0.95370702289E-03 0.10279944554E-02 0.49621757124E-03 0.68764629106E-03 0.14632102461E-02
 0.13500717868E-02 0.20040078789E-03 -.58632175090E-03 -.56473056350E-03 -.71215023642E-03
 -.13192509052E-02 -.16305466278E-02 -.16729681006E-02 -.22605991833E-02 -.30905586742E-02
 -.29573835093E-02 -.19114595267E-02 -.11422622395E-02 -.79260105860E-03 -.14482186721E-04
 0.10898370201E-02 0.10512616492E-02 0.12414444792E-02 0.20344658413E-02 0.22132216502E-02
 0.10184045565E-02 -.26013286997E-03 -.32486429420E-03 0.71370390714E-04 -.31267605708E-03
 -.11548257496E-02 -.16715464717E-02 -.22089624160E-02 -.30905586741E-02 -.33621272467E-02
 -.23302618687E-02 -.98848363806E-03 -.41244708299E-03 -.12664950015E-03 0.55291452129E-03
 0.21681120681E-02 0.29760621092E-02 0.39772708596E-02 0.45609960172E-02 0.36110722456E-02
 0.17907325743E-02 0.90800510297E-03 0.10349793077E-02 0.59573477573E-03 -.76008223776E-03
 -.17895374891E-02 -.21070742281E-02 -.25324746060E-02 -.29573835090E-02 -.23302618685E-02
 -.91104510832E-03 -.17753377145E-03 -.31542042622E-03 -.27064436040E-04 0.10915583819E-02
 0.56794177654E-02 0.71717103618E-02 0.82292753902E-02 0.78404100349E-02 0.56831658403E-02
 0.34076472612E-02 0.22748595979E-02 0.13202839266E-02 -.42453623927E-03 -.18876392026E-02
 -.19738309001E-02 -.16115112019E-02 -.18562133186E-02 -.19114595267E-02 -.98848363780E-03
 -.17753377129E-03 -.42274294522E-03 -.47155200930E-03 0.11230153003E-02 0.36435709800E-02
 0.10577771045E-01 0.12168899612E-01 0.12646480325E-01 0.10821387302E-01 0.73244337933E-02
 0.42870697511E-02 0.22752684502E-02 0.27371828747E-03 -.14766147591E-02 -.16393193350E-02
 -.66776340482E-03 -.45939030844E-03 -.11364487576E-02 -.11422622396E-02 -.41244708303E-03
 -.31542042624E-03 -.47155200925E-03 0.11467620576E-02 0.47362958755E-02 0.82539787740E-02
 0.15106352685E-01 0.16667593183E-01 0.16040405428E-01 0.12367575075E-01 0.76018214343E-02
 0.40588422690E-02 0.16871380251E-02 -.20810471741E-03 -.88441411778E-03 -.41257872983E-04
 0.56489637019E-03 -.27726703289E-03 -.11785042892E-02 -.79260105875E-03 -.12664950033E-03
 -.27064436082E-04 0.11230153003E-02 0.47362958755E-02 0.93192669798E-02 0.12769317031E-01
 0.18891623168E-01 0.19934552523E-01 0.17386341236E-01 0.11961706381E-01 0.68455306064E-02
 0.36750443977E-02 0.16049063625E-02 0.22757024522E-03 0.15977701430E-03 0.70867025370E-03
 0.24144609643E-03 -.92643763681E-03 -.10076974831E-02 -.14482186831E-04 0.55291452124E-03
 0.10915583819E-02 0.36435709800E-02 0.82539787740E-02 0.12769317031E-01 0.16175568401E-01
 0.47817342456E-01 0.45280561438E-01 0.35104408444E-01 0.22486198428E-01 0.12970792404E-01
 0.72287565514E-02 0.31969393906E-02 0.32735521910E-03 -.11797229083E-02 -.24047012277E-02
 -.37884534954E-02 -.36272623807E-02 -.11798206096E-02 0.13894391890E-02 0.28287122515E-02
 0.57524826872E-02 0.12969441118E-01 0.23406181856E-01 0.34052812565E-01 0.42953439854E-01
 0.45280561438E-01 0.38465062686E-01 0.26873093640E-01 0.16213010193E-01 0.91549393330E-02