    5    5    1    1
  0.3477306E+02  0.2573869E-09  0.2573869E-09  0.3030466E-08  0.5000000E-15
  1.000000000000000E-004
  CAR 
 unknown system                          
     45     14     28
 
  0.0000000E+00  0.0000000E+00  0.0000000E+00  0.1000000E-01
    1      -11.751303   1.000000
    2      -10.654439   1.000000
    3       -8.953367   1.000000
    4       -7.463019   1.000000
    5       -5.821734   1.000000
    6       -5.589869   1.000000
    7       -5.589605   1.000000
    8       -5.540506   1.000000
    9       -5.237692   1.000000
   10       -5.196974   1.000000
   11       -5.196664   1.000000
   12       -5.166329   1.000000
   13       -5.166062   1.000000
   14       -4.920795   1.000000
   15       -4.920502   1.000000
   16       -4.801668   1.000000
   17       -4.725121   1.000000
   18       -4.725071   1.000000
   19       -4.424030   1.000000
   20       -4.423952   1.000000
   21       -4.204186   1.000000
   22       -4.204147   1.000000
   23       -3.922503   1.000000
   24       -3.922433   1.000000
   25       -2.844573   1.000000
   26        1.612031   0.000000
   27        1.898953   0.000000
   28        2.300585   0.000000
 
  0.1000000E+00  0.6938894E-17  0.0000000E+00  0.6000000E-01
    1      -11.455272   1.000000
    2      -10.354034   1.000000
    3       -8.685243   1.000000
    4       -7.240820   1.000000
    5       -5.920606   1.000000
    6       -5.700637   1.000000
    7       -5.570086   1.000000
    8       -5.482518   1.000000
    9       -5.314371   1.000000
   10       -5.270017   1.000000
   11       -5.242506   1.000000
   12       -5.097031   1.000000
   13       -5.088235   1.000000
   14       -5.031421   1.000000
   15       -4.941347   1.000000
   16       -4.841034   1.000000
   17       -4.731792   1.000000
   18       -4.623641   1.000000
   19       -4.440677   1.000000
   20       -4.403355   1.000000
   21       -4.229965   1.000000
   22       -4.200355   1.000000
   23       -3.917473   1.000000
   24       -3.701146   1.000000
   25       -2.156954   0.053027
   26        1.861920   0.000000
   27        2.200898   0.000000
   28        2.602823   0.000000
 
  0.2000000E+00 -0.1387779E-16  0.0000000E+00  0.6000000E-01
    1      -10.617068   1.000000
    2       -9.500629   1.000000
    3       -7.982911   1.000000
    4       -6.713107   1.000000
    5       -6.195721   1.000000
    6       -5.841182   1.000000
    7       -5.699782   1.000000
    8       -5.609384   1.000000
    9       -5.428538   1.000000
   10       -5.217294   1.000000
   11       -5.207580   1.000000
   12       -5.135431   1.000000
   13       -4.986698   1.000000
   14       -4.941301   1.000000
   15       -4.846101   1.000000
   16       -4.782856   1.000000
   17       -4.723603   1.000000
   18       -4.548766   1.000000
   19       -4.498130   1.000000
   20       -4.387940   1.000000
   21       -4.201832   1.000000
   22       -4.016047   1.000000
   23       -3.910971   1.000000
   24       -2.815808   1.000000
   25       -0.825250   0.000000
   26        2.604713   0.000000
   27        3.105243   0.000000
   28        3.508660   0.000000
 
  0.3000000E+00 -0.2775558E-16  0.0000000E+00  0.6000000E-01
    1       -9.454867   1.000000
    2       -8.301523   1.000000
    3       -7.265911   1.000000
    4       -6.493382   1.000000
    5       -6.286352   1.000000
    6       -6.085353   1.000000
    7       -5.797189   1.000000
    8       -5.591258   1.000000
    9       -5.496218   1.000000
   10       -5.225369   1.000000
   11       -5.099613   1.000000
   12       -4.990850   1.000000
   13       -4.863440   1.000000
   14       -4.767627   1.000000
   15       -4.756223   1.000000
   16       -4.591545   1.000000
   17       -4.475468   1.000000
   18       -4.307151   1.000000
   19       -4.263659   1.000000
   20       -4.191544   1.000000
   21       -4.070897   1.000000
   22       -3.896140   1.000000
   23       -3.545908   1.000000
   24       -1.635533   0.000000
   25        0.842213   0.000000
   26        3.792781   0.000000
   27        4.551137   0.000000
   28        4.914091   0.000000
 
  0.4000000E+00 -0.2775558E-16  0.0000000E+00  0.6000000E-01
    1       -8.587459   1.000000
    2       -7.274855   1.000000
    3       -6.944931   1.000000
    4       -6.557562   1.000000
    5       -6.404865   1.000000
    6       -6.218872   1.000000
    7       -5.860511   1.000000
    8       -5.421852   1.000000
    9       -5.272401   1.000000
   10       -5.200479   1.000000
   11       -5.174508   1.000000
   12       -4.911481   1.000000
   13       -4.717161   1.000000
   14       -4.456245   1.000000
   15       -4.375709   1.000000
   16       -4.315719   1.000000
   17       -4.039713   1.000000
   18       -4.035264   1.000000
   19       -3.972990   1.000000
   20       -3.897793   1.000000
   21       -3.753358   1.000000
   22       -3.510552   1.000000
   23       -2.489045   0.998966
   24       -0.258051   0.000000
   25        1.660621   0.000000
   26        2.882133   0.000000
   27        3.659518   0.000000
   28        4.742779   0.000000
 
  0.5000000E+00 -0.2775558E-16  0.0000000E+00  0.3000000E-01
    1       -8.366134   1.000000
    2       -6.955761   1.000000
    3       -6.901670   1.000000
    4       -6.532603   1.000000
    5       -6.476108   1.000000
    6       -6.278095   1.000000
    7       -5.849194   1.000000
    8       -5.345175   1.000000
    9       -5.206750   1.000000
   10       -5.179146   1.000000
   11       -5.112335   1.000000
   12       -4.932680   1.000000
   13       -4.409388   1.000000
   14       -4.398015   1.000000
   15       -4.302456   1.000000
   16       -4.203861   1.000000
   17       -3.980042   1.000000
   18       -3.879228   1.000000
   19       -3.818260   1.000000
   20       -3.637839   1.000000
   21       -3.568690   1.000000
   22       -2.189020   0.122474
   23       -1.287956   0.000000
   24       -0.745405   0.000000
   25        0.467057   0.000000
   26        2.195031   0.000000
   27        3.350758   0.000000
   28        4.216575   0.000000
 
  0.2000000E+00  0.1000000E+00  0.0000000E+00  0.6000000E-01
    1      -10.886188   1.000000
    2       -9.774992   1.000000
    3       -8.194316   1.000000
    4       -6.853048   1.000000
    5       -6.116622   1.000000
    6       -5.766034   1.000000
    7       -5.698145   1.000000
    8       -5.548808   1.000000
    9       -5.391314   1.000000
   10       -5.289749   1.000000
   11       -5.257206   1.000000
   12       -5.095810   1.000000
   13       -5.038081   1.000000
   14       -4.996049   1.000000
   15       -4.886762   1.000000
   16       -4.807727   1.000000
   17       -4.639114   1.000000
   18       -4.554601   1.000000
   19       -4.529734   1.000000
   20       -4.399268   1.000000
   21       -4.284815   1.000000
   22       -4.017719   1.000000
   23       -3.957050   1.000000
   24       -3.069502   1.000000
   25       -1.215676   0.000000
   26        2.359259   0.000000
   27        2.804442   0.000000
   28        3.207122   0.000000
 
  0.3000000E+00  0.1000000E+00  0.0000000E+00  0.1200000E+00
    1       -9.866946   1.000000
    2       -8.728324   1.000000
    3       -7.452409   1.000000
    4       -6.429234   1.000000
    5       -6.226745   1.000000
    6       -5.971991   1.000000
    7       -5.803924   1.000000
    8       -5.712112   1.000000
    9       -5.543694   1.000000
   10       -5.241806   1.000000
   11       -5.211833   1.000000
   12       -5.111136   1.000000
   13       -5.007205   1.000000
   14       -4.871375   1.000000
   15       -4.817279   1.000000
   16       -4.708135   1.000000
   17       -4.557734   1.000000
   18       -4.420264   1.000000
   19       -4.296801   1.000000
   20       -4.227822   1.000000
   21       -4.081325   1.000000
   22       -3.976244   1.000000
   23       -3.657337   1.000000
   24       -2.061738   0.001525
   25        0.238660   0.000000
   26        3.355192   0.000000
   27        4.002997   0.000000
   28        4.424160   0.000000
 
  0.4000000E+00  0.1000000E+00  0.0000000E+00  0.1200000E+00
    1       -8.805771   1.000000
    2       -7.560566   1.000000
    3       -6.946495   1.000000
    4       -6.472583   1.000000
    5       -6.255955   1.000000
    6       -6.107980   1.000000
    7       -5.852942   1.000000
    8       -5.597057   1.000000
    9       -5.509908   1.000000
   10       -5.250195   1.000000
   11       -5.179552   1.000000
   12       -5.038081   1.000000
   13       -4.874824   1.000000
   14       -4.683121   1.000000
   15       -4.580500   1.000000
   16       -4.456205   1.000000
   17       -4.353236   1.000000
   18       -4.210945   1.000000
   19       -4.105324   1.000000
   20       -3.915467   1.000000
   21       -3.877017   1.000000
   22       -3.565791   1.000000
   23       -2.781310   1.000000
   24       -0.664225   0.000000
   25        1.925975   0.000000
   26        3.849247   0.000000
   27        4.689468   0.000000
   28        5.282864   0.000000
 
  0.5000000E+00  0.1000000E+00  0.0000000E+00  0.1200000E+00
    1       -8.324265   1.000000
    2       -6.890360   1.000000
    3       -6.800013   1.000000
    4       -6.461068   1.000000
    5       -6.376454   1.000000
    6       -6.173640   1.000000
    7       -5.850433   1.000000
    8       -5.501147   1.000000
    9       -5.333736   1.000000
   10       -5.264394   1.000000
   11       -5.154581   1.000000
   12       -4.920574   1.000000
   13       -4.786806   1.000000
   14       -4.472390   1.000000
   15       -4.351647   1.000000
   16       -4.190050   1.000000
   17       -4.085942   1.000000
   18       -4.031076   1.000000
   19       -3.957538   1.000000
   20       -3.802599   1.000000
   21       -3.361134   1.000000
   22       -2.285527   0.580082
   23       -1.272898   0.000000
   24        0.187224   0.000000
   25        0.914861   0.000000
   26        2.523573   0.000000
   27        3.558606   0.000000
   28        4.734429   0.000000
 
  0.4000000E+00  0.2000000E+00  0.0000000E+00  0.6000000E-01
    1       -8.894853   1.000000
    2       -7.662941   1.000000
    3       -6.908635   1.000000
    4       -6.357002   1.000000
    5       -6.124635   1.000000
    6       -5.960494   1.000000
    7       -5.896190   1.000000
    8       -5.789701   1.000000
    9       -5.511802   1.000000
   10       -5.381200   1.000000
   11       -5.273610   1.000000
   12       -5.236874   1.000000
   13       -4.946933   1.000000
   14       -4.871462   1.000000
   15       -4.715607   1.000000
   16       -4.559126   1.000000
   17       -4.388894   1.000000
   18       -4.235062   1.000000
   19       -4.142025   1.000000
   20       -3.916716   1.000000
   21       -3.870160   1.000000
   22       -3.509024   1.000000
   23       -2.778322   1.000000
   24       -0.792900   0.000000
   25        1.782831   0.000000
   26        4.604857   0.000000
   27        5.178891   0.000000
   28        5.658832   0.000000
 
  0.5000000E+00  0.2000000E+00  0.0000000E+00  0.1200000E+00
    1       -8.249345   1.000000
    2       -6.765630   1.000000
    3       -6.572893   1.000000
    4       -6.343090   1.000000
    5       -6.146560   1.000000
    6       -6.040119   1.000000
    7       -5.838817   1.000000
    8       -5.741193   1.000000
    9       -5.508206   1.000000
   10       -5.431806   1.000000
   11       -5.353901   1.000000
   12       -5.005075   1.000000
   13       -4.920690   1.000000
   14       -4.776207   1.000000
   15       -4.596675   1.000000
   16       -4.481638   1.000000
   17       -4.320272   1.000000
   18       -4.141171   1.000000
   19       -3.975073   1.000000
   20       -3.822751   1.000000
   21       -3.164507   1.000000
   22       -2.293986   0.626173
   23       -1.153474   0.000000
   24        0.848370   0.000000
   25        2.458836   0.000000
   26        3.594757   0.000000
   27        4.409766   0.000000
   28        5.084353   0.000000
 
 -0.4000000E+00  0.2000000E+00  0.0000000E+00  0.6000000E-01
    1       -8.089702   1.000000
    2       -6.534095   1.000000
    3       -6.507641   1.000000
    4       -6.247546   1.000000
    5       -6.202534   1.000000
    6       -5.989280   1.000000
    7       -5.838176   1.000000
    8       -5.777274   1.000000
    9       -5.507616   1.000000
   10       -5.382366   1.000000
   11       -5.298165   1.000000
   12       -5.037748   1.000000
   13       -4.867256   1.000000
   14       -4.640131   1.000000
   15       -4.506275   1.000000
   16       -4.433582   1.000000
   17       -4.211937   1.000000
   18       -4.064733   1.000000
   19       -3.992556   1.000000
   20       -3.889703   1.000000
   21       -2.331903   0.804544
   22       -0.607897   0.000000
   23       -0.021455   0.000000
   24        0.737033   0.000000
   25        0.958115   0.000000
   26        2.786396   0.000000
   27        4.141599   0.000000
   28        4.568043   0.000000
 
 -0.4000000E+00  0.3000000E+00  0.0000000E+00  0.6000000E-01
    1       -7.984775   1.000000
    2       -6.316298   1.000000
    3       -6.260209   1.000000
    4       -6.182764   1.000000
    5       -6.076592   1.000000
    6       -5.938474   1.000000
    7       -5.906902   1.000000
    8       -5.786290   1.000000
    9       -5.655882   1.000000
   10       -5.563566   1.000000
   11       -5.364703   1.000000
   12       -4.983433   1.000000
   13       -4.933516   1.000000
   14       -4.810284   1.000000
   15       -4.612677   1.000000
   16       -4.461950   1.000000
   17       -4.382823   1.000000
   18       -4.095310   1.000000
   19       -4.007987   1.000000
   20       -3.913926   1.000000
   21       -1.874535   0.000000
   22       -0.291578   0.000000
   23        0.879928   0.000000
   24        1.810106   0.000000
   25        2.431194   0.000000
   26        2.449813   0.000000
   27        3.297910   0.000000
   28        4.122974   0.000000
