unknown system                          
   1.00000000000000     
     2.573869    0.000000    0.000000
     1.286934    2.229036    0.000000
     0.000000    0.000000   30.304665
   Cu   H 
     4     1
Direct
  0.000000  0.000000  0.396440
  0.333333  0.333333  0.465152
  0.666667  0.666667  0.533916
  0.000000  0.000000  0.606744
  0.333333  0.333333  0.634767
 
   10   10  120
 0.62450E-16 0.95410E-16 0.45727E-14 0.96427E-10 0.40833E-12 0.72496E-11 0.43104E-13 0.88011E-09 0.18319E-14 0.58981E-16
 0.15092E-15 0.54123E-15 0.26102E-12 0.28877E-09 0.36710E-12 0.11586E-10 0.59078E-13 0.45136E-12 0.10807E-14 0.31225E-16
 0.45797E-14 0.26113E-12 0.31636E-11 0.32360E-11 0.10963E-12 0.10178E-11 0.76134E-13 0.35869E-12 0.28519E-14 0.58634E-15
 0.96427E-10 0.28877E-09 0.32360E-11 0.29995E-11 0.31991E-12 0.40887E-09 0.55358E-13 0.32381E-11 0.21072E-12 0.66106E-12
 0.40828E-12 0.36712E-12 0.10957E-12 0.31994E-12 0.16577E-12 0.24618E-12 0.12684E-13 0.37345E-12 0.20021E-12 0.19736E-12
 0.72496E-11 0.11586E-10 0.10178E-11 0.40887E-09 0.24621E-12 0.37225E-11 0.32641E-13 0.57995E-13 0.29948E-13 0.67282E-11
 0.43077E-13 0.59036E-13 0.76175E-13 0.55358E-13 0.12712E-13 0.32585E-13 0.97145E-14 0.29976E-14 0.34694E-14 0.29088E-13
 0.88011E-09 0.45132E-12 0.35860E-12 0.32381E-11 0.37347E-12 0.57884E-13 0.30254E-14 0.45658E-14 0.42785E-13 0.48518E-11
 0.18353E-14 0.10877E-14 0.29456E-14 0.21069E-12 0.20023E-12 0.30045E-13 0.34972E-14 0.42827E-13 0.19180E-12 0.12186E-12
 0.97145E-16 0.10755E-15 0.50307E-15 0.66100E-12 0.19727E-12 0.67282E-11 0.29060E-13 0.48518E-11 0.12184E-12 0.17260E-14
 0.55511E-16 0.20470E-15 0.86528E-14 0.16953E-11 0.30961E-13 0.60524E-12 0.27894E-12 0.18613E-11 0.15543E-14 0.12837E-15
 0.10929E-15 0.64879E-15 0.35621E-12 0.13480E-10 0.10152E-12 0.11631E-09 0.21057E-12 0.59383E-12 0.16757E-14 0.13531E-15
 0.86250E-14 0.35625E-12 0.21709E-11 0.20497E-11 0.39801E-13 0.71225E-12 0.19007E-12 0.41253E-12 0.44478E-14 0.68695E-15
 0.16954E-11 0.13480E-10 0.20497E-11 0.13588E-11 0.88124E-13 0.44434E-10 0.21219E-12 0.36753E-11 0.22359E-12 0.79982E-12
 0.31003E-13 0.10142E-12 0.39690E-13 0.88152E-13 0.35694E-13 0.70305E-13 0.14419E-13 0.11939E-12 0.15746E-12 0.66433E-13
 0.60522E-12 0.11631E-09 0.71239E-12 0.44434E-10 0.70277E-13 0.33005E-11 0.91316E-13 0.23545E-12 0.92107E-13 0.83001E-10
 0.27897E-12 0.21050E-12 0.19015E-12 0.21219E-12 0.14447E-13 0.91288E-13 0.42730E-13 0.15071E-13 0.95479E-14 0.78423E-13
 0.18614E-11 0.59382E-12 0.41250E-12 0.36751E-11 0.11939E-12 0.23535E-12 0.15044E-13 0.16154E-13 0.14692E-12 0.84715E-10
 0.15613E-14 0.17972E-14 0.45380E-14 0.22367E-12 0.15744E-12 0.92135E-13 0.95202E-14 0.14691E-12 0.21082E-12 0.12031E-12
 0.14919E-15 0.14572E-15 0.67307E-15 0.79982E-12 0.66433E-13 0.83001E-10 0.78410E-13 0.84715E-10 0.12026E-12 0.28796E-14
 0.69389E-16 0.17000E-15 0.93675E-14 0.44839E-13 0.53291E-14 0.35472E-13 0.68209E-13 0.51903E-13 0.61756E-15 0.11449E-15
 0.19429E-15 0.57593E-15 0.47570E-12 0.29196E-11 0.34028E-13 0.76173E-11 0.71902E-12 0.80218E-12 0.21580E-14 0.76328E-16
 0.94022E-14 0.47580E-12 0.10564E-11 0.18410E-12 0.13822E-13 0.12509E-12 0.26873E-12 0.41375E-12 0.55719E-14 0.91593E-15
 0.44881E-13 0.29196E-11 0.18405E-12 0.65586E-13 0.12240E-13 0.82642E-12 0.74049E-12 0.40467E-11 0.23248E-12 0.94277E-12
 0.52597E-14 0.33917E-13 0.13767E-13 0.12240E-13 0.87430E-14 0.25008E-13 0.11477E-13 0.39149E-13 0.81518E-13 0.22204E-13
 0.35402E-13 0.76173E-11 0.12493E-12 0.82645E-12 0.24952E-13 0.34913E-11 0.30297E-12 0.15578E-11 0.17170E-12 0.63549E-11
 0.68126E-13 0.71909E-12 0.26867E-12 0.74050E-12 0.11546E-13 0.30295E-12 0.28218E-12 0.11233E-12 0.25674E-13 0.25788E-12
 0.51847E-13 0.80219E-12 0.41368E-12 0.40467E-11 0.39094E-13 0.15577E-11 0.11226E-12 0.13567E-12 0.27985E-12 0.75381E-10
 0.65226E-15 0.22551E-14 0.55581E-14 0.23256E-12 0.81532E-13 0.17168E-12 0.25688E-13 0.27983E-12 0.14820E-12 0.12300E-12
 0.65919E-16 0.12143E-15 0.81879E-15 0.94275E-12 0.22191E-13 0.63549E-11 0.25790E-12 0.75381E-10 0.12297E-12 0.44548E-14
 0.20817E-16 0.20817E-15 0.67446E-14 0.82295E-14 0.19706E-14 0.61895E-14 0.89789E-14 0.10297E-13 0.12490E-15 0.13878E-15
 0.16653E-15 0.61062E-15 0.61924E-12 0.14751E-11 0.15432E-13 0.19042E-11 0.10239E-10 0.93070E-12 0.32196E-14 0.13878E-15
 0.67724E-14 0.61935E-12 0.75837E-12 0.73858E-13 0.61617E-14 0.59980E-13 0.40165E-12 0.44978E-12 0.61617E-14 0.87430E-15
 0.82573E-14 0.14752E-11 0.73858E-13 0.18041E-13 0.32474E-14 0.32116E-12 0.13616E-10 0.41824E-11 0.19058E-12 0.88904E-12
 0.19290E-14 0.15266E-13 0.59952E-14 0.34417E-14 0.26368E-14 0.12101E-13 0.10672E-13 0.20289E-13 0.41689E-13 0.10991E-13
 0.62450E-14 0.19042E-11 0.60119E-13 0.32122E-12 0.12046E-13 0.32570E-11 0.15979E-11 0.10773E-10 0.36128E-12 0.18636E-11
 0.90206E-14 0.10239E-10 0.40169E-12 0.13616E-10 0.10714E-13 0.15978E-11 0.98651E-10 0.76616E-11 0.86806E-13 0.10530E-11
 0.10228E-13 0.93070E-12 0.44972E-12 0.41824E-11 0.20303E-13 0.10773E-10 0.76616E-11 0.12267E-09 0.63892E-12 0.64768E-11
 0.24980E-15 0.33029E-14 0.62172E-14 0.19063E-12 0.41731E-13 0.36141E-12 0.86778E-13 0.63889E-12 0.64490E-13 0.95063E-13
 0.13184E-15 0.18041E-15 0.80491E-15 0.88904E-12 0.11033E-13 0.18636E-11 0.10530E-11 0.64768E-11 0.95007E-13 0.67307E-14
 0.13878E-16 0.19429E-15 0.44686E-14 0.22621E-14 0.62450E-15 0.17764E-14 0.12212E-14 0.31086E-14 0.41633E-16 0.12490E-15
 0.19429E-15 0.45797E-15 0.83303E-12 0.65800E-12 0.68001E-14 0.51711E-12 0.27061E-08 0.11448E-11 0.46074E-14 0.16653E-15
 0.44686E-14 0.83310E-12 0.46546E-12 0.12934E-13 0.26368E-14 0.13739E-13 0.16454E-12 0.48758E-12 0.75911E-14 0.13600E-14
 0.22204E-14 0.65795E-12 0.12962E-13 0.54678E-14 0.99920E-15 0.94008E-13 0.31087E-07 0.46251E-11 0.23878E-12 0.11602E-11
 0.61062E-15 0.67168E-14 0.26368E-14 0.99920E-15 0.91593E-15 0.54123E-14 0.64393E-14 0.83267E-14 0.22607E-13 0.46074E-14
 0.16653E-14 0.51706E-12 0.13600E-13 0.94036E-13 0.54401E-14 0.36987E-11 0.37959E-11 0.21297E-10 0.21935E-12 0.17455E-11
 0.11935E-14 0.27061E-08 0.16456E-12 0.31087E-07 0.64809E-14 0.37958E-11 0.11377E-10 0.64400E-12 0.10283E-12 0.16191E-11
 0.29976E-14 0.11449E-11 0.48755E-12 0.46250E-11 0.82850E-14 0.21297E-10 0.64397E-12 0.22933E-12 0.32357E-12 0.30763E-11
 0.55511E-16 0.45797E-14 0.76050E-14 0.23877E-12 0.22607E-13 0.21938E-12 0.10288E-12 0.32357E-12 0.23190E-13 0.99976E-13
 0.15266E-15 0.27756E-15 0.12490E-14 0.11603E-11 0.46074E-14 0.17455E-11 0.16191E-11 0.30762E-11 0.99976E-13 0.12726E-13
  0.0000     0.16653E-15 0.29976E-14 0.94369E-15 0.47184E-15 0.74940E-15 0.41633E-15 0.13045E-14 -.11102E-15 0.11102E-15
 0.13878E-15 0.51348E-15 0.17390E-11 0.43165E-12 0.40801E-14 0.28927E-12 0.44658E-09 0.12836E-11 0.76883E-14 0.22204E-15
 0.29421E-14 0.17390E-11 0.35999E-12 0.62450E-14 0.15543E-14 0.79936E-14 0.72525E-13 0.63764E-12 0.10436E-13 0.13045E-14
 0.94369E-15 0.43163E-12 0.62450E-14 0.32196E-14 0.38858E-15 0.53485E-13 0.27708E-09 0.45232E-11 0.25206E-12 0.12182E-11
 0.52736E-15 0.40523E-14 0.15543E-14 0.38858E-15 0.52736E-15 0.33029E-14 0.59397E-14 0.52180E-14 0.16057E-13 0.29143E-14
 0.77716E-15 0.28927E-12 0.81601E-14 0.53707E-13 0.32474E-14 0.35992E-11 0.37442E-11 0.16924E-12 0.16384E-12 0.15315E-11
 0.47184E-15 0.44658E-09 0.72553E-13 0.27708E-09 0.59952E-14 0.37441E-11 0.83897E-12 0.76231E-13 0.71956E-13 0.11413E-11
 0.12906E-14 0.12837E-11 0.63760E-12 0.45232E-11 0.52736E-14 0.16921E-12 0.76300E-13 0.11116E-13 0.21706E-12 0.15642E-11
  0.0000     0.76883E-14 0.10575E-13 0.25206E-12 0.16015E-13 0.16394E-12 0.72081E-13 0.21702E-12 0.10228E-13 0.92051E-13
 0.15266E-15 0.23592E-15 0.13323E-14 0.12182E-11 0.29421E-14 0.15315E-11 0.11414E-11 0.15641E-11 0.92051E-13 0.20872E-13
 0.97145E-16 0.16653E-15 0.17070E-14 0.31919E-15 0.24980E-15 0.33307E-15 0.22204E-15 0.56899E-15 -.13878E-16 0.12490E-15
 0.22204E-15 0.13878E-15 0.20329E-11 0.24597E-12 0.20262E-14 0.13564E-12 0.83279E-11 0.14782E-11 0.92981E-14 0.44409E-15
 0.17208E-14 0.20329E-11 0.24919E-12 0.14155E-14 0.83267E-15 0.27200E-14 0.18568E-13 0.57196E-12 0.10686E-13 0.13461E-14
 0.33307E-15 0.24583E-12 0.14710E-14 0.16098E-14 0.27756E-15 0.25813E-13 0.54385E-11 0.47186E-11 0.24687E-12 0.14942E-11
 0.24980E-15 0.19151E-14 0.74940E-15 0.22204E-15 0.36082E-15 0.16098E-14 0.32196E-14 0.29005E-14 0.93536E-14 0.14710E-14
 0.36082E-15 0.13559E-12 0.27200E-14 0.25813E-13 0.16376E-14 0.45142E-11 0.71791E-12 0.14155E-14 0.63421E-13 0.71575E-11
 0.13878E-15 0.83278E-11 0.18568E-13 0.54385E-11 0.31919E-14 0.71795E-12 0.69500E-13 0.11977E-13 0.14849E-13 0.30601E-12
 0.55511E-15 0.14781E-11 0.57203E-12 0.47186E-11 0.27617E-14 0.13878E-14 0.11879E-13 0.65226E-15 0.79201E-13 0.11479E-11
 0.27756E-16 0.92565E-14 0.10741E-13 0.24684E-12 0.92981E-14 0.63435E-13 0.14821E-13 0.79228E-13 -.41633E-16 0.84113E-13
 0.13878E-15 0.55511E-15 0.12490E-14 0.14942E-11 0.14294E-14 0.71575E-11 0.30601E-12 0.11479E-11 0.84072E-13 0.42244E-13
 0.83267E-16 0.11102E-15 0.12490E-14 0.18041E-15 0.24980E-15 0.31919E-15 0.13878E-15 0.34694E-15 0.55511E-16 0.90206E-16
 0.13878E-15 0.15959E-15 0.11026E-10 0.18366E-12 0.13323E-14 0.92315E-13 0.14258E-11 0.15326E-11 0.15335E-13 0.73552E-15
 0.12629E-14 0.11026E-10 0.22317E-12 0.66613E-15 0.55511E-15 0.13600E-14 0.62728E-14 0.76011E-12 0.14239E-13 0.18249E-14
 0.22204E-15 0.18362E-12 0.61062E-15 0.11657E-14 0.22204E-15 0.17097E-13 0.87277E-12 0.44452E-11 0.26067E-12 0.19750E-11
 0.18041E-15 0.11102E-14 0.47184E-15 0.13878E-15 0.27756E-15 0.99920E-15 0.26923E-14 0.18319E-14 0.68764E-14 0.97145E-15
 0.26368E-15 0.92398E-13 0.14155E-14 0.17125E-13 0.10547E-14 0.45229E-11 0.25072E-12 0.13878E-15 0.34528E-13 0.50548E-09
 0.13878E-15 0.14257E-11 0.63005E-14 0.87266E-12 0.27062E-14 0.25077E-12 0.20497E-13 0.43993E-14 0.51625E-14 0.12207E-12
 0.36082E-15 0.15326E-11 0.76016E-12 0.44452E-11 0.18041E-14 0.83267E-16 0.43437E-14 0.13878E-15 0.43437E-13 0.78856E-12
 0.55511E-16 0.15252E-13 0.14252E-13 0.26060E-12 0.67654E-14 0.34542E-13 0.52180E-14 0.43507E-13 0.29143E-14 0.79839E-13
 0.18041E-15 0.73552E-15 0.17417E-14 0.19750E-11 0.90206E-15 0.50548E-09 0.12207E-12 0.78856E-12 0.79770E-13 0.92426E-13
 0.16653E-15 0.55511E-16 0.10755E-14 0.55511E-16 0.97145E-16 0.15266E-15 0.55511E-16 0.20123E-15 0.83267E-16 0.97145E-16
 0.15266E-15 0.55511E-16 0.14866E-10 0.12495E-12 0.83267E-15 0.60625E-13 0.34966E-12 0.16332E-11 0.22732E-13 0.94369E-15
 0.10894E-14 0.14866E-10 0.22755E-12 0.36082E-15 0.44409E-15 0.86042E-15 0.24980E-14 0.72825E-12 0.16376E-13 0.24772E-14
 0.13878E-15 0.12497E-12 0.33307E-15 0.69389E-15 0.16653E-15 0.13128E-13 0.19562E-12 0.45537E-11 0.22318E-12 0.11636E-11
 0.83267E-16 0.83267E-15 0.29143E-15 0.13878E-15 0.13878E-15 0.80491E-15 0.21233E-14 0.11519E-14 0.49336E-14 0.61062E-15
 0.19429E-15 0.60681E-13 0.88818E-15 0.13101E-13 0.77716E-15 0.65042E-11 0.99025E-13 0.31919E-15 0.20525E-13 0.96842E-12
  0.0000     0.34958E-12 0.23731E-14 0.19557E-12 0.21094E-14 0.99074E-13 0.79520E-14 0.18666E-14 0.20539E-14 0.51348E-13
 0.20817E-15 0.16332E-11 0.72824E-12 0.45536E-11 0.11102E-14 0.33307E-15 0.18735E-14 0.16653E-15 0.24786E-13 0.65838E-12
  0.0000     0.22649E-13 0.16431E-13 0.22318E-12 0.49127E-14 0.20567E-13 0.21372E-14 0.24800E-13 0.92981E-14 0.67973E-13
 0.11102E-15 0.10270E-14 0.24078E-14 0.11636E-11 0.57593E-15 0.96845E-12 0.51355E-13 0.65840E-12 0.67946E-13 0.36353E-12
 0.83267E-16 0.34694E-16 0.10686E-14 0.27756E-16 0.11102E-15 0.15266E-15 0.83267E-16 0.10408E-15 0.97145E-16 0.97145E-16
 0.12490E-15 0.48572E-16 0.27159E-09 0.84828E-13 0.47878E-15 0.42404E-13 0.11495E-12 0.15211E-11 0.37144E-13 0.20123E-14
 0.10270E-14 0.27159E-09 0.23600E-12 0.20123E-15 0.31572E-15 0.40246E-15 0.71471E-15 0.85829E-12 0.20650E-13 0.47462E-14
 0.11102E-15 0.84890E-13 0.12143E-15 0.57593E-15 0.90206E-16 0.10457E-13 0.61451E-13 0.41631E-11 0.23418E-12 0.17760E-11
 0.18735E-15 0.37470E-15 0.27062E-15 0.10408E-15 0.17347E-15 0.49960E-15 0.14641E-14 0.79797E-15 0.35805E-14 0.46491E-15
 0.12490E-15 0.42435E-13 0.36082E-15 0.10617E-13 0.44409E-15 0.71834E-11 0.43278E-13 0.10270E-14 0.11199E-13 0.16991E-12
 0.27756E-16 0.11488E-12 0.68695E-15 0.61395E-13 0.14086E-14 0.43313E-13 0.38441E-14 0.93675E-15 0.94369E-15 0.25126E-13
 0.14572E-15 0.15212E-11 0.85838E-12 0.41630E-11 0.78410E-15 0.97145E-15 0.89512E-15 0.20817E-16 0.13982E-13 0.51732E-12
 0.13878E-16 0.37165E-13 0.20643E-13 0.23419E-12 0.35805E-14 0.11297E-13 0.90206E-15 0.14030E-13 0.13288E-13 0.63123E-13
 0.83267E-16 0.20400E-14 0.46768E-14 0.17760E-11 0.30531E-15 0.16991E-12 0.25202E-13 0.51733E-12 0.63165E-13 0.67737E-11
 0.12490E-15 0.27756E-16 0.88124E-15 0.11102E-15 0.11102E-15 0.13184E-15 0.34694E-16 0.15959E-15 -.69389E-17 0.13878E-16
 0.11102E-15 0.30392E-14 0.93053E-10 0.68501E-13 0.33307E-15 0.31891E-13 0.63977E-13 0.15813E-11 0.51341E-13 0.39135E-14
 0.90206E-15 0.93053E-10 0.22599E-12 0.14919E-15 0.18041E-15 0.29143E-15 0.18735E-15 0.88833E-12 0.21733E-13 0.30392E-14
 0.11796E-15 0.68640E-13 0.79797E-16 0.29143E-15 0.27756E-16 0.10689E-13 0.35721E-13 0.41486E-11 0.22572E-12 0.11260E-11
 0.97145E-16 0.31225E-15 0.16653E-15 0.20817E-16 0.13531E-15 0.44409E-15 0.11935E-14 0.64532E-15 0.26090E-14 0.30531E-15
 0.83267E-16 0.31967E-13 0.32613E-15 0.10724E-13 0.41633E-15 0.10202E-10 0.24217E-13 0.72164E-15 0.73552E-14 0.65059E-13
 -.13878E-16 0.63893E-13 0.69389E-17 0.35624E-13 0.11657E-14 0.24342E-13 0.21094E-14 0.54123E-15 0.48572E-15 0.15349E-13
 0.13878E-15 0.15813E-11 0.88830E-12 0.41486E-11 0.57593E-15 0.72164E-15 0.56899E-15 0.13878E-16 0.87708E-14 0.44856E-12
 0.48572E-16 0.51320E-13 0.21760E-13 0.22571E-12 0.26090E-14 0.74316E-14 0.45797E-15 0.88332E-14 0.16445E-13 0.55574E-13
 0.34694E-16 0.39690E-14 0.30115E-14 0.11260E-11 0.21511E-15 0.65045E-13 0.15286E-13 0.44855E-12 0.55601E-13 0.29205E-11
 0.34694E-16 0.69389E-17 0.84655E-15 0.41633E-16 0.48572E-16 0.13878E-15 0.48572E-16 0.83267E-16  0.0000     0.83267E-16
 0.41633E-16 0.22274E-13 0.34795E-09 0.47296E-13 0.28449E-15 0.23349E-13 0.29012E-13 0.13801E-11 0.73268E-13 0.88193E-14
 0.87430E-15 0.34795E-09 0.24290E-12 0.48572E-16 0.14572E-15 0.20817E-15 0.15959E-15 0.77935E-12 0.24133E-13 0.45103E-14
 0.62450E-16 0.47282E-13 0.55511E-16 0.43715E-15 0.20817E-16 0.99018E-14 0.15501E-13 0.37224E-11 0.21480E-12 0.61123E-12
 0.15266E-15 0.15266E-15 0.13878E-15 0.27756E-16 0.55511E-16 0.36082E-15 0.85348E-15 0.40246E-15 0.20539E-14 0.18735E-15
 0.83267E-16 0.23363E-13 0.24980E-15 0.99226E-14 0.30531E-15 0.14886E-10 0.14183E-13 0.57593E-15 0.54609E-14 0.22315E-13
 0.48572E-16 0.28963E-13 0.14572E-15 0.15377E-13 0.81185E-15 0.14218E-13 0.15821E-14 0.35388E-15 0.36082E-15 0.89651E-14
 0.97145E-16 0.13801E-11 0.77931E-12 0.37224E-11 0.38164E-15 0.51348E-15 0.43021E-15 -.69389E-17 0.66197E-14 0.37826E-12
 0.27756E-16 0.73302E-13 0.24161E-13 0.21480E-12 0.20262E-14 0.55789E-14 0.26368E-15 0.66683E-14 0.15925E-13 0.48628E-13
 0.12490E-15 0.87916E-14 0.45033E-14 0.61119E-12 0.14572E-15 0.22336E-13 0.89373E-14 0.37829E-12 0.48593E-13 0.72349E-12
 0.55511E-16 -.69389E-17 0.80491E-15 0.20817E-16 -.13878E-16 0.48572E-16 0.34694E-16 0.11796E-15 0.20817E-16 0.69389E-17
 0.90206E-16 0.17130E-12 0.13864E-10 0.38705E-13 0.13878E-15 0.18631E-13 0.19276E-13 0.13423E-11 0.11822E-12 0.25778E-13
 0.88124E-15 0.13864E-10 0.23752E-12 0.27756E-16 0.13184E-15 0.17347E-15 -.20817E-16 0.86604E-12 0.29407E-13 0.93536E-14
 0.41633E-16 0.38754E-13 0.15959E-15 0.38164E-15 0.13878E-16 0.91663E-14 0.10041E-13 0.35705E-11 0.19457E-12 0.23359E-12
 -.41633E-16 0.17347E-15 0.41633E-16 -.27756E-16 -.13878E-16 0.22898E-15 0.73552E-15 0.34001E-15 0.16931E-14 0.21511E-15
 0.83267E-16 0.18645E-13 0.12490E-15 0.92565E-14 0.14572E-15 0.36919E-10 0.91455E-14 0.60368E-15 0.34833E-14 0.10339E-13
 0.69389E-17 0.19214E-13 -.76328E-16 0.99920E-14 0.70083E-15 0.91246E-14 0.86042E-15 0.24286E-15 0.24286E-15 0.59397E-14
 0.48572E-16 0.13422E-11 0.86600E-12 0.35705E-11 0.31225E-15 0.64532E-15 0.31919E-15 0.20817E-16 0.43646E-14 0.33847E-12
 0.41633E-16 0.11827E-12 0.29365E-13 0.19454E-12 0.16792E-14 0.35319E-14 0.22898E-15 0.44131E-14 0.16764E-13 0.43798E-13
 0.48572E-16 0.25729E-13 0.92981E-14 0.23360E-12 0.10408E-15 0.10290E-13 0.59744E-14 0.33846E-12 0.43840E-13 0.32112E-12
  0.0000     0.69389E-17 0.70083E-15 0.27756E-16 -.34694E-16 -.20817E-16 0.62450E-16 -.69389E-17 0.13878E-16 0.55511E-16
 0.41633E-16 0.11341E-11 0.27599E-09 0.29213E-13 0.13878E-15 0.14953E-13 0.11928E-13 0.12131E-11 0.13602E-12 0.74586E-13
 0.69389E-15 0.27599E-09 0.27094E-12 -.55511E-16 0.48572E-16 0.12490E-15 0.13878E-16 0.60990E-12 0.24376E-13 0.16688E-13
 0.34694E-16 0.29129E-13  0.0000     0.41633E-15 0.62450E-16 0.92149E-14 0.58425E-14 0.31169E-11 0.15948E-12 0.16528E-13
 0.69389E-16 0.27756E-16 0.11102E-15  0.0000     0.12490E-15 0.28449E-15 0.52736E-15 0.26368E-15 0.16098E-14 0.13878E-15
 0.83267E-16 0.14884E-13 0.48572E-16 0.93259E-14 0.10408E-15 0.53470E-10 0.61409E-14 0.47878E-15 0.26715E-14 0.46421E-14
 -.34694E-16 0.11803E-13 0.34694E-16 0.58079E-14 0.52042E-15 0.60646E-14 0.61756E-15 0.23592E-15 0.13184E-15 0.40523E-14
 -.69389E-17 0.12131E-11 0.60990E-12 0.31169E-11 0.23592E-15 0.45797E-15 0.20817E-15 0.13878E-16 0.35527E-14 0.29861E-12
 0.27756E-16 0.13606E-12 0.24356E-13 0.15953E-12 0.15821E-14 0.28172E-14 0.15266E-15 0.35805E-14 0.14710E-13 0.38393E-13
 0.97145E-16 0.74551E-13 0.16737E-13 0.16556E-13 0.34694E-16 0.46491E-14 0.41217E-14 0.29862E-12 0.38310E-13 0.25859E-12
 0.27756E-16 0.20817E-16 0.79797E-15 0.13878E-16 0.62450E-16 0.76328E-16 0.11102E-15 0.62450E-16 0.20817E-16 0.62450E-16
 0.20817E-16 0.20182E-12 0.57598E-11 0.23245E-13 0.11796E-15 0.12872E-13 0.82157E-14 0.14374E-11 0.18697E-12 0.90630E-12
 0.77022E-15 0.57599E-11 0.27276E-12 0.69389E-16 0.48572E-16 0.90206E-16 0.76328E-16 0.97310E-12 0.31669E-13 0.48767E-13
 0.90206E-16 0.23183E-13 0.83267E-16 0.27756E-15 0.83267E-16 0.95618E-14 0.41356E-14 0.29699E-11 0.17379E-12 0.36700E-13
 0.41633E-16 0.41633E-16 0.15959E-15 0.13878E-16 0.41633E-16 0.16653E-15 0.41633E-15 0.24980E-15 0.13184E-14 0.12490E-15
 0.48572E-16 0.12906E-13 0.76328E-16 0.95202E-14 0.13184E-15 0.20278E-09 0.42605E-14 0.43715E-15 0.21268E-14 0.28380E-14
 0.69389E-17 0.82226E-14 0.41633E-16 0.41009E-14 0.44409E-15 0.42674E-14 0.53429E-15 0.18735E-15 0.93675E-16 0.30878E-14
 0.41633E-16 0.14373E-11 0.97314E-12 0.29699E-11 0.21511E-15 0.43715E-15 0.18041E-15 0.27756E-16 0.34139E-14 0.28035E-12
  0.0000     0.18702E-12 0.31586E-13 0.17378E-12 0.13045E-14 0.21164E-14 0.81532E-16 0.34313E-14 0.14919E-13 0.35555E-13
 0.48572E-16 0.90629E-12 0.48711E-13 0.36707E-13 0.76328E-16 0.28103E-14 0.30462E-14 0.28030E-12 0.35541E-13 0.21397E-12
 -.83267E-16 0.69389E-17 0.54817E-15 -.13878E-16 0.13878E-16 0.48572E-16 0.20817E-16 -.48572E-16 -.41633E-16 -.13878E-16
 0.13878E-16 0.89422E-13 0.26201E-10 0.17278E-13 -.48572E-16 0.88332E-14 0.53915E-14 0.14633E-11 0.14987E-12 0.19899E-10
 0.63144E-15 0.26201E-10 0.28270E-12 0.69389E-17 -.83267E-16 0.41633E-16 0.62450E-16 0.90333E-12 0.19734E-13 0.14884E-13
 0.20817E-16 0.17153E-13 -.69389E-16 0.20817E-15 -.55511E-16 0.73969E-14 0.24217E-14 0.25618E-11 0.13822E-12 0.10592E-12
 0.13878E-16 -.12490E-15 0.20817E-16 -.27756E-16 0.13878E-16 0.62450E-16 0.27756E-15 0.11102E-15 0.11414E-14 0.97145E-16
 0.27756E-16 0.88887E-14 -.76328E-16 0.74524E-14 0.83267E-16 0.19370E-09 0.29109E-14 0.53950E-15 0.13045E-14 0.25327E-15
 0.34694E-16 0.53846E-14 0.90206E-16 0.23870E-14 0.31225E-15 0.29143E-14 0.31052E-15 0.54644E-16 0.86736E-17 0.21060E-14
 0.69389E-17 0.14633E-11 0.90326E-12 0.25618E-11 0.97145E-16 0.49613E-15 0.98012E-16 -.19082E-16 0.21580E-14 0.25582E-12
 -.69389E-17 0.14993E-12 0.19817E-13 0.13826E-12 0.11900E-14 0.14988E-14 -.34694E-17 0.21927E-14 0.14471E-13 0.30149E-13
 0.55511E-16 0.19898E-10 0.14898E-13 0.10601E-12 0.10408E-16 0.20123E-15 0.21268E-14 0.25571E-12 0.30094E-13 0.17037E-12
 0.13878E-15 0.62450E-16 0.77716E-15 0.13878E-16 0.13878E-15 0.55511E-16 0.76328E-16 0.41633E-16  0.0000     -.27756E-16
 0.13878E-16 0.78153E-13 0.15210E-10 0.14225E-13 0.97145E-16 0.87985E-14 0.40384E-14 0.15276E-11 0.21743E-12 0.25645E-10
 0.85348E-15 0.15210E-10 0.29596E-12 0.16653E-15 0.69389E-17 0.27756E-16 0.22204E-15 0.88080E-12 0.25674E-13 0.84932E-13
 0.20817E-16 0.14051E-13 0.62450E-16 0.36776E-15 0.12490E-15 0.96867E-14 0.17972E-14 0.24073E-11 0.15880E-12 0.10852E-13
 0.55511E-16 0.13878E-16 0.12490E-15 0.90206E-16 0.27756E-16 0.12490E-15 0.32613E-15 0.19429E-15 0.13912E-14 0.76328E-16
 0.13878E-15 0.87985E-14 0.13184E-15 0.94924E-14 0.12490E-15 0.10332E-09 0.26923E-14 0.33784E-15 0.17972E-14 0.10009E-14
 0.20817E-16 0.39829E-14 0.19429E-15 0.18319E-14 0.37470E-15 0.27478E-14 0.36776E-15 0.11102E-15 -.86736E-17 0.17989E-14
 0.41633E-16 0.15275E-11 0.88081E-12 0.24074E-11 0.16653E-15 0.37990E-15 0.19429E-15 0.86736E-18 0.34903E-14 0.21554E-12
 0.48572E-16 0.21750E-12 0.25646E-13 0.15881E-12 0.14364E-14 0.19706E-14 0.77629E-16 0.35145E-14 0.12414E-13 0.27867E-13
 0.97145E-16 0.25645E-10 0.84890E-13 0.10845E-13 0.34694E-16 0.10131E-14 0.18822E-14 0.21541E-12 0.27908E-13 0.21116E-12
 -.27756E-16 0.20817E-16 0.56899E-15 0.69389E-17 -.41633E-16 0.27756E-16  0.0000     0.41633E-16 0.69389E-17 0.27756E-16
 -.34694E-16 0.69500E-13 0.49831E-12 0.10152E-13 0.20817E-16 0.64532E-14 0.27825E-14 0.14480E-11 0.14630E-12 0.99641E-12
 0.63838E-15 0.49841E-12 0.33445E-12 -.27756E-16 -.55511E-16 -.11102E-15 -.55511E-16 0.61795E-12 0.17195E-13 0.25979E-13
 -.69389E-17 0.10117E-13 -.13878E-15 0.18041E-15 -.27756E-16 0.83267E-14 0.11727E-14 0.20687E-11 0.10800E-12 0.19434E-12
  0.0000     -.41633E-16 0.97145E-16 0.13878E-15 0.16653E-15 0.11102E-15 0.21511E-15 0.97145E-16 0.13080E-14 0.83267E-16
 0.55511E-16 0.65087E-14 -.97145E-16 0.83544E-14 0.13878E-16 0.13003E-10 0.16376E-14 0.40766E-15 0.92981E-15 -.55511E-16
 -.20817E-16 0.26715E-14 0.55511E-16 0.11657E-14 0.20817E-15 0.15821E-14 0.18735E-15 0.11102E-15 -.12143E-16 0.11414E-14
 0.13878E-16 0.14480E-11 0.61801E-12 0.20686E-11 0.48572E-16 0.44756E-15 0.18041E-15 -.71124E-16 0.20678E-14 0.21273E-12
 -.13878E-16 0.14631E-12 0.17222E-13 0.10803E-12 0.12629E-14 0.11657E-14 -.17347E-17 0.20886E-14 0.11598E-13 0.23551E-13
 0.11102E-15 0.99629E-12 0.25924E-13 0.19447E-12 0.55511E-16  0.0000     0.11692E-14 0.21257E-12 0.23530E-13 0.19935E-12
 0.41633E-16 0.27756E-16 0.80491E-15 0.69389E-16 0.97145E-16 0.41633E-16 0.83267E-16 0.69389E-16 -.27756E-16 0.27756E-16
 0.13878E-16 0.83544E-13 0.11896E-10 0.96867E-14 0.11796E-15 0.56621E-14 0.24772E-14 0.17144E-11 0.18083E-12 0.15749E-12
 0.88818E-15 0.11897E-10 0.32019E-12 0.55511E-16 0.55511E-16 0.13878E-16 0.13878E-15 0.85233E-12 0.21705E-13 0.30739E-13
 0.55511E-16 0.97422E-14 0.97145E-16 0.38858E-15 0.15266E-15 0.85904E-14 0.11657E-14 0.19440E-11 0.12017E-12 0.54914E-13
 -.27756E-16 -.20817E-16 0.22204E-15 -.13878E-16 0.11102E-15 0.11102E-15 0.19429E-15 0.12490E-15 0.15543E-14 0.55511E-16
 0.55511E-16 0.57454E-14 0.27756E-16 0.85904E-14 0.18041E-15 0.83042E-11 0.15959E-14 0.33307E-15 0.15543E-14 0.23592E-15
 -.55511E-16 0.24841E-14 0.16653E-15 0.10617E-14 0.26368E-15 0.15959E-14 0.25674E-15 0.55511E-16 0.79797E-16 0.11102E-14
  0.0000     0.17144E-11 0.85223E-12 0.19440E-11 0.41633E-16 0.36082E-15 0.55511E-16 0.48572E-16 0.28311E-14 0.18303E-12
 0.41633E-16 0.18087E-12 0.21663E-13 0.12021E-12 0.15821E-14 0.17764E-14 0.55511E-16 0.28311E-14 0.10068E-13 0.28089E-13
 0.55511E-16 0.15742E-12 0.30698E-13 0.54845E-13  0.0000     0.18735E-15 0.10270E-14 0.18297E-12 0.28144E-13 0.22982E-12
 -.27756E-16 -.55511E-16 0.63838E-15 -.41633E-16 0.27756E-16  0.0000     0.13878E-16 0.27756E-16 -.27756E-16 0.55511E-16
 -.69389E-16 0.94758E-13 0.99007E-11 0.77161E-14 -.27756E-16 0.47462E-14 0.17902E-14 0.16392E-11 0.12894E-12 0.38969E-13
 0.61062E-15 0.99008E-11 0.35111E-12  0.0000     -.55511E-16 -.11102E-15 0.69389E-16 0.91968E-12 0.14211E-13 0.28866E-14
 -.27756E-16 0.75495E-14 -.27756E-16 0.27756E-15 -.27756E-16 0.86042E-14 0.73552E-15 0.16725E-11 0.92912E-13 0.14234E-12
 0.55511E-16 -.55511E-16 -.55511E-16 -.16653E-15 0.83267E-16 0.27756E-16 0.16653E-15 0.11102E-15 0.13184E-14 0.11102E-15
 0.55511E-16 0.48017E-14 -.69389E-16 0.85210E-14 -.41633E-16 0.51848E-11 0.10963E-14 0.29143E-15 0.98532E-15 0.20817E-16
 0.27756E-16 0.18735E-14 0.83267E-16 0.51348E-15 0.12490E-15 0.11935E-14 0.27756E-15 0.83267E-16 -.13878E-16 0.77716E-15
 -.41633E-16 0.16393E-11 0.91963E-12 0.16725E-11 0.27756E-16 0.34694E-15 0.69389E-16 -.13878E-16 0.22482E-14 0.17047E-12
 -.27756E-16 0.12902E-12 0.14169E-13 0.92912E-13 0.14017E-14 0.12074E-14 -.27756E-16 0.22760E-14 0.95340E-14 0.23981E-13
  0.0000     0.38886E-13 0.28172E-14 0.14232E-12 -.11102E-15 0.27756E-16 0.80491E-15 0.17041E-12 0.23953E-13 0.24997E-12
 0.83267E-16 0.55511E-16 0.83267E-15 0.27756E-16 0.69389E-16 -.27756E-16 -.41633E-16 0.11102E-15 -.41633E-16 0.41633E-16
 0.41633E-16 0.15152E-12 0.18268E-10 0.70222E-14  0.0000     0.52458E-14 0.17208E-14 0.19037E-11 0.12342E-12 0.14030E-13
 0.88818E-15 0.18268E-10 0.36286E-12 0.27756E-16 -.83267E-16 -.13878E-16 0.11102E-15 0.12477E-11 0.14641E-13 0.13878E-14
 -.13878E-16 0.69805E-14 0.69389E-16 0.34694E-15 0.83267E-16 0.98810E-14 0.58287E-15 0.15554E-11 0.84086E-13 0.15030E-12
 0.27756E-16 -.55511E-16 -.27756E-16 0.41633E-16 0.55511E-16 0.69389E-16 0.18041E-15 0.83267E-16 0.16098E-14 0.83267E-16
 0.13878E-16 0.53013E-14  0.0000     0.98116E-14 0.11102E-15 0.22334E-11 0.98532E-15 0.29143E-15 0.10547E-14 0.97145E-16
 -.41633E-16 0.16515E-14 0.11102E-15 0.56899E-15 0.13878E-15 0.10131E-14 0.23592E-15 0.69389E-16 0.27756E-16 0.80491E-15
 0.27756E-16 0.19036E-11 0.12477E-11 0.15554E-11 0.41633E-16 0.30531E-15 0.55511E-16 0.13878E-16 0.21927E-14 0.16369E-12
 -.41633E-16 0.12347E-12 0.14641E-13 0.84155E-13 0.16792E-14 0.12074E-14 -.41633E-16 0.22621E-14 0.84377E-14 0.29060E-13
 0.69389E-16 0.13961E-13 0.12629E-14 0.15024E-12  0.0000     0.27756E-16 0.66613E-15 0.16365E-12 0.29046E-13 0.24888E-12
 0.27756E-16 0.34694E-16 0.87430E-15 0.83267E-16 0.83267E-16 -.55511E-16 -.13878E-16 -.13878E-16 0.13878E-16 0.69389E-16
 -.13878E-16 0.33330E-12 0.11159E-11 0.56066E-14 0.15266E-15 0.60507E-14 0.12490E-14 0.18972E-11 0.11063E-12 0.68556E-14
 0.86042E-15 0.11160E-11 0.43061E-12 0.55511E-16 0.16653E-15 0.97145E-16 0.41633E-16 0.12911E-11 0.12226E-13 0.13045E-14
  0.0000     0.55650E-14 0.55511E-16 0.40246E-15 0.83267E-16 0.93814E-14 0.54123E-15 0.13590E-11 0.77494E-13 0.99726E-13
 -.27756E-16 0.16653E-15 -.83267E-16 0.27756E-16 0.83267E-16 0.27756E-16 0.55511E-16 0.55511E-16 0.17764E-14 -.13878E-16
 -.27756E-16 0.61340E-14 0.55511E-16 0.94091E-14 0.83267E-16 0.37194E-11 0.84655E-15 0.24980E-15 0.11380E-14 0.55511E-16
  0.0000     0.12490E-14 0.69389E-16 0.44409E-15 0.97145E-16 0.92981E-15 0.22204E-15 0.55511E-16  0.0000     0.61062E-15
 0.13878E-16 0.18972E-11 0.12910E-11 0.13589E-11 0.27756E-16 0.24980E-15 0.11102E-15 0.97145E-16 0.25119E-14 0.14339E-12
 -.27756E-16 0.11074E-12 0.12254E-13 0.77563E-13 0.18319E-14 0.12768E-14 0.27756E-16 0.25119E-14 0.72164E-14 0.30434E-13
 0.48572E-16 0.67585E-14 0.12768E-14 0.99670E-13 -.13878E-16 0.55511E-16 0.55511E-15 0.14330E-12 0.30434E-13 0.35764E-12
 0.27756E-16 0.48572E-16 0.77022E-15 0.41633E-16 0.27756E-16 0.55511E-16  0.0000     0.27756E-16 0.69389E-17  0.0000    
 0.55511E-16 0.33286E-11 0.11754E-12 0.50515E-14  0.0000     0.71332E-14 0.12212E-14 0.19865E-11 0.93973E-13 0.33654E-14
 0.75634E-15 0.11766E-12 0.46721E-12 -.83267E-16  0.0000      0.0000     0.69389E-16 0.11279E-11 0.88818E-14 0.34001E-15
 0.55511E-16 0.50376E-14 0.13878E-16 0.47184E-15 0.97145E-16 0.13198E-13 0.47184E-15 0.12292E-11 0.56954E-13 0.13811E-12
 -.41633E-16 0.27756E-16 -.55511E-16 -.55511E-16 0.27756E-16 0.69389E-16 0.55511E-16 0.27756E-16 0.19984E-14 -.13878E-16
  0.0000     0.71887E-14 0.55511E-16 0.13226E-13  0.0000     0.18083E-11 0.87430E-15 0.23592E-15 0.14155E-14 0.13878E-16
 -.41633E-16 0.11657E-14 0.13878E-16 0.45797E-15 0.83267E-16 0.87430E-15 0.15266E-15 0.83267E-16 -.13878E-16 0.63838E-15
 -.27756E-16 0.19865E-11 0.11280E-11 0.12293E-11 0.27756E-16 0.22204E-15 0.27756E-16  0.0000     0.28311E-14 0.14556E-12
 -.20817E-16 0.94043E-13 0.88818E-14 0.57038E-13 0.20262E-14 0.14849E-14  0.0000     0.29698E-14 0.63421E-14 0.28963E-13
  0.0000     0.33029E-14 0.27756E-15 0.13800E-12  0.0000     -.27756E-16 0.63838E-15 0.14561E-12 0.28921E-13 0.35274E-12
 -.29490E-16 -.34694E-16 0.10894E-14 0.41633E-16 0.97145E-16 0.55511E-16 -.13878E-16 0.55511E-16 -.20817E-16 0.43368E-16
 -.31225E-16 0.24680E-11 0.37681E-12 0.51487E-14 -.27756E-16 0.81185E-14 0.16653E-14 0.22873E-11 0.10223E-12 0.18076E-14
 0.11380E-14 0.37691E-12 0.52375E-12 0.55511E-16 0.27756E-16 0.41633E-16 0.83267E-16 0.27244E-11 0.96312E-14 0.10408E-14
  0.0000     0.50931E-14 -.55511E-16 0.48572E-15 0.13878E-16 0.11796E-13 0.41633E-15 0.11481E-11 0.78798E-13 0.58314E-13
 0.13878E-16  0.0000     -.55511E-16 0.41633E-16 0.12490E-15 0.97145E-16 0.13878E-15 0.69389E-16 0.23315E-14 0.11102E-15
 0.69389E-16 0.81879E-14 -.41633E-16 0.11713E-13 0.11102E-15 0.42561E-11 0.12212E-14 0.24980E-15 0.12212E-14 0.69389E-16
 -.13878E-16 0.16515E-14 0.13878E-16 0.34694E-15 0.83267E-16 0.12212E-14 0.19429E-15 0.83267E-16 -.27756E-16 0.66613E-15
 -.13878E-16 0.22874E-11 0.27244E-11 0.11481E-11 0.13878E-16 0.19429E-15 0.11102E-15 0.41633E-16 0.29005E-14 0.17768E-12
 -.55511E-16 0.10223E-12 0.96451E-14 0.78881E-13 0.23453E-14 0.14017E-14 -.69389E-16 0.28866E-14 0.56621E-14 0.42036E-13
 0.69389E-17 0.17278E-14 0.10582E-14 0.58287E-13  0.0000     -.13878E-16 0.73552E-15 0.17762E-12 0.42036E-13 0.50093E-12
 0.10278E-15 0.11005E-16 0.11293E-14 0.71991E-16 0.98879E-16 0.53343E-16 0.79689E-17 0.74607E-16 0.39899E-16 0.50415E-16
 0.15965E-16 0.14571E-12 0.10311E-12 0.50969E-14 -.86736E-17 0.10868E-13 0.24425E-14 0.25866E-11 0.95253E-13 0.12588E-14
 0.11280E-14 0.10306E-12 0.62441E-12 0.26021E-16 0.10755E-15 0.94542E-16 0.61149E-16 0.87017E-11 0.82265E-14 0.23354E-15
 0.35128E-16 0.50872E-14 0.69389E-16 0.68175E-15 0.10582E-15 0.16386E-13 0.41113E-15 0.10547E-11 0.97695E-13 0.31503E-13