 vasp.5.4.4.18Apr17-6-g9f103f2a35 (build Jun 30 2017 11:15:00) complex          
  
 executed on    STALLO_VASP_5.4.4 date 2019.10.11  09:47:23
 running on    4 total cores
 distrk:  each k-point on    4 cores,    1 groups
 distr:  one band on NCORES_PER_BAND=   2 cores,    2 groups


--------------------------------------------------------------------------------------------------------


 INCAR:
 POTCAR:   PAW_PBE Cu 05Jan2001                   
 POTCAR:   PAW_PBE H 15Jun2001                    
 POTCAR:   PAW_PBE Cu 05Jan2001                   
   VRHFIN =Cu: d10 p1                                                           
   LEXCH  = PE                                                                  
   EATOM  =  1390.9800 eV,  102.2341 Ry                                         
                                                                                
   TITEL  = PAW_PBE Cu 05Jan2001                                                
   LULTRA =        F    use ultrasoft PP ?                                      
   IUNSCR =        1    unscreen: 0-lin 1-nonlin 2-no                           
   RPACOR =    2.000    partial core radius                                     
   POMASS =   63.546; ZVAL   =   11.000    mass and valenz                      
   RCORE  =    2.300    outmost cutoff radius                                   
   RWIGS  =    2.480; RWIGS  =    1.312    wigner-seitz radius (au A)           
   ENMAX  =  273.214; ENMIN  =  204.910 eV                                      
   RCLOC  =    1.712    cutoff for local pot                                    
   LCOR   =        T    correct aug charges                                     
   LPAW   =        T    paw PP                                                  
   EAUG   =  516.456                                                            
   DEXC   =    -.008                                                            
   RMAX   =    2.789    core radius for proj-oper                               
   RAUG   =    1.300    factor for augmentation sphere                          
   RDEP   =    2.302    radius for radial grids                                 
   QCUT   =   -4.481; QGAM   =    8.962    optimization parameters              
                                                                                
   Description                                                                  
     l     E      TYP  RCUT    TYP  RCUT                                        
     2   .000     23  2.300                                                     
     2   .000     23  2.300                                                     
     0   .000     23  2.300                                                     
     0   .000     23  2.300                                                     
     1  -.200     23  2.300                                                     
     1   .000     23  2.300                                                     
     3   .000      7   .000                                                     
  local pseudopotential read in
  partial core-charges read in
  atomic valenz-charges read in
  non local Contribution for L=           2  read in
    real space projection operators read in
  non local Contribution for L=           2  read in
    real space projection operators read in
  non local Contribution for L=           0  read in
    real space projection operators read in
  non local Contribution for L=           0  read in
    real space projection operators read in
  non local Contribution for L=           1  read in
    real space projection operators read in
  non local Contribution for L=           1  read in
    real space projection operators read in
    PAW grid and wavefunctions read in
 
   number of l-projection  operators is LMAX  =           6
   number of lm-projection operators is LMMAX =          18
 
 POTCAR:   PAW_PBE H 15Jun2001                    
   VRHFIN =H: ultrasoft test                                                    
   LEXCH  = PE                                                                  
   EATOM  =    12.4884 eV,     .9179 Ry                                         
                                                                                
   TITEL  = PAW_PBE H 15Jun2001                                                 
   LULTRA =        F    use ultrasoft PP ?                                      
   IUNSCR =        0    unscreen: 0-lin 1-nonlin 2-no                           
   RPACOR =     .000    partial core radius                                     
   POMASS =    1.000; ZVAL   =    1.000    mass and valenz                      
   RCORE  =    1.100    outmost cutoff radius                                   
   RWIGS  =     .700; RWIGS  =     .370    wigner-seitz radius (au A)           
   ENMAX  =  250.000; ENMIN  =  200.000 eV                                      
   RCLOC  =     .701    cutoff for local pot                                    
   LCOR   =        T    correct aug charges                                     
   LPAW   =        T    paw PP                                                  
   EAUG   =  400.000                                                            
   RMAX   =    2.174    core radius for proj-oper                               
   RAUG   =    1.200    factor for augmentation sphere                          
   RDEP   =    1.112    radius for radial grids                                 
   QCUT   =   -5.749; QGAM   =   11.498    optimization parameters              
                                                                                
   Description                                                                  
     l     E      TYP  RCUT    TYP  RCUT                                        
     0   .000     23  1.100                                                     
     0   .500     23  1.100                                                     
     1  -.300     23  1.100                                                     
  local pseudopotential read in
  atomic valenz-charges read in
  non local Contribution for L=           0  read in
    real space projection operators read in
  non local Contribution for L=           0  read in
    real space projection operators read in
  non local Contribution for L=           1  read in
    real space projection operators read in
    PAW grid and wavefunctions read in
 
   number of l-projection  operators is LMAX  =           3
   number of lm-projection operators is LMMAX =           5
 

 ----------------------------------------------------------------------------- 
|                                                                             |
|  ADVICE TO THIS USER RUNNING 'VASP/VAMP'   (HEAR YOUR MASTER'S VOICE ...):  |
|                                                                             |
|      You have a (more or less) 'small supercell' and for smaller cells      |
|      it is recommended  to use the reciprocal-space projection scheme!      |
|      The real space optimization is not  efficient for small cells and it   |
|      is also less accurate ...                                              |
|      Therefore set LREAL=.FALSE. in the  INCAR file                         |
|                                                                             |
 ----------------------------------------------------------------------------- 

 Optimization of the real space projectors (new method)

 maximal supplied QI-value         = 16.25
 optimisation between [QCUT,QGAM] = [  7.96, 16.09] = [ 17.76, 72.49] Ry 
 Optimized for a Real-space Cutoff    1.70 Angstroem

   l    n(q)    QCUT    max X(q) W(low)/X(q) W(high)/X(q)  e(spline) 
   2      7     7.963     4.977    0.65E-04    0.90E-04    0.59E-07
   2      7     7.963    13.467    0.48E-03    0.73E-03    0.12E-06
   0      8     7.963    13.303    0.22E-04    0.12E-04    0.51E-08
   0      8     7.963    44.613    0.10E-03    0.16E-03    0.47E-07
   1      8     7.963     5.276    0.66E-04    0.10E-04    0.22E-07
   1      8     7.963     7.322    0.38E-03    0.18E-03    0.17E-06
 Optimization of the real space projectors (new method)

 maximal supplied QI-value         = 34.20
 optimisation between [QCUT,QGAM] = [  7.87, 16.08] = [ 17.33, 72.37] Ry 
 Optimized for a Real-space Cutoff    1.85 Angstroem

   l    n(q)    QCUT    max X(q) W(low)/X(q) W(high)/X(q)  e(spline) 
   0      9     7.867     4.436    0.44E-04    0.71E-04    0.23E-06
   0      9     7.867    15.341    0.29E-03    0.73E-03    0.99E-06
   1      8     7.867     4.196    0.27E-03    0.13E-02    0.91E-06
 PAW_PBE Cu 05Jan2001                   :
 energy of atom  1       EATOM=-1390.9800
 kinetic energy error for atom=    0.0930 (will be added to EATOM!!)
 PAW_PBE H 15Jun2001                    :
 energy of atom  2       EATOM=  -12.4884
 kinetic energy error for atom=    0.0868 (will be added to EATOM!!)
 
 
 POSCAR: Cu  H                                   
  positions in direct lattice
  velocities in cartesian coordinates
 exchange correlation table for  LEXCH =        8
   RHO(1)=    0.500       N(1)  =     2000
   RHO(2)=  100.500       N(2)  =     4000
 


--------------------------------------------------------------------------------------------------------


 ion  position               nearest neighbor table
   1  0.000  0.000  0.396-   2 2.56   2 2.56   2 2.56
   2  0.333  0.333  0.465-   1 2.56   1 2.56   1 2.56   3 2.56   3 2.56   3 2.56
   3  0.667  0.667  0.534-   2 2.56   2 2.56   2 2.56   4 2.66   4 2.66   4 2.66
   4  0.000  0.000  0.607-   5 1.71   5 1.71   5 1.71   3 2.66   3 2.66   3 2.66
   5  0.333  0.333  0.635-   4 1.71   4 1.71   4 1.71
 
  LATTYP: Found a hexagonal cell.
 ALAT       =     2.5738686835
 C/A-ratio  =    11.7739747694
  
  Lattice vectors:
  
 A1 = (   1.2869343418,  -2.2290356659,   0.0000000000)
 A2 = (  -2.5738686835,   0.0000000000,   0.0000000000)
 A3 = (   0.0000000000,   0.0000000000, -30.3046649396)


Analysis of symmetry for initial positions (statically):
=====================================================================
 Subroutine PRICEL returns:
 Original cell was already a primitive cell.
 

 Routine SETGRP: Setting up the symmetry group for a 
 hexagonal supercell.


 Subroutine GETGRP returns: Found  6 space group operations
 (whereof  6 operations were pure point group operations)
 out of a pool of 24 trial point group operations.


The static configuration has the point symmetry C_3v.


Analysis of symmetry for dynamics (positions and initial velocities):
=====================================================================
 Subroutine PRICEL returns:
 Original cell was already a primitive cell.
 

 Routine SETGRP: Setting up the symmetry group for a 
 hexagonal supercell.


 Subroutine GETGRP returns: Found  6 space group operations
 (whereof  6 operations were pure point group operations)
 out of a pool of 24 trial point group operations.


The dynamic configuration has the point symmetry C_3v.


 Subroutine INISYM returns: Found  6 space group operations
 (whereof  6 operations are pure point group operations),
 and found     1 'primitive' translations

 
 
 KPOINTS: k-density: 4.0                          

Automatic generation of k-mesh.
Space group operators:
 irot       det(A)        alpha          n_x          n_y          n_z        tau_x        tau_y        tau_z
    1     1.000000     0.000001     1.000000     0.000000     0.000000     0.000000     0.000000     0.000000
    2     1.000000   120.000000     0.000000     0.000000     1.000000     0.000000     0.000000     0.000000
    3     1.000000   120.000000     0.000000     0.000000    -1.000000     0.000000     0.000000     0.000000
    4    -1.000000   180.000000     0.500000    -0.866025     0.000000     0.000000     0.000000     0.000000
    5    -1.000000   180.000000     1.000000     0.000000     0.000000     0.000000     0.000000     0.000000
    6    -1.000000   180.000000    -0.500000    -0.866025     0.000000     0.000000     0.000000     0.000000
 
 Subroutine IBZKPT returns following result:
 ===========================================
 
 Found     14 irreducible k-points:
 
 Following reciprocal coordinates:
            Coordinates               Weight
  0.000000  0.000000  0.000000      1.000000
  0.100000  0.000000  0.000000      6.000000
  0.200000 -0.000000  0.000000      6.000000
  0.300000 -0.000000  0.000000      6.000000
  0.400000 -0.000000  0.000000      6.000000
  0.500000 -0.000000  0.000000      3.000000
  0.200000  0.100000  0.000000      6.000000
  0.300000  0.100000  0.000000     12.000000
  0.400000  0.100000  0.000000     12.000000
  0.500000  0.100000  0.000000     12.000000
  0.400000  0.200000  0.000000      6.000000
  0.500000  0.200000  0.000000     12.000000
 -0.400000  0.200000  0.000000      6.000000
 -0.400000  0.300000  0.000000      6.000000
 
 Following cartesian coordinates:
            Coordinates               Weight
  0.000000  0.000000  0.000000      1.000000
  0.038852 -0.022431  0.000000      6.000000
  0.077704 -0.044862  0.000000      6.000000
  0.116556 -0.067294  0.000000      6.000000
  0.155408 -0.089725  0.000000      6.000000
  0.194260 -0.112156  0.000000      3.000000
  0.077704 -0.000000  0.000000      6.000000
  0.116556 -0.022431  0.000000     12.000000
  0.155408 -0.044862  0.000000     12.000000
  0.194260 -0.067294  0.000000     12.000000
  0.155408  0.000000  0.000000      6.000000
  0.194260 -0.022431  0.000000     12.000000
 -0.155408  0.179450  0.000000      6.000000
 -0.155408  0.224312  0.000000      6.000000
 


--------------------------------------------------------------------------------------------------------




 Dimension of arrays:
   k-points           NKPTS =     14   k-points in BZ     NKDIM =     14   number of bands    NBANDS=     28
   number of dos      NEDOS =   2401   number of ions     NIONS =      5
   non local maximal  LDIM  =      6   non local SUM 2l+1 LMDIM =     18
   total plane-waves  NPLWV =  12000
   max r-space proj   IRMAX =   1888   max aug-charges    IRDMAX=   2622
   dimension x,y,z NGX =    10 NGY =   10 NGZ =  120
   dimension x,y,z NGXF=    20 NGYF=   20 NGZF=  240
   support grid    NGXF=    20 NGYF=   20 NGZF=  240
   ions per type =               4   1
   NGX,Y,Z   is equivalent  to a cutoff of   6.46,  6.46,  6.58 a.u.
   NGXF,Y,Z  is equivalent  to a cutoff of  12.92, 12.92, 13.17 a.u.

 SYSTEM =  unknown system                          
 POSCAR =  Cu  H                                   

 Startparameter for this run:
   NWRITE =      2    write-flag & timer
   PREC   = normal    normal or accurate (medium, high low for compatibility)
   ISTART =      0    job   : 0-new  1-cont  2-samecut
   ICHARG =      2    charge: 1-file 2-atom 10-const
   ISPIN  =      1    spin polarized calculation?
   LNONCOLLINEAR =      F non collinear calculations
   LSORBIT =      F    spin-orbit coupling
   INIWAV =      1    electr: 0-lowe 1-rand  2-diag
   LASPH  =      F    aspherical Exc in radial PAW
   METAGGA=      F    non-selfconsistent MetaGGA calc.

 Electronic Relaxation 1
   ENCUT  =  250.0 eV  18.37 Ry    4.29 a.u.   3.32  3.32 39.07*2*pi/ulx,y,z
   ENINI  =  250.0     initial cutoff
   ENAUG  =  516.5 eV  augmentation charge cutoff
   NELM   =     60;   NELMIN=  4; NELMDL= -5     # of ELM steps 
   EDIFF  = 0.1E-05   stopping-criterion for ELM
   LREAL  =      T    real-space projection
   NLSPLINE    = F    spline interpolate recip. space projectors
   LCOMPAT=      F    compatible to vasp.4.4
   GGA_COMPAT  = T    GGA compatible to vasp.4.4-vasp.4.6
   LMAXPAW     = -100 max onsite density
   LMAXMIX     =    2 max onsite mixed and CHGCAR
   VOSKOWN=      0    Vosko Wilk Nusair interpolation
   ROPT   =   -0.00050  -0.00050
 Ionic relaxation
   EDIFFG = 0.1E-04   stopping-criterion for IOM
   NSW    =      0    number of steps for IOM
   NBLOCK =      1;   KBLOCK =      1    inner block; outer block 
   IBRION =     -1    ionic relax: 0-MD 1-quasi-New 2-CG
   NFREE  =      0    steps in history (QN), initial steepest desc. (CG)
   ISIF   =      2    stress and relaxation
   IWAVPR =     10    prediction:  0-non 1-charg 2-wave 3-comb
   ISYM   =      2    0-nonsym 1-usesym 2-fastsym
   LCORR  =      T    Harris-Foulkes like correction to forces

   POTIM  = 0.5000    time-step for ionic-motion
   TEIN   =    0.0    initial temperature
   TEBEG  =    0.0;   TEEND  =   0.0 temperature during run
   SMASS  =  -3.00    Nose mass-parameter (am)
   estimated Nose-frequenzy (Omega)   =  0.10E-29 period in steps =****** mass=  -0.151E-27a.u.
   SCALEE = 1.0000    scale energy and forces
   NPACO  =    256;   APACO  = 16.0  distance and # of slots for P.C.
   PSTRESS=    0.0 pullay stress

  Mass of Ions in am
   POMASS =  63.55  1.00
  Ionic Valenz
   ZVAL   =  11.00  1.00
  Atomic Wigner-Seitz radii
   RWIGS  =  -1.00 -1.00
  virtual crystal weights 
   VCA    =   1.00  1.00
   NELECT =      45.0000    total number of electrons
   NUPDOWN=      -1.0000    fix difference up-down

 DOS related values:
   EMIN   = -17.00;   EMAX   =  7.00  energy-range for DOS
   EFERMI =   0.00
   ISMEAR =     0;   SIGMA  =   0.10  broadening in eV -4-tet -1-fermi 0-gaus

 Electronic relaxation 2 (details)
   IALGO  =     68    algorithm
   LDIAG  =      T    sub-space diagonalisation (order eigenvalues)
   LSUBROT=      F    optimize rotation matrix (better conditioning)
   TURBO    =      0    0=normal 1=particle mesh
   IRESTART =      0    0=no restart 2=restart with 2 vectors
   NREBOOT  =      0    no. of reboots
   NMIN     =      0    reboot dimension
   EREF     =   0.00    reference energy to select bands
   IMIX   =      4    mixing-type and parameters
     AMIX     =   0.40;   BMIX     =  1.00
     AMIX_MAG =   1.60;   BMIX_MAG =  1.00
     AMIN     =   0.10
     WC   =   100.;   INIMIX=   1;  MIXPRE=   1;  MAXMIX= -45

 Intra band minimization:
   WEIMIN = 0.0000     energy-eigenvalue tresh-hold
   EBREAK =  0.89E-08  absolut break condition
   DEPER  =   0.30     relativ break condition  

   TIME   =   0.40     timestep for ELM

  volume/ion in A,a.u.               =      34.77       234.66
  Fermi-wavevector in a.u.,A,eV,Ry     =   1.043297  1.971546 14.809520  1.088469
  Thomas-Fermi vector in A             =   2.178000
 
 Write flags
   LWAVE        =      F    write WAVECAR
   LDOWNSAMPLE  =      F    k-point downsampling of WAVECAR
   LCHARG       =      T    write CHGCAR
   LVTOT        =      F    write LOCPOT, total local potential
   LVHAR        =      F    write LOCPOT, Hartree potential only
   LELF         =      T    write electronic localiz. function (ELF)
   LORBIT       =     11    0 simple, 1 ext, 2 COOP (PROOUT), +10 PAW based schemes


 Dipole corrections
   LMONO  =      F    monopole corrections only (constant potential shift)
   LDIPOL =      F    correct potential (dipole corrections)
   IDIPOL =      0    1-x, 2-y, 3-z, 4-all directions 
   EPSILON=  1.0000000 bulk dielectric constant

 Exchange correlation treatment:
   GGA     =    --    GGA type
   LEXCH   =     8    internal setting for exchange type
   VOSKOWN=      0    Vosko Wilk Nusair interpolation
   LHFCALC =     F    Hartree Fock is set to
   LHFONE  =     F    Hartree Fock one center treatment
   AEXX    =    0.0000 exact exchange contribution

 Linear response parameters
   LEPSILON=     F    determine dielectric tensor
   LRPA    =     F    only Hartree local field effects (RPA)
   LNABLA  =     F    use nabla operator in PAW spheres
   LVEL    =     F    velocity operator in full k-point grid
   LINTERFAST=   F  fast interpolation
   KINTER  =     0    interpolate to denser k-point grid
   CSHIFT  =0.1000    complex shift for real part using Kramers Kronig
   OMEGAMAX=  -1.0    maximum frequency
   DEG_THRESHOLD= 0.2000000E-02 threshold for treating states as degnerate
   RTIME   =   -0.100 relaxation time in fs
  (WPLASMAI=    0.000 imaginary part of plasma frequency in eV, 0.658/RTIME)
   DFIELD  = 0.0000000 0.0000000 0.0000000 field for delta impulse in time
 
 Orbital magnetization related:
   ORBITALMAG=     F  switch on orbital magnetization
   LCHIMAG   =     F  perturbation theory with respect to B field
   DQ        =  0.001000  dq finite difference perturbation B field
   LLRAUG    =     F  two centre corrections for induced B field



--------------------------------------------------------------------------------------------------------


 Static calculation
 charge density and potential will be updated during run
 non-spin polarized calculation
 RMM-DIIS sequential band-by-band and
  variant of blocked Davidson during initial phase
 perform sub-space diagonalisation
    before iterative eigenvector-optimisation
 modified Broyden-mixing scheme, WC =      100.0
 initial mixing is a Kerker type mixing with AMIX =  0.4000 and BMIX =      1.0000
 Hartree-type preconditioning will be used
 using additional bands            5
 real space projection scheme for non local part
 use partial core corrections
 calculate Harris-corrections to forces 
   (improved forces if not selfconsistent)
 use gradient corrections 
 use of overlap-Matrix (Vanderbilt PP)
 Gauss-broadening in eV      SIGMA  =   0.10


--------------------------------------------------------------------------------------------------------


  energy-cutoff  :      250.00
  volume of cell :      173.87
      direct lattice vectors                 reciprocal lattice vectors
     2.573868684  0.000000000  0.000000000     0.388520209 -0.224312248  0.000000000
     1.286934342  2.229035666  0.000000000     0.000000000  0.448624495  0.000000000
     0.000000000  0.000000000 30.304664940     0.000000000  0.000000000  0.032998220

  length of vectors
     2.573868684  2.573868684 30.304664940     0.448624495  0.448624495  0.032998220


 
 k-points in units of 2pi/SCALE and weight: k-density: 4.0                          
   0.00000000  0.00000000  0.00000000       0.010
   0.03885202 -0.02243122  0.00000000       0.060
   0.07770404 -0.04486245  0.00000000       0.060
   0.11655606 -0.06729367  0.00000000       0.060
   0.15540808 -0.08972490  0.00000000       0.060
   0.19426010 -0.11215612  0.00000000       0.030
   0.07770404 -0.00000000  0.00000000       0.060
   0.11655606 -0.02243122  0.00000000       0.120
   0.15540808 -0.04486245  0.00000000       0.120
   0.19426010 -0.06729367  0.00000000       0.120
   0.15540808  0.00000000  0.00000000       0.060
   0.19426010 -0.02243122  0.00000000       0.120
  -0.15540808  0.17944980  0.00000000       0.060
  -0.15540808  0.22431225  0.00000000       0.060
 
 k-points in reciprocal lattice and weights: k-density: 4.0                          
   0.00000000  0.00000000  0.00000000       0.010
   0.10000000  0.00000000  0.00000000       0.060
   0.20000000 -0.00000000  0.00000000       0.060
   0.30000000 -0.00000000  0.00000000       0.060
   0.40000000 -0.00000000  0.00000000       0.060
   0.50000000 -0.00000000  0.00000000       0.030
   0.20000000  0.10000000  0.00000000       0.060
   0.30000000  0.10000000  0.00000000       0.120
   0.40000000  0.10000000  0.00000000       0.120
   0.50000000  0.10000000  0.00000000       0.120
   0.40000000  0.20000000  0.00000000       0.060
   0.50000000  0.20000000  0.00000000       0.120
  -0.40000000  0.20000000  0.00000000       0.060
  -0.40000000  0.30000000  0.00000000       0.060
 
 position of ions in fractional coordinates (direct lattice) 
   0.00000000  0.00000000  0.39644015
   0.33333333  0.33333333  0.46515176
   0.66666667  0.66666667  0.53391621
   0.00000000  0.00000000  0.60674401
   0.33333333  0.33333333  0.63476745
 
 position of ions in cartesian coordinates  (Angst):
   0.00000000  0.00000000 12.01398579
   1.28693434  0.74301189 14.09626826
   2.57386868  1.48602378 16.18015174
   0.00000000  0.00000000 18.38717406
   1.28693434  0.74301189 19.23641497
 


--------------------------------------------------------------------------------------------------------


 k-point  1 :   0.0000 0.0000 0.0000  plane waves:    1609
 k-point  2 :   0.1000 0.0000 0.0000  plane waves:    1589
 k-point  3 :   0.2000-0.0000 0.0000  plane waves:    1586
 k-point  4 :   0.3000-0.0000 0.0000  plane waves:    1542
 k-point  5 :   0.4000-0.0000 0.0000  plane waves:    1568
 k-point  6 :   0.5000-0.0000 0.0000  plane waves:    1570
 k-point  7 :   0.2000 0.1000 0.0000  plane waves:    1579
 k-point  8 :   0.3000 0.1000 0.0000  plane waves:    1569
 k-point  9 :   0.4000 0.1000 0.0000  plane waves:    1552
 k-point 10 :   0.5000 0.1000 0.0000  plane waves:    1549
 k-point 11 :   0.4000 0.2000 0.0000  plane waves:    1545
 k-point 12 :   0.5000 0.2000 0.0000  plane waves:    1549
 k-point 13 :  -0.4000 0.2000 0.0000  plane waves:    1546
 k-point 14 :  -0.4000 0.3000 0.0000  plane waves:    1547

 maximum and minimum number of plane-waves per node :       808      768

 maximum number of plane-waves:      1609
 maximum index in each direction: 
   IXMAX=    3   IYMAX=    3   IZMAX=   39
   IXMIN=   -3   IYMIN=   -3   IZMIN=  -39


 real space projection operators:
  total allocation   :        841.52 KBytes
  max/ min on nodes  :        424.41        417.11


 parallel 3D FFT for wavefunctions:
    minimum data exchange during FFTs selected (reduces bandwidth)
 parallel 3D FFT for charge:
    minimum data exchange during FFTs selected (reduces bandwidth)


 total amount of memory used by VASP MPI-rank0    35975. kBytes
=======================================================================

   base      :      30000. kBytes
   nonlr-proj:        677. kBytes
   fftplans  :        995. kBytes
   grid      :       1592. kBytes
   one-center:         46. kBytes
   wavefun   :       2665. kBytes
 
     INWAV:  cpu time    0.0010: real time    0.0003
 Broyden mixing: mesh for mixing (old mesh)
   NGX =  7   NGY =  7   NGZ = 79
  (NGX  = 20   NGY  = 20   NGZ  =240)
  gives a total of   3871 points

 initial charge density was supplied:
 charge density of overlapping atoms calculated
 number of electron      45.0000000 magnetization 
 keeping initial charge density in first step


--------------------------------------------------------------------------------------------------------


 Maximum index for non-local projection operator          893
 Maximum index for augmentation-charges          590 (set IRDMAX)


--------------------------------------------------------------------------------------------------------


 First call to EWALD:  gamma=   0.318
 Maximum number of real-space cells 6x 6x 1
 Maximum number of reciprocal cells 2x 2x13

    FEWALD:  cpu time    0.0020: real time    0.0016


--------------------------------------- Iteration      1(   1)  ---------------------------------------


    POTLOK:  cpu time    0.0150: real time    0.0621
    SETDIJ:  cpu time    0.0040: real time    0.0043
     EDDAV:  cpu time    0.2740: real time    0.2806
       DOS:  cpu time    0.0030: real time    0.0025
    --------------------------------------------
      LOOP:  cpu time    0.2960: real time    0.3495

 eigenvalue-minimisations  :   808
 total energy-change (2. order) : 0.1996035E+03  (-0.1398233E+04)
 number of electron      45.0000000 magnetization 
 augmentation part       45.0000000 magnetization 

 Free energy of the ion-electron system (eV)
  ---------------------------------------------------
  alpha Z        PSCENC =       120.87645803
  Ewald energy   TEWEN  =     37788.96794314
  -Hartree energ DENC   =    -42909.86997825
  -exchange      EXHF   =         0.00000000
  -V(xc)+E(xc)   XCENC  =       177.44840005
  PAW double counting   =      4328.99049516    -4905.09836044
  entropy T*S    EENTRO =        -0.01168654
  eigenvalues    EBANDS =        22.35062358
  atomic energy  EATOM  =      5575.94961827
  Solvation  Ediel_sol  =         0.00000000
  ---------------------------------------------------
  free energy    TOTEN  =       199.60351299 eV

  energy without entropy =      199.61519953  energy(sigma->0) =      199.60935626


--------------------------------------------------------------------------------------------------------




--------------------------------------- Iteration      1(   2)  ---------------------------------------


     EDDAV:  cpu time    0.2800: real time    0.2812
       DOS:  cpu time    0.0030: real time    0.0026
    --------------------------------------------
      LOOP:  cpu time    0.2830: real time    0.2838

 eigenvalue-minimisations  :   848
 total energy-change (2. order) :-0.2104719E+03  (-0.2047174E+03)
 number of electron      45.0000000 magnetization 
 augmentation part       45.0000000 magnetization 

 Free energy of the ion-electron system (eV)
  ---------------------------------------------------
  alpha Z        PSCENC =       120.87645803
  Ewald energy   TEWEN  =     37788.96794314
  -Hartree energ DENC   =    -42909.86997825
  -exchange      EXHF   =         0.00000000
  -V(xc)+E(xc)   XCENC  =       177.44840005
  PAW double counting   =      4328.99049516    -4905.09836044
  entropy T*S    EENTRO =        -0.00793809
  eigenvalues    EBANDS =      -188.12502117
  atomic energy  EATOM  =      5575.94961827
  Solvation  Ediel_sol  =         0.00000000
  ---------------------------------------------------
  free energy    TOTEN  =       -10.86838330 eV

  energy without entropy =      -10.86044521  energy(sigma->0) =      -10.86441425


--------------------------------------------------------------------------------------------------------




--------------------------------------- Iteration      1(   3)  ---------------------------------------


     EDDAV:  cpu time    0.2870: real time    0.2881
       DOS:  cpu time    0.0020: real time    0.0026
    --------------------------------------------
      LOOP:  cpu time    0.2890: real time    0.2907

 eigenvalue-minimisations  :   876
 total energy-change (2. order) :-0.1019856E+02  (-0.1002076E+02)
 number of electron      45.0000000 magnetization 
 augmentation part       45.0000000 magnetization 

 Free energy of the ion-electron system (eV)
  ---------------------------------------------------
  alpha Z        PSCENC =       120.87645803
  Ewald energy   TEWEN  =     37788.96794314
  -Hartree energ DENC   =    -42909.86997825
  -exchange      EXHF   =         0.00000000
  -V(xc)+E(xc)   XCENC  =       177.44840005
  PAW double counting   =      4328.99049516    -4905.09836044
  entropy T*S    EENTRO =        -0.01015560
  eigenvalues    EBANDS =      -198.32136688
  atomic energy  EATOM  =      5575.94961827
  Solvation  Ediel_sol  =         0.00000000
  ---------------------------------------------------
  free energy    TOTEN  =       -21.06694653 eV

  energy without entropy =      -21.05679093  energy(sigma->0) =      -21.06186873


--------------------------------------------------------------------------------------------------------




--------------------------------------- Iteration      1(   4)  ---------------------------------------


     EDDAV:  cpu time    0.2850: real time    0.2845
       DOS:  cpu time    0.0030: real time    0.0026
    --------------------------------------------
      LOOP:  cpu time    0.2880: real time    0.2871

 eigenvalue-minimisations  :   860
 total energy-change (2. order) :-0.1163106E+00  (-0.1160013E+00)
 number of electron      45.0000000 magnetization 
 augmentation part       45.0000000 magnetization 

 Free energy of the ion-electron system (eV)
  ---------------------------------------------------
  alpha Z        PSCENC =       120.87645803
  Ewald energy   TEWEN  =     37788.96794314
  -Hartree energ DENC   =    -42909.86997825
  -exchange      EXHF   =         0.00000000
  -V(xc)+E(xc)   XCENC  =       177.44840005
  PAW double counting   =      4328.99049516    -4905.09836044
  entropy T*S    EENTRO =        -0.00988210
  eigenvalues    EBANDS =      -198.43795098
  atomic energy  EATOM  =      5575.94961827
  Solvation  Ediel_sol  =         0.00000000
  ---------------------------------------------------
  free energy    TOTEN  =       -21.18325713 eV

  energy without entropy =      -21.17337503  energy(sigma->0) =      -21.17831608


--------------------------------------------------------------------------------------------------------




--------------------------------------- Iteration      1(   5)  ---------------------------------------


     EDDAV:  cpu time    0.2970: real time    0.2981
       DOS:  cpu time    0.0030: real time    0.0026
    CHARGE:  cpu time    0.0170: real time    0.0168
    MIXING:  cpu time    0.0000: real time    0.0009
    --------------------------------------------
      LOOP:  cpu time    0.3170: real time    0.3184

 eigenvalue-minimisations  :   912
 total energy-change (2. order) :-0.1390149E-02  (-0.1389994E-02)
 number of electron      44.9999999 magnetization 
 augmentation part       26.7100330 magnetization 

 Broyden mixing:
  rms(total) = 0.14606E+01    rms(broyden)= 0.14603E+01
  rms(prec ) = 0.15110E+01
  weight for this iteration     100.00

 Free energy of the ion-electron system (eV)
  ---------------------------------------------------
  alpha Z        PSCENC =       120.87645803
  Ewald energy   TEWEN  =     37788.96794314
  -Hartree energ DENC   =    -42909.86997825
  -exchange      EXHF   =         0.00000000
  -V(xc)+E(xc)   XCENC  =       177.44840005
  PAW double counting   =      4328.99049516    -4905.09836044
  entropy T*S    EENTRO =        -0.00988138
  eigenvalues    EBANDS =      -198.43934186
  atomic energy  EATOM  =      5575.94961827
  Solvation  Ediel_sol  =         0.00000000
  ---------------------------------------------------
  free energy    TOTEN  =       -21.18464728 eV

  energy without entropy =      -21.17476590  energy(sigma->0) =      -21.17970659


--------------------------------------------------------------------------------------------------------




--------------------------------------- Iteration      1(   6)  ---------------------------------------


    POTLOK:  cpu time    0.0120: real time    0.0116
    SETDIJ:  cpu time    0.0030: real time    0.0032
    EDDIAG:  cpu time    0.0560: real time    0.0561
  RMM-DIIS:  cpu time    0.1560: real time    0.1566
    ORTHCH:  cpu time    0.0070: real time    0.0072
       DOS:  cpu time    0.0030: real time    0.0026
    CHARGE:  cpu time    0.0160: real time    0.0163
    MIXING:  cpu time    0.0010: real time    0.0006
    --------------------------------------------
      LOOP:  cpu time    0.2540: real time    0.2542

 eigenvalue-minimisations  :   849
 total energy-change (2. order) : 0.2006394E+01  (-0.4331347E+01)
 number of electron      44.9999999 magnetization 
 augmentation part       30.0499692 magnetization 

 Broyden mixing:
  rms(total) = 0.75289E+00    rms(broyden)= 0.75263E+00
  rms(prec ) = 0.79291E+00
  weight for this iteration     100.00

 eigenvalues of (default mixing * dielectric matrix)
  average eigenvalue GAMMA=   0.6650
  0.6650

 Free energy of the ion-electron system (eV)
  ---------------------------------------------------
  alpha Z        PSCENC =       120.87645803
  Ewald energy   TEWEN  =     37788.96794314
  -Hartree energ DENC   =    -42796.06852188
  -exchange      EXHF   =         0.00000000
  -V(xc)+E(xc)   XCENC  =       172.31654248
  PAW double counting   =      4216.41773464    -4757.51572523
  entropy T*S    EENTRO =        -0.00921378
  eigenvalues    EBANDS =      -340.11308935
  atomic energy  EATOM  =      5575.94961827
  Solvation  Ediel_sol  =         0.00000000
  ---------------------------------------------------
  free energy    TOTEN  =       -19.17825368 eV

  energy without entropy =      -19.16903990  energy(sigma->0) =      -19.17364679


--------------------------------------------------------------------------------------------------------




--------------------------------------- Iteration      1(   7)  ---------------------------------------


    POTLOK:  cpu time    0.0110: real time    0.0121
    SETDIJ:  cpu time    0.0040: real time    0.0032
    EDDIAG:  cpu time    0.0550: real time    0.0557
  RMM-DIIS:  cpu time    0.1610: real time    0.1608
    ORTHCH:  cpu time    0.0070: real time    0.0072
       DOS:  cpu time    0.0030: real time    0.0026
    CHARGE:  cpu time    0.0160: real time    0.0162
    MIXING:  cpu time    0.0000: real time    0.0005
    --------------------------------------------
      LOOP:  cpu time    0.2570: real time    0.2584

 eigenvalue-minimisations  :   860
 total energy-change (2. order) : 0.1604935E+01  (-0.7149510E+00)
 number of electron      44.9999999 magnetization 
 augmentation part       28.6949289 magnetization 

 Broyden mixing:
  rms(total) = 0.28965E+00    rms(broyden)= 0.28932E+00
  rms(prec ) = 0.40199E+00
  weight for this iteration     100.00

 eigenvalues of (default mixing * dielectric matrix)
  average eigenvalue GAMMA=   0.5375
  0.7152  0.3599

 Free energy of the ion-electron system (eV)
  ---------------------------------------------------
  alpha Z        PSCENC =       120.87645803
  Ewald energy   TEWEN  =     37788.96794314
  -Hartree energ DENC   =    -42840.42031563
  -exchange      EXHF   =         0.00000000
  -V(xc)+E(xc)   XCENC  =       173.99760039
  PAW double counting   =      4313.79620605    -4879.19079807
  entropy T*S    EENTRO =        -0.01312363
  eigenvalues    EBANDS =      -271.53690753
  atomic energy  EATOM  =      5575.94961827
  Solvation  Ediel_sol  =         0.00000000
  ---------------------------------------------------
  free energy    TOTEN  =       -17.57331898 eV

  energy without entropy =      -17.56019535  energy(sigma->0) =      -17.56675716


--------------------------------------------------------------------------------------------------------




--------------------------------------- Iteration      1(   8)  ---------------------------------------


    POTLOK:  cpu time    0.0120: real time    0.0135
    SETDIJ:  cpu time    0.0030: real time    0.0032
    EDDIAG:  cpu time    0.0560: real time    0.0559
  RMM-DIIS:  cpu time    0.1590: real time    0.1588
    ORTHCH:  cpu time    0.0070: real time    0.0072
       DOS:  cpu time    0.0030: real time    0.0027
    CHARGE:  cpu time    0.0160: real time    0.0164
    MIXING:  cpu time    0.0010: real time    0.0005
    --------------------------------------------
      LOOP:  cpu time    0.2570: real time    0.2581

 eigenvalue-minimisations  :   862
 total energy-change (2. order) : 0.2345697E+00  (-0.2221420E-01)
 number of electron      44.9999999 magnetization 
 augmentation part       28.7443753 magnetization 

 Broyden mixing:
  rms(total) = 0.14773E+00    rms(broyden)= 0.14753E+00
  rms(prec ) = 0.17042E+00
  weight for this iteration     100.00

 eigenvalues of (default mixing * dielectric matrix)
  average eigenvalue GAMMA=   0.7871
  1.5283  0.6160  0.2169

 Free energy of the ion-electron system (eV)
  ---------------------------------------------------
  alpha Z        PSCENC =       120.87645803
  Ewald energy   TEWEN  =     37788.96794314
  -Hartree energ DENC   =    -42842.86171350
  -exchange      EXHF   =         0.00000000
  -V(xc)+E(xc)   XCENC  =       173.93141383
  PAW double counting   =      4326.11211840    -4893.47855773
  entropy T*S    EENTRO =        -0.01655354
  eigenvalues    EBANDS =      -266.81947621
  atomic energy  EATOM  =      5575.94961827
  Solvation  Ediel_sol  =         0.00000000
  ---------------------------------------------------
  free energy    TOTEN  =       -17.33874930 eV

  energy without entropy =      -17.32219576  energy(sigma->0) =      -17.33047253


--------------------------------------------------------------------------------------------------------




--------------------------------------- Iteration      1(   9)  ---------------------------------------


    POTLOK:  cpu time    0.0110: real time    0.0115
    SETDIJ:  cpu time    0.0030: real time    0.0032
    EDDIAG:  cpu time    0.0550: real time    0.0556
  RMM-DIIS:  cpu time    0.1570: real time    0.1567
    ORTHCH:  cpu time    0.0070: real time    0.0072
       DOS:  cpu time    0.0020: real time    0.0026
    CHARGE:  cpu time    0.0170: real time    0.0164
    MIXING:  cpu time    0.0010: real time    0.0010
    --------------------------------------------
      LOOP:  cpu time    0.2530: real time    0.2542

 eigenvalue-minimisations  :   849
 total energy-change (2. order) : 0.6465341E-01  (-0.5866627E-02)
 number of electron      44.9999999 magnetization 
 augmentation part       28.7377809 magnetization 

 Broyden mixing:
  rms(total) = 0.74311E-01    rms(broyden)= 0.74303E-01
  rms(prec ) = 0.82992E-01
  weight for this iteration     100.00

 eigenvalues of (default mixing * dielectric matrix)
  average eigenvalue GAMMA=   0.8306
  1.8704  0.6048  0.6048  0.2426

 Free energy of the ion-electron system (eV)
  ---------------------------------------------------
  alpha Z        PSCENC =       120.87645803
  Ewald energy   TEWEN  =     37788.96794314
  -Hartree energ DENC   =    -42846.95423776
  -exchange      EXHF   =         0.00000000
  -V(xc)+E(xc)   XCENC  =       173.69932955
  PAW double counting   =      4362.58812740    -4935.12089650
  entropy T*S    EENTRO =        -0.01518856
  eigenvalues    EBANDS =      -257.26524945
  atomic energy  EATOM  =      5575.94961827
  Solvation  Ediel_sol  =         0.00000000
  ---------------------------------------------------
  free energy    TOTEN  =       -17.27409588 eV

  energy without entropy =      -17.25890732  energy(sigma->0) =      -17.26650160


--------------------------------------------------------------------------------------------------------




--------------------------------------- Iteration      1(  10)  ---------------------------------------


    POTLOK:  cpu time    0.0110: real time    0.0112
    SETDIJ:  cpu time    0.0040: real time    0.0032
    EDDIAG:  cpu time    0.0550: real time    0.0556
  RMM-DIIS:  cpu time    0.1590: real time    0.1593
    ORTHCH:  cpu time    0.0070: real time    0.0072
       DOS:  cpu time    0.0030: real time    0.0026
    CHARGE:  cpu time    0.0160: real time    0.0164
    MIXING:  cpu time    0.0010: real time    0.0006
    --------------------------------------------
      LOOP:  cpu time    0.2560: real time    0.2561

 eigenvalue-minimisations  :   859
 total energy-change (2. order) : 0.1518815E-01  (-0.2414136E-02)
 number of electron      44.9999999 magnetization 
 augmentation part       28.7584690 magnetization 

 Broyden mixing:
  rms(total) = 0.43750E-01    rms(broyden)= 0.43730E-01
  rms(prec ) = 0.47222E-01
  weight for this iteration     100.00

 eigenvalues of (default mixing * dielectric matrix)
  average eigenvalue GAMMA=   0.8942
  2.2156  0.9493  0.6612  0.2426  0.4023

 Free energy of the ion-electron system (eV)
  ---------------------------------------------------
  alpha Z        PSCENC =       120.87645803
  Ewald energy   TEWEN  =     37788.96794314
  -Hartree energ DENC   =    -42847.49632197
  -exchange      EXHF   =         0.00000000
  -V(xc)+E(xc)   XCENC  =       173.54446717
  PAW double counting   =      4380.98874575    -4955.76907593
  entropy T*S    EENTRO =        -0.01730596
  eigenvalues    EBANDS =      -254.30343625
  atomic energy  EATOM  =      5575.94961827
  Solvation  Ediel_sol  =         0.00000000
  ---------------------------------------------------
  free energy    TOTEN  =       -17.25890773 eV

  energy without entropy =      -17.24160178  energy(sigma->0) =      -17.25025476


--------------------------------------------------------------------------------------------------------




--------------------------------------- Iteration      1(  11)  ---------------------------------------


    POTLOK:  cpu time    0.0110: real time    0.0119
    SETDIJ:  cpu time    0.0040: real time    0.0032
    EDDIAG:  cpu time    0.0550: real time    0.0555
  RMM-DIIS:  cpu time    0.1610: real time    0.1619
    ORTHCH:  cpu time    0.0080: real time    0.0072
       DOS:  cpu time    0.0020: real time    0.0027
    CHARGE:  cpu time    0.0170: real time    0.0165
    MIXING:  cpu time    0.0010: real time    0.0006
    --------------------------------------------
      LOOP:  cpu time    0.2590: real time    0.2594

 eigenvalue-minimisations  :   878
 total energy-change (2. order) : 0.4054058E-02  (-0.6432774E-03)
 number of electron      44.9999999 magnetization 
 augmentation part       28.7725224 magnetization 

 Broyden mixing:
  rms(total) = 0.22464E-01    rms(broyden)= 0.22448E-01
  rms(prec ) = 0.29502E-01
  weight for this iteration     100.00

 eigenvalues of (default mixing * dielectric matrix)
  average eigenvalue GAMMA=   0.9254
  2.2575  1.3355  0.6635  0.6635  0.2392  0.3935

 Free energy of the ion-electron system (eV)
  ---------------------------------------------------
  alpha Z        PSCENC =       120.87645803
  Ewald energy   TEWEN  =     37788.96794314
  -Hartree energ DENC   =    -42848.96014142
  -exchange      EXHF   =         0.00000000
  -V(xc)+E(xc)   XCENC  =       173.47965920
  PAW double counting   =      4387.55048081    -4962.99048009
  entropy T*S    EENTRO =        -0.01782500
  eigenvalues    EBANDS =      -252.11056661
  atomic energy  EATOM  =      5575.94961827
  Solvation  Ediel_sol  =         0.00000000
  ---------------------------------------------------
  free energy    TOTEN  =       -17.25485368 eV

  energy without entropy =      -17.23702868  energy(sigma->0) =      -17.24594118


--------------------------------------------------------------------------------------------------------




--------------------------------------- Iteration      1(  12)  ---------------------------------------


    POTLOK:  cpu time    0.0110: real time    0.0126
    SETDIJ:  cpu time    0.0030: real time    0.0032
    EDDIAG:  cpu time    0.0560: real time    0.0557
  RMM-DIIS:  cpu time    0.1580: real time    0.1582
    ORTHCH:  cpu time    0.0070: real time    0.0072
       DOS:  cpu time    0.0030: real time    0.0026
    CHARGE:  cpu time    0.0160: real time    0.0166
    MIXING:  cpu time    0.0010: real time    0.0006
    --------------------------------------------
      LOOP:  cpu time    0.2550: real time    0.2567

 eigenvalue-minimisations  :   858
 total energy-change (2. order) : 0.1937465E-02  (-0.1947515E-03)
 number of electron      44.9999999 magnetization 
 augmentation part       28.7938833 magnetization 

 Broyden mixing:
  rms(total) = 0.92689E-02    rms(broyden)= 0.92213E-02
  rms(prec ) = 0.14025E-01
  weight for this iteration     100.00

 eigenvalues of (default mixing * dielectric matrix)
  average eigenvalue GAMMA=   1.0473
  2.2303  2.2303  0.9932  0.6391  0.6037  0.2390  0.3956

 Free energy of the ion-electron system (eV)
  ---------------------------------------------------
  alpha Z        PSCENC =       120.87645803
  Ewald energy   TEWEN  =     37788.96794314
  -Hartree energ DENC   =    -42850.96875925
  -exchange      EXHF   =         0.00000000
  -V(xc)+E(xc)   XCENC  =       173.42768754
  PAW double counting   =      4392.67768011    -4968.45368539
  entropy T*S    EENTRO =        -0.01635705
  eigenvalues    EBANDS =      -249.71350161
  atomic energy  EATOM  =      5575.94961827
  Solvation  Ediel_sol  =         0.00000000
  ---------------------------------------------------
  free energy    TOTEN  =       -17.25291621 eV

  energy without entropy =      -17.23655916  energy(sigma->0) =      -17.24473768


--------------------------------------------------------------------------------------------------------




--------------------------------------- Iteration      1(  13)  ---------------------------------------


    POTLOK:  cpu time    0.0110: real time    0.0115
    SETDIJ:  cpu time    0.0040: real time    0.0032
    EDDIAG:  cpu time    0.0540: real time    0.0554
  RMM-DIIS:  cpu time    0.1560: real time    0.1549
    ORTHCH:  cpu time    0.0060: real time    0.0072
       DOS:  cpu time    0.0030: real time    0.0026
    CHARGE:  cpu time    0.0160: real time    0.0166
    MIXING:  cpu time    0.0020: real time    0.0007
    --------------------------------------------
      LOOP:  cpu time    0.2520: real time    0.2520

 eigenvalue-minimisations  :   840
 total energy-change (2. order) : 0.5895572E-03  (-0.4923968E-04)
 number of electron      44.9999999 magnetization 
 augmentation part       28.7892082 magnetization 

 Broyden mixing:
  rms(total) = 0.49404E-02    rms(broyden)= 0.48987E-02
  rms(prec ) = 0.77330E-02
  weight for this iteration     100.00

 eigenvalues of (default mixing * dielectric matrix)
  average eigenvalue GAMMA=   1.1229
  2.4829  2.4829  1.3504  0.8046  0.2390  0.6645  0.5581  0.4007

 Free energy of the ion-electron system (eV)
  ---------------------------------------------------
  alpha Z        PSCENC =       120.87645803
  Ewald energy   TEWEN  =     37788.96794314
  -Hartree energ DENC   =    -42853.55639709
  -exchange      EXHF   =         0.00000000
  -V(xc)+E(xc)   XCENC  =       173.42973671
  PAW double counting   =      4394.68366122    -4970.60289428
  entropy T*S    EENTRO =        -0.01735109
  eigenvalues    EBANDS =      -246.98310156
  atomic energy  EATOM  =      5575.94961827
  Solvation  Ediel_sol  =         0.00000000
  ---------------------------------------------------
  free energy    TOTEN  =       -17.25232665 eV

  energy without entropy =      -17.23497556  energy(sigma->0) =      -17.24365111


--------------------------------------------------------------------------------------------------------




--------------------------------------- Iteration      1(  14)  ---------------------------------------


    POTLOK:  cpu time    0.0110: real time    0.0114
    SETDIJ:  cpu time    0.0030: real time    0.0032
    EDDIAG:  cpu time    0.0550: real time    0.0554
  RMM-DIIS:  cpu time    0.1550: real time    0.1542
    ORTHCH:  cpu time    0.0060: real time    0.0072
       DOS:  cpu time    0.0030: real time    0.0026
    CHARGE:  cpu time    0.0170: real time    0.0165
    MIXING:  cpu time    0.0000: real time    0.0007
    --------------------------------------------
      LOOP:  cpu time    0.2500: real time    0.2513

 eigenvalue-minimisations  :   834
 total energy-change (2. order) :-0.2334821E-05  (-0.1817902E-04)
 number of electron      44.9999999 magnetization 
 augmentation part       28.7869589 magnetization 

 Broyden mixing:
  rms(total) = 0.23749E-02    rms(broyden)= 0.23099E-02
  rms(prec ) = 0.33279E-02
  weight for this iteration     100.00

 eigenvalues of (default mixing * dielectric matrix)
  average eigenvalue GAMMA=   1.1149
  2.6680  2.6680  1.4365  0.8254  0.2390  0.7017  0.5976  0.4056  0.4919

 Free energy of the ion-electron system (eV)
  ---------------------------------------------------
  alpha Z        PSCENC =       120.87645803
  Ewald energy   TEWEN  =     37788.96794314
  -Hartree energ DENC   =    -42855.99039002
  -exchange      EXHF   =         0.00000000
  -V(xc)+E(xc)   XCENC  =       173.43671434
  PAW double counting   =      4394.95213221    -4970.87455150
  entropy T*S    EENTRO =        -0.01726585
  eigenvalues    EBANDS =      -244.55298761
  atomic energy  EATOM  =      5575.94961827
  Solvation  Ediel_sol  =         0.00000000
  ---------------------------------------------------
  free energy    TOTEN  =       -17.25232899 eV

  energy without entropy =      -17.23506314  energy(sigma->0) =      -17.24369607


--------------------------------------------------------------------------------------------------------




--------------------------------------- Iteration      1(  15)  ---------------------------------------


    POTLOK:  cpu time    0.0120: real time    0.0119
    SETDIJ:  cpu time    0.0030: real time    0.0032
    EDDIAG:  cpu time    0.0550: real time    0.0554
  RMM-DIIS:  cpu time    0.1500: real time    0.1501
    ORTHCH:  cpu time    0.0070: real time    0.0072
       DOS:  cpu time    0.0030: real time    0.0026
    CHARGE:  cpu time    0.0170: real time    0.0165
    MIXING:  cpu time    0.0000: real time    0.0007
    --------------------------------------------
      LOOP:  cpu time    0.2470: real time    0.2476

 eigenvalue-minimisations  :   815
 total energy-change (2. order) :-0.2381165E-03  (-0.8640052E-05)
 number of electron      44.9999999 magnetization 
 augmentation part       28.7889780 magnetization 

 Broyden mixing:
  rms(total) = 0.23391E-02    rms(broyden)= 0.22743E-02
  rms(prec ) = 0.33073E-02
  weight for this iteration     100.00

 eigenvalues of (default mixing * dielectric matrix)
  average eigenvalue GAMMA=   1.3476
  3.6614  2.9018  2.0588  1.2944  0.9573  0.2390  0.7613  0.6386  0.5602  0.4027

 Free energy of the ion-electron system (eV)
  ---------------------------------------------------
  alpha Z        PSCENC =       120.87645803
  Ewald energy   TEWEN  =     37788.96794314
  -Hartree energ DENC   =    -42857.69458109
  -exchange      EXHF   =         0.00000000
  -V(xc)+E(xc)   XCENC  =       173.43861725
  PAW double counting   =      4394.58872966    -4970.45111116
  entropy T*S    EENTRO =        -0.01714108
  eigenvalues    EBANDS =      -242.91110012
  atomic energy  EATOM  =      5575.94961827
  Solvation  Ediel_sol  =         0.00000000
  ---------------------------------------------------
  free energy    TOTEN  =       -17.25256710 eV

  energy without entropy =      -17.23542602  energy(sigma->0) =      -17.24399656


--------------------------------------------------------------------------------------------------------




--------------------------------------- Iteration      1(  16)  ---------------------------------------


    POTLOK:  cpu time    0.0120: real time    0.0126
    SETDIJ:  cpu time    0.0030: real time    0.0031
    EDDIAG:  cpu time    0.0550: real time    0.0555
  RMM-DIIS:  cpu time    0.1470: real time    0.1466
    ORTHCH:  cpu time    0.0070: real time    0.0072
       DOS:  cpu time    0.0030: real time    0.0026
    CHARGE:  cpu time    0.0160: real time    0.0165
    MIXING:  cpu time    0.0010: real time    0.0008
    --------------------------------------------
      LOOP:  cpu time    0.2440: real time    0.2449

 eigenvalue-minimisations  :   800
 total energy-change (2. order) :-0.3480013E-03  (-0.1236176E-04)
 number of electron      44.9999999 magnetization 
 augmentation part       28.7891456 magnetization 

 Broyden mixing:
  rms(total) = 0.11066E-02    rms(broyden)= 0.96482E-03
  rms(prec ) = 0.12113E-02
  weight for this iteration     100.00
  WARNING: grid for Broyden might be to small

 eigenvalues of (default mixing * dielectric matrix)
  average eigenvalue GAMMA=   1.3489
  4.2790  2.8450  2.1594  1.2591  1.0331  0.2390  0.4027  0.7088  0.7088  0.6279
  0.5756

 Free energy of the ion-electron system (eV)
  ---------------------------------------------------
  alpha Z        PSCENC =       120.87645803
  Ewald energy   TEWEN  =     37788.96794314
  -Hartree energ DENC   =    -42859.58437948
  -exchange      EXHF   =         0.00000000
  -V(xc)+E(xc)   XCENC  =       173.44320648
  PAW double counting   =      4393.79751706    -4969.62250529
  entropy T*S    EENTRO =        -0.01728090
  eigenvalues    EBANDS =      -241.06349241
  atomic energy  EATOM  =      5575.94961827
  Solvation  Ediel_sol  =         0.00000000
  ---------------------------------------------------
  free energy    TOTEN  =       -17.25291511 eV

  energy without entropy =      -17.23563420  energy(sigma->0) =      -17.24427466


--------------------------------------------------------------------------------------------------------




--------------------------------------- Iteration      1(  17)  ---------------------------------------


    POTLOK:  cpu time    0.0110: real time    0.0115
    SETDIJ:  cpu time    0.0030: real time    0.0031
    EDDIAG:  cpu time    0.0550: real time    0.0555
  RMM-DIIS:  cpu time    0.1510: real time    0.1504
    ORTHCH:  cpu time    0.0070: real time    0.0072
       DOS:  cpu time    0.0020: real time    0.0026
    CHARGE:  cpu time    0.0170: real time    0.0165
    MIXING:  cpu time    0.0010: real time    0.0008
    --------------------------------------------
      LOOP:  cpu time    0.2470: real time    0.2476

 eigenvalue-minimisations  :   806
 total energy-change (2. order) :-0.5295322E-04  (-0.1434646E-05)
 number of electron      44.9999999 magnetization 
 augmentation part       28.7884386 magnetization 

 Broyden mixing:
  rms(total) = 0.14721E-02    rms(broyden)= 0.13687E-02
  rms(prec ) = 0.20113E-02
  weight for this iteration     100.00

 eigenvalues of (default mixing * dielectric matrix)
  average eigenvalue GAMMA=   1.4614
  4.9913  3.0903  2.2666  1.9868  1.2781  0.9376  0.2390  0.7505  0.6358  0.5610
  0.4023  0.3970

 Free energy of the ion-electron system (eV)
  ---------------------------------------------------
  alpha Z        PSCENC =       120.87645803
  Ewald energy   TEWEN  =     37788.96794314
  -Hartree energ DENC   =    -42859.92899957
  -exchange      EXHF   =         0.00000000
  -V(xc)+E(xc)   XCENC  =       173.44430740
  PAW double counting   =      4393.77138296    -4969.60591881
  entropy T*S    EENTRO =        -0.01735022
  eigenvalues    EBANDS =      -240.71040927
  atomic energy  EATOM  =      5575.94961827
  Solvation  Ediel_sol  =         0.00000000
  ---------------------------------------------------
  free energy    TOTEN  =       -17.25296806 eV

  energy without entropy =      -17.23561784  energy(sigma->0) =      -17.24429295


--------------------------------------------------------------------------------------------------------




--------------------------------------- Iteration      1(  18)  ---------------------------------------


    POTLOK:  cpu time    0.0110: real time    0.0113
    SETDIJ:  cpu time    0.0040: real time    0.0032
    EDDIAG:  cpu time    0.0550: real time    0.0554
  RMM-DIIS:  cpu time    0.1310: real time    0.1316
    ORTHCH:  cpu time    0.0070: real time    0.0072
       DOS:  cpu time    0.0030: real time    0.0026
    CHARGE:  cpu time    0.0160: real time    0.0164
    MIXING:  cpu time    0.0010: real time    0.0009
    --------------------------------------------
      LOOP:  cpu time    0.2280: real time    0.2285

 eigenvalue-minimisations  :   698
 total energy-change (2. order) :-0.6093666E-04  (-0.1058151E-05)
 number of electron      44.9999999 magnetization 
 augmentation part       28.7883941 magnetization 

 Broyden mixing:
  rms(total) = 0.83265E-03    rms(broyden)= 0.63150E-03
  rms(prec ) = 0.99707E-03
  weight for this iteration     100.00
  WARNING: grid for Broyden might be to small

 eigenvalues of (default mixing * dielectric matrix)
  average eigenvalue GAMMA=   1.5602
  5.8459  3.4825  2.3411  2.3411  1.2429  1.0753  0.9669  0.2390  0.7557  0.6373
  0.5615  0.4026  0.3900

 Free energy of the ion-electron system (eV)
  ---------------------------------------------------
  alpha Z        PSCENC =       120.87645803
  Ewald energy   TEWEN  =     37788.96794314
  -Hartree energ DENC   =    -42860.52683454
  -exchange      EXHF   =         0.00000000
  -V(xc)+E(xc)   XCENC  =       173.44385698
  PAW double counting   =      4393.87975867    -4969.72938810
  entropy T*S    EENTRO =        -0.01726281
  eigenvalues    EBANDS =      -240.09717863
  atomic energy  EATOM  =      5575.94961827
  Solvation  Ediel_sol  =         0.00000000
  ---------------------------------------------------
  free energy    TOTEN  =       -17.25302900 eV

  energy without entropy =      -17.23576619  energy(sigma->0) =      -17.24439759


--------------------------------------------------------------------------------------------------------




--------------------------------------- Iteration      1(  19)  ---------------------------------------


    POTLOK:  cpu time    0.0120: real time    0.0112
    SETDIJ:  cpu time    0.0030: real time    0.0032
    EDDIAG:  cpu time    0.0550: real time    0.0555
  RMM-DIIS:  cpu time    0.1120: real time    0.1119
    ORTHCH:  cpu time    0.0070: real time    0.0072
       DOS:  cpu time    0.0030: real time    0.0027
    CHARGE:  cpu time    0.0160: real time    0.0165
    MIXING:  cpu time    0.0010: real time    0.0009
    --------------------------------------------
      LOOP:  cpu time    0.2090: real time    0.2090

 eigenvalue-minimisations  :   563
 total energy-change (2. order) :-0.3143954E-04  (-0.3090614E-06)
 number of electron      44.9999999 magnetization 
 augmentation part       28.7888132 magnetization 

 Broyden mixing:
  rms(total) = 0.70548E-03    rms(broyden)= 0.45520E-03
  rms(prec ) = 0.66432E-03
  weight for this iteration     100.00
  WARNING: grid for Broyden might be to small

 eigenvalues of (default mixing * dielectric matrix)
  average eigenvalue GAMMA=   1.6340
  5.8025  4.3099  2.4551  2.2448  1.8390  1.1462  1.1462  0.9495  0.2390  0.7538
  0.6373  0.5612  0.4027  0.3894

 Free energy of the ion-electron system (eV)
  ---------------------------------------------------
  alpha Z        PSCENC =       120.87645803
  Ewald energy   TEWEN  =     37788.96794314
  -Hartree energ DENC   =    -42860.74587540
  -exchange      EXHF   =         0.00000000
  -V(xc)+E(xc)   XCENC  =       173.44314222
  PAW double counting   =      4393.90512555    -4969.75062028
  entropy T*S    EENTRO =        -0.01726588
  eigenvalues    EBANDS =      -239.88158608
  atomic energy  EATOM  =      5575.94961827
  Solvation  Ediel_sol  =         0.00000000
  ---------------------------------------------------
  free energy    TOTEN  =       -17.25306044 eV

  energy without entropy =      -17.23579456  energy(sigma->0) =      -17.24442750


--------------------------------------------------------------------------------------------------------




--------------------------------------- Iteration      1(  20)  ---------------------------------------


    POTLOK:  cpu time    0.0110: real time    0.0117
    SETDIJ:  cpu time    0.0040: real time    0.0031
    EDDIAG:  cpu time    0.0550: real time    0.0556
  RMM-DIIS:  cpu time    0.1060: real time    0.1060
    ORTHCH:  cpu time    0.0070: real time    0.0072
       DOS:  cpu time    0.0020: real time    0.0027
    CHARGE:  cpu time    0.0170: real time    0.0164
    MIXING:  cpu time    0.0010: real time    0.0010
    --------------------------------------------
      LOOP:  cpu time    0.2030: real time    0.2036

 eigenvalue-minimisations  :   523
 total energy-change (2. order) :-0.2133889E-04  (-0.1332886E-06)
 number of electron      44.9999999 magnetization 
 augmentation part       28.7886454 magnetization 

 Broyden mixing:
  rms(total) = 0.58239E-03    rms(broyden)= 0.21939E-03
  rms(prec ) = 0.35825E-03
  weight for this iteration     100.00
  WARNING: grid for Broyden might be to small

 eigenvalues of (default mixing * dielectric matrix)
  average eigenvalue GAMMA=   1.7591
  6.6963  4.9485  2.6187  2.6187  2.0739  1.3124  1.0761  1.0761  0.9820  0.2390
  0.7537  0.6375  0.5612  0.4027  0.3892

 Free energy of the ion-electron system (eV)
  ---------------------------------------------------
  alpha Z        PSCENC =       120.87645803
  Ewald energy   TEWEN  =     37788.96794314
  -Hartree energ DENC   =    -42860.86784064
  -exchange      EXHF   =         0.00000000
  -V(xc)+E(xc)   XCENC  =       173.44310251
  PAW double counting   =      4393.94591562    -4969.79598547
  entropy T*S    EENTRO =        -0.01730925
  eigenvalues    EBANDS =      -239.75498397
  atomic energy  EATOM  =      5575.94961827
  Solvation  Ediel_sol  =         0.00000000
  ---------------------------------------------------
  free energy    TOTEN  =       -17.25308177 eV

  energy without entropy =      -17.23577252  energy(sigma->0) =      -17.24442715


--------------------------------------------------------------------------------------------------------




--------------------------------------- Iteration      1(  21)  ---------------------------------------


    POTLOK:  cpu time    0.0110: real time    0.0123
    SETDIJ:  cpu time    0.0040: real time    0.0031
    EDDIAG:  cpu time    0.0550: real time    0.0555
  RMM-DIIS:  cpu time    0.1030: real time    0.1025
    ORTHCH:  cpu time    0.0060: real time    0.0072
       DOS:  cpu time    0.0030: real time    0.0026
    CHARGE:  cpu time    0.0160: real time    0.0164
    MIXING:  cpu time    0.0010: real time    0.0010
    --------------------------------------------
      LOOP:  cpu time    0.1990: real time    0.2007

 eigenvalue-minimisations  :   500
 total energy-change (2. order) :-0.1473632E-04  (-0.8098830E-07)
 number of electron      44.9999999 magnetization 
 augmentation part       28.7888039 magnetization 

 Broyden mixing:
  rms(total) = 0.55473E-03    rms(broyden)= 0.13117E-03
  rms(prec ) = 0.18579E-03
  weight for this iteration     100.00
  WARNING: grid for Broyden might be to small

 eigenvalues of (default mixing * dielectric matrix)
  average eigenvalue GAMMA=   1.8605
  7.6096  5.1676  3.2004  2.5359  1.9778  1.9778  1.2416  1.0560  1.0560  0.9618
  0.2390  0.7534  0.6375  0.5611  0.4027  0.3892

 Free energy of the ion-electron system (eV)
  ---------------------------------------------------
  alpha Z        PSCENC =       120.87645803
  Ewald energy   TEWEN  =     37788.96794314
  -Hartree energ DENC   =    -42860.97190202
  -exchange      EXHF   =         0.00000000
  -V(xc)+E(xc)   XCENC  =       173.44318336
  PAW double counting   =      4393.92097774    -4969.76478793
  entropy T*S    EENTRO =        -0.01728751
  eigenvalues    EBANDS =      -239.65729957
  atomic energy  EATOM  =      5575.94961827
  Solvation  Ediel_sol  =         0.00000000
  ---------------------------------------------------
  free energy    TOTEN  =       -17.25309651 eV

  energy without entropy =      -17.23580900  energy(sigma->0) =      -17.24445275


--------------------------------------------------------------------------------------------------------




--------------------------------------- Iteration      1(  22)  ---------------------------------------


    POTLOK:  cpu time    0.0120: real time    0.0112
    SETDIJ:  cpu time    0.0030: real time    0.0031
    EDDIAG:  cpu time    0.0550: real time    0.0554
  RMM-DIIS:  cpu time    0.1030: real time    0.1033
    ORTHCH:  cpu time    0.0070: real time    0.0072
       DOS:  cpu time    0.0020: real time    0.0027
    CHARGE:  cpu time    0.0170: real time    0.0164
    MIXING:  cpu time    0.0010: real time    0.0010
    --------------------------------------------
      LOOP:  cpu time    0.2000: real time    0.2003

 eigenvalue-minimisations  :   492
 total energy-change (2. order) :-0.4365572E-05  (-0.2957085E-07)
 number of electron      44.9999999 magnetization 
 augmentation part       28.7885917 magnetization 

 Broyden mixing:
  rms(total) = 0.55286E-03    rms(broyden)= 0.12322E-03
  rms(prec ) = 0.15966E-03
  weight for this iteration     100.00
  WARNING: grid for Broyden might be to small

 eigenvalues of (default mixing * dielectric matrix)
  average eigenvalue GAMMA=   1.9274
  7.8491  5.8776  3.3813  2.6432  2.4673  2.0415  1.4243  0.2390  1.1491  1.0622
  0.9439  0.9439  0.7531  0.6375  0.5611  0.4027  0.3892

 Free energy of the ion-electron system (eV)
  ---------------------------------------------------
  alpha Z        PSCENC =       120.87645803
  Ewald energy   TEWEN  =     37788.96794314
  -Hartree energ DENC   =    -42861.01723660
  -exchange      EXHF   =         0.00000000
  -V(xc)+E(xc)   XCENC  =       173.44343512
  PAW double counting   =      4393.92905812    -4969.77531564
  entropy T*S    EENTRO =        -0.01730392
  eigenvalues    EBANDS =      -239.60975740
  atomic energy  EATOM  =      5575.94961827
  Solvation  Ediel_sol  =         0.00000000
  ---------------------------------------------------
  free energy    TOTEN  =       -17.25310088 eV

  energy without entropy =      -17.23579695  energy(sigma->0) =      -17.24444891


--------------------------------------------------------------------------------------------------------




--------------------------------------- Iteration      1(  23)  ---------------------------------------


    POTLOK:  cpu time    0.0110: real time    0.0112
    SETDIJ:  cpu time    0.0040: real time    0.0032
    EDDIAG:  cpu time    0.0550: real time    0.0556
  RMM-DIIS:  cpu time    0.1010: real time    0.1007
    ORTHCH:  cpu time    0.0070: real time    0.0072
       DOS:  cpu time    0.0020: real time    0.0027
    CHARGE:  cpu time    0.0170: real time    0.0164
    MIXING:  cpu time    0.0010: real time    0.0011
    --------------------------------------------
      LOOP:  cpu time    0.1980: real time    0.1980

 eigenvalue-minimisations  :   474
 total energy-change (2. order) :-0.1756703E-05  (-0.9479060E-08)
 number of electron      44.9999999 magnetization 
 augmentation part       28.7887212 magnetization 

 Broyden mixing:
  rms(total) = 0.53937E-03    rms(broyden)= 0.21790E-04
  rms(prec ) = 0.25767E-04
  weight for this iteration     100.00
  WARNING: grid for Broyden might be to small

 eigenvalues of (default mixing * dielectric matrix)
  average eigenvalue GAMMA=   1.9770
  8.5674  5.9250  3.7980  2.9349  2.4757  1.8790  1.8790  0.2390  1.1600  1.1600
  1.0241  0.9526  0.8470  0.7529  0.6375  0.5611  0.4027  0.3892

 Free energy of the ion-electron system (eV)
  ---------------------------------------------------
  alpha Z        PSCENC =       120.87645803
  Ewald energy   TEWEN  =     37788.96794314
  -Hartree energ DENC   =    -42861.02290624
  -exchange      EXHF   =         0.00000000
  -V(xc)+E(xc)   XCENC  =       173.44324960
  PAW double counting   =      4393.91923415    -4969.76500871
  entropy T*S    EENTRO =        -0.01729602
  eigenvalues    EBANDS =      -239.60439486
  atomic energy  EATOM  =      5575.94961827
  Solvation  Ediel_sol  =         0.00000000
  ---------------------------------------------------
  free energy    TOTEN  =       -17.25310263 eV

  energy without entropy =      -17.23580662  energy(sigma->0) =      -17.24445462


--------------------------------------------------------------------------------------------------------




--------------------------------------- Iteration      1(  24)  ---------------------------------------


    POTLOK:  cpu time    0.0110: real time    0.0111
    SETDIJ:  cpu time    0.0030: real time    0.0032
    EDDIAG:  cpu time    0.0550: real time    0.0554
  RMM-DIIS:  cpu time    0.0790: real time    0.0789
    ORTHCH:  cpu time    0.0070: real time    0.0072
       DOS:  cpu time    0.0030: real time    0.0027
    --------------------------------------------
      LOOP:  cpu time    0.1580: real time    0.1584

 eigenvalue-minimisations  :   130
 total energy-change (2. order) :-0.2152974E-06  (-0.1136021E-09)
 number of electron      44.9999999 magnetization 
 augmentation part       28.7887212 magnetization 

 Free energy of the ion-electron system (eV)
  ---------------------------------------------------
  alpha Z        PSCENC =       120.87645803
  Ewald energy   TEWEN  =     37788.96794314
  -Hartree energ DENC   =    -42861.02729038
  -exchange      EXHF   =         0.00000000
  -V(xc)+E(xc)   XCENC  =       173.44325908
  PAW double counting   =      4393.91665773    -4969.76243923
  entropy T*S    EENTRO =        -0.01729647
  eigenvalues    EBANDS =      -239.60001303
  atomic energy  EATOM  =      5575.94961827
  Solvation  Ediel_sol  =         0.00000000
  ---------------------------------------------------
  free energy    TOTEN  =       -17.25310285 eV

  energy without entropy =      -17.23580638  energy(sigma->0) =      -17.24445462


--------------------------------------------------------------------------------------------------------




 average (electrostatic) potential at core
  the test charge radii are     1.0053  0.5201
  (the norm of the test charge is              1.0000)
       1 -45.7110       2 -45.9465       3 -45.9140       4 -46.3273       5 -39.2009
 
 
 
 E-fermi :  -2.2712     XC(G=0):  -4.4230     alpha+bet : -2.7756


 k-point     1 :       0.0000    0.0000    0.0000
  band No.  band energies     occupation 
      1     -11.7513      2.00000
      2     -10.6544      2.00000
      3      -8.9534      2.00000
      4      -7.4630      2.00000
      5      -5.8217      2.00000
      6      -5.5899      2.00000
      7      -5.5896      2.00000
      8      -5.5405      2.00000
      9      -5.2377      2.00000
     10      -5.1970      2.00000
     11      -5.1967      2.00000
     12      -5.1663      2.00000
     13      -5.1661      2.00000
     14      -4.9208      2.00000
     15      -4.9205      2.00000
     16      -4.8017      2.00000
     17      -4.7251      2.00000
     18      -4.7251      2.00000
     19      -4.4240      2.00000
     20      -4.4240      2.00000
     21      -4.2042      2.00000
     22      -4.2041      2.00000
     23      -3.9225      2.00000
     24      -3.9224      2.00000
     25      -2.8446      2.00000
     26       1.6120      0.00000
     27       1.8990      0.00000
     28       2.3006      0.00000

 k-point     2 :       0.1000    0.0000    0.0000
  band No.  band energies     occupation 
      1     -11.4553      2.00000
      2     -10.3540      2.00000
      3      -8.6852      2.00000
      4      -7.2408      2.00000
      5      -5.9206      2.00000
      6      -5.7006      2.00000
      7      -5.5701      2.00000
      8      -5.4825      2.00000
      9      -5.3144      2.00000
     10      -5.2700      2.00000
     11      -5.2425      2.00000
     12      -5.0970      2.00000
     13      -5.0882      2.00000
     14      -5.0314      2.00000
     15      -4.9413      2.00000
     16      -4.8410      2.00000
     17      -4.7318      2.00000
     18      -4.6236      2.00000
     19      -4.4407      2.00000
     20      -4.4034      2.00000
     21      -4.2300      2.00000
     22      -4.2004      2.00000
     23      -3.9175      2.00000
     24      -3.7011      2.00000
     25      -2.1570      0.10605
     26       1.8619      0.00000
     27       2.2009      0.00000
     28       2.6028      0.00000

 k-point     3 :       0.2000   -0.0000    0.0000
  band No.  band energies     occupation 
      1     -10.6171      2.00000
      2      -9.5006      2.00000
      3      -7.9829      2.00000
      4      -6.7131      2.00000
      5      -6.1957      2.00000
      6      -5.8412      2.00000
      7      -5.6998      2.00000
      8      -5.6094      2.00000
      9      -5.4285      2.00000
     10      -5.2173      2.00000
     11      -5.2076      2.00000
     12      -5.1354      2.00000
     13      -4.9867      2.00000
     14      -4.9413      2.00000
     15      -4.8461      2.00000
     16      -4.7829      2.00000
     17      -4.7236      2.00000
     18      -4.5488      2.00000
     19      -4.4981      2.00000
     20      -4.3879      2.00000
     21      -4.2018      2.00000
     22      -4.0160      2.00000
     23      -3.9110      2.00000
     24      -2.8158      2.00000
     25      -0.8252      0.00000
     26       2.6047      0.00000
     27       3.1052      0.00000
     28       3.5087      0.00000

 k-point     4 :       0.3000   -0.0000    0.0000
  band No.  band energies     occupation 
      1      -9.4549      2.00000
      2      -8.3015      2.00000
      3      -7.2659      2.00000
      4      -6.4934      2.00000
      5      -6.2864      2.00000
      6      -6.0854      2.00000
      7      -5.7972      2.00000
      8      -5.5913      2.00000
      9      -5.4962      2.00000
     10      -5.2254      2.00000
     11      -5.0996      2.00000
     12      -4.9909      2.00000
     13      -4.8634      2.00000
     14      -4.7676      2.00000
     15      -4.7562      2.00000
     16      -4.5915      2.00000
     17      -4.4755      2.00000
     18      -4.3072      2.00000
     19      -4.2637      2.00000
     20      -4.1915      2.00000
     21      -4.0709      2.00000
     22      -3.8961      2.00000
     23      -3.5459      2.00000
     24      -1.6355      0.00000
     25       0.8422      0.00000
     26       3.7928      0.00000
     27       4.5511      0.00000
     28       4.9141      0.00000

 k-point     5 :       0.4000   -0.0000    0.0000
  band No.  band energies     occupation 
      1      -8.5875      2.00000
      2      -7.2749      2.00000
      3      -6.9449      2.00000
      4      -6.5576      2.00000
      5      -6.4049      2.00000
      6      -6.2189      2.00000
      7      -5.8605      2.00000
      8      -5.4219      2.00000
      9      -5.2724      2.00000
     10      -5.2005      2.00000
     11      -5.1745      2.00000
     12      -4.9115      2.00000
     13      -4.7172      2.00000
     14      -4.4562      2.00000
     15      -4.3757      2.00000
     16      -4.3157      2.00000
     17      -4.0397      2.00000
     18      -4.0353      2.00000
     19      -3.9730      2.00000
     20      -3.8978      2.00000
     21      -3.7534      2.00000
     22      -3.5106      2.00000
     23      -2.4890      1.99793
     24      -0.2581      0.00000
     25       1.6606      0.00000
     26       2.8821      0.00000
     27       3.6595      0.00000
     28       4.7428      0.00000

 k-point     6 :       0.5000   -0.0000    0.0000
  band No.  band energies     occupation 
      1      -8.3661      2.00000
      2      -6.9558      2.00000
      3      -6.9017      2.00000
      4      -6.5326      2.00000
      5      -6.4761      2.00000
      6      -6.2781      2.00000
      7      -5.8492      2.00000
      8      -5.3452      2.00000
      9      -5.2067      2.00000
     10      -5.1791      2.00000
     11      -5.1123      2.00000
     12      -4.9327      2.00000
     13      -4.4094      2.00000
     14      -4.3980      2.00000
     15      -4.3025      2.00000
     16      -4.2039      2.00000
     17      -3.9800      2.00000
     18      -3.8792      2.00000
     19      -3.8183      2.00000
     20      -3.6378      2.00000
     21      -3.5687      2.00000
     22      -2.1890      0.24495
     23      -1.2880      0.00000
     24      -0.7454      0.00000
     25       0.4671      0.00000
     26       2.1950      0.00000
     27       3.3508      0.00000
     28       4.2166      0.00000

 k-point     7 :       0.2000    0.1000    0.0000
  band No.  band energies     occupation 
      1     -10.8862      2.00000
      2      -9.7750      2.00000
      3      -8.1943      2.00000
      4      -6.8530      2.00000
      5      -6.1166      2.00000
      6      -5.7660      2.00000
      7      -5.6981      2.00000
      8      -5.5488      2.00000
      9      -5.3913      2.00000
     10      -5.2897      2.00000
     11      -5.2572      2.00000
     12      -5.0958      2.00000
     13      -5.0381      2.00000
     14      -4.9960      2.00000
     15      -4.8868      2.00000
     16      -4.8077      2.00000
     17      -4.6391      2.00000
     18      -4.5546      2.00000
     19      -4.5297      2.00000
     20      -4.3993      2.00000
     21      -4.2848      2.00000
     22      -4.0177      2.00000
     23      -3.9571      2.00000
     24      -3.0695      2.00000
     25      -1.2157      0.00000
     26       2.3593      0.00000
     27       2.8044      0.00000
     28       3.2071      0.00000

 k-point     8 :       0.3000    0.1000    0.0000
  band No.  band energies     occupation 
      1      -9.8669      2.00000
      2      -8.7283      2.00000
      3      -7.4524      2.00000
      4      -6.4292      2.00000
      5      -6.2267      2.00000
      6      -5.9720      2.00000
      7      -5.8039      2.00000
      8      -5.7121      2.00000
      9      -5.5437      2.00000
     10      -5.2418      2.00000
     11      -5.2118      2.00000
     12      -5.1111      2.00000
     13      -5.0072      2.00000
     14      -4.8714      2.00000
     15      -4.8173      2.00000
     16      -4.7081      2.00000
     17      -4.5577      2.00000
     18      -4.4203      2.00000
     19      -4.2968      2.00000
     20      -4.2278      2.00000
     21      -4.0813      2.00000
     22      -3.9762      2.00000
     23      -3.6573      2.00000
     24      -2.0617      0.00305
     25       0.2387      0.00000
     26       3.3552      0.00000
     27       4.0030      0.00000
     28       4.4242      0.00000

 k-point     9 :       0.4000    0.1000    0.0000
  band No.  band energies     occupation 
      1      -8.8058      2.00000
      2      -7.5606      2.00000
      3      -6.9465      2.00000
      4      -6.4726      2.00000
      5      -6.2560      2.00000
      6      -6.1080      2.00000
      7      -5.8529      2.00000
      8      -5.5971      2.00000
      9      -5.5099      2.00000
     10      -5.2502      2.00000
     11      -5.1796      2.00000
     12      -5.0381      2.00000
     13      -4.8748      2.00000
     14      -4.6831      2.00000
     15      -4.5805      2.00000
     16      -4.4562      2.00000
     17      -4.3532      2.00000
     18      -4.2109      2.00000
     19      -4.1053      2.00000
     20      -3.9155      2.00000
     21      -3.8770      2.00000
     22      -3.5658      2.00000
     23      -2.7813      2.00000
     24      -0.6642      0.00000
     25       1.9260      0.00000
     26       3.8492      0.00000
     27       4.6895      0.00000
     28       5.2829      0.00000

 k-point    10 :       0.5000    0.1000    0.0000
  band No.  band energies     occupation 
      1      -8.3243      2.00000
      2      -6.8904      2.00000
      3      -6.8000      2.00000
      4      -6.4611      2.00000
      5      -6.3765      2.00000
      6      -6.1736      2.00000
      7      -5.8504      2.00000
      8      -5.5011      2.00000
      9      -5.3337      2.00000
     10      -5.2644      2.00000
     11      -5.1546      2.00000
     12      -4.9206      2.00000
     13      -4.7868      2.00000
     14      -4.4724      2.00000
     15      -4.3516      2.00000
     16      -4.1900      2.00000
     17      -4.0859      2.00000
     18      -4.0311      2.00000
     19      -3.9575      2.00000
     20      -3.8026      2.00000
     21      -3.3611      2.00000
     22      -2.2855      1.16016
     23      -1.2729      0.00000
     24       0.1872      0.00000
     25       0.9149      0.00000
     26       2.5236      0.00000
     27       3.5586      0.00000
     28       4.7344      0.00000

 k-point    11 :       0.4000    0.2000    0.0000
  band No.  band energies     occupation 
      1      -8.8949      2.00000
      2      -7.6629      2.00000
      3      -6.9086      2.00000
      4      -6.3570      2.00000
      5      -6.1246      2.00000
      6      -5.9605      2.00000
      7      -5.8962      2.00000
      8      -5.7897      2.00000
      9      -5.5118      2.00000
     10      -5.3812      2.00000
     11      -5.2736      2.00000
     12      -5.2369      2.00000
     13      -4.9469      2.00000
     14      -4.8715      2.00000
     15      -4.7156      2.00000
     16      -4.5591      2.00000
     17      -4.3889      2.00000
     18      -4.2351      2.00000
     19      -4.1420      2.00000
     20      -3.9167      2.00000
     21      -3.8702      2.00000
     22      -3.5090      2.00000
     23      -2.7783      2.00000
     24      -0.7929      0.00000
     25       1.7828      0.00000
     26       4.6049      0.00000
     27       5.1789      0.00000
     28       5.6588      0.00000

 k-point    12 :       0.5000    0.2000    0.0000
  band No.  band energies     occupation 
      1      -8.2493      2.00000
      2      -6.7656      2.00000
      3      -6.5729      2.00000
      4      -6.3431      2.00000
      5      -6.1466      2.00000
      6      -6.0401      2.00000
      7      -5.8388      2.00000
      8      -5.7412      2.00000
      9      -5.5082      2.00000
     10      -5.4318      2.00000
     11      -5.3539      2.00000
     12      -5.0051      2.00000
     13      -4.9207      2.00000
     14      -4.7762      2.00000
     15      -4.5967      2.00000
     16      -4.4816      2.00000
     17      -4.3203      2.00000
     18      -4.1412      2.00000
     19      -3.9751      2.00000
     20      -3.8228      2.00000
     21      -3.1645      2.00000
     22      -2.2940      1.25235
     23      -1.1535      0.00000
     24       0.8484      0.00000
     25       2.4588      0.00000
     26       3.5948      0.00000
     27       4.4098      0.00000
     28       5.0844      0.00000

 k-point    13 :      -0.4000    0.2000    0.0000
  band No.  band energies     occupation 
      1      -8.0897      2.00000
      2      -6.5341      2.00000
      3      -6.5076      2.00000
      4      -6.2475      2.00000
      5      -6.2025      2.00000
      6      -5.9893      2.00000
      7      -5.8382      2.00000
      8      -5.7773      2.00000
      9      -5.5076      2.00000
     10      -5.3824      2.00000
     11      -5.2982      2.00000
     12      -5.0377      2.00000
     13      -4.8673      2.00000
     14      -4.6401      2.00000
     15      -4.5063      2.00000
     16      -4.4336      2.00000
     17      -4.2119      2.00000
     18      -4.0647      2.00000
     19      -3.9926      2.00000
     20      -3.8897      2.00000
     21      -2.3319      1.60909
     22      -0.6079      0.00000
     23      -0.0215      0.00000
     24       0.7370      0.00000
     25       0.9581      0.00000
     26       2.7864      0.00000
     27       4.1416      0.00000
     28       4.5680      0.00000

 k-point    14 :      -0.4000    0.3000    0.0000
  band No.  band energies     occupation 
      1      -7.9848      2.00000
      2      -6.3163      2.00000
      3      -6.2602      2.00000
      4      -6.1828      2.00000
      5      -6.0766      2.00000
      6      -5.9385      2.00000
      7      -5.9069      2.00000
      8      -5.7863      2.00000
      9      -5.6559      2.00000
     10      -5.5636      2.00000
     11      -5.3647      2.00000
     12      -4.9834      2.00000
     13      -4.9335      2.00000
     14      -4.8103      2.00000
     15      -4.6127      2.00000
     16      -4.4619      2.00000
     17      -4.3828      2.00000
     18      -4.0953      2.00000
     19      -4.0080      2.00000
     20      -3.9139      2.00000
     21      -1.8745      0.00000
     22      -0.2916      0.00000
     23       0.8799      0.00000
     24       1.8101      0.00000
     25       2.4312      0.00000
     26       2.4498      0.00000
     27       3.2979      0.00000
     28       4.1230      0.00000


--------------------------------------------------------------------------------------------------------


 soft charge-density along one line, spin component           1
         0         1         2         3         4         5         6         7         8         9
 total charge-density along one line
 
 pseudopotential strength for first ion, spin component:           1
-10.767   0.000   0.000  -0.004   0.000   1.707  -0.000  -0.000
  0.000 -10.747  -0.000   0.000  -0.004  -0.000   1.697   0.000
  0.000  -0.000 -10.748  -0.000   0.000  -0.000   0.000   1.697
 -0.004   0.000  -0.000 -10.747   0.000   0.002  -0.000   0.000
  0.000  -0.004   0.000   0.000 -10.768  -0.000   0.002  -0.000
  1.707  -0.000  -0.000   0.002  -0.000   0.791   0.000   0.000
 -0.000   1.697   0.000  -0.000   0.002   0.000   0.796  -0.000
 -0.000   0.000   1.697   0.000  -0.000   0.000  -0.000   0.796
  0.002  -0.000   0.000   1.697  -0.000  -0.001   0.000  -0.000
 -0.000   0.002  -0.000  -0.000   1.707   0.000  -0.001   0.000
  0.000   0.000  -0.005   0.000   0.000   0.000   0.000   0.001
 -0.000  -0.000   0.000  -0.000  -0.000   0.000   0.000  -0.000
  0.000  -0.011  -0.000  -0.000   0.000  -0.000   0.006  -0.000
 -0.000   0.000  -0.011   0.000  -0.000  -0.000  -0.000   0.006
  0.000  -0.000  -0.000  -0.011   0.000  -0.000  -0.000  -0.000
 -0.000   0.006   0.000   0.000  -0.000   0.000  -0.003  -0.000
  0.000   0.000   0.006   0.000   0.000  -0.000  -0.000  -0.003
 -0.000   0.000   0.000   0.006  -0.000   0.000  -0.000  -0.000
 total augmentation occupancy for first ion, spin component:           1
  1.927   0.000  -0.000  -0.002  -0.000  -0.003   0.000   0.000   0.010   0.000   0.000   0.000   0.000  -0.000   0.006   0.000
  0.000   1.932   0.000   0.000  -0.002   0.000  -0.034  -0.000   0.000   0.010   0.000   0.000  -0.002  -0.000   0.000  -0.005
 -0.000   0.000   1.934   0.000  -0.000   0.000  -0.000  -0.025  -0.000   0.000   0.016   0.040  -0.000   0.036   0.000   0.000
 -0.002   0.000   0.000   1.932   0.000   0.010  -0.000  -0.000  -0.034  -0.000   0.000  -0.000   0.000   0.000  -0.002  -0.000
 -0.000  -0.002  -0.000  -0.000   1.927  -0.000   0.010   0.000  -0.000  -0.003   0.000  -0.000   0.006  -0.000  -0.000  -0.001
 -0.003   0.000   0.000   0.010   0.000   0.060  -0.000  -0.000   0.001  -0.000   0.000   0.000  -0.000  -0.000   0.005   0.000
  0.000  -0.034  -0.000   0.000   0.010  -0.000   0.039  -0.000   0.000   0.001   0.000  -0.000   0.031  -0.000   0.000  -0.003
  0.000  -0.000  -0.025  -0.000   0.000  -0.000  -0.000   0.056   0.000  -0.000  -0.074   0.013  -0.000   0.042  -0.000   0.000
  0.010  -0.000  -0.000  -0.034  -0.000   0.001   0.000  -0.000   0.039  -0.000   0.000   0.000   0.000  -0.000   0.031   0.000
  0.000   0.010   0.000  -0.000  -0.003  -0.000   0.001  -0.000   0.000   0.060   0.000  -0.000   0.005  -0.000   0.000  -0.000
  0.000  -0.000   0.016   0.000  -0.000   0.000   0.000  -0.074   0.000   0.000   1.243  -0.281   0.000   0.072   0.000   0.000
  0.000   0.000   0.040  -0.000  -0.000   0.000   0.000   0.013   0.000  -0.000  -0.281   0.109   0.000  -0.045  -0.000  -0.000
  0.000  -0.002  -0.000   0.000   0.006  -0.000   0.031  -0.000   0.000   0.005   0.000   0.000   0.171   0.000   0.000  -0.010
 -0.000  -0.000   0.036   0.000  -0.000  -0.000  -0.000   0.042  -0.000  -0.000   0.072  -0.045   0.000   0.091   0.000   0.000
  0.006   0.000   0.000  -0.002  -0.000   0.005   0.000   0.000   0.031   0.000   0.000  -0.000   0.000  -0.000   0.171   0.000
  0.000  -0.005   0.000  -0.000  -0.001   0.000  -0.003   0.000   0.000  -0.000   0.000  -0.000  -0.010   0.000   0.000   0.001
  0.000   0.000  -0.008   0.000   0.000   0.000  -0.000  -0.002   0.000   0.000  -0.013   0.006  -0.000  -0.007   0.000  -0.000
 -0.001  -0.000   0.000  -0.005   0.000  -0.000   0.000   0.000  -0.003   0.000   0.000   0.000   0.000   0.000  -0.010   0.000


------------------------ aborting loop because EDIFF is reached ----------------------------------------


 


 total charge     
 
# of ion       s       p       d       tot
------------------------------------------
    1        0.456   0.286   9.219   9.961
    2        0.443   0.369   9.221  10.033
    3        0.449   0.356   9.210  10.015
    4        0.423   0.461   9.207  10.091
    5        0.526   0.018   0.000   0.544
--------------------------------------------------
tot          2.298   1.490  36.857  40.645
 
    CHARGE:  cpu time    0.0170: real time    0.0164
    FORLOC:  cpu time    0.0010: real time    0.0014
    FORNL :  cpu time    0.0820: real time    0.0820
    STRESS:  cpu time    0.2480: real time    0.2483
    FORCOR:  cpu time    0.0120: real time    0.0114
    FORHAR:  cpu time    0.0030: real time    0.0030
    MIXING:  cpu time    0.0010: real time    0.0011
    OFIELD:  cpu time    0.0000: real time    0.0000

  FORCE on cell =-STRESS in cart. coord.  units (eV):
  Direction    XX          YY          ZZ          XY          YZ          ZX
  --------------------------------------------------------------------------------------
  Alpha Z   120.87646   120.87646   120.87646
  Ewald   40722.84676 40722.84676-43656.72920    -0.00000    -0.00000    -0.00000
  Hartree 42034.27462 42034.27461-41207.51285     0.00002    -0.00001    -0.00002
  E(xc)    -253.09288  -253.09134  -253.69240    -0.00134     0.00020     0.00035
  Local  -83023.67440-83023.68006 84594.08706     0.00490    -0.00081    -0.00140
  n-local  -158.23228  -153.94240  -156.89427     2.55312     0.08024     0.03855
  augment   225.45408   225.46316   226.87381    -0.00786     0.00271     0.00470
  Kinetic   337.45321   311.57834   327.69339    -9.93583    -1.42536     1.34901
  Fock        0.00000     0.00000     0.00000     0.00000     0.00000     0.00000
  -------------------------------------------------------------------------------------
  Total      -4.88445    -4.88445    -5.29801     0.00000     0.00000     0.00000
  in kB     -45.01041   -45.01041   -48.82143     0.00000     0.00000     0.00000
  external pressure =      -46.28 kB  Pullay stress =        0.00 kB


 VOLUME and BASIS-vectors are now :
 -----------------------------------------------------------------------------
  energy-cutoff  :      250.00
  volume of cell :      173.87
      direct lattice vectors                 reciprocal lattice vectors
     2.573868684  0.000000000  0.000000000     0.388520209 -0.224312248  0.000000000
     1.286934342  2.229035666  0.000000000     0.000000000  0.448624495  0.000000000
     0.000000000  0.000000000 30.304664940     0.000000000  0.000000000  0.032998220

  length of vectors
     2.573868684  2.573868684 30.304664940     0.448624495  0.448624495  0.032998220


 FORCES acting on ions
    electron-ion (+dipol)            ewald-force                    non-local-force                 convergence-correction
 -----------------------------------------------------------------------------------------------
   -.348E-03 -.201E-03 0.421E+04   0.881E-12 0.379E-12 -.421E+04   0.260E-17 0.000E+00 -.156E+01   -.202E-08 -.116E-08 -.322E-03
   -.103E-03 -.596E-04 0.148E+04   -.249E-11 -.120E-11 -.148E+04   -.217E-18 -.108E-18 -.748E+00   -.402E-09 -.232E-09 -.840E-03
   0.866E-04 0.500E-04 -.126E+04   0.204E-11 0.117E-11 0.126E+04   0.347E-17 0.173E-17 0.308E+00   0.109E-08 0.629E-09 -.100E-02
   0.215E-03 0.124E-03 -.397E+04   0.948E-12 0.590E-12 0.397E+04   0.694E-16 0.833E-16 0.519E+00   -.689E-08 -.398E-08 -.738E-03
   0.942E-04 0.544E-04 -.470E+03   -.153E-11 -.906E-12 0.471E+03   0.000E+00 0.000E+00 -.140E+01   -.231E-09 -.133E-09 0.301E-04
 -----------------------------------------------------------------------------------------------
   -.554E-04 -.320E-04 0.288E+01   -.150E-12 0.336E-13 0.682E-12   0.752E-16 0.849E-16 -.288E+01   -.845E-08 -.488E-08 -.287E-02
 
 
 POSITION                                       TOTAL-FORCE (eV/Angst)
 -----------------------------------------------------------------------------------
      0.00000      0.00000     12.01399         0.000000      0.000000      0.061897
      1.28693      0.74301     14.09627        -0.000000     -0.000000     -0.004543
      2.57387      1.48602     16.18015        -0.000000     -0.000000      0.023058
      0.00000      0.00000     18.38717         0.000000      0.000000     -0.026374
      1.28693      0.74301     19.23641        -0.000000     -0.000000     -0.054037
 -----------------------------------------------------------------------------------
    total drift:                               -0.000055     -0.000032      0.002067


--------------------------------------------------------------------------------------------------------



  FREE ENERGIE OF THE ION-ELECTRON SYSTEM (eV)
  ---------------------------------------------------
  free  energy   TOTEN  =       -17.25310285 eV

  energy  without entropy=      -17.23580638  energy(sigma->0) =      -17.24445462
 


--------------------------------------------------------------------------------------------------------


    POTLOK:  cpu time    0.0140: real time    0.0142


--------------------------------------------------------------------------------------------------------


     LOOP+:  cpu time    6.3840: real time   11.1204
    4ORBIT:  cpu time    0.0000: real time    0.0000
 


 total charge     
 
# of ion       s       p       d       tot
------------------------------------------
    1        0.456   0.286   9.219   9.961
    2        0.443   0.369   9.221  10.033
    3        0.449   0.356   9.210  10.015
    4        0.423   0.461   9.207  10.091
    5        0.526   0.018   0.000   0.544
--------------------------------------------------
tot          2.298   1.490  36.857  40.645
 

 total amount of memory used by VASP MPI-rank0    35975. kBytes
=======================================================================

   base      :      30000. kBytes
   nonlr-proj:        677. kBytes
   fftplans  :        995. kBytes
   grid      :       1592. kBytes
   one-center:         46. kBytes
   wavefun   :       2665. kBytes
 
  
  
 General timing and accounting informations for this job:
 ========================================================
  
                  Total CPU time used (sec):        7.536
                            User time (sec):        7.371
                          System time (sec):        0.165
                         Elapsed time (sec):       12.577
  
                   Maximum memory used (kb):       35752.
                   Average memory used (kb):           0.
  
                          Minor page faults:        12211
                          Major page faults:          142
                 Voluntary context switches:         2783
