PROCAR lm decomposed
# of k-points:   14         # of bands:   28         # of ions:    5

 k-point     1 :    0.00000000 0.00000000 0.00000000     weight = 0.01000000

band     1 # energy  -11.75130335 # occ.  2.00000000
 
ion      s     py     pz     px    dxy    dyz    dz2    dxz  x2-y2    tot
    1  0.003  0.000  0.000  0.000  0.000  0.000  0.000  0.000  0.000  0.004
    2  0.022  0.000  0.001  0.000  0.000  0.000  0.000  0.000  0.000  0.023
    3  0.085  0.000  0.003  0.000  0.000  0.000  0.000  0.000  0.000  0.088
    4  0.347  0.000  0.002  0.000  0.000  0.000  0.019  0.000  0.000  0.368
    5  0.126  0.000  0.001  0.000  0.000  0.000  0.000  0.000  0.000  0.127
tot    0.583  0.000  0.008  0.000  0.000  0.000  0.019  0.000  0.000  0.610
 
band     2 # energy  -10.65443891 # occ.  2.00000000
 
ion      s     py     pz     px    dxy    dyz    dz2    dxz  x2-y2    tot
    1  0.116  0.000  0.011  0.000  0.000  0.000  0.000  0.000  0.000  0.127
    2  0.285  0.000  0.000  0.000  0.000  0.000  0.002  0.000  0.000  0.287
    3  0.084  0.000  0.015  0.000  0.000  0.000  0.001  0.000  0.000  0.099
    4  0.037  0.000  0.008  0.000  0.000  0.000  0.011  0.000  0.000  0.056
    5  0.028  0.000  0.000  0.000  0.000  0.000  0.000  0.000  0.000  0.028
tot    0.551  0.000  0.033  0.000  0.000  0.000  0.014  0.000  0.000  0.598
 
band     3 # energy   -8.95336715 # occ.  2.00000000
 
ion      s     py     pz     px    dxy    dyz    dz2    dxz  x2-y2    tot
    1  0.199  0.000  0.002  0.000  0.000  0.000  0.020  0.000  0.000  0.221
    2  0.004  0.000  0.048  0.000  0.000  0.000  0.001  0.000  0.000  0.054
    3  0.215  0.000  0.000  0.000  0.000  0.000  0.036  0.000  0.000  0.251
    4  0.004  0.000  0.026  0.000  0.000  0.000  0.026  0.000  0.000  0.056
    5  0.023  0.000  0.000  0.000  0.000  0.000  0.000  0.000  0.000  0.023
tot    0.445  0.000  0.076  0.000  0.000  0.000  0.084  0.000  0.000  0.605
 
band     4 # energy   -7.46301935 # occ.  2.00000000
 
ion      s     py     pz     px    dxy    dyz    dz2    dxz  x2-y2    tot
    1  0.105  0.000  0.005  0.000  0.000  0.000  0.133  0.000  0.000  0.243
    2  0.099  0.000  0.002  0.000  0.000  0.000  0.236  0.000  0.000  0.337
    3  0.034  0.000  0.014  0.000  0.000  0.000  0.086  0.000  0.000  0.135
    4  0.000  0.000  0.010  0.000  0.000  0.000  0.017  0.000  0.000  0.027
    5  0.004  0.000  0.000  0.000  0.000  0.000  0.000  0.000  0.000  0.004
tot    0.241  0.000  0.032  0.000  0.000  0.000  0.472  0.000  0.000  0.746
 
band     5 # energy   -5.82173448 # occ.  2.00000000
 
ion      s     py     pz     px    dxy    dyz    dz2    dxz  x2-y2    tot
    1  0.000  0.000  0.000  0.000  0.000  0.000  0.001  0.000  0.000  0.001
    2  0.000  0.000  0.001  0.000  0.000  0.000  0.020  0.000  0.000  0.021
    3  0.002  0.000  0.000  0.000  0.000  0.000  0.006  0.000  0.000  0.009
    4  0.000  0.000  0.021  0.000  0.000  0.000  0.764  0.000  0.000  0.786
    5  0.025  0.000  0.002  0.000  0.000  0.000  0.000  0.000  0.000  0.027
tot    0.027  0.000  0.025  0.000  0.000  0.000  0.792  0.000  0.000  0.844
 
band     6 # energy   -5.58986910 # occ.  2.00000000
 
ion      s     py     pz     px    dxy    dyz    dz2    dxz  x2-y2    tot
    1  0.000  0.000  0.000  0.000  0.000  0.000  0.000  0.000  0.000  0.000
    2  0.000  0.000  0.000  0.000  0.001  0.000  0.000  0.000  0.002  0.002
    3  0.000  0.000  0.000  0.000  0.000  0.011  0.000  0.004  0.001  0.016
    4  0.000  0.000  0.000  0.000  0.235  0.006  0.000  0.002  0.704  0.947
    5  0.000  0.002  0.000  0.001  0.000  0.000  0.000  0.000  0.000  0.002
tot    0.000  0.002  0.000  0.001  0.236  0.018  0.000  0.006  0.707  0.968
 
band     7 # energy   -5.58960540 # occ.  2.00000000
 
ion      s     py     pz     px    dxy    dyz    dz2    dxz  x2-y2    tot
    1  0.000  0.000  0.000  0.000  0.000  0.000  0.000  0.000  0.000  0.000
    2  0.000  0.000  0.000  0.000  0.002  0.000  0.000  0.000  0.001  0.002
    3  0.000  0.000  0.000  0.000  0.001  0.004  0.000  0.011  0.000  0.016
    4  0.000  0.000  0.000  0.000  0.704  0.002  0.000  0.006  0.235  0.947
    5  0.000  0.001  0.000  0.002  0.000  0.000  0.000  0.000  0.000  0.002
tot    0.000  0.001  0.000  0.002  0.707  0.006  0.000  0.018  0.236  0.968
 
band     8 # energy   -5.54050648 # occ.  2.00000000
 
ion      s     py     pz     px    dxy    dyz    dz2    dxz  x2-y2    tot
    1  0.000  0.000  0.001  0.000  0.000  0.000  0.058  0.000  0.000  0.060
    2  0.003  0.000  0.003  0.000  0.000  0.000  0.000  0.000  0.000  0.005
    3  0.002  0.000  0.015  0.000  0.000  0.000  0.668  0.000  0.000  0.685
    4  0.007  0.000  0.042  0.000  0.000  0.000  0.049  0.000  0.000  0.099
    5  0.017  0.000  0.000  0.000  0.000  0.000  0.000  0.000  0.000  0.017
tot    0.029  0.000  0.061  0.000  0.000  0.000  0.776  0.000  0.000  0.866
 
band     9 # energy   -5.23769217 # occ.  2.00000000
 
ion      s     py     pz     px    dxy    dyz    dz2    dxz  x2-y2    tot
    1  0.001  0.000  0.005  0.000  0.000  0.000  0.279  0.000  0.000  0.285
    2  0.004  0.000  0.000  0.000  0.000  0.000  0.559  0.000  0.000  0.563
    3  0.001  0.000  0.010  0.000  0.000  0.000  0.064  0.000  0.000  0.075
    4  0.001  0.000  0.005  0.000  0.000  0.000  0.005  0.000  0.000  0.011
    5  0.002  0.000  0.000  0.000  0.000  0.000  0.000  0.000  0.000  0.002
tot    0.009  0.000  0.021  0.000  0.000  0.000  0.907  0.000  0.000  0.937
 
band    10 # energy   -5.19697353 # occ.  2.00000000
 
ion      s     py     pz     px    dxy    dyz    dz2    dxz  x2-y2    tot
    1  0.000  0.000  0.000  0.000  0.006  0.012  0.000  0.004  0.018  0.040
    2  0.000  0.000  0.000  0.000  0.165  0.003  0.000  0.001  0.494  0.662
    3  0.000  0.000  0.000  0.000  0.057  0.011  0.000  0.004  0.171  0.243
    4  0.000  0.000  0.000  0.000  0.001  0.011  0.000  0.004  0.003  0.019
    5  0.000  0.000  0.000  0.000  0.000  0.000  0.000  0.000  0.000  0.000
tot    0.000  0.000  0.000  0.000  0.229  0.037  0.000  0.012  0.686  0.965
 
band    11 # energy   -5.19666439 # occ.  2.00000000
 
ion      s     py     pz     px    dxy    dyz    dz2    dxz  x2-y2    tot
    1  0.000  0.000  0.000  0.000  0.018  0.004  0.000  0.012  0.006  0.040
    2  0.000  0.000  0.000  0.000  0.493  0.001  0.000  0.003  0.164  0.662
    3  0.000  0.000  0.000  0.000  0.171  0.004  0.000  0.011  0.057  0.243
    4  0.000  0.000  0.000  0.000  0.003  0.004  0.000  0.011  0.001  0.019
    5  0.000  0.000  0.000  0.000  0.000  0.000  0.000  0.000  0.000  0.000
tot    0.000  0.000  0.000  0.000  0.686  0.012  0.000  0.037  0.229  0.965
 
band    12 # energy   -5.16632852 # occ.  2.00000000
 
ion      s     py     pz     px    dxy    dyz    dz2    dxz  x2-y2    tot
    1  0.000  0.000  0.000  0.000  0.002  0.013  0.000  0.004  0.007  0.026
    2  0.000  0.000  0.000  0.000  0.051  0.062  0.000  0.021  0.152  0.285
    3  0.000  0.000  0.000  0.000  0.129  0.038  0.000  0.013  0.386  0.565
    4  0.000  0.000  0.000  0.000  0.001  0.066  0.000  0.022  0.002  0.091
    5  0.000  0.000  0.000  0.000  0.000  0.000  0.000  0.000  0.000  0.000
tot    0.000  0.000  0.000  0.000  0.182  0.179  0.000  0.060  0.547  0.968
 
band    13 # energy   -5.16606220 # occ.  2.00000000
 
ion      s     py     pz     px    dxy    dyz    dz2    dxz  x2-y2    tot
    1  0.000  0.000  0.000  0.000  0.007  0.004  0.000  0.013  0.002  0.026
    2  0.000  0.000  0.000  0.000  0.152  0.021  0.000  0.062  0.051  0.285
    3  0.000  0.000  0.000  0.000  0.386  0.013  0.000  0.038  0.129  0.565
    4  0.000  0.000  0.000  0.000  0.002  0.022  0.000  0.066  0.001  0.091
    5  0.000  0.000  0.000  0.000  0.000  0.000  0.000  0.000  0.000  0.000
tot    0.000  0.000  0.000  0.000  0.547  0.060  0.000  0.179  0.182  0.968
 
band    14 # energy   -4.92079510 # occ.  2.00000000
 
ion      s     py     pz     px    dxy    dyz    dz2    dxz  x2-y2    tot
    1  0.000  0.000  0.000  0.000  0.202  0.005  0.000  0.002  0.606  0.815
    2  0.000  0.000  0.000  0.000  0.000  0.060  0.000  0.020  0.000  0.081
    3  0.000  0.000  0.000  0.000  0.012  0.002  0.000  0.001  0.036  0.051
    4  0.000  0.000  0.000  0.000  0.000  0.016  0.000  0.005  0.000  0.021
    5  0.000  0.000  0.000  0.000  0.000  0.000  0.000  0.000  0.000  0.000
tot    0.000  0.000  0.000  0.000  0.214  0.083  0.000  0.028  0.643  0.969
 
band    15 # energy   -4.92050180 # occ.  2.00000000
 
ion      s     py     pz     px    dxy    dyz    dz2    dxz  x2-y2    tot
    1  0.000  0.000  0.000  0.000  0.606  0.002  0.000  0.005  0.202  0.815
    2  0.000  0.000  0.000  0.000  0.000  0.020  0.000  0.060  0.000  0.081
    3  0.000  0.000  0.000  0.000  0.036  0.001  0.000  0.002  0.012  0.051
    4  0.000  0.000  0.000  0.000  0.000  0.005  0.000  0.016  0.000  0.021
    5  0.000  0.000  0.000  0.000  0.000  0.000  0.000  0.000  0.000  0.000
tot    0.000  0.000  0.000  0.000  0.643  0.028  0.000  0.083  0.214  0.969
 
band    16 # energy   -4.80166833 # occ.  2.00000000
 
ion      s     py     pz     px    dxy    dyz    dz2    dxz  x2-y2    tot
    1  0.028  0.000  0.001  0.000  0.000  0.000  0.388  0.000  0.000  0.417
    2  0.014  0.000  0.045  0.000  0.000  0.000  0.061  0.000  0.000  0.120
    3  0.000  0.000  0.079  0.000  0.000  0.000  0.007  0.000  0.000  0.087
    4  0.011  0.000  0.050  0.000  0.000  0.000  0.003  0.000  0.000  0.064
    5  0.018  0.000  0.000  0.000  0.000  0.000  0.000  0.000  0.000  0.019
tot    0.072  0.000  0.174  0.000  0.000  0.000  0.460  0.000  0.000  0.707
 
band    17 # energy   -4.72512072 # occ.  2.00000000
 
ion      s     py     pz     px    dxy    dyz    dz2    dxz  x2-y2    tot
    1  0.000  0.000  0.000  0.000  0.002  0.002  0.000  0.001  0.005  0.009
    2  0.000  0.000  0.000  0.000  0.002  0.005  0.000  0.002  0.006  0.015
    3  0.000  0.000  0.000  0.000  0.029  0.023  0.000  0.008  0.088  0.148
    4  0.000  0.000  0.000  0.000  0.003  0.599  0.000  0.200  0.010  0.812
    5  0.000  0.000  0.000  0.000  0.000  0.000  0.000  0.000  0.000  0.001
tot    0.000  0.001  0.000  0.000  0.036  0.628  0.000  0.209  0.109  0.984
 
band    18 # energy   -4.72507144 # occ.  2.00000000
 
ion      s     py     pz     px    dxy    dyz    dz2    dxz  x2-y2    tot
    1  0.000  0.000  0.000  0.000  0.005  0.001  0.000  0.002  0.002  0.009
    2  0.000  0.000  0.000  0.000  0.006  0.002  0.000  0.005  0.002  0.015
    3  0.000  0.000  0.000  0.000  0.088  0.008  0.000  0.023  0.029  0.148
    4  0.000  0.000  0.000  0.000  0.010  0.199  0.000  0.598  0.003  0.812
    5  0.000  0.000  0.000  0.000  0.000  0.000  0.000  0.000  0.000  0.001
tot    0.000  0.000  0.000  0.001  0.109  0.209  0.000  0.628  0.036  0.984
 
band    19 # energy   -4.42403038 # occ.  2.00000000
 
ion      s     py     pz     px    dxy    dyz    dz2    dxz  x2-y2    tot
    1  0.000  0.000  0.000  0.000  0.026  0.035  0.000  0.012  0.077  0.148
    2  0.000  0.000  0.000  0.000  0.018  0.322  0.000  0.107  0.053  0.501
    3  0.000  0.000  0.000  0.000  0.011  0.205  0.000  0.068  0.034  0.318
    4  0.000  0.000  0.000  0.000  0.001  0.010  0.000  0.003  0.003  0.017
    5  0.000  0.000  0.000  0.000  0.000  0.000  0.000  0.000  0.000  0.000
tot    0.000  0.000  0.000  0.000  0.055  0.572  0.000  0.191  0.166  0.984
 
band    20 # energy   -4.42395237 # occ.  2.00000000
 
ion      s     py     pz     px    dxy    dyz    dz2    dxz  x2-y2    tot
    1  0.000  0.000  0.000  0.000  0.077  0.012  0.000  0.035  0.026  0.148
    2  0.000  0.000  0.000  0.000  0.053  0.107  0.000  0.322  0.018  0.501
    3  0.000  0.000  0.000  0.000  0.034  0.068  0.000  0.205  0.011  0.318
    4  0.000  0.000  0.000  0.000  0.003  0.003  0.000  0.010  0.001  0.017
    5  0.000  0.000  0.000  0.000  0.000  0.000  0.000  0.000  0.000  0.000
tot    0.000  0.000  0.000  0.000  0.166  0.190  0.000  0.571  0.055  0.984
 
band    21 # energy   -4.20418571 # occ.  2.00000000
 
ion      s     py     pz     px    dxy    dyz    dz2    dxz  x2-y2    tot
    1  0.000  0.000  0.000  0.000  0.003  0.259  0.000  0.086  0.008  0.356
    2  0.000  0.000  0.000  0.000  0.000  0.078  0.000  0.026  0.000  0.104
    3  0.000  0.000  0.000  0.000  0.002  0.360  0.000  0.120  0.005  0.487
    4  0.000  0.000  0.000  0.000  0.001  0.026  0.000  0.009  0.002  0.038
    5  0.000  0.000  0.000  0.000  0.000  0.000  0.000  0.000  0.000  0.000
tot    0.000  0.000  0.000  0.000  0.005  0.723  0.000  0.241  0.016  0.986
 
band    22 # energy   -4.20414722 # occ.  2.00000000
 
ion      s     py     pz     px    dxy    dyz    dz2    dxz  x2-y2    tot
    1  0.000  0.000  0.000  0.000  0.008  0.086  0.000  0.259  0.003  0.356
    2  0.000  0.000  0.000  0.000  0.000  0.026  0.000  0.078  0.000  0.104
    3  0.000  0.000  0.000  0.000  0.005  0.120  0.000  0.360  0.002  0.487
    4  0.000  0.000  0.000  0.000  0.002  0.009  0.000  0.026  0.001  0.038
    5  0.000  0.000  0.000  0.000  0.000  0.000  0.000  0.000  0.000  0.000
tot    0.000  0.000  0.000  0.000  0.016  0.241  0.000  0.723  0.005  0.986
 
band    23 # energy   -3.92250285 # occ.  2.00000000
 
ion      s     py     pz     px    dxy    dyz    dz2    dxz  x2-y2    tot
    1  0.000  0.000  0.000  0.000  0.002  0.413  0.000  0.138  0.006  0.558
    2  0.000  0.000  0.000  0.000  0.006  0.207  0.000  0.069  0.019  0.302
    3  0.000  0.000  0.000  0.000  0.002  0.088  0.000  0.029  0.005  0.124
    4  0.000  0.000  0.000  0.000  0.000  0.004  0.000  0.001  0.000  0.006
    5  0.000  0.000  0.000  0.000  0.000  0.000  0.000  0.000  0.000  0.000
tot    0.000  0.000  0.000  0.000  0.010  0.712  0.000  0.237  0.030  0.990
 
band    24 # energy   -3.92243347 # occ.  2.00000000
 
ion      s     py     pz     px    dxy    dyz    dz2    dxz  x2-y2    tot
    1  0.000  0.000  0.000  0.000  0.006  0.138  0.000  0.413  0.002  0.558
    2  0.000  0.000  0.000  0.000  0.019  0.069  0.000  0.207  0.006  0.302
    3  0.000  0.000  0.000  0.000  0.005  0.029  0.000  0.088  0.002  0.124
    4  0.000  0.000  0.000  0.000  0.000  0.001  0.000  0.004  0.000  0.006
    5  0.000  0.000  0.000  0.000  0.000  0.000  0.000  0.000  0.000  0.000
tot    0.000  0.000  0.000  0.000  0.031  0.237  0.000  0.712  0.010  0.990
 
band    25 # energy   -2.84457337 # occ.  2.00000000
 
ion      s     py     pz     px    dxy    dyz    dz2    dxz  x2-y2    tot
    1  0.019  0.000  0.153  0.000  0.000  0.000  0.028  0.000  0.000  0.201
    2  0.015  0.000  0.080  0.000  0.000  0.000  0.023  0.000  0.000  0.118
    3  0.012  0.000  0.035  0.000  0.000  0.000  0.022  0.000  0.000  0.069
    4  0.008  0.000  0.014  0.000  0.000  0.000  0.005  0.000  0.000  0.027
    5  0.004  0.000  0.000  0.000  0.000  0.000  0.000  0.000  0.000  0.004
tot    0.059  0.000  0.282  0.000  0.000  0.000  0.078  0.000  0.000  0.419
 
band    26 # energy    1.61203062 # occ.  0.00000000
 
ion      s     py     pz     px    dxy    dyz    dz2    dxz  x2-y2    tot
    1  0.014  0.000  0.002  0.000  0.000  0.000  0.014  0.000  0.000  0.031
    2  0.022  0.000  0.002  0.000  0.000  0.000  0.019  0.000  0.000  0.043
    3  0.031  0.000  0.002  0.000  0.000  0.000  0.028  0.000  0.000  0.061
    4  0.032  0.000  0.000  0.000  0.000  0.000  0.038  0.000  0.000  0.070
    5  0.000  0.000  0.002  0.000  0.000  0.000  0.000  0.000  0.000  0.002
tot    0.099  0.000  0.009  0.000  0.000  0.000  0.100  0.000  0.000  0.207
 
band    27 # energy    1.89895313 # occ.  0.00000000
 
ion      s     py     pz     px    dxy    dyz    dz2    dxz  x2-y2    tot
    1  0.006  0.000  0.002  0.000  0.000  0.000  0.006  0.000  0.000  0.015
    2  0.002  0.000  0.003  0.000  0.000  0.000  0.002  0.000  0.000  0.007
    3  0.000  0.000  0.003  0.000  0.000  0.000  0.000  0.000  0.000  0.003
    4  0.001  0.000  0.002  0.000  0.000  0.000  0.002  0.000  0.000  0.004
    5  0.002  0.000  0.000  0.000  0.000  0.000  0.000  0.000  0.000  0.002
tot    0.011  0.000  0.010  0.000  0.000  0.000  0.010  0.000  0.000  0.031
 
band    28 # energy    2.30058511 # occ.  0.00000000
 
ion      s     py     pz     px    dxy    dyz    dz2    dxz  x2-y2    tot
    1  0.004  0.000  0.003  0.000  0.000  0.000  0.004  0.000  0.000  0.011
    2  0.001  0.000  0.003  0.000  0.000  0.000  0.001  0.000  0.000  0.005
    3  0.000  0.000  0.004  0.000  0.000  0.000  0.000  0.000  0.000  0.004
    4  0.003  0.000  0.001  0.000  0.000  0.000  0.005  0.000  0.000  0.009
    5  0.001  0.000  0.000  0.000  0.000  0.000  0.000  0.000  0.000  0.002
tot    0.009  0.000  0.011  0.000  0.000  0.000  0.010  0.000  0.000  0.031
 

 k-point     2 :    0.10000000 0.00000000 0.00000000     weight = 0.06000000

band     1 # energy  -11.45527236 # occ.  2.00000000
 
ion      s     py     pz     px    dxy    dyz    dz2    dxz  x2-y2    tot
    1  0.003  0.000  0.000  0.000  0.000  0.000  0.000  0.000  0.000  0.003
    2  0.020  0.000  0.001  0.000  0.000  0.000  0.000  0.000  0.000  0.022
    3  0.079  0.001  0.003  0.002  0.000  0.000  0.000  0.000  0.000  0.084
    4  0.335  0.003  0.002  0.009  0.001  0.000  0.018  0.001  0.000  0.370
    5  0.131  0.000  0.001  0.000  0.000  0.000  0.000  0.000  0.000  0.133
tot    0.568  0.004  0.008  0.011  0.001  0.000  0.018  0.001  0.000  0.612
 
band     2 # energy  -10.35403375 # occ.  2.00000000
 
ion      s     py     pz     px    dxy    dyz    dz2    dxz  x2-y2    tot
    1  0.111  0.001  0.011  0.002  0.000  0.000  0.000  0.001  0.000  0.126
    2  0.277  0.002  0.000  0.006  0.000  0.000  0.001  0.000  0.000  0.287
    3  0.086  0.001  0.014  0.002  0.000  0.000  0.000  0.001  0.000  0.104
    4  0.032  0.000  0.008  0.001  0.000  0.000  0.011  0.001  0.000  0.054
    5  0.027  0.000  0.000  0.000  0.000  0.000  0.000  0.000  0.000  0.028
tot    0.534  0.004  0.033  0.012  0.001  0.001  0.013  0.003  0.000  0.599
 
band     3 # energy   -8.68524257 # occ.  2.00000000
 
ion      s     py     pz     px    dxy    dyz    dz2    dxz  x2-y2    tot
    1  0.188  0.002  0.003  0.005  0.000  0.000  0.018  0.000  0.000  0.215
    2  0.005  0.000  0.048  0.000  0.000  0.002  0.001  0.005  0.000  0.061
    3  0.205  0.002  0.000  0.005  0.000  0.000  0.033  0.000  0.000  0.246
    4  0.003  0.000  0.026  0.000  0.001  0.002  0.027  0.005  0.000  0.063
    5  0.023  0.000  0.000  0.000  0.000  0.000  0.000  0.000  0.000  0.023
tot    0.425  0.003  0.076  0.010  0.001  0.003  0.078  0.010  0.000  0.608
 
band     4 # energy   -7.24082008 # occ.  2.00000000
 
ion      s     py     pz     px    dxy    dyz    dz2    dxz  x2-y2    tot
    1  0.100  0.001  0.005  0.004  0.001  0.000  0.136  0.000  0.000  0.247
    2  0.088  0.001  0.003  0.004  0.001  0.000  0.241  0.001  0.000  0.339
    3  0.028  0.000  0.015  0.001  0.000  0.001  0.084  0.002  0.000  0.132
    4  0.000  0.000  0.009  0.000  0.000  0.001  0.017  0.003  0.000  0.031
    5  0.004  0.000  0.000  0.000  0.000  0.000  0.000  0.000  0.000  0.004
tot    0.221  0.003  0.032  0.009  0.002  0.002  0.477  0.007  0.001  0.753
 
band     5 # energy   -5.92060562 # occ.  2.00000000
 
ion      s     py     pz     px    dxy    dyz    dz2    dxz  x2-y2    tot
    1  0.000  0.000  0.000  0.000  0.000  0.000  0.006  0.000  0.000  0.007
    2  0.001  0.000  0.000  0.000  0.002  0.000  0.002  0.001  0.001  0.006
    3  0.001  0.000  0.004  0.000  0.004  0.000  0.135  0.001  0.001  0.146
    4  0.005  0.000  0.031  0.000  0.169  0.033  0.274  0.098  0.056  0.666
    5  0.029  0.000  0.001  0.001  0.000  0.000  0.000  0.000  0.000  0.030
tot    0.035  0.000  0.037  0.001  0.176  0.033  0.417  0.099  0.059  0.856
 
band     6 # energy   -5.70063696 # occ.  2.00000000
 
ion      s     py     pz     px    dxy    dyz    dz2    dxz  x2-y2    tot
    1  0.001  0.000  0.001  0.000  0.000  0.000  0.012  0.000  0.000  0.014
    2  0.002  0.000  0.001  0.000  0.009  0.000  0.045  0.001  0.003  0.061
    3  0.000  0.000  0.015  0.000  0.012  0.007  0.154  0.020  0.004  0.212
    4  0.006  0.000  0.002  0.000  0.100  0.002  0.479  0.007  0.033  0.630
    5  0.000  0.000  0.001  0.000  0.000  0.000  0.000  0.000  0.000  0.001
tot    0.009  0.000  0.019  0.001  0.122  0.009  0.690  0.027  0.041  0.919
 
band     7 # energy   -5.57008573 # occ.  2.00000000
 
ion      s     py     pz     px    dxy    dyz    dz2    dxz  x2-y2    tot
    1  0.000  0.000  0.000  0.000  0.001  0.000  0.019  0.000  0.000  0.021
    2  0.001  0.000  0.000  0.000  0.038  0.001  0.012  0.003  0.013  0.068
    3  0.000  0.000  0.005  0.000  0.008  0.013  0.123  0.038  0.003  0.191
    4  0.001  0.000  0.017  0.000  0.413  0.015  0.001  0.045  0.139  0.631
    5  0.006  0.000  0.000  0.001  0.000  0.000  0.000  0.000  0.000  0.007
tot    0.007  0.000  0.023  0.001  0.461  0.029  0.154  0.087  0.154  0.918
 
band     8 # energy   -5.48251822 # occ.  2.00000000
 
ion      s     py     pz     px    dxy    dyz    dz2    dxz  x2-y2    tot
    1  0.000  0.000  0.000  0.000  0.000  0.000  0.000  0.000  0.000  0.000
    2  0.000  0.000  0.000  0.000  0.001  0.000  0.000  0.000  0.002  0.004
    3  0.000  0.000  0.000  0.000  0.000  0.014  0.000  0.005  0.001  0.020
    4  0.000  0.001  0.000  0.000  0.233  0.010  0.000  0.003  0.697  0.944
    5  0.000  0.002  0.000  0.001  0.000  0.000  0.000  0.000  0.000  0.002
tot    0.000  0.002  0.000  0.001  0.234  0.024  0.000  0.008  0.700  0.970
 
band     9 # energy   -5.31437083 # occ.  2.00000000
 
ion      s     py     pz     px    dxy    dyz    dz2    dxz  x2-y2    tot
    1  0.005  0.000  0.001  0.000  0.048  0.006  0.044  0.019  0.016  0.138
    2  0.002  0.000  0.013  0.000  0.043  0.037  0.193  0.111  0.015  0.415
    3  0.000  0.000  0.022  0.000  0.098  0.004  0.106  0.013  0.033  0.277
    4  0.003  0.000  0.005  0.000  0.000  0.016  0.006  0.049  0.000  0.080
    5  0.002  0.000  0.000  0.000  0.000  0.000  0.000  0.000  0.000  0.002
tot    0.012  0.000  0.040  0.000  0.189  0.064  0.350  0.193  0.063  0.911
 
band    10 # energy   -5.27001702 # occ.  2.00000000
 
ion      s     py     pz     px    dxy    dyz    dz2    dxz  x2-y2    tot
    1  0.001  0.000  0.002  0.000  0.001  0.002  0.129  0.006  0.000  0.142
    2  0.001  0.000  0.002  0.001  0.080  0.014  0.192  0.041  0.027  0.358
    3  0.001  0.000  0.004  0.000  0.207  0.005  0.057  0.016  0.069  0.360
    4  0.001  0.000  0.002  0.000  0.001  0.009  0.043  0.028  0.000  0.084
    5  0.001  0.000  0.000  0.000  0.000  0.000  0.000  0.000  0.000  0.001
tot    0.005  0.000  0.012  0.001  0.288  0.030  0.421  0.090  0.096  0.945
 
band    11 # energy   -5.24250563 # occ.  2.00000000
 
ion      s     py     pz     px    dxy    dyz    dz2    dxz  x2-y2    tot
    1  0.001  0.000  0.001  0.000  0.031  0.005  0.022  0.014  0.010  0.083
    2  0.001  0.000  0.000  0.000  0.430  0.002  0.056  0.007  0.144  0.641
    3  0.000  0.000  0.001  0.000  0.059  0.004  0.088  0.012  0.020  0.185
    4  0.000  0.000  0.002  0.000  0.020  0.002  0.007  0.006  0.007  0.044
    5  0.001  0.000  0.000  0.000  0.000  0.000  0.000  0.000  0.000  0.001
tot    0.003  0.000  0.005  0.001  0.541  0.013  0.173  0.038  0.181  0.954
 
band    12 # energy   -5.09703095 # occ.  2.00000000
 
ion      s     py     pz     px    dxy    dyz    dz2    dxz  x2-y2    tot
    1  0.000  0.000  0.000  0.000  0.005  0.016  0.000  0.005  0.014  0.040
    2  0.000  0.000  0.000  0.000  0.058  0.060  0.000  0.020  0.172  0.309
    3  0.000  0.000  0.000  0.000  0.110  0.034  0.000  0.011  0.329  0.484
    4  0.000  0.000  0.000  0.000  0.001  0.097  0.000  0.032  0.004  0.135
    5  0.000  0.000  0.000  0.000  0.000  0.000  0.000  0.000  0.000  0.000
tot    0.000  0.000  0.000  0.000  0.173  0.206  0.000  0.069  0.520  0.969
 
band    13 # energy   -5.08823493 # occ.  2.00000000
 
ion      s     py     pz     px    dxy    dyz    dz2    dxz  x2-y2    tot
    1  0.000  0.000  0.000  0.000  0.004  0.015  0.000  0.005  0.011  0.034
    2  0.000  0.001  0.000  0.000  0.151  0.024  0.000  0.008  0.451  0.634
    3  0.000  0.001  0.000  0.000  0.055  0.033  0.000  0.011  0.165  0.263
    4  0.000  0.000  0.000  0.000  0.002  0.021  0.000  0.007  0.005  0.035
    5  0.000  0.000  0.000  0.000  0.000  0.000  0.000  0.000  0.000  0.000
tot    0.000  0.001  0.000  0.000  0.211  0.092  0.000  0.031  0.632  0.967
 
band    14 # energy   -5.03142099 # occ.  2.00000000
 
ion      s     py     pz     px    dxy    dyz    dz2    dxz  x2-y2    tot
    1  0.003  0.000  0.003  0.000  0.017  0.003  0.331  0.009  0.006  0.373
    2  0.000  0.000  0.018  0.000  0.025  0.005  0.063  0.015  0.008  0.135
    3  0.000  0.000  0.008  0.000  0.254  0.012  0.001  0.037  0.084  0.398
    4  0.001  0.000  0.006  0.000  0.002  0.001  0.002  0.004  0.001  0.017
    5  0.002  0.000  0.000  0.000  0.000  0.000  0.000  0.000  0.000  0.002
tot    0.008  0.000  0.034  0.000  0.299  0.022  0.397  0.066  0.099  0.925
 
band    15 # energy   -4.94134672 # occ.  2.00000000
 
ion      s     py     pz     px    dxy    dyz    dz2    dxz  x2-y2    tot
    1  0.001  0.000  0.000  0.001  0.545  0.001  0.036  0.004  0.183  0.772
    2  0.000  0.000  0.007  0.000  0.006  0.004  0.019  0.012  0.002  0.049
    3  0.001  0.000  0.003  0.000  0.014  0.014  0.039  0.041  0.005  0.117
    4  0.000  0.000  0.000  0.000  0.002  0.003  0.001  0.009  0.001  0.017
    5  0.000  0.000  0.000  0.000  0.000  0.000  0.000  0.000  0.000  0.000
tot    0.003  0.000  0.011  0.001  0.567  0.022  0.095  0.066  0.190  0.955
 
band    16 # energy   -4.84103365 # occ.  2.00000000
 
ion      s     py     pz     px    dxy    dyz    dz2    dxz  x2-y2    tot
    1  0.000  0.001  0.000  0.000  0.159  0.012  0.000  0.004  0.475  0.650
    2  0.000  0.000  0.000  0.000  0.001  0.100  0.000  0.033  0.002  0.136
    3  0.000  0.000  0.000  0.000  0.008  0.011  0.000  0.003  0.024  0.047
    4  0.000  0.000  0.000  0.000  0.000  0.102  0.000  0.034  0.001  0.138
    5  0.000  0.000  0.000  0.000  0.000  0.000  0.000  0.000  0.000  0.000
tot    0.000  0.001  0.000  0.000  0.168  0.225  0.000  0.075  0.502  0.971
 
band    17 # energy   -4.73179153 # occ.  2.00000000
 
ion      s     py     pz     px    dxy    dyz    dz2    dxz  x2-y2    tot
    1  0.000  0.000  0.000  0.000  0.031  0.002  0.000  0.001  0.093  0.127
    2  0.000  0.000  0.000  0.000  0.004  0.003  0.000  0.001  0.012  0.020
    3  0.000  0.000  0.000  0.000  0.049  0.026  0.000  0.009  0.147  0.231
    4  0.000  0.000  0.000  0.000  0.004  0.442  0.000  0.147  0.011  0.603
    5  0.000  0.000  0.000  0.000  0.000  0.000  0.000  0.000  0.000  0.000
tot    0.000  0.001  0.000  0.000  0.088  0.473  0.000  0.158  0.263  0.981
 
band    18 # energy   -4.62364135 # occ.  2.00000000
 
ion      s     py     pz     px    dxy    dyz    dz2    dxz  x2-y2    tot
    1  0.001  0.000  0.001  0.000  0.027  0.010  0.008  0.029  0.009  0.084
    2  0.000  0.000  0.000  0.000  0.027  0.012  0.004  0.037  0.009  0.090
    3  0.003  0.000  0.001  0.000  0.041  0.075  0.025  0.225  0.014  0.384
    4  0.000  0.000  0.009  0.000  0.004  0.090  0.013  0.272  0.001  0.389
    5  0.005  0.000  0.000  0.000  0.000  0.000  0.000  0.000  0.000  0.006
tot    0.009  0.000  0.011  0.000  0.100  0.187  0.049  0.562  0.033  0.954
 
band    19 # energy   -4.44067726 # occ.  2.00000000
 
ion      s     py     pz     px    dxy    dyz    dz2    dxz  x2-y2    tot
    1  0.000  0.000  0.000  0.000  0.039  0.050  0.000  0.016  0.116  0.221
    2  0.000  0.000  0.000  0.000  0.018  0.256  0.000  0.085  0.054  0.414
    3  0.000  0.000  0.000  0.000  0.017  0.172  0.000  0.057  0.052  0.298
    4  0.000  0.000  0.000  0.000  0.001  0.035  0.000  0.012  0.003  0.051
    5  0.000  0.000  0.000  0.000  0.000  0.000  0.000  0.000  0.000  0.000
tot    0.000  0.000  0.000  0.000  0.075  0.513  0.000  0.170  0.225  0.983
 
band    20 # energy   -4.40335517 # occ.  2.00000000
 
ion      s     py     pz     px    dxy    dyz    dz2    dxz  x2-y2    tot
    1  0.000  0.000  0.004  0.000  0.036  0.092  0.001  0.276  0.012  0.420
    2  0.000  0.000  0.004  0.000  0.046  0.056  0.000  0.168  0.015  0.289
    3  0.003  0.000  0.002  0.000  0.012  0.022  0.024  0.066  0.004  0.133
    4  0.000  0.000  0.004  0.000  0.001  0.027  0.001  0.080  0.000  0.113
    5  0.002  0.000  0.000  0.000  0.000  0.000  0.000  0.000  0.000  0.002
tot    0.006  0.000  0.014  0.000  0.095  0.196  0.026  0.589  0.032  0.958
 
band    21 # energy   -4.22996457 # occ.  2.00000000
 
ion      s     py     pz     px    dxy    dyz    dz2    dxz  x2-y2    tot
    1  0.011  0.000  0.014  0.000  0.014  0.085  0.081  0.256  0.005  0.467
    2  0.001  0.000  0.001  0.000  0.011  0.079  0.003  0.238  0.004  0.337
    3  0.001  0.000  0.004  0.000  0.006  0.001  0.008  0.004  0.002  0.026
    4  0.000  0.000  0.006  0.000  0.000  0.014  0.000  0.043  0.000  0.064
    5  0.003  0.000  0.000  0.000  0.000  0.000  0.000  0.000  0.000  0.003
tot    0.016  0.000  0.026  0.001  0.031  0.180  0.092  0.541  0.010  0.898
 
band    22 # energy   -4.20035518 # occ.  2.00000000
 
ion      s     py     pz     px    dxy    dyz    dz2    dxz  x2-y2    tot
    1  0.000  0.000  0.000  0.000  0.004  0.254  0.000  0.085  0.011  0.353
    2  0.000  0.000  0.000  0.000  0.005  0.068  0.000  0.023  0.016  0.112
    3  0.000  0.000  0.000  0.000  0.001  0.358  0.000  0.119  0.004  0.481
    4  0.000  0.000  0.000  0.000  0.001  0.027  0.000  0.009  0.003  0.040
    5  0.000  0.000  0.000  0.000  0.000  0.000  0.000  0.000  0.000  0.000
tot    0.000  0.000  0.000  0.000  0.011  0.706  0.000  0.235  0.033  0.986
 
band    23 # energy   -3.91747341 # occ.  2.00000000
 
ion      s     py     pz     px    dxy    dyz    dz2    dxz  x2-y2    tot
    1  0.000  0.000  0.000  0.000  0.003  0.389  0.000  0.130  0.008  0.530
    2  0.000  0.000  0.000  0.000  0.006  0.226  0.000  0.075  0.018  0.325
    3  0.000  0.000  0.000  0.000  0.002  0.091  0.000  0.030  0.006  0.129