<?xml version="1.0" encoding="ISO-8859-1"?>
<modeling>
 <generator>
  <i name="program" type="string">vasp </i>
  <i name="version" type="string">5.4.4.18Apr17-6-g9f103f2a35  </i>
  <i name="subversion" type="string">(build Jun 30 2017 11:15:00) complex            parallel </i>
  <i name="platform" type="string">STALLO_VASP_5.4.4 </i>
  <i name="date" type="string">2019 10 11 </i>
  <i name="time" type="string">09:47:23 </i>
 </generator>
 <incar>
  <i type="string" name="PREC">normal    ! low/normal/accurate</i>
  <i type="string" name="ALGO"> Fast      ! Algorithm for electronic re</i>
  <i type="int" name="ISPIN">     1</i>
  <i type="int" name="NELMIN">     4</i>
  <i name="EDIFF">      0.00000100</i>
  <i type="int" name="NSW">     0</i>
  <i name="ENCUT">    250.00000000</i>
  <i type="int" name="NEDOS">  2401</i>
  <i type="string" name="LREAL"> Auto      ! Projection in reciprocal sp</i>
  <i name="EMIN">    -17.00000000</i>
  <i name="EMAX">      7.00000000</i>
  <i type="int" name="ISMEAR">     0</i>
  <i name="SIGMA">      0.10000000</i>
  <i type="logical" name="LWAVE"> F  </i>
  <i type="int" name="LORBIT">    11</i>
  <i type="logical" name="LELF"> T  </i>
  <v type="int" name="KPOINT_BSE">    -1     0     0     0</v>
 </incar>
 <structure name="primitive_cell" >
  <crystal>
   <varray name="basis" >
    <v>       2.57386868       0.00000000       0.00000000 </v>
    <v>       1.28693434       2.22903567       0.00000000 </v>
    <v>       0.00000000       0.00000000      30.30466494 </v>
   </varray>
   <i name="volume">    173.86529028 </i>
   <varray name="rec_basis" >
    <v>       0.38852021      -0.22431225       0.00000000 </v>
    <v>       0.00000000       0.44862450       0.00000000 </v>
    <v>       0.00000000       0.00000000       0.03299822 </v>
   </varray>
  </crystal>
  <varray name="positions" >
   <v>       0.00000000       0.00000000       0.39644015 </v>
   <v>       0.33333333       0.33333333       0.46515176 </v>
   <v>      -0.33333333      -0.33333333      -0.46608379 </v>
   <v>       0.00000000       0.00000000      -0.39325599 </v>
   <v>       0.33333333       0.33333333      -0.36523255 </v>
  </varray>
 </structure>
 <varray name="primitive_index" >
  <v type="int" >        1 </v>
  <v type="int" >        2 </v>
  <v type="int" >        3 </v>
  <v type="int" >        4 </v>
  <v type="int" >        5 </v>
 </varray>
 <kpoints>
  <generation param="Gamma">
   <v type="int" name="divisions">      10       10        1 </v>
   <v name="usershift">      0.00000000       0.00000000       0.00000000 </v>
   <v name="genvec1">      0.10000000       0.00000000       0.00000000 </v>
   <v name="genvec2">      0.00000000       0.10000000       0.00000000 </v>
   <v name="genvec3">      0.00000000       0.00000000       1.00000000 </v>
   <v name="shift">      0.00000000       0.00000000       0.00000000 </v>
  </generation>
  <varray name="kpointlist" >
   <v>       0.00000000       0.00000000       0.00000000 </v>
   <v>       0.10000000       0.00000000       0.00000000 </v>
   <v>       0.20000000      -0.00000000       0.00000000 </v>
   <v>       0.30000000      -0.00000000       0.00000000 </v>
   <v>       0.40000000      -0.00000000       0.00000000 </v>
   <v>       0.50000000      -0.00000000       0.00000000 </v>
   <v>       0.20000000       0.10000000       0.00000000 </v>
   <v>       0.30000000       0.10000000       0.00000000 </v>
   <v>       0.40000000       0.10000000       0.00000000 </v>
   <v>       0.50000000       0.10000000       0.00000000 </v>
   <v>       0.40000000       0.20000000       0.00000000 </v>
   <v>       0.50000000       0.20000000       0.00000000 </v>
   <v>      -0.40000000       0.20000000       0.00000000 </v>
   <v>      -0.40000000       0.30000000       0.00000000 </v>
  </varray>
  <varray name="weights" >
   <v>       0.01000000 </v>
   <v>       0.06000000 </v>
   <v>       0.06000000 </v>
   <v>       0.06000000 </v>
   <v>       0.06000000 </v>
   <v>       0.03000000 </v>
   <v>       0.06000000 </v>
   <v>       0.12000000 </v>
   <v>       0.12000000 </v>
   <v>       0.12000000 </v>
   <v>       0.06000000 </v>
   <v>       0.12000000 </v>
   <v>       0.06000000 </v>
   <v>       0.06000000 </v>
  </varray>
 </kpoints>
 <parameters>
  <separator name="general" >
   <i type="string" name="SYSTEM">unknown system</i>
   <i type="logical" name="LCOMPAT"> F  </i>
  </separator>
  <separator name="electronic" >
   <i type="string" name="PREC">normal</i>
   <i name="ENMAX">    250.00000000</i>
   <i name="ENAUG">    516.45600000</i>
   <i name="EDIFF">      0.00000100</i>
   <i type="int" name="IALGO">    68</i>
   <i type="int" name="IWAVPR">    10</i>
   <i type="int" name="NBANDS">    28</i>
   <i name="NELECT">     45.00000000</i>
   <i type="int" name="TURBO">     0</i>
   <i type="int" name="IRESTART">     0</i>
   <i type="int" name="NREBOOT">     0</i>
   <i type="int" name="NMIN">     0</i>
   <i name="EREF">      0.00000000</i>
   <separator name="electronic smearing" >
    <i type="int" name="ISMEAR">     0</i>
    <i name="SIGMA">      0.10000000</i>
    <i name="KSPACING">      0.50000000</i>
    <i type="logical" name="KGAMMA"> T  </i>
   </separator>
   <separator name="electronic projectors" >
    <i type="logical" name="LREAL"> T  </i>
    <v name="ROPT">     -0.00050000     -0.00050000</v>
    <i type="int" name="LMAXPAW">  -100</i>
    <i type="int" name="LMAXMIX">     2</i>
    <i type="logical" name="NLSPLINE"> F  </i>
   </separator>
   <separator name="electronic startup" >
    <i type="int" name="ISTART">     0</i>
    <i type="int" name="ICHARG">     2</i>
    <i type="int" name="INIWAV">     1</i>
   </separator>
   <separator name="electronic spin" >
    <i type="int" name="ISPIN">     1</i>
    <i type="logical" name="LNONCOLLINEAR"> F  </i>
    <v name="MAGMOM">      1.00000000      1.00000000      1.00000000      1.00000000      1.00000000</v>
    <i name="NUPDOWN">     -1.00000000</i>
    <i type="logical" name="LSORBIT"> F  </i>
    <v name="SAXIS">      0.00000000      0.00000000      1.00000000</v>
    <i type="logical" name="LSPIRAL"> F  </i>
    <v name="QSPIRAL">      0.00000000      0.00000000      0.00000000</v>
    <i type="logical" name="LZEROZ"> F  </i>
   </separator>
   <separator name="electronic exchange-correlation" >
    <i type="logical" name="LASPH"> F  </i>
    <i type="logical" name="LMETAGGA"> F  </i>
   </separator>
   <separator name="electronic convergence" >
    <i type="int" name="NELM">    60</i>
    <i type="int" name="NELMDL">    -5</i>
    <i type="int" name="NELMIN">     4</i>
    <i name="ENINI">    250.00000000</i>
    <separator name="electronic convergence detail" >
     <i type="logical" name="LDIAG"> T  </i>
     <i type="logical" name="LSUBROT"> F  </i>
     <i name="WEIMIN">      0.00000000</i>
     <i name="EBREAK">      0.00000001</i>
     <i name="DEPER">      0.30000000</i>
     <i type="int" name="NRMM">     4</i>
     <i name="TIME">      0.40000000</i>
    </separator>
   </separator>
   <separator name="electronic mixer" >
    <i name="AMIX">      0.40000000</i>
    <i name="BMIX">      1.00000000</i>
    <i name="AMIN">      0.10000000</i>
    <i name="AMIX_MAG">      1.60000000</i>
    <i name="BMIX_MAG">      1.00000000</i>
    <separator name="electronic mixer details" >
     <i type="int" name="IMIX">     4</i>
     <i type="logical" name="MIXFIRST"> F  </i>
     <i type="int" name="MAXMIX">   -45</i>
     <i name="WC">    100.00000000</i>
     <i type="int" name="INIMIX">     1</i>
     <i type="int" name="MIXPRE">     1</i>
     <i type="int" name="MREMOVE">     5</i>
    </separator>
   </separator>
   <separator name="electronic dipolcorrection" >
    <i type="logical" name="LDIPOL"> F  </i>
    <i type="logical" name="LMONO"> F  </i>
    <i type="int" name="IDIPOL">     0</i>
    <i name="EPSILON">      1.00000000</i>
    <v name="DIPOL">   -100.00000000   -100.00000000   -100.00000000</v>
    <i name="EFIELD">      0.00000000</i>
   </separator>
  </separator>
  <separator name="grids" >
   <i type="int" name="NGX">    10</i>
   <i type="int" name="NGY">    10</i>
   <i type="int" name="NGZ">   120</i>
   <i type="int" name="NGXF">    20</i>
   <i type="int" name="NGYF">    20</i>
   <i type="int" name="NGZF">   240</i>
   <i type="logical" name="ADDGRID"> F  </i>
  </separator>
  <separator name="ionic" >
   <i type="int" name="NSW">     0</i>
   <i type="int" name="IBRION">    -1</i>
   <i type="int" name="MDALGO">     0</i>
   <i type="int" name="ISIF">     2</i>
   <i name="PSTRESS">      0.00000000</i>
   <i name="EDIFFG">      0.00001000</i>
   <i type="int" name="NFREE">     0</i>
   <i name="POTIM">      0.50000000</i>
   <i name="SMASS">     -3.00000000</i>
   <i name="SCALEE">      1.00000000</i>
  </separator>
  <separator name="ionic md" >
   <i name="TEBEG">      0.00010000</i>
   <i name="TEEND">      0.00010000</i>
   <i type="int" name="NBLOCK">     1</i>
   <i type="int" name="KBLOCK">     1</i>
   <i type="int" name="NPACO">   256</i>
   <i name="APACO">     16.00000000</i>
  </separator>
  <separator name="symmetry" >
   <i type="int" name="ISYM">     2</i>
   <i name="SYMPREC">      0.00001000</i>
  </separator>
  <separator name="dos" >
   <i type="int" name="LORBIT">    11</i>
   <v name="RWIGS">     -1.00000000     -1.00000000</v>
   <i type="int" name="NEDOS">  2401</i>
   <i name="EMIN">    -17.00000000</i>
   <i name="EMAX">      7.00000000</i>
   <i name="EFERMI">      0.00000000</i>
  </separator>
  <separator name="writing" >
   <i type="int" name="NWRITE">     2</i>
   <i type="logical" name="LWAVE"> F  </i>
   <i type="logical" name="LDOWNSAMPLE"> F  </i>
   <i type="logical" name="LCHARG"> T  </i>
   <i type="logical" name="LPARD"> F  </i>
   <i type="logical" name="LVTOT"> F  </i>
   <i type="logical" name="LVHAR"> F  </i>
   <i type="logical" name="LELF"> T  </i>
   <i type="logical" name="LOPTICS"> F  </i>
   <v name="STM">      0.00000000      0.00000000      0.00000000      0.00000000      0.00000000      0.00000000      0.00000000</v>
  </separator>
  <separator name="performance" >
   <i type="int" name="NPAR">     2</i>
   <i type="int" name="NSIM">     4</i>
   <i type="int" name="NBLK">    -1</i>
   <i type="logical" name="LPLANE"> T  </i>
   <i type="logical" name="LSCALAPACK"> T  </i>
   <i type="logical" name="LSCAAWARE"> F  </i>
   <i type="logical" name="LSCALU"> F  </i>
   <i type="logical" name="LASYNC"> F  </i>
   <i type="logical" name="LORBITALREAL"> F  </i>
  </separator>
  <separator name="miscellaneous" >
   <i type="int" name="IDIOT">     3</i>
   <i type="int" name="ISPECIAL">     0</i>
   <i type="logical" name="LMUSIC"> F  </i>
   <v name="POMASS">     63.54600000      1.00000000</v>
   <v name="DARWINR">      0.00000000      0.00000000</v>
   <v name="DARWINV">      1.00000000      1.00000000</v>
   <i type="logical" name="LCORR"> T  </i>
  </separator>
  <i type="logical" name="GGA_COMPAT"> T  </i>
  <i type="logical" name="LBERRY"> F  </i>
  <i type="int" name="ICORELEVEL">     0</i>
  <i type="logical" name="LDAU"> F  </i>
  <i type="int" name="I_CONSTRAINED_M">     0</i>
  <separator name="electronic exchange-correlation" >
   <i type="string" name="GGA">--</i>
   <i type="int" name="VOSKOWN">     0</i>
   <i type="logical" name="LHFCALC"> F  </i>
   <i type="string" name="PRECFOCK"></i>
   <i type="logical" name="LSYMGRAD"> F  </i>
   <i type="logical" name="LHFONE"> F  </i>
   <i type="logical" name="LRHFCALC"> F  </i>
   <i type="logical" name="LTHOMAS"> F  </i>
   <i type="logical" name="LMODELHF"> F  </i>
   <i name="ENCUT4O">     -1.00000000</i>
   <i type="int" name="EXXOEP">     0</i>
   <i type="int" name="FOURORBIT">     0</i>
   <i name="AEXX">      0.00000000</i>
   <i name="HFALPHA">      0.00000000</i>
   <i name="MCALPHA">      0.00000000</i>
   <i name="ALDAX">      1.00000000</i>
   <i name="AGGAX">      1.00000000</i>
   <i name="ALDAC">      1.00000000</i>
   <i name="AGGAC">      1.00000000</i>
   <i type="int" name="NKREDX">     1</i>
   <i type="int" name="NKREDY">     1</i>
   <i type="int" name="NKREDZ">     1</i>
   <i type="logical" name="SHIFTRED"> F  </i>
   <i type="logical" name="ODDONLY"> F  </i>
   <i type="logical" name="EVENONLY"> F  </i>
   <i type="int" name="LMAXFOCK">     0</i>
   <i type="int" name="NMAXFOCKAE">     0</i>
   <i type="logical" name="LFOCKAEDFT"> F  </i>
   <i name="HFSCREEN">      0.00000000</i>
   <i name="HFSCREENC">      0.00000000</i>
   <i type="int" name="NBANDSGWLOW">     0</i>
  </separator>
  <separator name="vdW DFT" >
   <i type="logical" name="LUSE_VDW"> F  </i>
   <i name="Zab_VDW">     -0.84910000</i>
   <i name="PARAM1">      0.12340000</i>
   <i name="PARAM2">      1.00000000</i>
   <i name="PARAM3">      0.00000000</i>
  </separator>
  <separator name="model GW" >
   <i type="int" name="MODEL_GW">     0</i>
   <i name="MODEL_EPS0">     20.86383483</i>
   <i name="MODEL_ALPHA">      1.00000000</i>
  </separator>
  <separator name="linear response parameters" >
   <i type="logical" name="LEPSILON"> F  </i>
   <i type="logical" name="LRPA"> F  </i>
   <i type="logical" name="LNABLA"> F  </i>
   <i type="logical" name="LVEL"> F  </i>
   <i type="int" name="KINTER">     0</i>
   <i name="CSHIFT">      0.10000000</i>
   <i name="OMEGAMAX">     -1.00000000</i>
   <i name="DEG_THRESHOLD">      0.00200000</i>
   <i name="RTIME">     -0.10000000</i>
   <i name="WPLASMAI">      0.00000000</i>
   <v name="DFIELD">      0.00000000      0.00000000      0.00000000</v>
   <v name="WPLASMA">      0.00000000      0.00000000      0.00000000      0.00000000      0.00000000      0.00000000      0.00000000      0.00000000      0.00000000</v>
  </separator>
  <separator name="orbital magnetization" >
   <i type="logical" name="NUCIND"> F  </i>
   <v name="MAGPOS">      0.00000000      0.00000000      0.00000000</v>
   <i type="logical" name="LNICSALL"> T  </i>
   <i type="logical" name="ORBITALMAG"> F  </i>
   <i type="logical" name="LMAGBLOCH"> F  </i>
   <i type="logical" name="LCHIMAG"> F  </i>
   <i type="logical" name="LGAUGE"> T  </i>
   <i type="int" name="MAGATOM">     0</i>
   <v name="MAGDIPOL">      0.00000000      0.00000000      0.00000000</v>
   <v name="AVECCONST">      0.00000000      0.00000000      0.00000000</v>
  </separator>
  <separator name="response functions" >
   <i type="logical" name="LADDER"> F  </i>
   <i type="logical" name="LRPAFORCE"> F  </i>
   <i type="logical" name="LFXC"> F  </i>
   <i type="logical" name="LHARTREE"> T  </i>
   <i type="int" name="IBSE">     0</i>
   <v type="int" name="KPOINT">    -1     0     0     0</v>
   <i type="logical" name="LTCTE"> F  </i>
   <i type="logical" name="LTETE"> F  </i>
   <i type="logical" name="LTRIPLET"> F  </i>
   <i type="logical" name="LFXCEPS"> F  </i>
   <i type="logical" name="LFXHEG"> F  </i>
   <i type="int" name="NATURALO">     2</i>
   <i type="logical" name="L2ORDER"> F  </i>
   <i type="logical" name="LMP2LT"> F  </i>
   <i type="logical" name="LUSEW"> F  </i>
   <i name="ENCUTGW">     -2.00000000</i>
   <i name="ENCUTGWSOFT">     -2.00000000</i>
   <i name="ENCUTLF">     -1.00000000</i>
   <i type="int" name="LMAXMP2">    -1</i>
   <i name="SCISSOR">      0.00000000</i>
   <i type="int" name="NOMEGA">     0</i>
   <i type="int" name="NOMEGAR">     0</i>
   <i type="int" name="NBANDSGW">    -1</i>
   <i type="int" name="NBANDSO">    -1</i>
   <i type="int" name="NBANDSV">    -1</i>
   <i type="int" name="NELM">     1</i>
   <i type="int" name="NELMHF">     1</i>
   <i type="int" name="DIM">     3</i>
   <i type="int" name="ANTIRES">     0</i>
   <i name="OMEGAMAX">    -30.00000000</i>
   <i name="OMEGAMIN">    -30.00000000</i>
   <i name="OMEGATL">   -200.00000000</i>
   <i type="int" name="OMEGAGRID">   140</i>
   <i name="CSHIFT">     -0.10000000</i>
   <i type="logical" name="SELFENERGY"> F  </i>
   <i type="logical" name="LSPECTRAL"> F  </i>
   <i type="logical" name="LSPECTRALGW"> F  </i>
   <i type="logical" name="LSINGLES"> F  </i>
   <i type="logical" name="LFERMIGW"> F  </i>
   <i type="logical" name="ODDONLYGW"> F  </i>
   <i type="logical" name="EVENONLYGW"> F  </i>
   <i type="int" name="NKREDLFX">     1</i>
   <i type="int" name="NKREDLFY">     1</i>
   <i type="int" name="NKREDLFZ">     1</i>
   <i type="int" name="MAXMEM">  2800</i>
   <i type="int" name="TELESCOPE">     0</i>
   <i type="int" name="TAUPAR">     1</i>
   <i type="int" name="OMEGAPAR">    -1</i>
   <i name="LAMBDA">      1.00000000</i>
  </separator>
  <separator name="External order field" >
   <i name="OFIELD_KAPPA">      0.00000000</i>
   <v name="OFIELD_K">      0.00000000      0.00000000      0.00000000</v>
   <i name="OFIELD_Q6_NEAR">      0.00000000</i>
   <i name="OFIELD_Q6_FAR">      0.00000000</i>
   <i name="OFIELD_A">      0.00000000</i>
  </separator>
 </parameters>
 <atominfo>
  <atoms>       5 </atoms>
  <types>       2 </types>
  <array name="atoms" >
   <dimension dim="1">ion</dimension>
   <field type="string">element</field>
   <field type="int">atomtype</field>
   <set>
    <rc><c>Cu</c><c>   1</c></rc>
    <rc><c>Cu</c><c>   1</c></rc>
    <rc><c>Cu</c><c>   1</c></rc>
    <rc><c>Cu</c><c>   1</c></rc>
    <rc><c>H </c><c>   2</c></rc>
   </set>
  </array>
  <array name="atomtypes" >
   <dimension dim="1">type</dimension>
   <field type="int">atomspertype</field>
   <field type="string">element</field>
   <field>mass</field>
   <field>valence</field>
   <field type="string">pseudopotential</field>
   <set>
    <rc><c>   4</c><c>Cu</c><c>     63.54600000</c><c>     11.00000000</c><c> PAW_PBE Cu 05Jan2001                   </c></rc>
    <rc><c>   1</c><c>H </c><c>      1.00000000</c><c>      1.00000000</c><c> PAW_PBE H 15Jun2001                    </c></rc>
   </set>
  </array>
 </atominfo>
 <structure name="initialpos" >
  <crystal>
   <varray name="basis" >
    <v>       2.57386868       0.00000000       0.00000000 </v>
    <v>       1.28693434       2.22903567       0.00000000 </v>
    <v>       0.00000000       0.00000000      30.30466494 </v>
   </varray>
   <i name="volume">    173.86529028 </i>
   <varray name="rec_basis" >
    <v>       0.38852021      -0.22431225       0.00000000 </v>
    <v>       0.00000000       0.44862450       0.00000000 </v>
    <v>       0.00000000       0.00000000       0.03299822 </v>
   </varray>
  </crystal>
  <varray name="positions" >
   <v>       0.00000000       0.00000000       0.39644015 </v>
   <v>       0.33333333       0.33333333       0.46515176 </v>
   <v>       0.66666667       0.66666667       0.53391621 </v>
   <v>       0.00000000       0.00000000       0.60674401 </v>
   <v>       0.33333333       0.33333333       0.63476745 </v>
  </varray>
 </structure>
 <calculation>
  <scstep>
   <time name="dav">    0.27    0.28</time>
   <time name="total">    0.30    0.35</time>
   <energy>
    <i name="alphaZ">    120.87645803 </i>
    <i name="ewald">  37788.96794314 </i>
    <i name="hartreedc"> -42909.86997825 </i>
    <i name="XCdc">    177.44840005 </i>
    <i name="pawpsdc">   4328.99049516 </i>
    <i name="pawaedc">  -4905.09836044 </i>
    <i name="eentropy">     -0.01168654 </i>
    <i name="bandstr">     22.35062358 </i>
    <i name="atom">   5575.94961827 </i>
    <i name="e_fr_energy">    199.60351299 </i>
    <i name="e_wo_entrp">    199.61519953 </i>
    <i name="e_0_energy">    199.60935626 </i>
   </energy>
  </scstep>
  <scstep>
   <time name="dav">    0.28    0.28</time>
   <time name="total">    0.28    0.28</time>
   <energy>
    <i name="e_fr_energy">    -10.86838330 </i>
    <i name="e_wo_entrp">    -10.86044521 </i>
    <i name="e_0_energy">    -10.86441425 </i>
   </energy>
  </scstep>
  <scstep>
   <time name="dav">    0.29    0.29</time>
   <time name="total">    0.29    0.29</time>
   <energy>
    <i name="e_fr_energy">    -21.06694653 </i>
    <i name="e_wo_entrp">    -21.05679093 </i>
    <i name="e_0_energy">    -21.06186873 </i>
   </energy>
  </scstep>
  <scstep>
   <time name="dav">    0.28    0.28</time>
   <time name="total">    0.29    0.29</time>
   <energy>
    <i name="e_fr_energy">    -21.18325713 </i>
    <i name="e_wo_entrp">    -21.17337503 </i>
    <i name="e_0_energy">    -21.17831608 </i>
   </energy>
  </scstep>
  <scstep>
   <time name="dav">    0.30    0.30</time>
   <time name="total">    0.32    0.32</time>
   <energy>
    <i name="e_fr_energy">    -21.18464728 </i>
    <i name="e_wo_entrp">    -21.17476590 </i>
    <i name="e_0_energy">    -21.17970659 </i>
   </energy>
  </scstep>
  <scstep>
   <time name="diag">    0.06    0.06</time>
   <time name="diis">    0.16    0.16</time>
   <time name="orth">    0.01    0.01</time>
   <time name="total">    0.25    0.25</time>
   <energy>
    <i name="e_fr_energy">    -19.17825368 </i>
    <i name="e_wo_entrp">    -19.16903990 </i>
    <i name="e_0_energy">    -19.17364679 </i>
   </energy>
  </scstep>
  <scstep>
   <time name="diag">    0.05    0.06</time>
   <time name="diis">    0.16    0.16</time>
   <time name="orth">    0.01    0.01</time>
   <time name="total">    0.26    0.26</time>
   <energy>
    <i name="e_fr_energy">    -17.57331898 </i>
    <i name="e_wo_entrp">    -17.56019535 </i>
    <i name="e_0_energy">    -17.56675716 </i>
   </energy>
  </scstep>
  <scstep>
   <time name="diag">    0.06    0.06</time>
   <time name="diis">    0.16    0.16</time>
   <time name="orth">    0.01    0.01</time>
   <time name="total">    0.26    0.26</time>
   <energy>
    <i name="e_fr_energy">    -17.33874930 </i>
    <i name="e_wo_entrp">    -17.32219576 </i>
    <i name="e_0_energy">    -17.33047253 </i>
   </energy>
  </scstep>
  <scstep>
   <time name="diag">    0.05    0.06</time>
   <time name="diis">    0.16    0.16</time>
   <time name="orth">    0.01    0.01</time>
   <time name="total">    0.25    0.25</time>
   <energy>
    <i name="e_fr_energy">    -17.27409588 </i>
    <i name="e_wo_entrp">    -17.25890732 </i>
    <i name="e_0_energy">    -17.26650160 </i>
   </energy>
  </scstep>
  <scstep>
   <time name="diag">    0.05    0.06</time>
   <time name="diis">    0.16    0.16</time>
   <time name="orth">    0.01    0.01</time>
   <time name="total">    0.26    0.26</time>
   <energy>
    <i name="e_fr_energy">    -17.25890773 </i>
    <i name="e_wo_entrp">    -17.24160178 </i>
    <i name="e_0_energy">    -17.25025476 </i>
   </energy>
  </scstep>
  <scstep>
   <time name="diag">    0.05    0.06</time>
   <time name="diis">    0.16    0.16</time>
   <time name="orth">    0.01    0.01</time>
   <time name="total">    0.26    0.26</time>
   <energy>
    <i name="e_fr_energy">    -17.25485368 </i>
    <i name="e_wo_entrp">    -17.23702868 </i>
    <i name="e_0_energy">    -17.24594118 </i>
   </energy>
  </scstep>
  <scstep>
   <time name="diag">    0.06    0.06</time>
   <time name="diis">    0.16    0.16</time>
   <time name="orth">    0.01    0.01</time>
   <time name="total">    0.25    0.26</time>
   <energy>
    <i name="e_fr_energy">    -17.25291621 </i>
    <i name="e_wo_entrp">    -17.23655916 </i>
    <i name="e_0_energy">    -17.24473768 </i>
   </energy>
  </scstep>
  <scstep>
   <time name="diag">    0.05    0.06</time>
   <time name="diis">    0.16    0.15</time>
   <time name="orth">    0.01    0.01</time>
   <time name="total">    0.25    0.25</time>
   <energy>
    <i name="e_fr_energy">    -17.25232665 </i>
    <i name="e_wo_entrp">    -17.23497556 </i>
    <i name="e_0_energy">    -17.24365111 </i>
   </energy>
  </scstep>
  <scstep>
   <time name="diag">    0.05    0.06</time>
   <time name="diis">    0.15    0.15</time>
   <time name="orth">    0.01    0.01</time>
   <time name="total">    0.25    0.25</time>
   <energy>
    <i name="e_fr_energy">    -17.25232899 </i>
    <i name="e_wo_entrp">    -17.23506314 </i>
    <i name="e_0_energy">    -17.24369607 </i>
   </energy>
  </scstep>
  <scstep>
   <time name="diag">    0.05    0.06</time>
   <time name="diis">    0.15    0.15</time>
   <time name="orth">    0.01    0.01</time>
   <time name="total">    0.25    0.25</time>
   <energy>
    <i name="e_fr_energy">    -17.25256710 </i>
    <i name="e_wo_entrp">    -17.23542602 </i>
    <i name="e_0_energy">    -17.24399656 </i>
   </energy>
  </scstep>
  <scstep>
   <time name="diag">    0.05    0.06</time>
   <time name="diis">    0.15    0.15</time>
   <time name="orth">    0.01    0.01</time>
   <time name="total">    0.24    0.24</time>
   <energy>
    <i name="e_fr_energy">    -17.25291511 </i>
    <i name="e_wo_entrp">    -17.23563420 </i>
    <i name="e_0_energy">    -17.24427466 </i>
   </energy>
  </scstep>
  <scstep>
   <time name="diag">    0.05    0.06</time>
   <time name="diis">    0.15    0.15</time>
   <time name="orth">    0.01    0.01</time>
   <time name="total">    0.25    0.25</time>
   <energy>
    <i name="e_fr_energy">    -17.25296806 </i>
    <i name="e_wo_entrp">    -17.23561784 </i>
    <i name="e_0_energy">    -17.24429295 </i>
   </energy>
  </scstep>
  <scstep>
   <time name="diag">    0.05    0.06</time>
   <time name="diis">    0.13    0.13</time>
   <time name="orth">    0.01    0.01</time>
   <time name="total">    0.23    0.23</time>
   <energy>
    <i name="e_fr_energy">    -17.25302900 </i>
    <i name="e_wo_entrp">    -17.23576619 </i>
    <i name="e_0_energy">    -17.24439759 </i>
   </energy>
  </scstep>
  <scstep>
   <time name="diag">    0.05    0.06</time>
   <time name="diis">    0.11    0.11</time>
   <time name="orth">    0.01    0.01</time>
   <time name="total">    0.21    0.21</time>
   <energy>
    <i name="e_fr_energy">    -17.25306044 </i>
    <i name="e_wo_entrp">    -17.23579456 </i>
    <i name="e_0_energy">    -17.24442750 </i>
   </energy>
  </scstep>
  <scstep>
   <time name="diag">    0.05    0.06</time>
   <time name="diis">    0.11    0.11</time>
   <time name="orth">    0.01    0.01</time>
   <time name="total">    0.20    0.20</time>
   <energy>
    <i name="e_fr_energy">    -17.25308177 </i>
    <i name="e_wo_entrp">    -17.23577252 </i>
    <i name="e_0_energy">    -17.24442715 </i>
   </energy>
  </scstep>
  <scstep>
   <time name="diag">    0.05    0.06</time>
   <time name="diis">    0.10    0.10</time>
   <time name="orth">    0.01    0.01</time>
   <time name="total">    0.20    0.20</time>
   <energy>
    <i name="e_fr_energy">    -17.25309651 </i>
    <i name="e_wo_entrp">    -17.23580900 </i>
    <i name="e_0_energy">    -17.24445275 </i>
   </energy>
  </scstep>
  <scstep>
   <time name="diag">    0.05    0.06</time>
   <time name="diis">    0.10    0.10</time>
   <time name="orth">    0.01    0.01</time>
   <time name="total">    0.20    0.20</time>
   <energy>
    <i name="e_fr_energy">    -17.25310088 </i>
    <i name="e_wo_entrp">    -17.23579695 </i>
    <i name="e_0_energy">    -17.24444891 </i>
   </energy>
  </scstep>
  <scstep>
   <time name="diag">    0.05    0.06</time>
   <time name="diis">    0.10    0.10</time>
   <time name="orth">    0.01    0.01</time>
   <time name="total">    0.20    0.20</time>
   <energy>
    <i name="e_fr_energy">    -17.25310263 </i>
    <i name="e_wo_entrp">    -17.23580662 </i>
    <i name="e_0_energy">    -17.24445462 </i>
   </energy>
  </scstep>
  <scstep>
   <time name="diag">    0.05    0.06</time>
   <time name="diis">    0.08    0.08</time>
   <time name="orth">    0.01    0.01</time>
   <time name="total">    0.16    0.16</time>
   <energy>
    <i name="alphaZ">    120.87645803 </i>
    <i name="ewald">  37788.96794314 </i>
    <i name="hartreedc"> -42861.02729038 </i>
    <i name="XCdc">    173.44325908 </i>
    <i name="pawpsdc">   4393.91665773 </i>
    <i name="pawaedc">  -4969.76243923 </i>
    <i name="eentropy">     -0.01729647 </i>
    <i name="bandstr">   -239.60001303 </i>
    <i name="atom">   5575.94961827 </i>
    <i name="e_fr_energy">    -17.25310285 </i>
    <i name="e_wo_entrp">    -17.23580638 </i>
    <i name="e_0_energy">    -17.24445462 </i>
   </energy>
  </scstep>
  <structure>
   <crystal>
    <varray name="basis" >
     <v>       2.57386868       0.00000000       0.00000000 </v>
     <v>       1.28693434       2.22903567       0.00000000 </v>
     <v>       0.00000000       0.00000000      30.30466494 </v>
    </varray>
    <i name="volume">    173.86529028 </i>
    <varray name="rec_basis" >
     <v>       0.38852021      -0.22431225       0.00000000 </v>
     <v>       0.00000000       0.44862450       0.00000000 </v>
     <v>       0.00000000       0.00000000       0.03299822 </v>
    </varray>
   </crystal>
   <varray name="positions" >
    <v>       0.00000000       0.00000000       0.39644015 </v>
    <v>       0.33333333       0.33333333       0.46515176 </v>
    <v>       0.66666667       0.66666667       0.53391621 </v>
    <v>       0.00000000       0.00000000       0.60674401 </v>
    <v>       0.33333333       0.33333333       0.63476745 </v>
   </varray>
  </structure>
  <varray name="forces" >
   <v>       0.00000000       0.00000000       0.06189657 </v>
   <v>      -0.00000000      -0.00000000      -0.00454280 </v>
   <v>      -0.00000000      -0.00000000       0.02305768 </v>
   <v>       0.00000000       0.00000000      -0.02637439 </v>
   <v>      -0.00000000      -0.00000000      -0.05403706 </v>
  </varray>
  <varray name="stress" >
   <v>     -45.01041030       0.00000000       0.00000000 </v>
   <v>       0.00000000     -45.01041030       0.00000000 </v>
   <v>       0.00000000       0.00000000     -48.82143121 </v>
  </varray>
  <energy>
   <i name="e_fr_energy">    -17.25310285 </i>
   <i name="e_wo_entrp">    -17.24445462 </i>
   <i name="e_0_energy">     -0.01729647 </i>
  </energy>
  <time name="totalsc">    6.38   11.12</time>
  <eigenvalues>
   <array>
    <dimension dim="1">band</dimension>
    <dimension dim="2">kpoint</dimension>
    <dimension dim="3">spin</dimension>
    <field>eigene</field>
    <field>occ</field>
    <set>
     <set comment="spin 1">
      <set comment="kpoint 1">
       <r>  -11.7513    1.0000 </r>
       <r>  -10.6544    1.0000 </r>
       <r>   -8.9534    1.0000 </r>
       <r>   -7.4630    1.0000 </r>
       <r>   -5.8217    1.0000 </r>
       <r>   -5.5899    1.0000 </r>
       <r>   -5.5896    1.0000 </r>
       <r>   -5.5405    1.0000 </r>
       <r>   -5.2377    1.0000 </r>
       <r>   -5.1970    1.0000 </r>
       <r>   -5.1967    1.0000 </r>
       <r>   -5.1663    1.0000 </r>
       <r>   -5.1661    1.0000 </r>
       <r>   -4.9208    1.0000 </r>
       <r>   -4.9205    1.0000 </r>
       <r>   -4.8017    1.0000 </r>
       <r>   -4.7251    1.0000 </r>
       <r>   -4.7251    1.0000 </r>
       <r>   -4.4240    1.0000 </r>
       <r>   -4.4240    1.0000 </r>
       <r>   -4.2042    1.0000 </r>
       <r>   -4.2041    1.0000 </r>
       <r>   -3.9225    1.0000 </r>
       <r>   -3.9224    1.0000 </r>
       <r>   -2.8446    1.0000 </r>
       <r>    1.6120    0.0000 </r>
       <r>    1.8990    0.0000 </r>
       <r>    2.3006    0.0000 </r>
      </set>
      <set comment="kpoint 2">
       <r>  -11.4553    1.0000 </r>
       <r>  -10.3540    1.0000 </r>
       <r>   -8.6852    1.0000 </r>
       <r>   -7.2408    1.0000 </r>
       <r>   -5.9206    1.0000 </r>
       <r>   -5.7006    1.0000 </r>
       <r>   -5.5701    1.0000 </r>
       <r>   -5.4825    1.0000 </r>
       <r>   -5.3144    1.0000 </r>
       <r>   -5.2700    1.0000 </r>
       <r>   -5.2425    1.0000 </r>
       <r>   -5.0970    1.0000 </r>
       <r>   -5.0882    1.0000 </r>
       <r>   -5.0314    1.0000 </r>
       <r>   -4.9413    1.0000 </r>
       <r>   -4.8410    1.0000 </r>
       <r>   -4.7318    1.0000 </r>
       <r>   -4.6236    1.0000 </r>
       <r>   -4.4407    1.0000 </r>
       <r>   -4.4034    1.0000 </r>
       <r>   -4.2300    1.0000 </r>
       <r>   -4.2004    1.0000 </r>
       <r>   -3.9175    1.0000 </r>
       <r>   -3.7011    1.0000 </r>
       <r>   -2.1570    0.0530 </r>
       <r>    1.8619    0.0000 </r>
       <r>    2.2009    0.0000 </r>
       <r>    2.6028    0.0000 </r>
      </set>
      <set comment="kpoint 3">
       <r>  -10.6171    1.0000 </r>
       <r>   -9.5006    1.0000 </r>
       <r>   -7.9829    1.0000 </r>
       <r>   -6.7131    1.0000 </r>
       <r>   -6.1957    1.0000 </r>
       <r>   -5.8412    1.0000 </r>
       <r>   -5.6998    1.0000 </r>
       <r>   -5.6094    1.0000 </r>
       <r>   -5.4285    1.0000 </r>
       <r>   -5.2173    1.0000 </r>
       <r>   -5.2076    1.0000 </r>
       <r>   -5.1354    1.0000 </r>
       <r>   -4.9867    1.0000 </r>
       <r>   -4.9413    1.0000 </r>
       <r>   -4.8461    1.0000 </r>
       <r>   -4.7829    1.0000 </r>
       <r>   -4.7236    1.0000 </r>
       <r>   -4.5488    1.0000 </r>
       <r>   -4.4981    1.0000 </r>
       <r>   -4.3879    1.0000 </r>
       <r>   -4.2018    1.0000 </r>
       <r>   -4.0160    1.0000 </r>
       <r>   -3.9110    1.0000 </r>
       <r>   -2.8158    1.0000 </r>
       <r>   -0.8252    0.0000 </r>
       <r>    2.6047    0.0000 </r>
       <r>    3.1052    0.0000 </r>
       <r>    3.5087    0.0000 </r>
      </set>
      <set comment="kpoint 4">
       <r>   -9.4549    1.0000 </r>
       <r>   -8.3015    1.0000 </r>
       <r>   -7.2659    1.0000 </r>
       <r>   -6.4934    1.0000 </r>
       <r>   -6.2864    1.0000 </r>
       <r>   -6.0854    1.0000 </r>
       <r>   -5.7972    1.0000 </r>
       <r>   -5.5913    1.0000 </r>
       <r>   -5.4962    1.0000 </r>
       <r>   -5.2254    1.0000 </r>
       <r>   -5.0996    1.0000 </r>
       <r>   -4.9909    1.0000 </r>
       <r>   -4.8634    1.0000 </r>
       <r>   -4.7676    1.0000 </r>
       <r>   -4.7562    1.0000 </r>
       <r>   -4.5915    1.0000 </r>
       <r>   -4.4755    1.0000 </r>
       <r>   -4.3072    1.0000 </r>
       <r>   -4.2637    1.0000 </r>
       <r>   -4.1915    1.0000 </r>
       <r>   -4.0709    1.0000 </r>
       <r>   -3.8961    1.0000 </r>
       <r>   -3.5459    1.0000 </r>
       <r>   -1.6355    0.0000 </r>
       <r>    0.8422    0.0000 </r>
       <r>    3.7928    0.0000 </r>
       <r>    4.5511    0.0000 </r>
       <r>    4.9141    0.0000 </r>
      </set>
      <set comment="kpoint 5">
       <r>   -8.5875    1.0000 </r>
       <r>   -7.2749    1.0000 </r>
       <r>   -6.9449    1.0000 </r>
       <r>   -6.5576    1.0000 </r>
       <r>   -6.4049    1.0000 </r>
       <r>   -6.2189    1.0000 </r>
       <r>   -5.8605    1.0000 </r>
       <r>   -5.4219    1.0000 </r>
       <r>   -5.2724    1.0000 </r>
       <r>   -5.2005    1.0000 </r>
       <r>   -5.1745    1.0000 </r>
       <r>   -4.9115    1.0000 </r>
       <r>   -4.7172    1.0000 </r>
       <r>   -4.4562    1.0000 </r>
       <r>   -4.3757    1.0000 </r>
       <r>   -4.3157    1.0000 </r>
       <r>   -4.0397    1.0000 </r>
       <r>   -4.0353    1.0000 </r>
       <r>   -3.9730    1.0000 </r>
       <r>   -3.8978    1.0000 </r>
       <r>   -3.7534    1.0000 </r>
       <r>   -3.5106    1.0000 </r>
       <r>   -2.4890    0.9990 </r>
       <r>   -0.2581    0.0000 </r>
       <r>    1.6606    0.0000 </r>
       <r>    2.8821    0.0000 </r>
       <r>    3.6595    0.0000 </r>
       <r>    4.7428    0.0000 </r>
      </set>
      <set comment="kpoint 6">
       <r>   -8.3661    1.0000 </r>
       <r>   -6.9558    1.0000 </r>
       <r>   -6.9017    1.0000 </r>
       <r>   -6.5326    1.0000 </r>
       <r>   -6.4761    1.0000 </r>
       <r>   -6.2781    1.0000 </r>
       <r>   -5.8492    1.0000 </r>
       <r>   -5.3452    1.0000 </r>
       <r>   -5.2067    1.0000 </r>
       <r>   -5.1791    1.0000 </r>
       <r>   -5.1123    1.0000 </r>
       <r>   -4.9327    1.0000 </r>
       <r>   -4.4094    1.0000 </r>
       <r>   -4.3980    1.0000 </r>
       <r>   -4.3025    1.0000 </r>
       <r>   -4.2039    1.0000 </r>
       <r>   -3.9800    1.0000 </r>
       <r>   -3.8792    1.0000 </r>
       <r>   -3.8183    1.0000 </r>
       <r>   -3.6378    1.0000 </r>
       <r>   -3.5687    1.0000 </r>
       <r>   -2.1890    0.1225 </r>
       <r>   -1.2880    0.0000 </r>
       <r>   -0.7454    0.0000 </r>
       <r>    0.4671    0.0000 </r>
       <r>    2.1950    0.0000 </r>
       <r>    3.3508    0.0000 </r>
       <r>    4.2166    0.0000 </r>
      </set>
      <set comment="kpoint 7">
       <r>  -10.8862    1.0000 </r>
       <r>   -9.7750    1.0000 </r>
       <r>   -8.1943    1.0000 </r>
       <r>   -6.8530    1.0000 </r>
       <r>   -6.1166    1.0000 </r>
       <r>   -5.7660    1.0000 </r>
       <r>   -5.6981    1.0000 </r>
       <r>   -5.5488    1.0000 </r>
       <r>   -5.3913    1.0000 </r>
       <r>   -5.2897    1.0000 </r>
       <r>   -5.2572    1.0000 </r>
       <r>   -5.0958    1.0000 </r>
       <r>   -5.0381    1.0000 </r>
       <r>   -4.9960    1.0000 </r>
       <r>   -4.8868    1.0000 </r>
       <r>   -4.8077    1.0000 </r>
       <r>   -4.6391    1.0000 </r>
       <r>   -4.5546    1.0000 </r>
       <r>   -4.5297    1.0000 </r>
       <r>   -4.3993    1.0000 </r>
       <r>   -4.2848    1.0000 </r>
       <r>   -4.0177    1.0000 </r>
       <r>   -3.9571    1.0000 </r>
       <r>   -3.0695    1.0000 </r>
       <r>   -1.2157    0.0000 </r>
       <r>    2.3593    0.0000 </r>
       <r>    2.8044    0.0000 </r>
       <r>    3.2071    0.0000 </r>
      </set>
      <set comment="kpoint 8">
       <r>   -9.8669    1.0000 </r>
       <r>   -8.7283    1.0000 </r>
       <r>   -7.4524    1.0000 </r>
       <r>   -6.4292    1.0000 </r>
       <r>   -6.2267    1.0000 </r>
       <r>   -5.9720    1.0000 </r>
       <r>   -5.8039    1.0000 </r>
       <r>   -5.7121    1.0000 </r>
       <r>   -5.5437    1.0000 </r>
       <r>   -5.2418    1.0000 </r>
       <r>   -5.2118    1.0000 </r>
       <r>   -5.1111    1.0000 </r>
       <r>   -5.0072    1.0000 </r>
       <r>   -4.8714    1.0000 </r>
       <r>   -4.8173    1.0000 </r>
       <r>   -4.7081    1.0000 </r>
       <r>   -4.5577    1.0000 </r>
       <r>   -4.4203    1.0000 </r>
       <r>   -4.2968    1.0000 </r>
       <r>   -4.2278    1.0000 </r>
       <r>   -4.0813    1.0000 </r>
       <r>   -3.9762    1.0000 </r>
       <r>   -3.6573    1.0000 </r>
       <r>   -2.0617    0.0015 </r>
       <r>    0.2387    0.0000 </r>
       <r>    3.3552    0.0000 </r>
       <r>    4.0030    0.0000 </r>
       <r>    4.4242    0.0000 </r>
      </set>
      <set comment="kpoint 9">
       <r>   -8.8058    1.0000 </r>
       <r>   -7.5606    1.0000 </r>
       <r>   -6.9465    1.0000 </r>
       <r>   -6.4726    1.0000 </r>
       <r>   -6.2560    1.0000 </r>
       <r>   -6.1080    1.0000 </r>
       <r>   -5.8529    1.0000 </r>
       <r>   -5.5971    1.0000 </r>
       <r>   -5.5099    1.0000 </r>
       <r>   -5.2502    1.0000 </r>
       <r>   -5.1796    1.0000 </r>
       <r>   -5.0381    1.0000 </r>
       <r>   -4.8748    1.0000 </r>
       <r>   -4.6831    1.0000 </r>
       <r>   -4.5805    1.0000 </r>
       <r>   -4.4562    1.0000 </r>
       <r>   -4.3532    1.0000 </r>
       <r>   -4.2109    1.0000 </r>
       <r>   -4.1053    1.0000 </r>
       <r>   -3.9155    1.0000 </r>
       <r>   -3.8770    1.0000 </r>
       <r>   -3.5658    1.0000 </r>
       <r>   -2.7813    1.0000 </r>
       <r>   -0.6642    0.0000 </r>
       <r>    1.9260    0.0000 </r>
       <r>    3.8492    0.0000 </r>
       <r>    4.6895    0.0000 </r>
       <r>    5.2829    0.0000 </r>
      </set>
      <set comment="kpoint 10">
       <r>   -8.3243    1.0000 </r>
       <r>   -6.8904    1.0000 </r>
       <r>   -6.8000    1.0000 </r>
       <r>   -6.4611    1.0000 </r>
       <r>   -6.3765    1.0000 </r>
       <r>   -6.1736    1.0000 </r>
       <r>   -5.8504    1.0000 </r>
       <r>   -5.5011    1.0000 </r>
       <r>   -5.3337    1.0000 </r>
       <r>   -5.2644    1.0000 </r>
       <r>   -5.1546    1.0000 </r>
       <r>   -4.9206    1.0000 </r>
       <r>   -4.7868    1.0000 </r>
       <r>   -4.4724    1.0000 </r>
       <r>   -4.3516    1.0000 </r>
       <r>   -4.1900    1.0000 </r>
       <r>   -4.0859    1.0000 </r>
       <r>   -4.0311    1.0000 </r>
       <r>   -3.9575    1.0000 </r>
       <r>   -3.8026    1.0000 </r>
       <r>   -3.3611    1.0000 </r>
       <r>   -2.2855    0.5801 </r>
       <r>   -1.2729    0.0000 </r>
       <r>    0.1872    0.0000 </r>
       <r>    0.9149    0.0000 </r>
       <r>    2.5236    0.0000 </r>
       <r>    3.5586    0.0000 </r>
       <r>    4.7344    0.0000 </r>
      </set>
      <set comment="kpoint 11">
       <r>   -8.8949    1.0000 </r>
       <r>   -7.6629    1.0000 </r>
       <r>   -6.9086    1.0000 </r>
       <r>   -6.3570    1.0000 </r>
       <r>   -6.1246    1.0000 </r>
       <r>   -5.9605    1.0000 </r>
       <r>   -5.8962    1.0000 </r>
       <r>   -5.7897    1.0000 </r>
       <r>   -5.5118    1.0000 </r>
       <r>   -5.3812    1.0000 </r>
       <r>   -5.2736    1.0000 </r>
       <r>   -5.2369    1.0000 </r>
       <r>   -4.9469    1.0000 </r>
       <r>   -4.8715    1.0000 </r>
       <r>   -4.7156    1.0000 </r>
       <r>   -4.5591    1.0000 </r>
       <r>   -4.3889    1.0000 </r>
       <r>   -4.2351    1.0000 </r>
       <r>   -4.1420    1.0000 </r>
       <r>   -3.9167    1.0000 </r>
       <r>   -3.8702    1.0000 </r>
       <r>   -3.5090    1.0000 </r>
       <r>   -2.7783    1.0000 </r>
       <r>   -0.7929    0.0000 </r>
       <r>    1.7828    0.0000 </r>
       <r>    4.6049    0.0000 </r>
       <r>    5.1789    0.0000 </r>
       <r>    5.6588    0.0000 </r>
      </set>
      <set comment="kpoint 12">
       <r>   -8.2493    1.0000 </r>
       <r>   -6.7656    1.0000 </r>
       <r>   -6.5729    1.0000 </r>
       <r>   -6.3431    1.0000 </r>
       <r>   -6.1466    1.0000 </r>
       <r>   -6.0401    1.0000 </r>
       <r>   -5.8388    1.0000 </r>
       <r>   -5.7412    1.0000 </r>
       <r>   -5.5082    1.0000 </r>
       <r>   -5.4318    1.0000 </r>
       <r>   -5.3539    1.0000 </r>
       <r>   -5.0051    1.0000 </r>
       <r>   -4.9207    1.0000 </r>
       <r>   -4.7762    1.0000 </r>
       <r>   -4.5967    1.0000 </r>
       <r>   -4.4816    1.0000 </r>
       <r>   -4.3203    1.0000 </r>
       <r>   -4.1412    1.0000 </r>
       <r>   -3.9751    1.0000 </r>
       <r>   -3.8228    1.0000 </r>
       <r>   -3.1645    1.0000 </r>
       <r>   -2.2940    0.6262 </r>
       <r>   -1.1535    0.0000 </r>
       <r>    0.8484    0.0000 </r>
       <r>    2.4588    0.0000 </r>
       <r>    3.5948    0.0000 </r>
       <r>    4.4098    0.0000 </r>
       <r>    5.0844    0.0000 </r>
      </set>
      <set comment="kpoint 13">
       <r>   -8.0897    1.0000 </r>
       <r>   -6.5341    1.0000 </r>
       <r>   -6.5076    1.0000 </r>
       <r>   -6.2475    1.0000 </r>
       <r>   -6.2025    1.0000 </r>
       <r>   -5.9893    1.0000 </r>
       <r>   -5.8382    1.0000 </r>
       <r>   -5.7773    1.0000 </r>
       <r>   -5.5076    1.0000 </r>
       <r>   -5.3824    1.0000 </r>
       <r>   -5.2982    1.0000 </r>
       <r>   -5.0377    1.0000 </r>
       <r>   -4.8673    1.0000 </r>
       <r>   -4.6401    1.0000 </r>
       <r>   -4.5063    1.0000 </r>
       <r>   -4.4336    1.0000 </r>
       <r>   -4.2119    1.0000 </r>
       <r>   -4.0647    1.0000 </r>
       <r>   -3.9926    1.0000 </r>
       <r>   -3.8897    1.0000 </r>
       <r>   -2.3319    0.8045 </r>
       <r>   -0.6079    0.0000 </r>
       <r>   -0.0215    0.0000 </r>
       <r>    0.7370    0.0000 </r>
       <r>    0.9581    0.0000 </r>
       <r>    2.7864    0.0000 </r>
       <r>    4.1416    0.0000 </r>
       <r>    4.5680    0.0000 </r>
      </set>
      <set comment="kpoint 14">
       <r>   -7.9848    1.0000 </r>
       <r>   -6.3163    1.0000 </r>
       <r>   -6.2602    1.0000 </r>
       <r>   -6.1828    1.0000 </r>
       <r>   -6.0766    1.0000 </r>
       <r>   -5.9385    1.0000 </r>
       <r>   -5.9069    1.0000 </r>
       <r>   -5.7863    1.0000 </r>
       <r>   -5.6559    1.0000 </r>
       <r>   -5.5636    1.0000 </r>
       <r>   -5.3647    1.0000 </r>
       <r>   -4.9834    1.0000 </r>
       <r>   -4.9335    1.0000 </r>
       <r>   -4.8103    1.0000 </r>
       <r>   -4.6127    1.0000 </r>
       <r>   -4.4619    1.0000 </r>
       <r>   -4.3828    1.0000 </r>
       <r>   -4.0953    1.0000 </r>
       <r>   -4.0080    1.0000 </r>
       <r>   -3.9139    1.0000 </r>
       <r>   -1.8745    0.0000 </r>
       <r>   -0.2916    0.0000 </r>
       <r>    0.8799    0.0000 </r>
       <r>    1.8101    0.0000 </r>
       <r>    2.4312    0.0000 </r>
       <r>    2.4498    0.0000 </r>
       <r>    3.2979    0.0000 </r>
       <r>    4.1230    0.0000 </r>
      </set>
     </set>
    </set>
   </array>
  </eigenvalues>
  <separator name="orbital magnetization" >
   <v name="MAGDIPOLOUT">      0.00000000      0.00000000      0.00000000</v>
  </separator>
  <dos>
   <i name="efermi">     -2.27123566 </i>
   <total>
    <array>
     <dimension dim="1">gridpoints</dimension>
     <dimension dim="2">spin</dimension>
     <field>energy</field>
     <field>total</field>
     <field>integrated</field>
     <set>
      <set comment="spin 1">
       <r>   -17.0000     0.0000     0.0000 </r>
       <r>   -16.9900     0.0000     0.0000 </r>
       <r>   -16.9800     0.0000     0.0000 </r>
       <r>   -16.9700     0.0000     0.0000 </r>
       <r>   -16.9600     0.0000     0.0000 </r>
       <r>   -16.9500     0.0000     0.0000 </r>
       <r>   -16.9400     0.0000     0.0000 </r>
       <r>   -16.9300     0.0000     0.0000 </r>
       <r>   -16.9200     0.0000     0.0000 </r>
       <r>   -16.9100     0.0000     0.0000 </r>
       <r>   -16.9000     0.0000     0.0000 </r>
       <r>   -16.8900     0.0000     0.0000 </r>
       <r>   -16.8800     0.0000     0.0000 </r>
       <r>   -16.8700     0.0000     0.0000 </r>
       <r>   -16.8600     0.0000     0.0000 </r>
       <r>   -16.8500     0.0000     0.0000 </r>
       <r>   -16.8400     0.0000     0.0000 </r>
       <r>   -16.8300     0.0000     0.0000 </r>
       <r>   -16.8200     0.0000     0.0000 </r>
       <r>   -16.8100     0.0000     0.0000 </r>
       <r>   -16.8000     0.0000     0.0000 </r>
       <r>   -16.7900     0.0000     0.0000 </r>
       <r>   -16.7800     0.0000     0.0000 </r>
       <r>   -16.7700     0.0000     0.0000 </r>
       <r>   -16.7600     0.0000     0.0000 </r>
       <r>   -16.7500     0.0000     0.0000 </r>
       <r>   -16.7400     0.0000     0.0000 </r>
       <r>   -16.7300     0.0000     0.0000 </r>
       <r>   -16.7200     0.0000     0.0000 </r>
       <r>   -16.7100     0.0000     0.0000 </r>
       <r>   -16.7000     0.0000     0.0000 </r>
       <r>   -16.6900     0.0000     0.0000 </r>
       <r>   -16.6800     0.0000     0.0000 </r>
       <r>   -16.6700     0.0000     0.0000 </r>
       <r>   -16.6600     0.0000     0.0000 </r>
       <r>   -16.6500     0.0000     0.0000 </r>
       <r>   -16.6400     0.0000     0.0000 </r>
       <r>   -16.6300     0.0000     0.0000 </r>
       <r>   -16.6200     0.0000     0.0000 </r>
       <r>   -16.6100     0.0000     0.0000 </r>
       <r>   -16.6000     0.0000     0.0000 </r>
       <r>   -16.5900     0.0000     0.0000 </r>
       <r>   -16.5800     0.0000     0.0000 </r>
       <r>   -16.5700     0.0000     0.0000 </r>
       <r>   -16.5600     0.0000     0.0000 </r>
       <r>   -16.5500     0.0000     0.0000 </r>
       <r>   -16.5400     0.0000     0.0000 </r>
       <r>   -16.5300     0.0000     0.0000 </r>
       <r>   -16.5200     0.0000     0.0000 </r>
       <r>   -16.5100     0.0000     0.0000 </r>
       <r>   -16.5000     0.0000     0.0000 </r>
       <r>   -16.4900     0.0000     0.0000 </r>
       <r>   -16.4800     0.0000     0.0000 </r>
       <r>   -16.4700     0.0000     0.0000 </r>
       <r>   -16.4600     0.0000     0.0000 </r>
       <r>   -16.4500     0.0000     0.0000 </r>
       <r>   -16.4400     0.0000     0.0000 </r>
       <r>   -16.4300     0.0000     0.0000 </r>
       <r>   -16.4200     0.0000     0.0000 </r>
       <r>   -16.4100     0.0000     0.0000 </r>
       <r>   -16.4000     0.0000     0.0000 </r>
       <r>   -16.3900     0.0000     0.0000 </r>
       <r>   -16.3800     0.0000     0.0000 </r>
       <r>   -16.3700     0.0000     0.0000 </r>
       <r>   -16.3600     0.0000     0.0000 </r>
       <r>   -16.3500     0.0000     0.0000 </r>
       <r>   -16.3400     0.0000     0.0000 </r>
       <r>   -16.3300     0.0000     0.0000 </r>
       <r>   -16.3200     0.0000     0.0000 </r>
       <r>   -16.3100     0.0000     0.0000 </r>
       <r>   -16.3000     0.0000     0.0000 </r>
       <r>   -16.2900     0.0000     0.0000 </r>
       <r>   -16.2800     0.0000     0.0000 </r>
       <r>   -16.2700     0.0000     0.0000 </r>
       <r>   -16.2600     0.0000     0.0000 </r>
       <r>   -16.2500     0.0000     0.0000 </r>
       <r>   -16.2400     0.0000     0.0000 </r>
       <r>   -16.2300     0.0000     0.0000 </r>
       <r>   -16.2200     0.0000     0.0000 </r>
       <r>   -16.2100     0.0000     0.0000 </r>
       <r>   -16.2000     0.0000     0.0000 </r>
       <r>   -16.1900     0.0000     0.0000 </r>
       <r>   -16.1800     0.0000     0.0000 </r>
       <r>   -16.1700     0.0000     0.0000 </r>
       <r>   -16.1600     0.0000     0.0000 </r>
       <r>   -16.1500     0.0000     0.0000 </r>
       <r>   -16.1400     0.0000     0.0000 </r>
       <r>   -16.1300     0.0000     0.0000 </r>
       <r>   -16.1200     0.0000     0.0000 </r>
       <r>   -16.1100     0.0000     0.0000 </r>
       <r>   -16.1000     0.0000     0.0000 </r>
       <r>   -16.0900     0.0000     0.0000 </r>
       <r>   -16.0800     0.0000     0.0000 </r>
       <r>   -16.0700     0.0000     0.0000 </r>
       <r>   -16.0600     0.0000     0.0000 </r>
       <r>   -16.0500     0.0000     0.0000 </r>
       <r>   -16.0400     0.0000     0.0000 </r>
       <r>   -16.0300     0.0000     0.0000 </r>
       <r>   -16.0200     0.0000     0.0000 </r>
       <r>   -16.0100     0.0000     0.0000 </r>
       <r>   -16.0000     0.0000     0.0000 </r>
       <r>   -15.9900     0.0000     0.0000 </r>
       <r>   -15.9800     0.0000     0.0000 </r>
       <r>   -15.9700     0.0000     0.0000 </r>
       <r>   -15.9600     0.0000     0.0000 </r>
       <r>   -15.9500     0.0000     0.0000 </r>
       <r>   -15.9400     0.0000     0.0000 </r>
       <r>   -15.9300     0.0000     0.0000 </r>
       <r>   -15.9200     0.0000     0.0000 </r>
       <r>   -15.9100     0.0000     0.0000 </r>
       <r>   -15.9000     0.0000     0.0000 </r>
       <r>   -15.8900     0.0000     0.0000 </r>
       <r>   -15.8800     0.0000     0.0000 </r>
       <r>   -15.8700     0.0000     0.0000 </r>
       <r>   -15.8600     0.0000     0.0000 </r>
       <r>   -15.8500     0.0000     0.0000 </r>
       <r>   -15.8400     0.0000     0.0000 </r>
       <r>   -15.8300     0.0000     0.0000 </r>
       <r>   -15.8200     0.0000     0.0000 </r>
       <r>   -15.8100     0.0000     0.0000 </r>
       <r>   -15.8000     0.0000     0.0000 </r>
       <r>   -15.7900     0.0000     0.0000 </r>
       <r>   -15.7800     0.0000     0.0000 </r>
       <r>   -15.7700     0.0000     0.0000 </r>
       <r>   -15.7600     0.0000     0.0000 </r>
       <r>   -15.7500     0.0000     0.0000 </r>
       <r>   -15.7400     0.0000     0.0000 </r>
       <r>   -15.7300     0.0000     0.0000 </r>
       <r>   -15.7200     0.0000     0.0000 </r>
       <r>   -15.7100     0.0000     0.0000 </r>
       <r>   -15.7000     0.0000     0.0000 </r>
       <r>   -15.6900     0.0000     0.0000 </r>
       <r>   -15.6800     0.0000     0.0000 </r>
       <r>   -15.6700     0.0000     0.0000 </r>
       <r>   -15.6600     0.0000     0.0000 </r>
       <r>   -15.6500     0.0000     0.0000 </r>
       <r>   -15.6400     0.0000     0.0000 </r>
       <r>   -15.6300     0.0000     0.0000 </r>
       <r>   -15.6200     0.0000     0.0000 </r>
       <r>   -15.6100     0.0000     0.0000 </r>
       <r>   -15.6000     0.0000     0.0000 </r>
       <r>   -15.5900     0.0000     0.0000 </r>
       <r>   -15.5800     0.0000     0.0000 </r>
       <r>   -15.5700     0.0000     0.0000 </r>
       <r>   -15.5600     0.0000     0.0000 </r>
       <r>   -15.5500     0.0000     0.0000 </r>
       <r>   -15.5400     0.0000     0.0000 </r>
       <r>   -15.5300     0.0000     0.0000 </r>
       <r>   -15.5200     0.0000     0.0000 </r>
       <r>   -15.5100     0.0000     0.0000 </r>
       <r>   -15.5000     0.0000     0.0000 </r>
       <r>   -15.4900     0.0000     0.0000 </r>
       <r>   -15.4800     0.0000     0.0000 </r>
       <r>   -15.4700     0.0000     0.0000 </r>
       <r>   -15.4600     0.0000     0.0000 </r>
       <r>   -15.4500     0.0000     0.0000 </r>
       <r>   -15.4400     0.0000     0.0000 </r>
       <r>   -15.4300     0.0000     0.0000 </r>
       <r>   -15.4200     0.0000     0.0000 </r>
       <r>   -15.4100     0.0000     0.0000 </r>
       <r>   -15.4000     0.0000     0.0000 </r>
       <r>   -15.3900     0.0000     0.0000 </r>
       <r>   -15.3800     0.0000     0.0000 </r>
       <r>   -15.3700     0.0000     0.0000 </r>
       <r>   -15.3600     0.0000     0.0000 </r>
       <r>   -15.3500     0.0000     0.0000 </r>
       <r>   -15.3400     0.0000     0.0000 </r>
       <r>   -15.3300     0.0000     0.0000 </r>
       <r>   -15.3200     0.0000     0.0000 </r>
       <r>   -15.3100     0.0000     0.0000 </r>
       <r>   -15.3000     0.0000     0.0000 </r>
       <r>   -15.2900     0.0000     0.0000 </r>
       <r>   -15.2800     0.0000     0.0000 </r>
       <r>   -15.2700     0.0000     0.0000 </r>
       <r>   -15.2600     0.0000     0.0000 </r>
       <r>   -15.2500     0.0000     0.0000 </r>
       <r>   -15.2400     0.0000     0.0000 </r>
       <r>   -15.2300     0.0000     0.0000 </r>
       <r>   -15.2200     0.0000     0.0000 </r>
       <r>   -15.2100     0.0000     0.0000 </r>
       <r>   -15.2000     0.0000     0.0000 </r>
       <r>   -15.1900     0.0000     0.0000 </r>
       <r>   -15.1800     0.0000     0.0000 </r>
       <r>   -15.1700     0.0000     0.0000 </r>
       <r>   -15.1600     0.0000     0.0000 </r>
       <r>   -15.1500     0.0000     0.0000 </r>
       <r>   -15.1400     0.0000     0.0000 </r>
       <r>   -15.1300     0.0000     0.0000 </r>
       <r>   -15.1200     0.0000     0.0000 </r>
       <r>   -15.1100     0.0000     0.0000 </r>
       <r>   -15.1000     0.0000     0.0000 </r>
       <r>   -15.0900     0.0000     0.0000 </r>
       <r>   -15.0800     0.0000     0.0000 </r>
       <r>   -15.0700     0.0000     0.0000 </r>
       <r>   -15.0600     0.0000     0.0000 </r>
       <r>   -15.0500     0.0000     0.0000 </r>
       <r>   -15.0400     0.0000     0.0000 </r>
       <r>   -15.0300     0.0000     0.0000 </r>
       <r>   -15.0200     0.0000     0.0000 </r>
       <r>   -15.0100     0.0000     0.0000 </r>
       <r>   -15.0000     0.0000     0.0000 </r>
       <r>   -14.9900     0.0000     0.0000 </r>
       <r>   -14.9800     0.0000     0.0000 </r>
       <r>   -14.9700     0.0000     0.0000 </r>
       <r>   -14.9600     0.0000     0.0000 </r>
       <r>   -14.9500     0.0000     0.0000 </r>
       <r>   -14.9400     0.0000     0.0000 </r>
       <r>   -14.9300     0.0000     0.0000 </r>
       <r>   -14.9200     0.0000     0.0000 </r>
       <r>   -14.9100     0.0000     0.0000 </r>
       <r>   -14.9000     0.0000     0.0000 </r>
       <r>   -14.8900     0.0000     0.0000 </r>
       <r>   -14.8800     0.0000     0.0000 </r>
       <r>   -14.8700     0.0000     0.0000 </r>
       <r>   -14.8600     0.0000     0.0000 </r>
       <r>   -14.8500     0.0000     0.0000 </r>
       <r>   -14.8400     0.0000     0.0000 </r>
       <r>   -14.8300     0.0000     0.0000 </r>
       <r>   -14.8200     0.0000     0.0000 </r>
       <r>   -14.8100     0.0000     0.0000 </r>
       <r>   -14.8000     0.0000     0.0000 </r>
       <r>   -14.7900     0.0000     0.0000 </r>
       <r>   -14.7800     0.0000     0.0000 </r>
       <r>   -14.7700     0.0000     0.0000 </r>
       <r>   -14.7600     0.0000     0.0000 </r>
       <r>   -14.7500     0.0000     0.0000 </r>
       <r>   -14.7400     0.0000     0.0000 </r>
       <r>   -14.7300     0.0000     0.0000 </r>
       <r>   -14.7200     0.0000     0.0000 </r>
       <r>   -14.7100     0.0000     0.0000 </r>
       <r>   -14.7000     0.0000     0.0000 </r>
       <r>   -14.6900     0.0000     0.0000 </r>
       <r>   -14.6800     0.0000     0.0000 </r>
       <r>   -14.6700     0.0000     0.0000 </r>
       <r>   -14.6600     0.0000     0.0000 </r>
       <r>   -14.6500     0.0000     0.0000 </r>
       <r>   -14.6400     0.0000     0.0000 </r>
       <r>   -14.6300     0.0000     0.0000 </r>
       <r>   -14.6200     0.0000     0.0000 </r>
       <r>   -14.6100     0.0000     0.0000 </r>
       <r>   -14.6000     0.0000     0.0000 </r>
       <r>   -14.5900     0.0000     0.0000 </r>
       <r>   -14.5800     0.0000     0.0000 </r>
       <r>   -14.5700     0.0000     0.0000 </r>
       <r>   -14.5600     0.0000     0.0000 </r>
       <r>   -14.5500     0.0000     0.0000 </r>
       <r>   -14.5400     0.0000     0.0000 </r>
       <r>   -14.5300     0.0000     0.0000 </r>
       <r>   -14.5200     0.0000     0.0000 </r>
       <r>   -14.5100     0.0000     0.0000 </r>
       <r>   -14.5000     0.0000     0.0000 </r>
       <r>   -14.4900     0.0000     0.0000 </r>
       <r>   -14.4800     0.0000     0.0000 </r>
       <r>   -14.4700     0.0000     0.0000 </r>
       <r>   -14.4600     0.0000     0.0000 </r>
       <r>   -14.4500     0.0000     0.0000 </r>
       <r>   -14.4400     0.0000     0.0000 </r>
       <r>   -14.4300     0.0000     0.0000 </r>
       <r>   -14.4200     0.0000     0.0000 </r>
       <r>   -14.4100     0.0000     0.0000 </r>
       <r>   -14.4000     0.0000     0.0000 </r>
       <r>   -14.3900     0.0000     0.0000 </r>
       <r>   -14.3800     0.0000     0.0000 </r>
       <r>   -14.3700     0.0000     0.0000 </r>
       <r>   -14.3600     0.0000     0.0000 </r>
       <r>   -14.3500     0.0000     0.0000 </r>
       <r>   -14.3400     0.0000     0.0000 </r>
       <r>   -14.3300     0.0000     0.0000 </r>
       <r>   -14.3200     0.0000     0.0000 </r>
       <r>   -14.3100     0.0000     0.0000 </r>
       <r>   -14.3000     0.0000     0.0000 </r>
       <r>   -14.2900     0.0000     0.0000 </r>
       <r>   -14.2800     0.0000     0.0000 </r>
       <r>   -14.2700     0.0000     0.0000 </r>
       <r>   -14.2600     0.0000     0.0000 </r>
       <r>   -14.2500     0.0000     0.0000 </r>
       <r>   -14.2400     0.0000     0.0000 </r>
       <r>   -14.2300     0.0000     0.0000 </r>
       <r>   -14.2200     0.0000     0.0000 </r>
       <r>   -14.2100     0.0000     0.0000 </r>
       <r>   -14.2000     0.0000     0.0000 </r>
       <r>   -14.1900     0.0000     0.0000 </r>
       <r>   -14.1800     0.0000     0.0000 </r>
       <r>   -14.1700     0.0000     0.0000 </r>
       <r>   -14.1600     0.0000     0.0000 </r>
       <r>   -14.1500     0.0000     0.0000 </r>
       <r>   -14.1400     0.0000     0.0000 </r>
       <r>   -14.1300     0.0000     0.0000 </r>
       <r>   -14.1200     0.0000     0.0000 </r>
       <r>   -14.1100     0.0000     0.0000 </r>
       <r>   -14.1000     0.0000     0.0000 </r>
       <r>   -14.0900     0.0000     0.0000 </r>
       <r>   -14.0800     0.0000     0.0000 </r>
       <r>   -14.0700     0.0000     0.0000 </r>
       <r>   -14.0600     0.0000     0.0000 </r>
       <r>   -14.0500     0.0000     0.0000 </r>
       <r>   -14.0400     0.0000     0.0000 </r>
       <r>   -14.0300     0.0000     0.0000 </r>
       <r>   -14.0200     0.0000     0.0000 </r>
       <r>   -14.0100     0.0000     0.0000 </r>
       <r>   -14.0000     0.0000     0.0000 </r>
       <r>   -13.9900     0.0000     0.0000 </r>
       <r>   -13.9800     0.0000     0.0000 </r>
       <r>   -13.9700     0.0000     0.0000 </r>
       <r>   -13.9600     0.0000     0.0000 </r>
       <r>   -13.9500     0.0000     0.0000 </r>
       <r>   -13.9400     0.0000     0.0000 </r>
       <r>   -13.9300     0.0000     0.0000 </r>
       <r>   -13.9200     0.0000     0.0000 </r>
       <r>   -13.9100     0.0000     0.0000 </r>
       <r>   -13.9000     0.0000     0.0000 </r>
       <r>   -13.8900     0.0000     0.0000 </r>
       <r>   -13.8800     0.0000     0.0000 </r>
       <r>   -13.8700     0.0000     0.0000 </r>
       <r>   -13.8600     0.0000     0.0000 </r>
       <r>   -13.8500     0.0000     0.0000 </r>
       <r>   -13.8400     0.0000     0.0000 </r>
       <r>   -13.8300     0.0000     0.0000 </r>
       <r>   -13.8200     0.0000     0.0000 </r>
       <r>   -13.8100     0.0000     0.0000 </r>
       <r>   -13.8000     0.0000     0.0000 </r>
       <r>   -13.7900     0.0000     0.0000 </r>
       <r>   -13.7800     0.0000     0.0000 </r>
       <r>   -13.7700     0.0000     0.0000 </r>
       <r>   -13.7600     0.0000     0.0000 </r>
       <r>   -13.7500     0.0000     0.0000 </r>
       <r>   -13.7400     0.0000     0.0000 </r>
       <r>   -13.7300     0.0000     0.0000 </r>
       <r>   -13.7200     0.0000     0.0000 </r>
       <r>   -13.7100     0.0000     0.0000 </r>
       <r>   -13.7000     0.0000     0.0000 </r>
       <r>   -13.6900     0.0000     0.0000 </r>
       <r>   -13.6800     0.0000     0.0000 </r>
       <r>   -13.6700     0.0000     0.0000 </r>
       <r>   -13.6600     0.0000     0.0000 </r>
       <r>   -13.6500     0.0000     0.0000 </r>
       <r>   -13.6400     0.0000     0.0000 </r>
       <r>   -13.6300     0.0000     0.0000 </r>
       <r>   -13.6200     0.0000     0.0000 </r>
       <r>   -13.6100     0.0000     0.0000 </r>
       <r>   -13.6000     0.0000     0.0000 </r>
       <r>   -13.5900     0.0000     0.0000 </r>
       <r>   -13.5800     0.0000     0.0000 </r>
       <r>   -13.5700     0.0000     0.0000 </r>
       <r>   -13.5600     0.0000     0.0000 </r>
       <r>   -13.5500     0.0000     0.0000 </r>
       <r>   -13.5400     0.0000     0.0000 </r>
       <r>   -13.5300     0.0000     0.0000 </r>
       <r>   -13.5200     0.0000     0.0000 </r>
       <r>   -13.5100     0.0000     0.0000 </r>
       <r>   -13.5000     0.0000     0.0000 </r>
       <r>   -13.4900     0.0000     0.0000 </r>
       <r>   -13.4800     0.0000     0.0000 </r>
       <r>   -13.4700     0.0000     0.0000 </r>
       <r>   -13.4600     0.0000     0.0000 </r>
       <r>   -13.4500     0.0000     0.0000 </r>
       <r>   -13.4400     0.0000     0.0000 </r>
       <r>   -13.4300     0.0000     0.0000 </r>
       <r>   -13.4200     0.0000     0.0000 </r>
       <r>   -13.4100     0.0000     0.0000 </r>
       <r>   -13.4000     0.0000     0.0000 </r>
       <r>   -13.3900     0.0000     0.0000 </r>
       <r>   -13.3800     0.0000     0.0000 </r>
       <r>   -13.3700     0.0000     0.0000 </r>
       <r>   -13.3600     0.0000     0.0000 </r>
       <r>   -13.3500     0.0000     0.0000 </r>
       <r>   -13.3400     0.0000     0.0000 </r>
       <r>   -13.3300     0.0000     0.0000 </r>
       <r>   -13.3200     0.0000     0.0000 </r>
       <r>   -13.3100     0.0000     0.0000 </r>
       <r>   -13.3000     0.0000     0.0000 </r>
       <r>   -13.2900     0.0000     0.0000 </r>
       <r>   -13.2800     0.0000     0.0000 </r>
       <r>   -13.2700     0.0000     0.0000 </r>
       <r>   -13.2600     0.0000     0.0000 </r>
       <r>   -13.2500     0.0000     0.0000 </r>
       <r>   -13.2400     0.0000     0.0000 </r>
       <r>   -13.2300     0.0000     0.0000 </r>
       <r>   -13.2200     0.0000     0.0000 </r>
       <r>   -13.2100     0.0000     0.0000 </r>
       <r>   -13.2000     0.0000     0.0000 </r>
       <r>   -13.1900     0.0000     0.0000 </r>
       <r>   -13.1800     0.0000     0.0000 </r>
       <r>   -13.1700     0.0000     0.0000 </r>
       <r>   -13.1600     0.0000     0.0000 </r>
       <r>   -13.1500     0.0000     0.0000 </r>
       <r>   -13.1400     0.0000     0.0000 </r>
       <r>   -13.1300     0.0000     0.0000 </r>
       <r>   -13.1200     0.0000     0.0000 </r>
       <r>   -13.1100     0.0000     0.0000 </r>
       <r>   -13.1000     0.0000     0.0000 </r>
       <r>   -13.0900     0.0000     0.0000 </r>
       <r>   -13.0800     0.0000     0.0000 </r>
       <r>   -13.0700     0.0000     0.0000 </r>
       <r>   -13.0600     0.0000     0.0000 </r>
       <r>   -13.0500     0.0000     0.0000 </r>
       <r>   -13.0400     0.0000     0.0000 </r>
       <r>   -13.0300     0.0000     0.0000 </r>
       <r>   -13.0200     0.0000     0.0000 </r>
       <r>   -13.0100     0.0000     0.0000 </r>
       <r>   -13.0000     0.0000     0.0000 </r>
       <r>   -12.9900     0.0000     0.0000 </r>
       <r>   -12.9800     0.0000     0.0000 </r>
       <r>   -12.9700     0.0000     0.0000 </r>
       <r>   -12.9600     0.0000     0.0000 </r>
       <r>   -12.9500     0.0000     0.0000 </r>
       <r>   -12.9400     0.0000     0.0000 </r>
       <r>   -12.9300     0.0000     0.0000 </r>
       <r>   -12.9200     0.0000     0.0000 </r>
       <r>   -12.9100     0.0000     0.0000 </r>
       <r>   -12.9000     0.0000     0.0000 </r>
       <r>   -12.8900     0.0000     0.0000 </r>
       <r>   -12.8800     0.0000     0.0000 </r>
       <r>   -12.8700     0.0000     0.0000 </r>
       <r>   -12.8600     0.0000     0.0000 </r>
       <r>   -12.8500     0.0000     0.0000 </r>
       <r>   -12.8400     0.0000     0.0000 </r>
       <r>   -12.8300     0.0000     0.0000 </r>
       <r>   -12.8200     0.0000     0.0000 </r>
       <r>   -12.8100     0.0000     0.0000 </r>
       <r>   -12.8000     0.0000     0.0000 </r>
       <r>   -12.7900     0.0000     0.0000 </r>
       <r>   -12.7800     0.0000     0.0000 </r>
       <r>   -12.7700     0.0000     0.0000 </r>
       <r>   -12.7600     0.0000     0.0000 </r>
       <r>   -12.7500     0.0000     0.0000 </r>
       <r>   -12.7400     0.0000     0.0000 </r>
       <r>   -12.7300     0.0000     0.0000 </r>
       <r>   -12.7200     0.0000     0.0000 </r>
       <r>   -12.7100     0.0000     0.0000 </r>
       <r>   -12.7000     0.0000     0.0000 </r>
       <r>   -12.6900     0.0000     0.0000 </r>
       <r>   -12.6800     0.0000     0.0000 </r>
       <r>   -12.6700     0.0000     0.0000 </r>
       <r>   -12.6600     0.0000     0.0000 </r>
       <r>   -12.6500     0.0000     0.0000 </r>
       <r>   -12.6400     0.0000     0.0000 </r>
       <r>   -12.6300     0.0000     0.0000 </r>
       <r>   -12.6200     0.0000     0.0000 </r>
       <r>   -12.6100     0.0000     0.0000 </r>
       <r>   -12.6000     0.0000     0.0000 </r>
       <r>   -12.5900     0.0000     0.0000 </r>
       <r>   -12.5800     0.0000     0.0000 </r>
       <r>   -12.5700     0.0000     0.0000 </r>
       <r>   -12.5600     0.0000     0.0000 </r>
       <r>   -12.5500     0.0000     0.0000 </r>
       <r>   -12.5400     0.0000     0.0000 </r>
       <r>   -12.5300     0.0000     0.0000 </r>
       <r>   -12.5200     0.0000     0.0000 </r>
       <r>   -12.5100     0.0000     0.0000 </r>
       <r>   -12.5000     0.0000     0.0000 </r>
       <r>   -12.4900     0.0000     0.0000 </r>
       <r>   -12.4800     0.0000     0.0000 </r>
       <r>   -12.4700     0.0000     0.0000 </r>
       <r>   -12.4600     0.0000     0.0000 </r>
       <r>   -12.4500     0.0000     0.0000 </r>
       <r>   -12.4400     0.0000     0.0000 </r>
       <r>   -12.4300     0.0000     0.0000 </r>
       <r>   -12.4200     0.0000     0.0000 </r>
       <r>   -12.4100     0.0000     0.0000 </r>
       <r>   -12.4000     0.0000     0.0000 </r>
       <r>   -12.3900     0.0000     0.0000 </r>
       <r>   -12.3800     0.0000     0.0000 </r>
       <r>   -12.3700     0.0000     0.0000 </r>
       <r>   -12.3600     0.0000     0.0000 </r>
       <r>   -12.3500     0.0000     0.0000 </r>
       <r>   -12.3400     0.0000     0.0000 </r>
       <r>   -12.3300     0.0000     0.0000 </r>
       <r>   -12.3200     0.0000     0.0000 </r>
       <r>   -12.3100     0.0000     0.0000 </r>
       <r>   -12.3000     0.0000     0.0000 </r>
       <r>   -12.2900     0.0000     0.0000 </r>
       <r>   -12.2800     0.0000     0.0000 </r>
       <r>   -12.2700     0.0000     0.0000 </r>
       <r>   -12.2600     0.0000     0.0000 </r>
       <r>   -12.2500     0.0000     0.0000 </r>
       <r>   -12.2400     0.0000     0.0000 </r>
       <r>   -12.2300     0.0000     0.0000 </r>
       <r>   -12.2200     0.0000     0.0000 </r>
       <r>   -12.2100     0.0000     0.0000 </r>
       <r>   -12.2000     0.0000     0.0000 </r>
       <r>   -12.1900     0.0000     0.0000 </r>
       <r>   -12.1800     0.0000     0.0000 </r>
       <r>   -12.1700     0.0000     0.0000 </r>
       <r>   -12.1600     0.0000     0.0000 </r>
       <r>   -12.1500     0.0000     0.0000 </r>
       <r>   -12.1400     0.0000     0.0000 </r>
       <r>   -12.1300     0.0000     0.0000 </r>
       <r>   -12.1200     0.0000     0.0000 </r>
       <r>   -12.1100     0.0000     0.0000 </r>
       <r>   -12.1000     0.0000     0.0000 </r>
       <r>   -12.0900     0.0000     0.0000 </r>
       <r>   -12.0800     0.0000     0.0000 </r>
       <r>   -12.0700     0.0000     0.0000 </r>
       <r>   -12.0600     0.0000     0.0000 </r>
       <r>   -12.0500     0.0000     0.0000 </r>
       <r>   -12.0400     0.0000     0.0000 </r>
       <r>   -12.0300     0.0000     0.0000 </r>
       <r>   -12.0200     0.0001     0.0000 </r>
       <r>   -12.0100     0.0001     0.0000 </r>
       <r>   -12.0000     0.0002     0.0000 </r>
       <r>   -11.9900     0.0003     0.0000 </r>
       <r>   -11.9800     0.0005     0.0000 </r>
       <r>   -11.9700     0.0008     0.0000 </r>
       <r>   -11.9600     0.0012     0.0000 </r>
       <r>   -11.9500     0.0018     0.0000 </r>
       <r>   -11.9400     0.0027     0.0001 </r>
       <r>   -11.9300     0.0039     0.0001 </r>
       <r>   -11.9200     0.0055     0.0002 </r>
       <r>   -11.9100     0.0078     0.0002 </r>
       <r>   -11.9000     0.0107     0.0004 </r>
       <r>   -11.8900     0.0143     0.0005 </r>
       <r>   -11.8800     0.0189     0.0007 </r>
       <r>   -11.8700     0.0245     0.0009 </r>
       <r>   -11.8600     0.0310     0.0012 </r>
       <r>   -11.8500     0.0385     0.0016 </r>
       <r>   -11.8400     0.0469     0.0021 </r>
       <r>   -11.8300     0.0560     0.0027 </r>
       <r>   -11.8200     0.0656     0.0033 </r>
       <r>   -11.8100     0.0752     0.0041 </r>
       <r>   -11.8000     0.0845     0.0049 </r>
       <r>   -11.7900     0.0932     0.0058 </r>
       <r>   -11.7800     0.1007     0.0068 </r>
       <r>   -11.7700     0.1066     0.0079 </r>
       <r>   -11.7600     0.1107     0.0090 </r>
       <r>   -11.7500     0.1127     0.0101 </r>
       <r>   -11.7400     0.1125     0.0113 </r>
       <r>   -11.7300     0.1101     0.0124 </r>
       <r>   -11.7200     0.1057     0.0134 </r>
       <r>   -11.7100     0.0996     0.0144 </r>
       <r>   -11.7000     0.0924     0.0154 </r>
       <r>   -11.6900     0.0843     0.0162 </r>
       <r>   -11.6800     0.0762     0.0170 </r>
       <r>   -11.6700     0.0685     0.0176 </r>
       <r>   -11.6600     0.0620     0.0183 </r>
       <r>   -11.6500     0.0573     0.0188 </r>
       <r>   -11.6400     0.0551     0.0194 </r>
       <r>   -11.6300     0.0561     0.0199 </r>
       <r>   -11.6200     0.0611     0.0206 </r>
       <r>   -11.6100     0.0706     0.0213 </r>
       <r>   -11.6000     0.0855     0.0221 </r>
       <r>   -11.5900     0.1062     0.0232 </r>
       <r>   -11.5800     0.1332     0.0245 </r>
       <r>   -11.5700     0.1668     0.0262 </r>
       <r>   -11.5600     0.2069     0.0282 </r>
       <r>   -11.5500     0.2530     0.0308 </r>
       <r>   -11.5400     0.3044     0.0338 </r>
       <r>   -11.5300     0.3597     0.0374 </r>
       <r>   -11.5200     0.4170     0.0416 </r>
       <r>   -11.5100     0.4742     0.0463 </r>
       <r>   -11.5000     0.5287     0.0516 </r>
       <r>   -11.4900     0.5780     0.0574 </r>
       <r>   -11.4800     0.6194     0.0636 </r>
       <r>   -11.4700     0.6507     0.0701 </r>
       <r>   -11.4600     0.6701     0.0768 </r>
       <r>   -11.4500     0.6765     0.0836 </r>
       <r>   -11.4400     0.6694     0.0903 </r>
       <r>   -11.4300     0.6493     0.0968 </r>
       <r>   -11.4200     0.6173     0.1029 </r>
       <r>   -11.4100     0.5753     0.1087 </r>
       <r>   -11.4000     0.5256     0.1139 </r>
       <r>   -11.3900     0.4707     0.1186 </r>
       <r>   -11.3800     0.4132     0.1228 </r>
       <r>   -11.3700     0.3555     0.1263 </r>
       <r>   -11.3600     0.2999     0.1293 </r>
       <r>   -11.3500     0.2479     0.1318 </r>
       <r>   -11.3400     0.2009     0.1338 </r>
       <r>   -11.3300     0.1596     0.1354 </r>
       <r>   -11.3200     0.1243     0.1367 </r>
       <r>   -11.3100     0.0949     0.1376 </r>
       <r>   -11.3000     0.0710     0.1383 </r>
       <r>   -11.2900     0.0521     0.1388 </r>
       <r>   -11.2800     0.0374     0.1392 </r>
       <r>   -11.2700     0.0264     0.1395 </r>
       <r>   -11.2600     0.0182     0.1397 </r>
       <r>   -11.2500     0.0123     0.1398 </r>
       <r>   -11.2400     0.0082     0.1399 </r>
       <r>   -11.2300     0.0053     0.1399 </r>
       <r>   -11.2200     0.0034     0.1399 </r>
       <r>   -11.2100     0.0021     0.1400 </r>
       <r>   -11.2000     0.0013     0.1400 </r>
       <r>   -11.1900     0.0008     0.1400 </r>
       <r>   -11.1800     0.0006     0.1400 </r>
       <r>   -11.1700     0.0004     0.1400 </r>
       <r>   -11.1600     0.0004     0.1400 </r>
       <r>   -11.1500     0.0006     0.1400 </r>
       <r>   -11.1400     0.0009     0.1400 </r>
       <r>   -11.1300     0.0014     0.1400 </r>
       <r>   -11.1200     0.0023     0.1401 </r>
       <r>   -11.1100     0.0036     0.1401 </r>
       <r>   -11.1000     0.0057     0.1401 </r>
       <r>   -11.0900     0.0087     0.1402 </r>
       <r>   -11.0800     0.0131     0.1404 </r>
       <r>   -11.0700     0.0193     0.1406 </r>
       <r>   -11.0600     0.0278     0.1408 </r>
       <r>   -11.0500     0.0393     0.1412 </r>
       <r>   -11.0400     0.0545     0.1418 </r>
       <r>   -11.0300     0.0741     0.1425 </r>
       <r>   -11.0200     0.0988     0.1435 </r>
       <r>   -11.0100     0.1291     0.1448 </r>
       <r>   -11.0000     0.1653     0.1464 </r>
       <r>   -10.9900     0.2074     0.1485 </r>
       <r>   -10.9800     0.2552     0.1511 </r>
       <r>   -10.9700     0.3078     0.1542 </r>
       <r>   -10.9600     0.3639     0.1578 </r>
       <r>   -10.9500     0.4217     0.1620 </r>
       <r>   -10.9400     0.4790     0.1668 </r>
       <r>   -10.9300     0.5333     0.1721 </r>
       <r>   -10.9200     0.5821     0.1780 </r>
       <r>   -10.9100     0.6229     0.1842 </r>
       <r>   -10.9000     0.6534     0.1907 </r>
       <r>   -10.8900     0.6719     0.1974 </r>
       <r>   -10.8800     0.6774     0.2042 </r>
       <r>   -10.8700     0.6698     0.2109 </r>
       <r>   -10.8600     0.6496     0.2174 </r>
       <r>   -10.8500     0.6183     0.2236 </r>
       <r>   -10.8400     0.5779     0.2294 </r>
       <r>   -10.8300     0.5310     0.2347 </r>
       <r>   -10.8200     0.4807     0.2395 </r>
       <r>   -10.8100     0.4300     0.2438 </r>
       <r>   -10.8000     0.3819     0.2476 </r>
       <r>   -10.7900     0.3393     0.2510 </r>
       <r>   -10.7800     0.3045     0.2540 </r>
       <r>   -10.7700     0.2794     0.2568 </r>
       <r>   -10.7600     0.2655     0.2595 </r>
       <r>   -10.7500     0.2637     0.2621 </r>
       <r>   -10.7400     0.2742     0.2649 </r>
       <r>   -10.7300     0.2968     0.2678 </r>
       <r>   -10.7200     0.3306     0.2711 </r>
       <r>   -10.7100     0.3741     0.2749 </r>
       <r>   -10.7000     0.4255     0.2791 </r>
       <r>   -10.6900     0.4822     0.2840 </r>
       <r>   -10.6800     0.5413     0.2894 </r>
       <r>   -10.6700     0.5999     0.2954 </r>
       <r>   -10.6600     0.6545     0.3019 </r>
       <r>   -10.6500     0.7020     0.3089 </r>
       <r>   -10.6400     0.7397     0.3163 </r>
       <r>   -10.6300     0.7652     0.3240 </r>
       <r>   -10.6200     0.7768     0.3318 </r>
       <r>   -10.6100     0.7739     0.3395 </r>
       <r>   -10.6000     0.7565     0.3471 </r>
       <r>   -10.5900     0.7258     0.3543 </r>
       <r>   -10.5800     0.6835     0.3612 </r>
       <r>   -10.5700     0.6322     0.3675 </r>
       <r>   -10.5600     0.5748     0.3732 </r>
       <r>   -10.5500     0.5145     0.3784 </r>
       <r>   -10.5400     0.4546     0.3829 </r>
       <r>   -10.5300     0.3982     0.3869 </r>
       <r>   -10.5200     0.3479     0.3904 </r>
       <r>   -10.5100     0.3062     0.3934 </r>
       <r>   -10.5000     0.2747     0.3962 </r>
       <r>   -10.4900     0.2548     0.3987 </r>
       <r>   -10.4800     0.2471     0.4012 </r>
       <r>   -10.4700     0.2517     0.4037 </r>
       <r>   -10.4600     0.2682     0.4064 </r>
       <r>   -10.4500     0.2958     0.4094 </r>
       <r>   -10.4400     0.3327     0.4127 </r>
       <r>   -10.4300     0.3772     0.4165 </r>
       <r>   -10.4200     0.4268     0.4207 </r>
       <r>   -10.4100     0.4786     0.4255 </r>
       <r>   -10.4000     0.5298     0.4308 </r>
       <r>   -10.3900     0.5772     0.4366 </r>
       <r>   -10.3800     0.6179     0.4428 </r>
       <r>   -10.3700     0.6494     0.4493 </r>
       <r>   -10.3600     0.6696     0.4559 </r>
       <r>   -10.3500     0.6771     0.4627 </r>
       <r>   -10.3400     0.6714     0.4694 </r>
       <r>   -10.3300     0.6527     0.4760 </r>
       <r>   -10.3200     0.6220     0.4822 </r>
       <r>   -10.3100     0.5811     0.4880 </r>
       <r>   -10.3000     0.5322     0.4933 </r>
       <r>   -10.2900     0.4777     0.4981 </r>
       <r>   -10.2800     0.4204     0.5023 </r>
       <r>   -10.2700     0.3626     0.5059 </r>
       <r>   -10.2600     0.3066     0.5090 </r>
       <r>   -10.2500     0.2541     0.5115 </r>
       <r>   -10.2400     0.2064     0.5136 </r>
       <r>   -10.2300     0.1644     0.5152 </r>
       <r>   -10.2200     0.1283     0.5165 </r>
       <r>   -10.2100     0.0982     0.5175 </r>
       <r>   -10.2000     0.0737     0.5182 </r>
       <r>   -10.1900     0.0542     0.5188 </r>
       <r>   -10.1800     0.0391     0.5192 </r>
       <r>   -10.1700     0.0277     0.5194 </r>
       <r>   -10.1600     0.0193     0.5196 </r>
       <r>   -10.1500     0.0133     0.5198 </r>
       <r>   -10.1400     0.0092     0.5199 </r>
       <r>   -10.1300     0.0067     0.5199 </r>
       <r>   -10.1200     0.0054     0.5200 </r>
       <r>   -10.1100     0.0052     0.5200 </r>
       <r>   -10.1000     0.0061     0.5201 </r>
       <r>   -10.0900     0.0084     0.5202 </r>
       <r>   -10.0800     0.0123     0.5203 </r>
       <r>   -10.0700     0.0183     0.5205 </r>
       <r>   -10.0600     0.0273     0.5208 </r>
       <r>   -10.0500     0.0400     0.5212 </r>
       <r>   -10.0400     0.0576     0.5217 </r>
       <r>   -10.0300     0.0815     0.5226 </r>
       <r>   -10.0200     0.1131     0.5237 </r>
       <r>   -10.0100     0.1538     0.5252 </r>
       <r>   -10.0000     0.2052     0.5273 </r>
       <r>    -9.9900     0.2686     0.5300 </r>
       <r>    -9.9800     0.3448     0.5334 </r>
       <r>    -9.9700     0.4342     0.5377 </r>
       <r>    -9.9600     0.5365     0.5431 </r>
       <r>    -9.9500     0.6505     0.5496 </r>
       <r>    -9.9400     0.7742     0.5574 </r>
       <r>    -9.9300     0.9046     0.5664 </r>
[...]
        <r>  0.0002  0.0004  0.0010  0.0002  0.0182  0.0065  0.3998  0.0034  0.0168 </r>
        <r>  0.0000  0.0003  0.0004  0.0008  0.0239  0.0100  0.0101  0.0119  0.0632 </r>
        <r>  0.0009  0.0001  0.0000  0.0001  0.0000  0.0000  0.0000  0.0000  0.0000 </r>
       </set>
       <set comment="band 19">
        <r>  0.0011  0.0004  0.0013  0.0007  0.0312  0.0069  0.4751  0.0182  0.0657 </r>
        <r>  0.0000  0.0000  0.0000  0.0001  0.0234  0.0492  0.0642  0.0891  0.0698 </r>
        <r>  0.0000  0.0000  0.0000  0.0000  0.0080  0.0137  0.0092  0.0222  0.0237 </r>
        <r>  0.0001  0.0000  0.0001  0.0000  0.0006  0.0003  0.0043  0.0005  0.0015 </r>
        <r>  0.0000  0.0000  0.0000  0.0000  0.0000  0.0000  0.0000  0.0000  0.0000 </r>
       </set>
       <set comment="band 20">
        <r>  0.0003  0.0002  0.0005  0.0004  0.0497  0.0298  0.1162  0.0306  0.0889 </r>
        <r>  0.0001  0.0002  0.0001  0.0001  0.0462  0.0040  0.3893  0.0090  0.0163 </r>
        <r>  0.0000  0.0000  0.0002  0.0000  0.0341  0.0286  0.0500  0.0268  0.0545 </r>
        <r>  0.0000  0.0001  0.0000  0.0000  0.0026  0.0047  0.0014  0.0019  0.0023 </r>
        <r>  0.0000  0.0000  0.0000  0.0000  0.0000  0.0000  0.0000  0.0000  0.0000 </r>
       </set>
       <set comment="band 21">
        <r>  0.0000  0.0000  0.0000  0.0001  0.0001  0.0001  0.0003  0.0002  0.0003 </r>
        <r>  0.0006  0.0002  0.0004  0.0006  0.0009  0.0003  0.0029  0.0010  0.0022 </r>
        <r>  0.0052  0.0019  0.0042  0.0045  0.0134  0.0092  0.0295  0.0088  0.0131 </r>
        <r>  0.0047  0.0341  0.0011  0.0966  0.1400  0.0388  0.0029  0.0612  0.2359 </r>
        <r>  0.1126  0.0005  0.0000  0.0003  0.0000  0.0000  0.0000  0.0000  0.0000 </r>
       </set>
       <set comment="band 22">
        <r>  0.0208  0.0083  0.0083  0.0222  0.0172  0.0037  0.0212  0.0054  0.0210 </r>
        <r>  0.0022  0.0399  0.0044  0.1192  0.0285  0.0007  0.0016  0.0007  0.0814 </r>
        <r>  0.0319  0.0244  0.0029  0.0677  0.0344  0.0012  0.0260  0.0029  0.0533 </r>
        <r>  0.0160  0.0011  0.0065  0.0022  0.0042  0.0031  0.0107  0.0036  0.0026 </r>
        <r>  0.0022  0.0000  0.0000  0.0001  0.0000  0.0000  0.0000  0.0000  0.0000 </r>
       </set>
       <set comment="band 23">
        <r>  0.0000  0.0280  0.0000  0.0838  0.0158  0.0021  0.0000  0.0062  0.0473 </r>
        <r>  0.1024  0.0141  0.0002  0.0209  0.0540  0.0017  0.0477  0.0043  0.0266 </r>
        <r>  0.0054  0.0258  0.0118  0.0768  0.0155  0.0037  0.0027  0.0013  0.0410 </r>
        <r>  0.0210  0.0020  0.0062  0.0031  0.0059  0.0044  0.0084  0.0058  0.0034 </r>
        <r>  0.0028  0.0001  0.0000  0.0002  0.0000  0.0000  0.0000  0.0000  0.0000 </r>
       </set>
       <set comment="band 24">
        <r>  0.0550  0.0374  0.0092  0.0968  0.0409  0.0036  0.0158  0.0015  0.0499 </r>
        <r>  0.0151  0.0182  0.0449  0.0519  0.0122  0.0103  0.0040  0.0035  0.0223 </r>
        <r>  0.0034  0.0121  0.0154  0.0345  0.0069  0.0061  0.0007  0.0058  0.0149 </r>
        <r>  0.0392  0.0056  0.0017  0.0065  0.0142  0.0010  0.0062  0.0012  0.0063 </r>
        <r>  0.0001  0.0003  0.0000  0.0009  0.0000  0.0000  0.0000  0.0000  0.0000 </r>
       </set>
       <set comment="band 25">
        <r>  0.0000  0.0043  0.0000  0.0127  0.0017  0.0000  0.0000  0.0000  0.0051 </r>
        <r>  0.0074  0.0005  0.0122  0.0003  0.0024  0.0020  0.0017  0.0021  0.0009 </r>
        <r>  0.0841  0.0126  0.0085  0.0224  0.0325  0.0021  0.0190  0.0057  0.0177 </r>
        <r>  0.1293  0.0362  0.0082  0.0401  0.0861  0.0145  0.0065  0.0292  0.0342 </r>
        <r>  0.0344  0.0023  0.0003  0.0068  0.0000  0.0000  0.0000  0.0000  0.0000 </r>
       </set>
       <set comment="band 26">
        <r>  0.1436  0.0232  0.0000  0.0350  0.0397  0.0015  0.0083  0.0045  0.0195 </r>
        <r>  0.0547  0.0073  0.0009  0.0037  0.0179  0.0167  0.0017  0.0499  0.0063 </r>
        <r>  0.0723  0.0146  0.0140  0.0145  0.0255  0.0026  0.0024  0.0065  0.0107 </r>
        <r>  0.0071  0.0081  0.0249  0.0136  0.0065  0.0025  0.0002  0.0009  0.0039 </r>
        <r>  0.0027  0.0009  0.0001  0.0026  0.0000  0.0000  0.0000  0.0000  0.0000 </r>
       </set>
       <set comment="band 27">
        <r>  0.1286  0.0206  0.0557  0.0069  0.0359  0.0025  0.0008  0.0008  0.0120 </r>
        <r>  0.0284  0.0187  0.0076  0.0397  0.0119  0.0000  0.0000  0.0000  0.0100 </r>
        <r>  0.0253  0.0110  0.0014  0.0080  0.0132  0.0097  0.0000  0.0273  0.0052 </r>
        <r>  0.0008  0.0043  0.0484  0.0094  0.0010  0.0040  0.0008  0.0018  0.0013 </r>
        <r>  0.0026  0.0007  0.0003  0.0021  0.0000  0.0000  0.0000  0.0000  0.0000 </r>
       </set>
       <set comment="band 28">
        <r>  0.0005  0.0048  0.0019  0.0122  0.0013  0.0027  0.0000  0.0081  0.0022 </r>
        <r>  0.0519  0.0157  0.0017  0.0096  0.0196  0.0001  0.0000  0.0001  0.0073 </r>
        <r>  0.0683  0.0030  0.0458  0.0011  0.0089  0.0058  0.0007  0.0166  0.0030 </r>
        <r>  0.1330  0.0082  0.0248  0.0065  0.0003  0.0220  0.0062  0.0658  0.0003 </r>
        <r>  0.0320  0.0047  0.0008  0.0067  0.0000  0.0000  0.0000  0.0000  0.0000 </r>
       </set>
      </set>
      <set comment="kpoint 14">
       <set comment="band 1">
        <r>  0.0000  0.0000  0.0000  0.0000  0.0000  0.0000  0.0000  0.0000  0.0000 </r>
        <r>  0.0000  0.0000  0.0000  0.0000  0.0000  0.0000  0.0000  0.0000  0.0000 </r>
        <r>  0.0000  0.0000  0.0000  0.0002  0.0002  0.0000  0.0001  0.0008  0.0005 </r>
        <r>  0.0057  0.0374  0.0004  0.0582  0.1934  0.0606  0.0004  0.1289  0.1243 </r>
        <r>  0.2086  0.0000  0.0022  0.0000  0.0000  0.0000  0.0000  0.0000  0.0000 </r>
       </set>
       <set comment="band 2">
        <r>  0.0003  0.0010  0.0002  0.0002  0.0052  0.0084  0.0022  0.0009  0.0013 </r>
        <r>  0.0067  0.0024  0.0004  0.0085  0.0257  0.0065  0.0181  0.1563  0.0329 </r>
        <r>  0.0365  0.0003  0.0000  0.0124  0.0031  0.0062  0.1574  0.0048  0.0455 </r>
        <r>  0.0027  0.0014  0.0003  0.0167  0.0212  0.0284  0.0001  0.1559  0.0983 </r>
        <r>  0.0003  0.0002  0.0000  0.0000  0.0000  0.0000  0.0000  0.0000  0.0000 </r>
       </set>
       <set comment="band 3">
        <r>  0.0005  0.0017  0.0001  0.0030  0.0143  0.0066  0.0004  0.0241  0.0093 </r>
        <r>  0.0184  0.0030  0.0004  0.0049  0.0231  0.0269  0.0808  0.0153  0.0183 </r>
        <r>  0.0001  0.0004  0.0011  0.0008  0.0008  0.0090  0.0022  0.3838  0.0032 </r>
        <r>  0.0034  0.0027  0.0010  0.0041  0.0256  0.0324  0.0095  0.1294  0.0201 </r>
        <r>  0.0001  0.0001  0.0001  0.0000  0.0000  0.0000  0.0000  0.0000  0.0000 </r>
       </set>
       <set comment="band 4">
        <r>  0.0063  0.0000  0.0017  0.0150  0.0000  0.0027  0.0067  0.1301  0.0492 </r>
        <r>  0.0166  0.0042  0.0003  0.0027  0.0307  0.0000  0.0982  0.2453  0.0119 </r>
        <r>  0.0000  0.0166  0.0002  0.0014  0.1430  0.0332  0.0006  0.0029  0.0066 </r>
        <r>  0.0000  0.0006  0.0000  0.0002  0.0093  0.0063  0.0008  0.0258  0.0016 </r>
        <r>  0.0001  0.0000  0.0000  0.0000  0.0000  0.0000  0.0000  0.0000  0.0000 </r>
       </set>
       <set comment="band 5">
        <r>  0.0000  0.0039  0.0000  0.0002  0.0338  0.0191  0.0001  0.0030  0.0007 </r>
        <r>  0.0015  0.0120  0.0001  0.0009  0.1178  0.0069  0.0270  0.0408  0.0051 </r>
        <r>  0.0009  0.0029  0.0001  0.0134  0.0299  0.0666  0.0494  0.0058  0.0488 </r>
        <r>  0.0009  0.0123  0.0000  0.0009  0.1958  0.0999  0.0017  0.0672  0.0103 </r>
        <r>  0.0009  0.0000  0.0001  0.0000  0.0000  0.0000  0.0000  0.0000  0.0000 </r>
       </set>
       <set comment="band 6">
        <r>  0.0078  0.0026  0.0032  0.0012  0.0224  0.0175  0.0532  0.0167  0.0035 </r>
        <r>  0.0003  0.0089  0.0005  0.0278  0.1244  0.0200  0.0189  0.0498  0.1372 </r>
        <r>  0.0006  0.0145  0.0007  0.0097  0.1877  0.0082  0.0007  0.0056  0.0470 </r>
        <r>  0.0045  0.0000  0.0012  0.0005  0.0000  0.0001  0.0543  0.0126  0.0040 </r>
        <r>  0.0000  0.0000  0.0000  0.0000  0.0000  0.0000  0.0000  0.0000  0.0000 </r>
       </set>
       <set comment="band 7">
        <r>  0.0037  0.0091  0.0016  0.0009  0.0850  0.0521  0.0340  0.0307  0.0016 </r>
        <r>  0.0012  0.0096  0.0000  0.0035  0.1320  0.2323  0.0283  0.0115  0.0092 </r>
        <r>  0.0003  0.0002  0.0007  0.0006  0.0005  0.1211  0.0000  0.0293  0.0079 </r>
        <r>  0.0036  0.0020  0.0007  0.0006  0.0383  0.0055  0.0301  0.0047  0.0072 </r>
        <r>  0.0000  0.0000  0.0000  0.0000  0.0000  0.0000  0.0000  0.0000  0.0000 </r>
       </set>
       <set comment="band 8">
        <r>  0.0027  0.0011  0.0014  0.0015  0.0122  0.0056  0.0392  0.0202  0.0075 </r>
        <r>  0.0016  0.0086  0.0002  0.0009  0.1102  0.0055  0.0270  0.0482  0.0033 </r>
        <r>  0.0005  0.0061  0.0024  0.0105  0.0811  0.0712  0.0035  0.0420  0.0596 </r>
        <r>  0.0057  0.0009  0.0023  0.0049  0.0252  0.0180  0.1941  0.0277  0.0530 </r>
        <r>  0.0002  0.0000  0.0000  0.0001  0.0000  0.0000  0.0000  0.0000  0.0000 </r>
       </set>
       <set comment="band 9">
        <r>  0.0011  0.0001  0.0004  0.0002  0.0029  0.0005  0.0118  0.0090  0.0003 </r>
        <r>  0.0001  0.0002  0.0001  0.0032  0.0041  0.0774  0.0049  0.0000  0.0270 </r>
        <r>  0.0007  0.0000  0.0012  0.0033  0.0011  0.0165  0.0156  0.0098  0.0136 </r>
        <r>  0.0032  0.0066  0.0000  0.0191  0.1823  0.2255  0.0003  0.0631  0.2030 </r>
        <r>  0.0001  0.0006  0.0000  0.0013  0.0000  0.0000  0.0000  0.0000  0.0000 </r>
       </set>
       <set comment="band 10">
        <r>  0.0033  0.0002  0.0011  0.0000  0.0081  0.0043  0.0318  0.0063  0.0010 </r>
        <r>  0.0014  0.0008  0.0000  0.0224  0.0202  0.1597  0.0081  0.0188  0.1865 </r>
        <r>  0.0009  0.0007  0.0123  0.0001  0.0074  0.0088  0.0209  0.0002  0.0009 </r>
        <r>  0.0007  0.0001  0.0002  0.0001  0.0053  0.2504  0.0089  0.1210  0.0057 </r>
        <r>  0.0002  0.0007  0.0000  0.0005  0.0000  0.0000  0.0000  0.0000  0.0000 </r>
       </set>
       <set comment="band 11">
        <r>  0.0009  0.0159  0.0002  0.0047  0.2967  0.0161  0.0001  0.0970  0.0364 </r>
        <r>  0.0001  0.0000  0.0184  0.0002  0.0004  0.0012  0.0007  0.0003  0.0008 </r>
        <r>  0.0009  0.0038  0.0000  0.0147  0.0957  0.0832  0.0078  0.0324  0.1483 </r>
        <r>  0.0008  0.0001  0.0001  0.0000  0.0014  0.0000  0.0283  0.0013  0.0000 </r>
        <r>  0.0000  0.0000  0.0000  0.0000  0.0000  0.0000  0.0000  0.0000  0.0000 </r>
       </set>
       <set comment="band 12">
        <r>  0.0002  0.0092  0.0000  0.0033  0.3145  0.4009  0.0040  0.0305  0.0493 </r>
        <r>  0.0003  0.0006  0.0027  0.0019  0.0123  0.0074  0.0192  0.0046  0.0188 </r>
        <r>  0.0003  0.0004  0.0001  0.0011  0.0189  0.0014  0.0009  0.0037  0.0187 </r>
        <r>  0.0000  0.0000  0.0000  0.0000  0.0000  0.0000  0.0047  0.0021  0.0018 </r>
        <r>  0.0000  0.0000  0.0000  0.0000  0.0000  0.0000  0.0000  0.0000  0.0000 </r>
       </set>
       <set comment="band 13">
        <r>  0.0033  0.0000  0.0001  0.0318  0.0013  0.0103  0.0162  0.3513  0.4626 </r>
        <r>  0.0001  0.0000  0.0000  0.0000  0.0028  0.0003  0.0020  0.0062  0.0001 </r>
        <r>  0.0000  0.0002  0.0001  0.0000  0.0113  0.0003  0.0023  0.0038  0.0004 </r>
        <r>  0.0000  0.0000  0.0000  0.0000  0.0001  0.0004  0.0020  0.0019  0.0025 </r>
        <r>  0.0000  0.0000  0.0000  0.0000  0.0000  0.0000  0.0000  0.0000  0.0000 </r>
       </set>
       <set comment="band 14">
        <r>  0.0001  0.0000  0.0000  0.0021  0.0000  0.0025  0.0009  0.0011  0.0354 </r>
        <r>  0.0001  0.0003  0.0014  0.0007  0.0172  0.0095  0.0046  0.0146  0.0118 </r>
        <r>  0.0001  0.0024  0.0000  0.0002  0.1994  0.1608  0.0001  0.1334  0.0074 </r>
        <r>  0.0000  0.0000  0.0002  0.0003  0.0459  0.1065  0.0657  0.0569  0.0817 </r>
        <r>  0.0008  0.0000  0.0001  0.0000  0.0000  0.0000  0.0000  0.0000  0.0000 </r>
       </set>
       <set comment="band 15">
        <r>  0.0001  0.0000  0.0000  0.0004  0.0005  0.0051  0.0067  0.0000  0.0068 </r>
        <r>  0.0002  0.0006  0.0001  0.0002  0.0695  0.0414  0.0006  0.0243  0.0124 </r>
        <r>  0.0006  0.0004  0.0000  0.0055  0.0467  0.0604  0.0523  0.0114  0.3132 </r>
        <r>  0.0010  0.0000  0.0004  0.0001  0.0132  0.0333  0.2417  0.0061  0.0144 </r>
        <r>  0.0000  0.0000  0.0000  0.0001  0.0000  0.0000  0.0000  0.0000  0.0000 </r>
       </set>
       <set comment="band 16">
        <r>  0.0006  0.0000  0.0000  0.0005  0.0037  0.0612  0.0613  0.0239  0.0190 </r>
        <r>  0.0000  0.0001  0.0000  0.0001  0.1154  0.0040  0.0018  0.0755  0.0160 </r>
        <r>  0.0002  0.0000  0.0001  0.0001  0.0004  0.1767  0.0049  0.1265  0.0032 </r>
        <r>  0.0000  0.0000  0.0019  0.0002  0.0008  0.0001  0.2676  0.0013  0.0078 </r>
        <r>  0.0002  0.0000  0.0000  0.0000  0.0000  0.0000  0.0000  0.0000  0.0000 </r>
       </set>
       <set comment="band 17">
        <r>  0.0006  0.0002  0.0001  0.0003  0.0350  0.2420  0.0009  0.0638  0.0282 </r>
        <r>  0.0006  0.0000  0.0000  0.0005  0.0256  0.1473  0.0294  0.0056  0.2156 </r>
        <r>  0.0009  0.0000  0.0002  0.0000  0.0072  0.0542  0.0689  0.0149  0.0022 </r>
        <r>  0.0000  0.0000  0.0002  0.0001  0.0013  0.0036  0.0141  0.0049  0.0058 </r>
        <r>  0.0001  0.0000  0.0000  0.0000  0.0000  0.0000  0.0000  0.0000  0.0000 </r>
       </set>
       <set comment="band 18">
        <r>  0.0000  0.0001  0.0003  0.0000  0.0009  0.0075  0.1119  0.0651  0.0211 </r>
        <r>  0.0001  0.0000  0.0000  0.0000  0.0003  0.1597  0.1136  0.0152  0.0210 </r>
        <r>  0.0000  0.0000  0.0005  0.0003  0.0047  0.0001  0.3369  0.0364  0.0001 </r>
        <r>  0.0001  0.0000  0.0003  0.0002  0.0041  0.0054  0.0194  0.0170  0.0420 </r>
        <r>  0.0001  0.0001  0.0000  0.0000  0.0000  0.0000  0.0000  0.0000  0.0000 </r>
       </set>
       <set comment="band 19">
        <r>  0.0005  0.0000  0.0010  0.0001  0.0103  0.0415  0.3971  0.0001  0.0046 </r>
        <r>  0.0000  0.0000  0.0000  0.0000  0.0244  0.0043  0.0632  0.1547  0.0003 </r>
        <r>  0.0000  0.0001  0.0004  0.0000  0.0000  0.0047  0.1779  0.0244  0.0459 </r>
        <r>  0.0000  0.0001  0.0000  0.0001  0.0041  0.0072  0.0008  0.0055  0.0099 </r>
        <r>  0.0000  0.0001  0.0000  0.0000  0.0000  0.0000  0.0000  0.0000  0.0000 </r>
       </set>
       <set comment="band 20">
        <r>  0.0005  0.0000  0.0005  0.0005  0.0159  0.0307  0.1617  0.0342  0.0880 </r>
        <r>  0.0002  0.0000  0.0001  0.0002  0.0015  0.0160  0.3869  0.0079  0.0946 </r>
        <r>  0.0000  0.0000  0.0001  0.0001  0.0171  0.0395  0.0236  0.0184  0.0430 </r>
        <r>  0.0000  0.0001  0.0000  0.0000  0.0028  0.0034  0.0006  0.0001  0.0000 </r>
        <r>  0.0001  0.0000  0.0000  0.0000  0.0000  0.0000  0.0000  0.0000  0.0000 </r>
       </set>
       <set comment="band 21">
        <r>  0.0000  0.0000  0.0000  0.0000  0.0000  0.0000  0.0001  0.0000  0.0000 </r>
        <r>  0.0013  0.0000  0.0006  0.0002  0.0003  0.0003  0.0030  0.0001  0.0009 </r>
        <r>  0.0057  0.0009  0.0017  0.0078  0.0026  0.0046  0.0106  0.0103  0.0243 </r>
        <r>  0.0205  0.0115  0.0005  0.1000  0.0958  0.0387  0.0026  0.0602  0.2893 </r>
        <r>  0.1304  0.0000  0.0000  0.0009  0.0000  0.0000  0.0000  0.0000  0.0000 </r>
       </set>
       <set comment="band 22">
        <r>  0.0340  0.0002  0.0059  0.0391  0.0003  0.0005  0.0149  0.0104  0.0549 </r>
        <r>  0.0635  0.0000  0.0000  0.1137  0.0000  0.0000  0.0168  0.0003  0.1357 </r>
        <r>  0.0410  0.0014  0.0052  0.0567  0.0021  0.0001  0.0133  0.0082  0.0714 </r>
        <r>  0.0045  0.0016  0.0047  0.0008  0.0047  0.0041  0.0047  0.0122  0.0009 </r>
        <r>  0.0099  0.0000  0.0000  0.0000  0.0000  0.0000  0.0000  0.0000  0.0000 </r>
       </set>
       <set comment="band 23">
        <r>  0.0314  0.0003  0.0001  0.1027  0.0006  0.0002  0.0013  0.0033  0.0793 </r>
        <r>  0.0048  0.0043  0.0266  0.0075  0.0044  0.0004  0.0004  0.0244  0.0061 </r>
        <r>  0.0315  0.0009  0.0084  0.0895  0.0009  0.0042  0.0013  0.0014  0.0671 </r>
        <r>  0.0347  0.0225  0.0102  0.0047  0.0317  0.0068  0.0088  0.0284  0.0024 </r>
        <r>  0.0266  0.0001  0.0001  0.0011  0.0000  0.0000  0.0000  0.0000  0.0000 </r>
       </set>
       <set comment="band 24">
        <r>  0.0031  0.0005  0.0020  0.0430  0.0006  0.0001  0.0005  0.0000  0.0225 </r>
        <r>  0.0048  0.0047  0.0187  0.0078  0.0037  0.0000  0.0001  0.0041  0.0050 </r>
        <r>  0.0263  0.0039  0.0295  0.0417  0.0037  0.0004  0.0166  0.0062  0.0134 </r>
        <r>  0.0237  0.1296  0.0012  0.0597  0.1105  0.0001  0.0001  0.0021  0.0225 </r>
        <r>  0.0131  0.0019  0.0000  0.0071  0.0000  0.0000  0.0000  0.0000  0.0000 </r>
       </set>
       <set comment="band 25">
        <r>  0.0129  0.0199  0.0126  0.0387  0.0159  0.0038  0.0089  0.0000  0.0122 </r>
        <r>  0.0975  0.0132  0.0019  0.0968  0.0102  0.0006  0.0386  0.0000  0.0244 </r>
        <r>  0.0000  0.0930  0.0022  0.0298  0.0717  0.0058  0.0015  0.0000  0.0118 </r>
        <r>  0.0152  0.0014  0.0005  0.0012  0.0004  0.0057  0.0018  0.0138  0.0000 </r>
        <r>  0.0046  0.0002  0.0001  0.0005  0.0000  0.0000  0.0000  0.0000  0.0000 </r>
       </set>
       <set comment="band 26">
        <r>  0.0372  0.0410  0.0005  0.0106  0.0326  0.0075  0.0034  0.0026  0.0083 </r>
        <r>  0.0023  0.1088  0.0151  0.0289  0.0838  0.0030  0.0034  0.0040  0.0102 </r>
        <r>  0.0872  0.0307  0.0160  0.0173  0.0243  0.0002  0.0226  0.0022  0.0021 </r>
        <r>  0.0586  0.0012  0.0025  0.0045  0.0006  0.0003  0.0089  0.0004  0.0001 </r>
        <r>  0.0001  0.0010  0.0000  0.0004  0.0000  0.0000  0.0000  0.0000  0.0000 </r>
       </set>
       <set comment="band 27">
        <r>  0.0357  0.0247  0.0161  0.0382  0.0167  0.0015  0.0115  0.0002  0.0085 </r>
        <r>  0.0171  0.0735  0.0001  0.0091  0.0500  0.0126  0.0004  0.0024  0.0049 </r>
        <r>  0.0006  0.0234  0.0078  0.0088  0.0164  0.0088  0.0009  0.0220  0.0028 </r>
        <r>  0.1582  0.0162  0.0005  0.0349  0.0092  0.0001  0.0187  0.0002  0.0034 </r>
        <r>  0.0000  0.0063  0.0000  0.0006  0.0000  0.0000  0.0000  0.0000  0.0000 </r>
       </set>
       <set comment="band 28">
        <r>  0.0642  0.1100  0.0081  0.0122  0.0673  0.0007  0.0020  0.0167  0.0069 </r>
        <r>  0.0862  0.0068  0.0082  0.0076  0.0043  0.0058  0.0029  0.0130  0.0059 </r>
        <r>  0.0030  0.0005  0.0164  0.0211  0.0003  0.0042  0.0020  0.0050  0.0053 </r>
        <r>  0.0555  0.0017  0.0282  0.0103  0.0008  0.0006  0.0029  0.0078  0.0008 </r>
        <r>  0.0008  0.0027  0.0003  0.0035  0.0000  0.0000  0.0000  0.0000  0.0000 </r>
       </set>
      </set>
     </set>
    </set>
   </array>
  </projected>
 </calculation>
 <structure name="finalpos" >
  <crystal>
   <varray name="basis" >
    <v>       2.57386868       0.00000000       0.00000000 </v>
    <v>       1.28693434       2.22903567       0.00000000 </v>
    <v>       0.00000000       0.00000000      30.30466494 </v>
   </varray>
   <i name="volume">    173.86529028 </i>
   <varray name="rec_basis" >
    <v>       0.38852021      -0.22431225       0.00000000 </v>
    <v>       0.00000000       0.44862450       0.00000000 </v>
    <v>       0.00000000       0.00000000       0.03299822 </v>
   </varray>
  </crystal>
  <varray name="positions" >
   <v>       0.00000000       0.00000000       0.39644015 </v>
   <v>       0.33333333       0.33333333       0.46515176 </v>
   <v>       0.66666667       0.66666667       0.53391621 </v>
   <v>       0.00000000       0.00000000       0.60674401 </v>
   <v>       0.33333333       0.33333333       0.63476745 </v>
  </varray>
 </structure>
</modeling>
