unknown system                          
   1.00000000000000     
     3.905268    0.000000    0.000000
     0.000000    3.905268    0.000000
     0.000000    0.000000    3.905268
   Sr   Ti   O 
     1     1     3
Direct
  0.000000  0.000000  0.000000
  0.500000  0.500000  0.500000
  0.500000  0.500000  0.000000
  0.500000  0.000000  0.500000
  0.000000  0.500000  0.500000
 
   56   56   56
  193.20      193.22      193.04      191.93      188.93      183.08      173.70      160.62      144.22      125.37    
  105.28      85.268      66.584      50.192      36.667      26.153      18.409      12.945      9.1838      6.6486    
  4.9664      3.8594      3.1355      2.6673      2.3706      2.1888      2.0833      2.0294      2.0129      2.0294    
  2.0833      2.1888      2.3706      2.6673      3.1355      3.8594      4.9664      6.6486      9.1838      12.945    
  18.409      26.153      36.667      50.192      66.584      85.268      105.28      125.37      144.22      160.62    
  173.70      183.08      188.93      191.93      193.04      193.22      193.22      193.20      192.89      191.60    
  188.38      182.32      172.76      159.56      143.11      124.28      104.27      84.390      65.859      49.626    
  36.251      25.864      18.220      12.827      9.1143      6.6118      4.9510      3.8579      3.1431      2.6809    
  2.3880      2.2085      2.1045      2.0512      2.0349      2.0512      2.1045      2.2085      2.3880      2.6809    
  3.1431      3.8579      4.9510      6.6118      9.1143      12.827      18.220      25.864      36.251      49.626    
  65.859      84.390      104.27      124.28      143.11      159.56      172.76      182.32      188.38      191.60    
  192.89      193.20      193.04      192.89      192.23      190.41      186.58      179.92      169.87      156.35    
  139.78      121.03      101.29      81.794      63.723      47.966      35.033      25.021      17.668      12.483    
  8.9124      6.5056      4.9077      3.8556      3.1675      2.7229      2.4415      2.2692      2.1694      2.1183    
  2.1027      2.1183      2.1694      2.2692      2.4415      2.7229      3.1675      3.8556      4.9077      6.5056    
  8.9124      12.483      17.668      25.021      35.033      47.966      63.723      81.794      101.29      121.03    
  139.78      156.35      169.87      179.92      186.58      190.41      192.23      192.89      191.93      191.60    
  190.41      187.81      183.09      175.57      164.83      150.90      134.23      115.70      96.425      77.599    
  60.295      45.317      33.100      23.688      16.798      11.943      8.5982      6.3436      4.8462      3.8599    
  3.2154      2.7998      2.5376      2.3778      2.2856      2.2387      2.2243      2.2387      2.2856      2.3778    
  2.5376      2.7998      3.2154      3.8599      4.8462      6.3436      8.5982      11.943      16.798      23.688    
  33.100      45.317      60.295      77.599      96.425      115.70      134.23      150.90      164.83      175.57    
  183.09      187.81      190.41      191.60      188.93      188.38      186.58      183.09      177.36      168.90    
  157.45      143.15      126.52      108.41      89.874      72.008      55.768      41.847      30.586      21.967    
  15.682      11.254      8.2040      6.1490      4.7842      3.8862      3.3011      2.9259      2.6913      2.5498    
  2.4693      2.4287      2.4164      2.4287      2.4693      2.5498      2.6913      2.9259      3.3011      3.8862    
  4.7842      6.1490      8.2040      11.254      15.682      21.967      30.586      41.847      55.768      72.008    
  89.874      108.41      126.52      143.15      157.45      168.90      177.36      183.09      186.58      188.38    
  183.08      182.32      179.92      175.57      168.90      159.60      147.61      133.15      116.81      99.402    
  81.908      65.299      50.401      37.777      27.666      19.985      14.407      10.477      7.7728      5.9532    
  4.7469      3.9562      3.4452      3.1218      2.9233      2.8065      2.7418      2.7100      2.7005      2.7100    
  2.7418      2.8065      2.9233      3.1218      3.4452      3.9562      4.7469      5.9532      7.7728      10.477    
  14.407      19.985      27.666      37.777      50.401      65.299      81.908      99.402      116.81      133.15    
  147.61      159.60      168.90      175.57      179.92      182.32      173.70      172.76      169.87      164.83    
  157.45      147.61      135.38      121.11      105.40      89.035      72.895      57.822      44.500      33.359    
  24.532      17.881      13.069      9.6792      7.3538      5.7937      4.7646      4.0965      3.6720      3.4107    
  3.2567      3.1711      3.1270      3.1068      3.1012      3.1068      3.1270      3.1711      3.2567      3.4107    
  3.6720      4.0965      4.7646      5.7937      7.3538      9.6792      13.069      17.881      24.532      33.359    
  44.500      57.822      72.895      89.035      105.40      121.11      135.38      147.61      157.45      164.83    
  169.87      172.76      160.62      159.56      156.35      150.90      143.15      133.15      121.11      107.44    
  92.752      77.772      63.278      49.975      38.400      28.855      21.380      15.793      11.762      8.9294    
  6.9968      5.7089      4.8693      4.3357      4.0090      3.8200      3.7198      3.6731      3.6554      3.6507    
  3.6501      3.6507      3.6554      3.6731      3.7198      3.8200      4.0090      4.3357      4.8693      5.7089    
  6.9968      8.9294      11.762      15.793      21.380      28.855      38.400      49.975      63.278      77.772    
  92.752      107.44      121.11      133.15      143.15      150.90      156.35      159.56      144.22      143.11    
  139.78      134.23      126.52      116.81      105.40      92.752      79.451      66.163      53.546      42.170    
  32.432      24.516      18.390      13.843      10.571      8.2892      6.7475      5.7357      5.0939      4.7060    
  4.4900      4.3867      4.3528      4.3561      4.3737      4.3901      4.3965      4.3901      4.3737      4.3561    
  4.3528      4.3867      4.4900      4.7060      5.0939      5.7357      6.7475      8.2892      10.571      13.843    
  18.390      24.516      32.432      42.170      53.546      66.163      79.451      92.752      105.40      116.81    
  126.52      134.23      139.78      143.11      125.37      124.28      121.03      115.70      108.41      99.402    
  89.035      77.772      66.163      54.786      44.185      34.793      26.886      20.550      15.700      12.122    
  9.5664      7.8091      6.6459      5.9101      5.4750      5.2481      5.1614      5.1639      5.2159      5.2866    
  5.3529      5.3989      5.4152      5.3989      5.3529      5.2866      5.2159      5.1639      5.1614      5.2481    
  5.4750      5.9101      6.6459      7.8091      9.5664      12.122      15.700      20.550      26.886      34.793    
  44.185      54.786      66.163      77.772      89.035      99.402      108.41      115.70      121.03      124.28    
  105.28      104.27      101.29      96.425      89.874      81.908      72.895      63.278      53.546      44.185    
  35.619      28.163      21.986      17.105      13.405      10.697      8.7986      7.5289      6.7292      6.2718    
  6.0591      6.0174      6.0894      6.2286      6.3963      6.5605      6.6960      6.7845      6.8152      6.7845    
  6.6960      6.5605      6.3963      6.2286      6.0894      6.0174      6.0591      6.2718      6.7292      7.5289    
  8.7986      10.697      13.405      17.105      21.986      28.163      35.619      44.185      53.546      63.278    
  72.895      81.908      89.874      96.425      101.29      104.27      85.268      84.390      81.794      77.599    
  72.008      65.299      57.822      49.975      42.170      34.793      28.163      22.489      17.863      14.254    
  11.547      9.6096      8.3000      7.4815      7.0365      6.8706      6.9090      7.0915      7.3667      7.6886    
  8.0157      8.3114      8.5454      8.6951      8.7466      8.6951      8.5454      8.3114      8.0157      7.6886    
  7.3667      7.0915      6.9090      6.8706      7.0365      7.4815      8.3000      9.6096      11.547      14.254    
  17.863      22.489      28.163      34.793      42.170      49.975      57.822      65.299      72.008      77.599    
  81.794      84.390      66.584      65.859      63.723      60.295      55.768      50.401      44.500      38.400    
  32.432      26.886      21.986      17.863      14.551      12.004      10.143      8.8740      8.0915      7.6993    
  7.6151      7.7706      8.1073      8.5723      9.1147      9.6843      10.232      10.713      11.087      11.324    
  11.406      11.324      11.087      10.713      10.232      9.6843      9.1147      8.5723      8.1073      7.7706    
  7.6151      7.6993      8.0915      8.8740      10.143      12.004      14.551      17.863      21.986      26.886    
  32.432      38.400      44.500      50.401      55.768      60.295      63.723      65.859      50.192      49.626    
  47.966      45.317      41.847      37.777      33.359      28.855      24.516      20.550      17.105      14.254    
  12.004      10.330      9.1809      8.4902      8.1900      8.2186      8.5215      9.0493      9.7534      10.582    
  11.480      12.388      13.243      13.985      14.560      14.924      15.049      14.924      14.560      13.985    
  13.243      12.388      11.480      10.582      9.7534      9.0493      8.5215      8.2186      8.1900      8.4902    
  9.1809      10.330      12.004      14.254      17.105      20.550      24.516      28.855      33.359      37.777    
  41.847      45.317      47.966      49.626      36.667      36.251      35.033      33.100      30.586      27.666    
  24.532      21.380      18.390      15.700      13.405      11.547      10.143      9.1809      8.6290      8.4515    
  8.6129      9.0797      9.8189      10.793      11.959      13.263      14.639      16.015      17.307      18.430    
  19.303      19.857      20.047      19.857      19.303      18.430      17.307      16.015      14.639      13.263    
  11.959      10.793      9.8189      9.0797      8.6129      8.4515      8.6290      9.1809      10.143      11.547    
  13.405      15.700      18.390      21.380      24.532      27.666      30.586      33.100      35.033      36.251    
  26.153      25.864      25.021      23.688      21.967      19.985      17.881      15.793      13.843      12.122    
  10.697      9.6096      8.8740      8.4902      8.4515      8.7501      9.3778      10.324      11.572      13.095    
  14.852      16.786      18.825      20.870      22.808      24.508      25.840      26.692      26.985      26.692    
  25.840      24.508      22.808      20.870      18.825      16.786      14.852      13.095      11.572      10.324    
  9.3778      8.7501      8.4515      8.4902      8.8740      9.6096      10.697      12.122      13.843      15.793    
  17.881      19.985      21.967      23.688      25.021      25.864      18.409      18.220      17.668      16.798    
  15.682      14.407      13.069      11.762      10.571      9.5664      8.7986      8.3000      8.0915      8.1900    
  8.6129      9.3778      10.501      11.990      13.846      16.054      18.585      21.385      24.368      27.407    
  30.330      32.930      34.990      36.317      36.775      36.317      34.990      32.930      30.330      27.407    
  24.368      21.385      18.585      16.054      13.846      11.990      10.501      9.3778      8.6129      8.1900    
  8.0915      8.3000      8.7986      9.5664      10.571      11.762      13.069      14.407      15.682      16.798    
  17.668      18.220      12.945      12.827      12.483      11.943      11.254      10.477      9.6792      8.9294    
  8.2892      7.8091      7.5289      7.4815      7.6993      8.2186      9.0797      10.324      11.990      14.109    
  16.704      19.790      23.360      27.377      31.741      36.273      40.706      44.702      47.899      49.970    
  50.688      49.970      47.899      44.702      40.706      36.273      31.741      27.377      23.360      19.790    
  16.704      14.109      11.990      10.324      9.0797      8.2186      7.6993      7.4815      7.5289      7.8091    
  8.2892      8.9294      9.6792      10.477      11.254      11.943      12.483      12.827      9.1838      9.1143    
  8.9124      8.5982      8.2040      7.7728      7.3538      6.9968      6.7475      6.6459      6.7292      7.0365    
  7.6151      8.5215      9.8189      11.572      13.846      16.704      20.214      24.442      29.433      35.174    
  41.546      48.282      54.958      61.030      65.914      69.096      70.204      69.096      65.914      61.030    
  54.958      48.282      41.546      35.174      29.433      24.442      20.214      16.704      13.846      11.572    
  9.8189      8.5215      7.6151      7.0365      6.7292      6.6459      6.7475      6.9968      7.3538      7.7728    
  8.2040      8.5982      8.9124      9.1143      6.6486      6.6118      6.5056      6.3436      6.1490      5.9532    
  5.7937      5.7089      5.7357      5.9101      6.2718      6.8706      7.7706      9.0493      10.793      13.095    
  16.054      19.790      24.442      30.165      37.084      45.222      54.415      64.248      74.113      83.304    
  90.887      95.912      97.674      95.912      90.887      83.304      74.113      64.248      54.415      45.222    
  37.084      30.165      24.442      19.790      16.054      13.095      10.793      9.0493      7.7706      6.8706    
  6.2718      5.9101      5.7357      5.7089      5.7937      5.9532      6.1490      6.3436      6.5056      6.6118    
  4.9664      4.9510      4.9077      4.8462      4.7842      4.7469      4.7646      4.8693      5.0939      5.4750    
  6.0591      6.9090      8.1073      9.7534      11.959      14.852      18.585      23.360      29.433      37.084    
  46.545      57.869      70.814      85.044      99.872      113.98      125.72      133.51      136.24      133.51    
  125.72      113.98      99.872      85.044      70.814      57.869      46.545      37.084      29.433      23.360    
  18.585      14.852      11.959      9.7534      8.1073      6.9090      6.0591      5.4750      5.0939      4.8693    
  4.7646      4.7469      4.7842      4.8462      4.9077      4.9510      3.8594      3.8579      3.8556      3.8599    
  3.8862      3.9562      4.0965      4.3357      4.7060      5.2481      6.0174      7.0915      8.5723      10.582    
  13.263      16.786      21.385      27.377      35.174      45.222      57.869      73.202      91.367      112.04    
  133.84      154.54      171.64      182.90      186.83      182.90      171.64      154.54      133.84      112.04    
  91.367      73.202      57.869      45.222      35.174      27.377      21.385      16.786      13.263      10.582    
  8.5723      7.0915      6.0174      5.2481      4.7060      4.3357      4.0965      3.9562      3.8862      3.8599    
  3.8556      3.8579      3.1355      3.1431      3.1675      3.2154      3.3011      3.4452      3.6720      4.0090    
  4.4900      5.1614      6.0894      7.3667      9.1147      11.480      14.639      18.825      24.368      31.741    
  41.546      54.415      70.814      91.367      116.53      145.39      175.56      203.79      226.72      241.63    
  246.80      241.63      226.72      203.79      175.56      145.39      116.53      91.367      70.814      54.415    
  41.546      31.741      24.368      18.825      14.639      11.480      9.1147      7.3667      6.0894      5.1614    
  4.4900      4.0090      3.6720      3.4452      3.3011      3.2154      3.1675      3.1431      2.6673      2.6809    
  2.7229      2.7998      2.9259      3.1218      3.4107      3.8200      4.3867      5.1639      6.2286      7.6886    
  9.6843      12.388      16.015      20.870      27.407      36.273      48.282      64.248      85.044      112.04    
  145.39      183.25      222.10      257.66      285.94      304.03      310.23      304.03      285.94      257.66    
  222.10      183.25      145.39      112.04      85.044      64.248      48.282      36.273      27.407      20.870    
  16.015      12.388      9.6843      7.6886      6.2286      5.1639      4.3867      3.8200      3.4107      3.1218    
  2.9259      2.7998      2.7229      2.6809      2.3706      2.3880      2.4415      2.5376      2.6913      2.9233    
  3.2567      3.7198      4.3528      5.2159      6.3963      8.0157      10.232      13.243      17.307      22.808    
  30.330      40.706      54.958      74.113      99.872      133.84      175.56      222.10      268.76      310.38    
  342.71      362.99      369.88      362.99      342.71      310.38      268.76      222.10      175.56      133.84    
  99.872      74.113      54.958      40.706      30.330      22.808      17.307      13.243      10.232      8.0157    
  6.3963      5.2159      4.3528      3.7198      3.2567      2.9233      2.6913      2.5376      2.4415      2.3880    
  2.1888      2.2085      2.2692      2.3778      2.5498      2.8065      3.1711      3.6731      4.3561      5.2866    
  6.5605      8.3114      10.713      13.985      18.430      24.508      32.930      44.702      61.030      83.304    
  113.98      154.54      203.79      257.66      310.38      356.23      390.99      412.37      419.56      412.37    
  390.99      356.23      310.38      257.66      203.79      154.54      113.98      83.304      61.030      44.702    
  32.930      24.508      18.430      13.985      10.713      8.3114      6.5605      5.2866      4.3561      3.6731    
  3.1711      2.8065      2.5498      2.3778      2.2692      2.2085      2.0833      2.1045      2.1694      2.2856    
  2.4693      2.7418      3.1270      3.6554      4.3737      5.3529      6.6960      8.5454      11.087      14.560    
  19.303      25.840      34.990      47.899      65.914      90.887      125.72      171.64      226.72      285.94    
  342.71      390.99      426.80      448.45      455.64      448.45      426.80      390.99      342.71      285.94    
  226.72      171.64      125.72      90.887      65.914      47.899      34.990      25.840      19.303      14.560    
  11.087      8.5454      6.6960      5.3529      4.3737      3.6554      3.1270      2.7418      2.4693      2.2856    
  2.1694      2.1045      2.0294      2.0512      2.1183      2.2387      2.4287      2.7100      3.1068      3.6507    
  4.3901      5.3989      6.7845      8.6951      11.324      14.924      19.857      26.692      36.317      49.970    
  69.096      95.912      133.51      182.90      241.63      304.03      362.99      412.37      448.45      469.98    
  477.08      469.98      448.45      412.37      362.99      304.03      241.63      182.90      133.51      95.912    
  69.096      49.970      36.317      26.692      19.857      14.924      11.324      8.6951      6.7845      5.3989    
  4.3901      3.6507      3.1068      2.7100      2.4287      2.2387      2.1183      2.0512      2.0129      2.0349    
  2.1027      2.2243      2.4164      2.7005      3.1012      3.6501      4.3965      5.4152      6.8152      8.7466    
  11.406      15.049      20.047      26.985      36.775      50.688      70.204      97.674      136.24      186.83    
  246.80      310.23      369.88      419.56      455.64      477.08      484.14      477.08      455.64      419.56    
  369.88      310.23      246.80      186.83      136.24      97.674      70.204      50.688      36.775      26.985    
  20.047      15.049      11.406      8.7466      6.8152      5.4152      4.3965      3.6501      3.1012      2.7005    
  2.4164      2.2243      2.1027      2.0349      2.0294      2.0512      2.1183      2.2387      2.4287      2.7100    
  3.1068      3.6507      4.3901      5.3989      6.7845      8.6951      11.324      14.924      19.857      26.692    
  36.317      49.970      69.096      95.912      133.51      182.90      241.63      304.03      362.99      412.37    
  448.45      469.98      477.08      469.98      448.45      412.37      362.99      304.03      241.63      182.90    
  133.51      95.912      69.096      49.970      36.317      26.692      19.857      14.924      11.324      8.6951    
  6.7845      5.3989      4.3901      3.6507      3.1068      2.7100      2.4287      2.2387      2.1183      2.0512    
  2.0833      2.1045      2.1694      2.2856      2.4693      2.7418      3.1270      3.6554      4.3737      5.3529    
  6.6960      8.5454      11.087      14.560      19.303      25.840      34.990      47.899      65.914      90.887    
  125.72      171.64      226.72      285.94      342.71      390.99      426.80      448.45      455.64      448.45    
  426.80      390.99      342.71      285.94      226.72      171.64      125.72      90.887      65.914      47.899    
  34.990      25.840      19.303      14.560      11.087      8.5454      6.6960      5.3529      4.3737      3.6554    
  3.1270      2.7418      2.4693      2.2856      2.1694      2.1045      2.1888      2.2085      2.2692      2.3778    
  2.5498      2.8065      3.1711      3.6731      4.3561      5.2866      6.5605      8.3114      10.713      13.985    
  18.430      24.508      32.930      44.702      61.030      83.304      113.98      154.54      203.79      257.66    
  310.38      356.23      390.99      412.37      419.56      412.37      390.99      356.23      310.38      257.66    
  203.79      154.54      113.98      83.304      61.030      44.702      32.930      24.508      18.430      13.985    
  10.713      8.3114      6.5605      5.2866      4.3561      3.6731      3.1711      2.8065      2.5498      2.3778    
  2.2692      2.2085      2.3706      2.3880      2.4415      2.5376      2.6913      2.9233      3.2567      3.7198    
  4.3528      5.2159      6.3963      8.0157      10.232      13.243      17.307      22.808      30.330      40.706    
  54.958      74.113      99.872      133.84      175.56      222.10      268.76      310.38      342.71      362.99    
  369.88      362.99      342.71      310.38      268.76      222.10      175.56      133.84      99.872      74.113    
  54.958      40.706      30.330      22.808      17.307      13.243      10.232      8.0157      6.3963      5.2159    
  4.3528      3.7198      3.2567      2.9233      2.6913      2.5376      2.4415      2.3880      2.6673      2.6809    
  2.7229      2.7998      2.9259      3.1218      3.4107      3.8200      4.3867      5.1639      6.2286      7.6886    
  9.6843      12.388      16.015      20.870      27.407      36.273      48.282      64.248      85.044      112.04    
  145.39      183.25      222.10      257.66      285.94      304.03      310.23      304.03      285.94      257.66    
  222.10      183.25      145.39      112.04      85.044      64.248      48.282      36.273      27.407      20.870    
  16.015      12.388      9.6843      7.6886      6.2286      5.1639      4.3867      3.8200      3.4107      3.1218    
  2.9259      2.7998      2.7229      2.6809      3.1355      3.1431      3.1675      3.2154      3.3011      3.4452    
  3.6720      4.0090      4.4900      5.1614      6.0894      7.3667      9.1147      11.480      14.639      18.825    
  24.368      31.741      41.546      54.415      70.814      91.367      116.53      145.39      175.56      203.79    
  226.72      241.63      246.80      241.63      226.72      203.79      175.56      145.39      116.53      91.367    
  70.814      54.415      41.546      31.741      24.368      18.825      14.639      11.480      9.1147      7.3667    
  6.0894      5.1614      4.4900      4.0090      3.6720      3.4452      3.3011      3.2154      3.1675      3.1431    
  3.8594      3.8579      3.8556      3.8599      3.8862      3.9562      4.0965      4.3357      4.7060      5.2481    
  6.0174      7.0915      8.5723      10.582      13.263      16.786      21.385      27.377      35.174      45.222    
  57.869      73.202      91.367      112.04      133.84      154.54      171.64      182.90      186.83      182.90    
  171.64      154.54      133.84      112.04      91.367      73.202      57.869      45.222      35.174      27.377    
  21.385      16.786      13.263      10.582      8.5723      7.0915      6.0174      5.2481      4.7060      4.3357    
  4.0965      3.9562      3.8862      3.8599      3.8556      3.8579      4.9664      4.9510      4.9077      4.8462    
  4.7842      4.7469      4.7646      4.8693      5.0939      5.4750      6.0591      6.9090      8.1073      9.7534    
  11.959      14.852      18.585      23.360      29.433      37.084      46.545      57.869      70.814      85.044    
  99.872      113.98      125.72      133.51      136.24      133.51      125.72      113.98      99.872      85.044    
  70.814      57.869      46.545      37.084      29.433      23.360      18.585      14.852      11.959      9.7534    
  8.1073      6.9090      6.0591      5.4750      5.0939      4.8693      4.7646      4.7469      4.7842      4.8462    
  4.9077      4.9510      6.6486      6.6118      6.5056      6.3436      6.1490      5.9532      5.7937      5.7089    
  5.7357      5.9101      6.2718      6.8706      7.7706      9.0493      10.793      13.095      16.054      19.790    
  24.442      30.165      37.084      45.222      54.415      64.248      74.113      83.304      90.887      95.912    
  97.674      95.912      90.887      83.304      74.113      64.248      54.415      45.222      37.084      30.165    
  24.442      19.790      16.054      13.095      10.793      9.0493      7.7706      6.8706      6.2718      5.9101    
  5.7357      5.7089      5.7937      5.9532      6.1490      6.3436      6.5056      6.6118      9.1838      9.1143    
  8.9124      8.5982      8.2040      7.7728      7.3538      6.9968      6.7475      6.6459      6.7292      7.0365    
  7.6151      8.5215      9.8189      11.572      13.846      16.704      20.214      24.442      29.433      35.174    
  41.546      48.282      54.958      61.030      65.914      69.096      70.204      69.096      65.914      61.030    
  54.958      48.282      41.546      35.174      29.433      24.442      20.214      16.704      13.846      11.572    
  9.8189      8.5215      7.6151      7.0365      6.7292      6.6459      6.7475      6.9968      7.3538      7.7728    
  8.2040      8.5982      8.9124      9.1143      12.945      12.827      12.483      11.943      11.254      10.477    
  9.6792      8.9294      8.2892      7.8091      7.5289      7.4815      7.6993      8.2186      9.0797      10.324    
  11.990      14.109      16.704      19.790      23.360      27.377      31.741      36.273      40.706      44.702    
  47.899      49.970      50.688      49.970      47.899      44.702      40.706      36.273      31.741      27.377    
  23.360      19.790      16.704      14.109      11.990      10.324      9.0797      8.2186      7.6993      7.4815    
  7.5289      7.8091      8.2892      8.9294      9.6792      10.477      11.254      11.943      12.483      12.827    
  18.409      18.220      17.668      16.798      15.682      14.407      13.069      11.762      10.571      9.5664    
  8.7986      8.3000      8.0915      8.1900      8.6129      9.3778      10.501      11.990      13.846      16.054    
  18.585      21.385      24.368      27.407      30.330      32.930      34.990      36.317      36.775      36.317    
  34.990      32.930      30.330      27.407      24.368      21.385      18.585      16.054      13.846      11.990    
  10.501      9.3778      8.6129      8.1900      8.0915      8.3000      8.7986      9.5664      10.571      11.762    
  13.069      14.407      15.682      16.798      17.668      18.220      26.153      25.864      25.021      23.688    
  21.967      19.985      17.881      15.793      13.843      12.122      10.697      9.6096      8.8740      8.4902    
  8.4515      8.7501      9.3778      10.324      11.572      13.095      14.852      16.786      18.825      20.870    
  22.808      24.508      25.840      26.692      26.985      26.692      25.840      24.508      22.808      20.870    
  18.825      16.786      14.852      13.095      11.572      10.324      9.3778      8.7501      8.4515      8.4902    
  8.8740      9.6096      10.697      12.122      13.843      15.793      17.881      19.985      21.967      23.688    
  25.021      25.864      36.667      36.251      35.033      33.100      30.586      27.666      24.532      21.380    
  18.390      15.700      13.405      11.547      10.143      9.1809      8.6290      8.4515      8.6129      9.0797    
  9.8189      10.793      11.959      13.263      14.639      16.015      17.307      18.430      19.303      19.857    
  20.047      19.857      19.303      18.430      17.307      16.015      14.639      13.263      11.959      10.793    
  9.8189      9.0797      8.6129      8.4515      8.6290      9.1809      10.143      11.547      13.405      15.700    
  18.390      21.380      24.532      27.666      30.586      33.100      35.033      36.251      50.192      49.626    
  47.966      45.317      41.847      37.777      33.359      28.855      24.516      20.550      17.105      14.254    
  12.004      10.330      9.1809      8.4902      8.1900      8.2186      8.5215      9.0493      9.7534      10.582    
  11.480      12.388      13.243      13.985      14.560      14.924      15.049      14.924      14.560      13.985    