unknown system                          
   1.00000000000000     
     3.905268    0.000000    0.000000
     0.000000    3.905268    0.000000
     0.000000    0.000000    3.905268
   Sr   Ti   O 
     1     1     3
Direct
  0.000000  0.000000  0.000000
  0.500000  0.500000  0.500000
  0.500000  0.500000  0.000000
  0.500000  0.000000  0.500000
  0.000000  0.500000  0.500000
 
   56   56   56
 0.19319603604E+03 0.19322118271E+03 0.19303643840E+03 0.19192990861E+03 0.18893009004E+03
 0.18307717641E+03 0.17370048654E+03 0.16062018037E+03 0.14421739165E+03 0.12536749241E+03
 0.10527563982E+03 0.85268329501E+02 0.66583860087E+02 0.50191506517E+02 0.36667183918E+02
 0.26152678751E+02 0.18409284779E+02 0.12945217133E+02 0.91838287554E+01 0.66485867988E+01
 0.49664173248E+01 0.38593706168E+01 0.31354842284E+01 0.26673147815E+01 0.23706271780E+01
 0.21887668289E+01 0.20833423705E+01 0.20294015706E+01 0.20129232186E+01 0.20294015706E+01
 0.20833423705E+01 0.21887668289E+01 0.23706271780E+01 0.26673147815E+01 0.31354842284E+01
 0.38593706168E+01 0.49664173248E+01 0.66485867988E+01 0.91838287554E+01 0.12945217133E+02
 0.18409284779E+02 0.26152678751E+02 0.36667183918E+02 0.50191506517E+02 0.66583860087E+02
 0.85268329501E+02 0.10527563982E+03 0.12536749241E+03 0.14421739165E+03 0.16062018037E+03
 0.17370048654E+03 0.18307717641E+03 0.18893009004E+03 0.19192990861E+03 0.19303643840E+03
 0.19322118271E+03 0.19322118271E+03 0.19320226364E+03 0.19289237210E+03 0.19159972643E+03
 0.18838274462E+03 0.18231589763E+03 0.17276044612E+03 0.15956015500E+03 0.14310801888E+03
 0.12427938580E+03 0.10426979852E+03 0.84389794034E+02 0.65858550449E+02 0.49625989251E+02
 0.36251210942E+02 0.25864061788E+02 0.18220002515E+02 0.12827182721E+02 0.91143103655E+01
 0.66117501465E+01 0.49510123012E+01 0.38578964965E+01 0.31430959910E+01 0.26808673261E+01
 0.23880107419E+01 0.22085218067E+01 0.21044590840E+01 0.20511965091E+01 0.20349202697E+01
 0.20511965091E+01 0.21044590840E+01 0.22085218067E+01 0.23880107419E+01 0.26808673261E+01
 0.31430959910E+01 0.38578964965E+01 0.49510123012E+01 0.66117501465E+01 0.91143103655E+01
 0.12827182721E+02 0.18220002515E+02 0.25864061788E+02 0.36251210942E+02 0.49625989251E+02
 0.65858550449E+02 0.84389794034E+02 0.10426979852E+03 0.12427938580E+03 0.14310801888E+03
 0.15956015500E+03 0.17276044612E+03 0.18231589763E+03 0.18838274462E+03 0.19159972643E+03
 0.19289237210E+03 0.19320226364E+03 0.19303643840E+03 0.19289237210E+03 0.19222753918E+03
 0.19040851035E+03 0.18658015775E+03 0.17991547850E+03 0.16986697141E+03 0.15634524059E+03
 0.13977618204E+03 0.12103389947E+03 0.10128519675E+03 0.81793692006E+02 0.63722646878E+02
 0.47965629587E+02 0.35033093777E+02 0.25020746750E+02 0.17667883773E+02 0.12483275686E+02
 0.89124421246E+01 0.65056062536E+01 0.49077262241E+01 0.38555537676E+01 0.31675271086E+01
 0.27228802161E+01 0.24414651274E+01 0.22691871156E+01 0.21693874912E+01 0.21183247774E+01
 0.21027215619E+01 0.21183247774E+01 0.21693874912E+01 0.22691871156E+01 0.24414651274E+01
 0.27228802161E+01 0.31675271086E+01 0.38555537676E+01 0.49077262241E+01 0.65056062536E+01
 0.89124421246E+01 0.12483275686E+02 0.17667883773E+02 0.25020746750E+02 0.35033093777E+02
 0.47965629587E+02 0.63722646878E+02 0.81793692006E+02 0.10128519675E+03 0.12103389947E+03
 0.13977618204E+03 0.15634524059E+03 0.16986697141E+03 0.17991547850E+03 0.18658015775E+03
 0.19040851035E+03 0.19222753918E+03 0.19289237210E+03 0.19192990861E+03 0.19159972643E+03
 0.19040851035E+03 0.18781343065E+03 0.18309259333E+03 0.17556935359E+03 0.16483378237E+03
 0.15089552996E+03 0.13422715318E+03 0.11569723195E+03 0.96425163295E+02 0.77599481883E+02
 0.60294898277E+02 0.45316532624E+02 0.33099511481E+02 0.23687979427E+02 0.16798445515E+02
 0.11943266258E+02 0.85981718843E+01 0.63436485325E+01 0.48462121450E+01 0.38599413585E+01
 0.32154462110E+01 0.27997779743E+01 0.25375916734E+01 0.23777784481E+01 0.22856253658E+01
 0.22386643514E+01 0.22243490658E+01 0.22386643514E+01 0.22856253658E+01 0.23777784481E+01
 0.25375916734E+01 0.27997779743E+01 0.32154462110E+01 0.38599413585E+01 0.48462121450E+01
 0.63436485325E+01 0.85981718843E+01 0.11943266258E+02 0.16798445515E+02 0.23687979427E+02
 0.33099511481E+02 0.45316532624E+02 0.60294898277E+02 0.77599481883E+02 0.96425163295E+02
 0.11569723195E+03 0.13422715318E+03 0.15089552996E+03 0.16483378237E+03 0.17556935359E+03
 0.18309259333E+03 0.18781343065E+03 0.19040851035E+03 0.19159972643E+03 0.18893009004E+03
 0.18838274462E+03 0.18658015775E+03 0.18309259333E+03 0.17736282102E+03 0.16889756091E+03
 0.15745181216E+03 0.14315086340E+03 0.12651776239E+03 0.10840743540E+03 0.89874275576E+02
 0.72007928899E+02 0.55768269642E+02 0.41847375153E+02 0.30586194827E+02 0.21966993986E+02
 0.15682186047E+02 0.11254301163E+02 0.82040008541E+01 0.61489578432E+01 0.47841674165E+01
 0.38861544189E+01 0.33010869947E+01 0.29259044108E+01 0.26912849099E+01 0.25498387382E+01
 0.24692623151E+01 0.24286538645E+01 0.24163597582E+01 0.24286538645E+01 0.24692623151E+01
 0.25498387382E+01 0.26912849099E+01 0.29259044108E+01 0.33010869947E+01 0.38861544189E+01
 0.47841674165E+01 0.61489578432E+01 0.82040008541E+01 0.11254301163E+02 0.15682186047E+02
 0.21966993986E+02 0.30586194827E+02 0.41847375153E+02 0.55768269642E+02 0.72007928899E+02
 0.89874275576E+02 0.10840743540E+03 0.12651776239E+03 0.14315086340E+03 0.15745181216E+03
 0.16889756091E+03 0.17736282102E+03 0.18309259333E+03 0.18658015775E+03 0.18838274462E+03
 0.18307717641E+03 0.18231589763E+03 0.17991547850E+03 0.17556935359E+03 0.16889756091E+03
 0.15960106220E+03 0.14760576296E+03 0.13315231377E+03 0.11680785828E+03 0.99401997317E+02
 0.81908281549E+02 0.65299050406E+02 0.50400828261E+02 0.37777256492E+02 0.27665759835E+02
 0.19984749563E+02 0.14407085851E+02 0.10476935545E+02 0.77728305925E+01 0.59532452205E+01
 0.47468854903E+01 0.39562449922E+01 0.34451934226E+01 0.31217582836E+01 0.29232922681E+01
 0.28065100385E+01 0.27417903490E+01 0.27100080351E+01 0.27005429166E+01 0.27100080351E+01
 0.27417903490E+01 0.28065100385E+01 0.29232922681E+01 0.31217582836E+01 0.34451934226E+01
 0.39562449922E+01 0.47468854903E+01 0.59532452205E+01 0.77728305925E+01 0.10476935545E+02
 0.14407085851E+02 0.19984749563E+02 0.27665759835E+02 0.37777256492E+02 0.50400828261E+02
 0.65299050406E+02 0.81908281549E+02 0.99401997317E+02 0.11680785828E+03 0.13315231377E+03
 0.14760576296E+03 0.15960106220E+03 0.16889756091E+03 0.17556935359E+03 0.17991547850E+03
 0.18231589763E+03 0.17370048654E+03 0.17276044612E+03 0.16986697141E+03 0.16483378237E+03
 0.15745181216E+03 0.14760576296E+03 0.13537867112E+03 0.12111135641E+03 0.10540005901E+03
 0.89034811230E+02 0.72894714961E+02 0.57822171783E+02 0.44500217002E+02 0.33358597926E+02
 0.24531879175E+02 0.17880964776E+02 0.13068965607E+02 0.96792212223E+01 0.73537985123E+01
 0.57937379596E+01 0.47645727812E+01 0.40965072311E+01 0.36720192446E+01 0.34106797196E+01
 0.32567459525E+01 0.31711463473E+01 0.31269707600E+01 0.31068497380E+01 0.31011635476E+01
 0.31068497380E+01 0.31269707600E+01 0.31711463473E+01 0.32567459525E+01 0.34106797196E+01
 0.36720192446E+01 0.40965072311E+01 0.47645727812E+01 0.57937379596E+01 0.73537985123E+01
 0.96792212223E+01 0.13068965607E+02 0.17880964776E+02 0.24531879175E+02 0.33358597926E+02
 0.44500217002E+02 0.57822171783E+02 0.72894714961E+02 0.89034811230E+02 0.10540005901E+03
 0.12111135641E+03 0.13537867112E+03 0.14760576296E+03 0.15745181216E+03 0.16483378237E+03
 0.16986697141E+03 0.17276044612E+03 0.16062018037E+03 0.15956015500E+03 0.15634524059E+03
 0.15089552996E+03 0.14315086340E+03 0.13315231377E+03 0.12111135641E+03 0.10744298636E+03
 0.92751610652E+02 0.77772072183E+02 0.63277925384E+02 0.49974791504E+02 0.38400466133E+02
 0.28855124305E+02 0.21380490601E+02 0.15793367194E+02 0.11761523799E+02 0.89294498636E+01
 0.69967530089E+01 0.57089440506E+01 0.48692690070E+01 0.43356582246E+01 0.40089501602E+01
 0.38200047096E+01 0.37197540646E+01 0.36730669267E+01 0.36553847555E+01 0.36507015351E+01
 0.36500915490E+01 0.36507015351E+01 0.36553847555E+01 0.36730669267E+01 0.37197540646E+01
 0.38200047096E+01 0.40089501602E+01 0.43356582246E+01 0.48692690070E+01 0.57089440506E+01
 0.69967530089E+01 0.89294498636E+01 0.11761523799E+02 0.15793367194E+02 0.21380490601E+02
 0.28855124305E+02 0.38400466133E+02 0.49974791504E+02 0.63277925384E+02 0.77772072183E+02
 0.92751610652E+02 0.10744298636E+03 0.12111135641E+03 0.13315231377E+03 0.14315086340E+03
 0.15089552996E+03 0.15634524059E+03 0.15956015500E+03 0.14421739165E+03 0.14310801888E+03
 0.13977618204E+03 0.13422715318E+03 0.12651776239E+03 0.11680785828E+03 0.10540005901E+03
 0.92751610652E+02 0.79451188754E+02 0.66162816008E+02 0.53546360450E+02 0.42169680193E+02
 0.32431684573E+02 0.24516145084E+02 0.18389558169E+02 0.13842752987E+02 0.10570678742E+02
 0.82892127100E+01 0.67474533072E+01 0.57357474654E+01 0.50938999054E+01 0.47060365171E+01
 0.44899579981E+01 0.43866577488E+01 0.43527566454E+01 0.43561412073E+01 0.43737194588E+01
 0.43900831440E+01 0.43964802145E+01 0.43900831440E+01 0.43737194588E+01 0.43561412073E+01
 0.43527566454E+01 0.43866577488E+01 0.44899579981E+01 0.47060365171E+01 0.50938999054E+01
 0.57357474654E+01 0.67474533072E+01 0.82892127100E+01 0.10570678742E+02 0.13842752987E+02
 0.18389558169E+02 0.24516145084E+02 0.32431684573E+02 0.42169680193E+02 0.53546360450E+02
 0.66162816008E+02 0.79451188754E+02 0.92751610652E+02 0.10540005901E+03 0.11680785828E+03
 0.12651776239E+03 0.13422715318E+03 0.13977618204E+03 0.14310801888E+03 0.12536749241E+03
 0.12427938580E+03 0.12103389947E+03 0.11569723195E+03 0.10840743540E+03 0.99401997317E+02
 0.89034811230E+02 0.77772072183E+02 0.66162816008E+02 0.54786361157E+02 0.44184740895E+02
 0.34793307800E+02 0.26885996540E+02 0.20550447833E+02 0.15700393032E+02 0.12121708514E+02
 0.95663694320E+01 0.78091167275E+01 0.66459428135E+01 0.59101168897E+01 0.54750436320E+01
 0.52480818261E+01 0.51613905847E+01 0.51638674916E+01 0.52158758221E+01 0.52865943289E+01
 0.53529183852E+01 0.53988964779E+01 0.54152368054E+01 0.53988964779E+01 0.53529183852E+01
 0.52865943289E+01 0.52158758221E+01 0.51638674916E+01 0.51613905847E+01 0.52480818261E+01
 0.54750436320E+01 0.59101168897E+01 0.66459428135E+01 0.78091167275E+01 0.95663694320E+01
 0.12121708514E+02 0.15700393032E+02 0.20550447833E+02 0.26885996540E+02 0.34793307800E+02
 0.44184740895E+02 0.54786361157E+02 0.66162816008E+02 0.77772072183E+02 0.89034811230E+02
 0.99401997317E+02 0.10840743540E+03 0.11569723195E+03 0.12103389947E+03 0.12427938580E+03
 0.10527563982E+03 0.10426979852E+03 0.10128519675E+03 0.96425163295E+02 0.89874275576E+02
 0.81908281549E+02 0.72894714961E+02 0.63277925384E+02 0.53546360450E+02 0.44184740895E+02
 0.35618576868E+02 0.28162559008E+02 0.21985943571E+02 0.17104991195E+02 0.13404632466E+02
 0.10697299938E+02 0.87986465615E+01 0.75288627156E+01 0.67291721184E+01 0.62717791087E+01
 0.60590902277E+01 0.60173704703E+01 0.60893591413E+01 0.62285987827E+01 0.63963407240E+01
 0.65605451001E+01 0.66959650276E+01 0.67844631176E+01 0.68151673828E+01 0.67844631176E+01
 0.66959650276E+01 0.65605451001E+01 0.63963407240E+01 0.62285987827E+01 0.60893591413E+01
 0.60173704703E+01 0.60590902277E+01 0.62717791087E+01 0.67291721184E+01 0.75288627156E+01
 0.87986465615E+01 0.10697299938E+02 0.13404632466E+02 0.17104991195E+02 0.21985943571E+02
 0.28162559008E+02 0.35618576868E+02 0.44184740895E+02 0.53546360450E+02 0.63277925384E+02
 0.72894714961E+02 0.81908281549E+02 0.89874275576E+02 0.96425163295E+02 0.10128519675E+03
 0.10426979852E+03 0.85268329501E+02 0.84389794034E+02 0.81793692006E+02 0.77599481883E+02
 0.72007928899E+02 0.65299050406E+02 0.57822171783E+02 0.49974791504E+02 0.42169680193E+02
 0.34793307800E+02 0.28162559008E+02 0.22489390886E+02 0.17862854289E+02 0.14253747741E+02
 0.11547087707E+02 0.96096274482E+01 0.82999702083E+01 0.74814741579E+01 0.70365390394E+01
 0.68705615433E+01 0.69089829360E+01 0.70915085614E+01 0.73666986837E+01 0.76886028467E+01
 0.80156800318E+01 0.83113638655E+01 0.85453806089E+01 0.86951069913E+01 0.87465865740E+01
 0.86951069913E+01 0.85453806089E+01 0.83113638655E+01 0.80156800318E+01 0.76886028467E+01
 0.73666986837E+01 0.70915085614E+01 0.69089829360E+01 0.68705615433E+01 0.70365390394E+01
 0.74814741579E+01 0.82999702083E+01 0.96096274482E+01 0.11547087707E+02 0.14253747741E+02
 0.17862854289E+02 0.22489390886E+02 0.28162559008E+02 0.34793307800E+02 0.42169680193E+02
 0.49974791504E+02 0.57822171783E+02 0.65299050406E+02 0.72007928899E+02 0.77599481883E+02
 0.81793692006E+02 0.84389794034E+02 0.66583860087E+02 0.65858550449E+02 0.63722646878E+02
 0.60294898277E+02 0.55768269642E+02 0.50400828261E+02 0.44500217002E+02 0.38400466133E+02
 0.32431684573E+02 0.26885996540E+02 0.21985943571E+02 0.17862854289E+02 0.14551098916E+02
 0.12003844613E+02 0.10143481908E+02 0.88740083248E+01 0.80914752558E+01 0.76993166126E+01
 0.76151343794E+01 0.77705500574E+01 0.81072530867E+01 0.85723038788E+01 0.91147405123E+01
 0.96843012204E+01 0.10232120854E+02 0.10712782259E+02 0.11087013401E+02 0.11324415592E+02
 0.11405745668E+02 0.11324415592E+02 0.11087013401E+02 0.10712782259E+02 0.10232120854E+02
 0.96843012204E+01 0.91147405123E+01 0.85723038788E+01 0.81072530867E+01 0.77705500574E+01
 0.76151343794E+01 0.76993166126E+01 0.80914752558E+01 0.88740083248E+01 0.10143481908E+02
 0.12003844613E+02 0.14551098916E+02 0.17862854289E+02 0.21985943571E+02 0.26885996540E+02
 0.32431684573E+02 0.38400466133E+02 0.44500217002E+02 0.50400828261E+02 0.55768269642E+02
 0.60294898277E+02 0.63722646878E+02 0.65858550449E+02 0.50191506517E+02 0.49625989251E+02
 0.47965629587E+02 0.45316532624E+02 0.41847375153E+02 0.37777256492E+02 0.33358597926E+02
 0.28855124305E+02 0.24516145084E+02 0.20550447833E+02 0.17104991195E+02 0.14253747741E+02
 0.12003844613E+02 0.10329948230E+02 0.91809118387E+01 0.84902352859E+01 0.81900392694E+01
 0.82185602273E+01 0.85214939464E+01 0.90493399751E+01 0.97533627078E+01 0.10582205557E+02
 0.11480209107E+02 0.12387660647E+02 0.13242786931E+02 0.13985186373E+02 0.14560312289E+02
 0.14924410296E+02 0.15049063180E+02 0.14924410296E+02 0.14560312289E+02 0.13985186373E+02
 0.13242786931E+02 0.12387660647E+02 0.11480209107E+02 0.10582205557E+02 0.97533627078E+01
 0.90493399751E+01 0.85214939464E+01 0.82185602273E+01 0.81900392694E+01 0.84902352859E+01
 0.91809118387E+01 0.10329948230E+02 0.12003844613E+02 0.14253747741E+02 0.17104991195E+02
 0.20550447833E+02 0.24516145084E+02 0.28855124305E+02 0.33358597926E+02 0.37777256492E+02
 0.41847375153E+02 0.45316532624E+02 0.47965629587E+02 0.49625989251E+02 0.36667183918E+02
 0.36251210942E+02 0.35033093777E+02 0.33099511481E+02 0.30586194827E+02 0.27665759835E+02
 0.24531879175E+02 0.21380490601E+02 0.18389558169E+02 0.15700393032E+02 0.13404632466E+02
 0.11547087707E+02 0.10143481908E+02 0.91809118387E+01 0.86290345284E+01 0.84515345036E+01
 0.86128532849E+01 0.90797109399E+01 0.98188873867E+01 0.10793462506E+02 0.11959311433E+02
 0.13262744683E+02 0.14639488566E+02 0.16015095966E+02 0.17307199341E+02 0.18430218322E+02
 0.19302728431E+02 0.19856691823E+02 0.20046675306E+02 0.19856691823E+02 0.19302728431E+02
 0.18430218322E+02 0.17307199341E+02 0.16015095966E+02 0.14639488566E+02 0.13262744683E+02
 0.11959311433E+02 0.10793462506E+02 0.98188873867E+01 0.90797109399E+01 0.86128532849E+01
 0.84515345036E+01 0.86290345284E+01 0.91809118387E+01 0.10143481908E+02 0.11547087707E+02
 0.13404632466E+02 0.15700393032E+02 0.18389558169E+02 0.21380490601E+02 0.24531879175E+02
 0.27665759835E+02 0.30586194827E+02 0.33099511481E+02 0.35033093777E+02 0.36251210942E+02
 0.26152678751E+02 0.25864061788E+02 0.25020746750E+02 0.23687979427E+02 0.21966993986E+02
 0.19984749563E+02 0.17880964776E+02 0.15793367194E+02 0.13842752987E+02 0.12121708514E+02
 0.10697299938E+02 0.96096274482E+01 0.88740083248E+01 0.84902352859E+01 0.84515345036E+01
 0.87500569001E+01 0.93778438174E+01 0.10324327866E+02 0.11572440203E+02 0.13094980646E+02
 0.14851683875E+02 0.16786473781E+02 0.18824562346E+02 0.20870283194E+02 0.22807914510E+02
 0.24508013741E+02 0.25840332845E+02 0.26691699915E+02 0.26984678181E+02 0.26691699915E+02
 0.25840332845E+02 0.24508013741E+02 0.22807914510E+02 0.20870283194E+02 0.18824562346E+02
 0.16786473781E+02 0.14851683875E+02 0.13094980646E+02 0.11572440203E+02 0.10324327866E+02
 0.93778438174E+01 0.87500569001E+01 0.84515345036E+01 0.84902352859E+01 0.88740083248E+01
 0.96096274482E+01 0.10697299938E+02 0.12121708514E+02 0.13842752987E+02 0.15793367194E+02
 0.17880964776E+02 0.19984749563E+02 0.21966993986E+02 0.23687979427E+02 0.25020746750E+02
 0.25864061788E+02 0.18409284779E+02 0.18220002515E+02 0.17667883773E+02 0.16798445515E+02
 0.15682186047E+02 0.14407085851E+02 0.13068965607E+02 0.11761523799E+02 0.10570678742E+02
 0.95663694320E+01 0.87986465615E+01 0.82999702083E+01 0.80914752558E+01 0.81900392694E+01
 0.86128532849E+01 0.93778438174E+01 0.10500653671E+02 0.11990409539E+02 0.13846204972E+02
 0.16054401468E+02 0.18584960522E+02 0.21384766946E+02 0.24367994448E+02 0.27407008610E+02
 0.30329860888E+02 0.32930032740E+02 0.34990284682E+02 0.36316810095E+02 0.36775055247E+02
 0.36316810095E+02 0.34990284682E+02 0.32930032740E+02 0.30329860888E+02 0.27407008610E+02
 0.24367994448E+02 0.21384766946E+02 0.18584960522E+02 0.16054401468E+02 0.13846204972E+02
 0.11990409539E+02 0.10500653671E+02 0.93778438174E+01 0.86128532849E+01 0.81900392694E+01
 0.80914752558E+01 0.82999702083E+01 0.87986465615E+01 0.95663694320E+01 0.10570678742E+02
 0.11761523799E+02 0.13068965607E+02 0.14407085851E+02 0.15682186047E+02 0.16798445515E+02
 0.17667883773E+02 0.18220002515E+02 0.12945217133E+02 0.12827182721E+02 0.12483275686E+02
 0.11943266258E+02 0.11254301163E+02 0.10476935545E+02 0.96792212223E+01 0.89294498636E+01
 0.82892127100E+01 0.78091167275E+01 0.75288627156E+01 0.74814741579E+01 0.76993166126E+01
 0.82185602273E+01 0.90797109399E+01 0.10324327866E+02 0.11990409539E+02 0.14109277326E+02
 0.16704466424E+02 0.19789606550E+02 0.23360330072E+02 0.27377077877E+02 0.31741193745E+02
 0.36273238217E+02 0.40706016466E+02 0.44702365265E+02 0.47899399199E+02 0.49970390658E+02
 0.50687894804E+02 0.49970390658E+02 0.47899399199E+02 0.44702365265E+02 0.40706016466E+02
 0.36273238217E+02 0.31741193745E+02 0.27377077877E+02 0.23360330072E+02 0.19789606550E+02
 0.16704466424E+02 0.14109277326E+02 0.11990409539E+02 0.10324327866E+02 0.90797109399E+01
 0.82185602273E+01 0.76993166126E+01 0.74814741579E+01 0.75288627156E+01 0.78091167275E+01
 0.82892127100E+01 0.89294498636E+01 0.96792212223E+01 0.10476935545E+02 0.11254301163E+02
 0.11943266258E+02 0.12483275686E+02 0.12827182721E+02 0.91838287554E+01 0.91143103655E+01
 0.89124421246E+01 0.85981718843E+01 0.82040008541E+01 0.77728305925E+01 0.73537985123E+01
 0.69967530089E+01 0.67474533072E+01 0.66459428135E+01 0.67291721184E+01 0.70365390394E+01
 0.76151343794E+01 0.85214939464E+01 0.98188873867E+01 0.11572440203E+02 0.13846204972E+02
 0.16704466424E+02 0.20214391171E+02 0.24442016866E+02 0.29432832623E+02 0.35173985938E+02
 0.41545901335E+02 0.48281854026E+02 0.54958150513E+02 0.61030224698E+02 0.65914301244E+02
 0.69096279949E+02 0.70203530051E+02 0.69096279949E+02 0.65914301244E+02 0.61030224698E+02
 0.54958150513E+02 0.48281854026E+02 0.41545901335E+02 0.35173985938E+02 0.29432832623E+02
 0.24442016866E+02 0.20214391171E+02 0.16704466424E+02 0.13846204972E+02 0.11572440203E+02
 0.98188873867E+01 0.85214939464E+01 0.76151343794E+01 0.70365390394E+01 0.67291721184E+01
 0.66459428135E+01 0.67474533072E+01 0.69967530089E+01 0.73537985123E+01 0.77728305925E+01
 0.82040008541E+01 0.85981718843E+01 0.89124421246E+01 0.91143103655E+01 0.66485867988E+01
 0.66117501465E+01 0.65056062536E+01 0.63436485325E+01 0.61489578432E+01 0.59532452205E+01
 0.57937379596E+01 0.57089440506E+01 0.57357474654E+01 0.59101168897E+01 0.62717791087E+01
 0.68705615433E+01 0.77705500574E+01 0.90493399751E+01 0.10793462506E+02 0.13094980646E+02
 0.16054401468E+02 0.19789606550E+02 0.24442016866E+02 0.30165355113E+02 0.37084315359E+02
 0.45222148961E+02 0.54414981057E+02 0.64248155798E+02 0.74113410743E+02 0.83303518887E+02
 0.90887349504E+02 0.95912415744E+02 0.97673772627E+02 0.95912415744E+02 0.90887349504E+02
 0.83303518887E+02 0.74113410743E+02 0.64248155798E+02 0.54414981057E+02 0.45222148961E+02
 0.37084315359E+02 0.30165355113E+02 0.24442016866E+02 0.19789606550E+02 0.16054401468E+02
 0.13094980646E+02 0.10793462506E+02 0.90493399751E+01 0.77705500574E+01 0.68705615433E+01
 0.62717791087E+01 0.59101168897E+01 0.57357474654E+01 0.57089440506E+01 0.57937379596E+01
 0.59532452205E+01 0.61489578432E+01 0.63436485325E+01 0.65056062536E+01 0.66117501465E+01
 0.49664173248E+01 0.49510123012E+01 0.49077262241E+01 0.48462121450E+01 0.47841674165E+01
 0.47468854903E+01 0.47645727812E+01 0.48692690070E+01 0.50938999054E+01 0.54750436320E+01
 0.60590902277E+01 0.69089829360E+01 0.81072530867E+01 0.97533627078E+01 0.11959311433E+02
 0.14851683875E+02 0.18584960522E+02 0.23360330072E+02 0.29432832623E+02 0.37084315359E+02
 0.46545273647E+02 0.57868898804E+02 0.70813751114E+02 0.85044066568E+02 0.99871515698E+02
 0.11398084628E+03 0.12571905371E+03 0.13351070018E+03 0.13624133135E+03 0.13351070018E+03
 0.12571905371E+03 0.11398084628E+03 0.99871515698E+02 0.85044066568E+02 0.70813751114E+02
 0.57868898804E+02 0.46545273647E+02 0.37084315359E+02 0.29432832623E+02 0.23360330072E+02
 0.18584960522E+02 0.14851683875E+02 0.11959311433E+02 0.97533627078E+01 0.81072530867E+01
 0.69089829360E+01 0.60590902277E+01 0.54750436320E+01 0.50938999054E+01 0.48692690070E+01
 0.47645727812E+01 0.47468854903E+01 0.47841674165E+01 0.48462121450E+01 0.49077262241E+01
 0.49510123012E+01 0.38593706168E+01 0.38578964965E+01 0.38555537676E+01 0.38599413585E+01
 0.38861544189E+01 0.39562449922E+01 0.40965072311E+01 0.43356582246E+01 0.47060365171E+01
 0.52480818261E+01 0.60173704703E+01 0.70915085614E+01 0.85723038788E+01 0.10582205557E+02
 0.13262744683E+02 0.16786473781E+02 0.21384766946E+02 0.27377077877E+02 0.35173985938E+02
 0.45222148961E+02 0.57868898804E+02 0.73202360289E+02 0.91366788885E+02 0.11204093502E+03
 0.13383833481E+03 0.15454327337E+03 0.17164152119E+03 0.18290405725E+03 0.18683272686E+03
 0.18290405725E+03 0.17164152119E+03 0.15454327337E+03 0.13383833481E+03 0.11204093502E+03
 0.91366788885E+02 0.73202360289E+02 0.57868898804E+02 0.45222148961E+02 0.35173985938E+02
 0.27377077877E+02 0.21384766946E+02 0.16786473781E+02 0.13262744683E+02 0.10582205557E+02
 0.85723038788E+01 0.70915085614E+01 0.60173704703E+01 0.52480818261E+01 0.47060365171E+01
 0.43356582246E+01 0.40965072311E+01 0.39562449922E+01 0.38861544189E+01 0.38599413585E+01
 0.38555537676E+01 0.38578964965E+01 0.31354842284E+01 0.31430959910E+01 0.31675271086E+01
 0.32154462110E+01 0.33010869947E+01 0.34451934226E+01 0.36720192446E+01 0.40089501602E+01
 0.44899579981E+01 0.51613905847E+01 0.60893591413E+01 0.73666986837E+01 0.91147405123E+01
 0.11480209107E+02 0.14639488566E+02 0.18824562346E+02 0.24367994448E+02 0.31741193745E+02
 0.41545901335E+02 0.54414981057E+02 0.70813751114E+02 0.91366788885E+02 0.11653416178E+03
 0.14538622662E+03 0.17555676483E+03 0.20378556003E+03 0.22672297203E+03 0.24163408252E+03
 0.24679744742E+03 0.24163408252E+03 0.22672297203E+03 0.20378556003E+03 0.17555676483E+03
 0.14538622662E+03 0.11653416178E+03 0.91366788885E+02 0.70813751114E+02 0.54414981057E+02
 0.41545901335E+02 0.31741193745E+02 0.24367994448E+02 0.18824562346E+02 0.14639488566E+02
 0.11480209107E+02 0.91147405123E+01 0.73666986837E+01 0.60893591413E+01 0.51613905847E+01
 0.44899579981E+01 0.40089501602E+01 0.36720192446E+01 0.34451934226E+01 0.33010869947E+01
 0.32154462110E+01 0.31675271086E+01 0.31430959910E+01 0.26673147815E+01 0.26808673261E+01
 0.27228802161E+01 0.27997779743E+01 0.29259044108E+01 0.31217582836E+01 0.34106797196E+01
 0.38200047096E+01 0.43866577488E+01 0.51638674916E+01 0.62285987827E+01 0.76886028467E+01
 0.96843012204E+01 0.12387660647E+02 0.16015095966E+02 0.20870283194E+02 0.27407008610E+02
 0.36273238217E+02 0.48281854026E+02 0.64248155798E+02 0.85044066568E+02 0.11204093502E+03
 0.14538622662E+03 0.18324863709E+03 0.22210217492E+03 0.25765790785E+03 0.28594292408E+03
 0.30402717246E+03 0.31023220526E+03 0.30402717246E+03 0.28594292408E+03 0.25765790785E+03
 0.22210217492E+03 0.18324863709E+03 0.14538622662E+03 0.11204093502E+03 0.85044066568E+02
 0.64248155798E+02 0.48281854026E+02 0.36273238217E+02 0.27407008610E+02 0.20870283194E+02
 0.16015095966E+02 0.12387660647E+02 0.96843012204E+01 0.76886028467E+01 0.62285987827E+01
 0.51638674916E+01 0.43866577488E+01 0.38200047096E+01 0.34106797196E+01 0.31217582836E+01
 0.29259044108E+01 0.27997779743E+01 0.27228802161E+01 0.26808673261E+01 0.23706271780E+01
 0.23880107419E+01 0.24414651274E+01 0.25375916734E+01 0.26912849099E+01 0.29232922681E+01
 0.32567459525E+01 0.37197540646E+01 0.43527566454E+01 0.52158758221E+01 0.63963407240E+01
 0.80156800318E+01 0.10232120854E+02 0.13242786931E+02 0.17307199341E+02 0.22807914510E+02
 0.30329860888E+02 0.40706016466E+02 0.54958150513E+02 0.74113410743E+02 0.99871515698E+02
 0.13383833481E+03 0.17555676483E+03 0.22210217492E+03 0.26875714751E+03 0.31038004296E+03
 0.34270973084E+03 0.36299476304E+03 0.36988262605E+03 0.36299476304E+03 0.34270973084E+03
 0.31038004296E+03 0.26875714751E+03 0.22210217492E+03 0.17555676483E+03 0.13383833481E+03
 0.99871515698E+02 0.74113410743E+02 0.54958150513E+02 0.40706016466E+02 0.30329860888E+02
 0.22807914510E+02 0.17307199341E+02 0.13242786931E+02 0.10232120854E+02 0.80156800318E+01
 0.63963407240E+01 0.52158758221E+01 0.43527566454E+01 0.37197540646E+01 0.32567459525E+01
 0.29232922681E+01 0.26912849099E+01 0.25375916734E+01 0.24414651274E+01 0.23880107419E+01
 0.21887668289E+01 0.22085218067E+01 0.22691871156E+01 0.23777784481E+01 0.25498387382E+01
 0.28065100385E+01 0.31711463473E+01 0.36730669267E+01 0.43561412073E+01 0.52865943289E+01
 0.65605451001E+01 0.83113638655E+01 0.10712782259E+02 0.13985186373E+02 0.18430218322E+02
 0.24508013741E+02 0.32930032740E+02 0.44702365265E+02 0.61030224698E+02 0.83303518887E+02
 0.11398084628E+03 0.15454327337E+03 0.20378556003E+03 0.25765790785E+03 0.31038004296E+03
 0.35622839217E+03 0.39098530334E+03 0.41237268541E+03 0.41955561284E+03 0.41237268541E+03
 0.39098530334E+03 0.35622839217E+03 0.31038004296E+03 0.25765790785E+03 0.20378556003E+03
 0.15454327337E+03 0.11398084628E+03 0.83303518887E+02 0.61030224698E+02 0.44702365265E+02
 0.32930032740E+02 0.24508013741E+02 0.18430218322E+02 0.13985186373E+02 0.10712782259E+02
 0.83113638655E+01 0.65605451001E+01 0.52865943289E+01 0.43561412073E+01 0.36730669267E+01
 0.31711463473E+01 0.28065100385E+01 0.25498387382E+01 0.23777784481E+01 0.22691871156E+01
 0.22085218067E+01 0.20833423705E+01 0.21044590840E+01 0.21693874912E+01 0.22856253658E+01
 0.24692623151E+01 0.27417903490E+01 0.31269707600E+01 0.36553847555E+01 0.43737194588E+01
 0.53529183852E+01 0.66959650276E+01 0.85453806089E+01 0.11087013401E+02 0.14560312289E+02
 0.19302728431E+02 0.25840332845E+02 0.34990284682E+02 0.47899399199E+02 0.65914301244E+02
 0.90887349504E+02 0.12571905371E+03 0.17164152119E+03 0.22672297203E+03 0.28594292408E+03
 0.34270973084E+03 0.39098530334E+03 0.42679803325E+03 0.44844711987E+03 0.45564426634E+03
 0.44844711987E+03 0.42679803325E+03 0.39098530334E+03 0.34270973084E+03 0.28594292408E+03
 0.22672297203E+03 0.17164152119E+03 0.12571905371E+03 0.90887349504E+02 0.65914301244E+02
 0.47899399199E+02 0.34990284682E+02 0.25840332845E+02 0.19302728431E+02 0.14560312289E+02
 0.11087013401E+02 0.85453806089E+01 0.66959650276E+01 0.53529183852E+01 0.43737194588E+01
 0.36553847555E+01 0.31269707600E+01 0.27417903490E+01 0.24692623151E+01 0.22856253658E+01
 0.21693874912E+01 0.21044590840E+01 0.20294015706E+01 0.20511965091E+01 0.21183247774E+01
 0.22386643514E+01 0.24286538645E+01 0.27100080351E+01 0.31068497380E+01 0.36507015351E+01
 0.43900831440E+01 0.53988964779E+01 0.67844631176E+01 0.86951069913E+01 0.11324415592E+02
 0.14924410296E+02 0.19856691823E+02 0.26691699915E+02 0.36316810095E+02 0.49970390658E+02
 0.69096279949E+02 0.95912415744E+02 0.13351070018E+03 0.18290405725E+03 0.24163408252E+03
 0.30402717246E+03 0.36299476304E+03 0.41237268541E+03 0.44844711987E+03 0.46997692565E+03
 0.47708122199E+03 0.46997692565E+03 0.44844711987E+03 0.41237268541E+03 0.36299476304E+03
 0.30402717246E+03 0.24163408252E+03 0.18290405725E+03 0.13351070018E+03 0.95912415744E+02
 0.69096279949E+02 0.49970390658E+02 0.36316810095E+02 0.26691699915E+02 0.19856691823E+02
 0.14924410296E+02 0.11324415592E+02 0.86951069913E+01 0.67844631176E+01 0.53988964779E+01
 0.43900831440E+01 0.36507015351E+01 0.31068497380E+01 0.27100080351E+01 0.24286538645E+01
 0.22386643514E+01 0.21183247774E+01 0.20511965091E+01 0.20129232186E+01 0.20349202697E+01
 0.21027215619E+01 0.22243490658E+01 0.24163597582E+01 0.27005429166E+01 0.31011635476E+01
 0.36500915490E+01 0.43964802145E+01 0.54152368054E+01 0.68151673828E+01 0.87465865740E+01
 0.11405745668E+02 0.15049063180E+02 0.20046675306E+02 0.26984678181E+02 0.36775055247E+02
 0.50687894804E+02 0.70203530051E+02 0.97673772627E+02 0.13624133135E+03 0.18683272686E+03
 0.24679744742E+03 0.31023220526E+03 0.36988262605E+03 0.41955561284E+03 0.45564426634E+03
 0.47708122199E+03 0.48413528882E+03 0.47708122199E+03 0.45564426634E+03 0.41955561284E+03
 0.36988262605E+03 0.31023220526E+03 0.24679744742E+03 0.18683272686E+03 0.13624133135E+03
 0.97673772627E+02 0.70203530051E+02 0.50687894804E+02 0.36775055247E+02 0.26984678181E+02
 0.20046675306E+02 0.15049063180E+02 0.11405745668E+02 0.87465865740E+01 0.68151673828E+01
 0.54152368054E+01 0.43964802145E+01 0.36500915490E+01 0.31011635476E+01 0.27005429166E+01
 0.24163597582E+01 0.22243490658E+01 0.21027215619E+01 0.20349202697E+01 0.20294015706E+01