   5   5   0   0
  0.1191194E+02  0.3905268E-09  0.3905268E-09  0.3905268E-09  0.5000000E-15
  1.000000000000000E-004
  CAR 
 unknown system                          
     12.63297663    -32.11655726  301      2.56433150      1.00000000
    -32.117  0.0000E+00  0.0000E+00
    -31.967  0.0000E+00  0.0000E+00
    -31.818  0.0000E+00  0.0000E+00
    -31.669  0.0000E+00  0.0000E+00
    -31.520  0.0000E+00  0.0000E+00
    -31.371  0.0000E+00  0.0000E+00
    -31.222  0.0000E+00  0.0000E+00
    -31.072  0.0000E+00  0.0000E+00
    -30.923  0.0000E+00  0.0000E+00
    -30.774  0.0000E+00  0.0000E+00
    -30.625  0.0000E+00  0.0000E+00
    -30.476  0.0000E+00  0.0000E+00
    -30.327  0.0000E+00  0.0000E+00
    -30.177  0.0000E+00  0.0000E+00
    -30.028  0.1599E+02  0.1944E+01
    -29.879  0.0000E+00  0.2000E+01
    -29.730  0.0000E+00  0.2000E+01
    -29.581  0.0000E+00  0.2000E+01
    -29.432  0.0000E+00  0.2000E+01
    -29.282  0.0000E+00  0.2000E+01
    -29.133  0.0000E+00  0.2000E+01
    -28.984  0.0000E+00  0.2000E+01
    -28.835  0.0000E+00  0.2000E+01
    -28.686  0.0000E+00  0.2000E+01
    -28.537  0.0000E+00  0.2000E+01
    -28.387  0.0000E+00  0.2000E+01
    -28.238  0.0000E+00  0.2000E+01
    -28.089  0.0000E+00  0.2000E+01
    -27.940  0.0000E+00  0.2000E+01
    -27.791  0.0000E+00  0.2000E+01
    -27.642  0.0000E+00  0.2000E+01
    -27.492  0.0000E+00  0.2000E+01
    -27.343  0.0000E+00  0.2000E+01
    -27.194  0.0000E+00  0.2000E+01
    -27.045  0.0000E+00  0.2000E+01
    -26.896  0.0000E+00  0.2000E+01
    -26.747  0.0000E+00  0.2000E+01
    -26.597  0.0000E+00  0.2000E+01
    -26.448  0.0000E+00  0.2000E+01
    -26.299  0.0000E+00  0.2000E+01
    -26.150  0.0000E+00  0.2000E+01
    -26.001  0.0000E+00  0.2000E+01
    -25.852  0.0000E+00  0.2000E+01
    -25.702  0.0000E+00  0.2000E+01
    -25.553  0.0000E+00  0.2000E+01
    -25.404  0.0000E+00  0.2000E+01
    -25.255  0.0000E+00  0.2000E+01
    -25.106  0.0000E+00  0.2000E+01
    -24.957  0.0000E+00  0.2000E+01
    -24.807  0.0000E+00  0.2000E+01
    -24.658  0.0000E+00  0.2000E+01
    -24.509  0.0000E+00  0.2000E+01
    -24.360  0.0000E+00  0.2000E+01
    -24.211  0.0000E+00  0.2000E+01
    -24.062  0.0000E+00  0.2000E+01
    -23.912  0.0000E+00  0.2000E+01
    -23.763  0.0000E+00  0.2000E+01
    -23.614  0.0000E+00  0.2000E+01
    -23.465  0.0000E+00  0.2000E+01
    -23.316  0.0000E+00  0.2000E+01
    -23.167  0.0000E+00  0.2000E+01
    -23.017  0.0000E+00  0.2000E+01
    -22.868  0.0000E+00  0.2000E+01
    -22.719  0.0000E+00  0.2000E+01
    -22.570  0.0000E+00  0.2000E+01
    -22.421  0.0000E+00  0.2000E+01
    -22.272  0.0000E+00  0.2000E+01
    -22.122  0.0000E+00  0.2000E+01
    -21.973  0.0000E+00  0.2000E+01
    -21.824  0.0000E+00  0.2000E+01
    -21.675  0.0000E+00  0.2000E+01
    -21.526  0.0000E+00  0.2000E+01
    -21.377  0.0000E+00  0.2000E+01
    -21.228  0.0000E+00  0.2000E+01
    -21.078  0.0000E+00  0.2000E+01
    -20.929  0.0000E+00  0.2000E+01
    -20.780  0.0000E+00  0.2000E+01
    -20.631  0.0000E+00  0.2000E+01
    -20.482  0.0000E+00  0.2000E+01
    -20.333  0.0000E+00  0.2000E+01
    -20.183  0.0000E+00  0.2000E+01
    -20.034  0.0000E+00  0.2000E+01
    -19.885  0.0000E+00  0.2000E+01
    -19.736  0.0000E+00  0.2000E+01
    -19.587  0.0000E+00  0.2000E+01
    -19.438  0.0000E+00  0.2000E+01
    -19.288  0.0000E+00  0.2000E+01
    -19.139  0.0000E+00  0.2000E+01
    -18.990  0.0000E+00  0.2000E+01
    -18.841  0.0000E+00  0.2000E+01
    -18.692  0.0000E+00  0.2000E+01
    -18.543  0.0000E+00  0.2000E+01
    -18.393  0.0000E+00  0.2000E+01
    -18.244  0.0000E+00  0.2000E+01
    -18.095  0.0000E+00  0.2000E+01
    -17.946  0.0000E+00  0.2000E+01
    -17.797  0.0000E+00  0.2000E+01
    -17.648  0.0000E+00  0.2000E+01
    -17.498  0.0000E+00  0.2000E+01
    -17.349  0.0000E+00  0.2000E+01
    -17.200  0.0000E+00  0.2000E+01
    -17.051  0.0000E+00  0.2000E+01
    -16.902  0.0000E+00  0.2000E+01
    -16.753  0.0000E+00  0.2000E+01
    -16.603  0.0000E+00  0.2000E+01
    -16.454  0.0000E+00  0.2000E+01
    -16.305  0.0000E+00  0.2000E+01
    -16.156  0.0000E+00  0.2000E+01
    -16.007  0.0000E+00  0.2000E+01
    -15.858  0.0000E+00  0.2000E+01
    -15.708  0.0000E+00  0.2000E+01
    -15.559  0.0000E+00  0.2000E+01
    -15.410  0.0000E+00  0.2000E+01
    -15.261  0.0000E+00  0.2000E+01
    -15.112  0.0000E+00  0.2000E+01
    -14.963  0.6405E+00  0.2015E+01
    -14.813  0.6433E+01  0.2440E+01
    -14.664  0.2888E+01  0.2964E+01
    -14.515  0.1963E+01  0.3317E+01
    -14.366  0.1547E+01  0.3579E+01
    -14.217  0.9189E+00  0.3785E+01
    -14.068  0.5705E+00  0.3895E+01
    -13.918  0.8332E+01  0.4390E+01
    -13.769  0.1632E+02  0.6546E+01
    -13.620  0.0000E+00  0.8000E+01
    -13.471  0.0000E+00  0.8000E+01
    -13.322  0.0000E+00  0.8000E+01
    -13.173  0.0000E+00  0.8000E+01
    -13.023  0.0000E+00  0.8000E+01
    -12.874  0.0000E+00  0.8000E+01
    -12.725  0.0000E+00  0.8000E+01
    -12.576  0.0000E+00  0.8000E+01
    -12.427  0.0000E+00  0.8000E+01
    -12.278  0.3557E+01  0.8148E+01
    -12.128  0.2137E+02  0.9006E+01
    -11.979  0.1004E+02  0.1110E+02
    -11.830  0.6701E+01  0.1246E+02
    -11.681  0.3733E+01  0.1382E+02
    -11.532  0.0000E+00  0.1400E+02
    -11.383  0.0000E+00  0.1400E+02
    -11.233  0.0000E+00  0.1400E+02
    -11.084  0.0000E+00  0.1400E+02
    -10.935  0.0000E+00  0.1400E+02
    -10.786  0.0000E+00  0.1400E+02
    -10.637  0.0000E+00  0.1400E+02
    -10.488  0.0000E+00  0.1400E+02
    -10.338  0.0000E+00  0.1400E+02
    -10.189  0.0000E+00  0.1400E+02
    -10.040  0.0000E+00  0.1400E+02
     -9.891  0.0000E+00  0.1400E+02
     -9.742  0.0000E+00  0.1400E+02
     -9.593  0.0000E+00  0.1400E+02
     -9.443  0.0000E+00  0.1400E+02
     -9.294  0.0000E+00  0.1400E+02
     -9.145  0.0000E+00  0.1400E+02
     -8.996  0.0000E+00  0.1400E+02
     -8.847  0.0000E+00  0.1400E+02
     -8.698  0.0000E+00  0.1400E+02
     -8.548  0.0000E+00  0.1400E+02
     -8.399  0.0000E+00  0.1400E+02
     -8.250  0.0000E+00  0.1400E+02
     -8.101  0.0000E+00  0.1400E+02
     -7.952  0.0000E+00  0.1400E+02
     -7.803  0.0000E+00  0.1400E+02
     -7.653  0.0000E+00  0.1400E+02
     -7.504  0.0000E+00  0.1400E+02
     -7.355  0.0000E+00  0.1400E+02
     -7.206  0.0000E+00  0.1400E+02
     -7.057  0.0000E+00  0.1400E+02
     -6.908  0.0000E+00  0.1400E+02
     -6.758  0.0000E+00  0.1400E+02
     -6.609  0.0000E+00  0.1400E+02
     -6.460  0.0000E+00  0.1400E+02
     -6.311  0.0000E+00  0.1400E+02
     -6.162  0.0000E+00  0.1400E+02
     -6.013  0.0000E+00  0.1400E+02
     -5.863  0.0000E+00  0.1400E+02
     -5.714  0.0000E+00  0.1400E+02
     -5.565  0.0000E+00  0.1400E+02
     -5.416  0.0000E+00  0.1400E+02
     -5.267  0.0000E+00  0.1400E+02
     -5.118  0.0000E+00  0.1400E+02
     -4.969  0.0000E+00  0.1400E+02
     -4.819  0.0000E+00  0.1400E+02
     -4.670  0.0000E+00  0.1400E+02
     -4.521  0.0000E+00  0.1400E+02
     -4.372  0.0000E+00  0.1400E+02
     -4.223  0.0000E+00  0.1400E+02
     -4.074  0.0000E+00  0.1400E+02
     -3.924  0.0000E+00  0.1400E+02
     -3.775  0.0000E+00  0.1400E+02
     -3.626  0.0000E+00  0.1400E+02
     -3.477  0.0000E+00  0.1400E+02
     -3.328  0.0000E+00  0.1400E+02
     -3.179  0.0000E+00  0.1400E+02
     -3.029  0.0000E+00  0.1400E+02
     -2.880  0.0000E+00  0.1400E+02
     -2.731  0.0000E+00  0.1400E+02
     -2.582  0.0000E+00  0.1400E+02
     -2.433  0.0000E+00  0.1400E+02
     -2.284  0.0000E+00  0.1400E+02
     -2.134  0.0000E+00  0.1400E+02
     -1.985  0.0000E+00  0.1400E+02
     -1.836  0.2078E+01  0.1410E+02
     -1.687  0.7348E+01  0.1481E+02
     -1.538  0.3216E+01  0.1549E+02
     -1.389  0.4352E+01  0.1626E+02
     -1.239  0.3424E+01  0.1684E+02
     -1.090  0.3434E+01  0.1735E+02
     -0.941  0.5176E+01  0.1799E+02
     -0.792  0.4930E+01  0.1875E+02
     -0.643  0.5222E+01  0.1951E+02
     -0.494  0.6698E+01  0.2035E+02
     -0.344  0.8811E+01  0.2142E+02
     -0.195  0.3740E+01  0.2263E+02
     -0.046  0.3205E+01  0.2314E+02
      0.103  0.2457E+01  0.2355E+02
      0.252  0.2177E+01  0.2389E+02
      0.401  0.1853E+01  0.2418E+02
      0.551  0.2703E+01  0.2451E+02
      0.700  0.3156E+01  0.2495E+02
      0.849  0.3294E+01  0.2544E+02
      0.998  0.1064E+01  0.2576E+02
      1.147  0.2095E+01  0.2598E+02
      1.296  0.4636E+01  0.2648E+02
      1.446  0.5927E+01  0.2741E+02
      1.595  0.5938E+01  0.2846E+02
      1.744  0.5959E+01  0.2933E+02
      1.893  0.4852E+01  0.3015E+02
      2.042  0.3526E+01  0.3076E+02
      2.191  0.2873E+01  0.3125E+02
      2.341  0.2030E+01  0.3160E+02
      2.490  0.1590E+01  0.3192E+02
      2.639  0.0000E+00  0.3200E+02
      2.788  0.0000E+00  0.3200E+02
      2.937  0.0000E+00  0.3200E+02
      3.086  0.0000E+00  0.3200E+02
      3.236  0.0000E+00  0.3200E+02
      3.385  0.0000E+00  0.3200E+02
      3.534  0.0000E+00  0.3200E+02
      3.683  0.0000E+00  0.3200E+02
      3.832  0.0000E+00  0.3200E+02
      3.981  0.0000E+00  0.3200E+02
      4.131  0.0000E+00  0.3200E+02
      4.280  0.0000E+00  0.3200E+02
      4.429  0.1331E+00  0.3201E+02
      4.578  0.4775E+00  0.3205E+02
      4.727  0.8908E+00  0.3215E+02
      4.876  0.1529E+01  0.3234E+02
      5.026  0.1514E+01  0.3257E+02
      5.175  0.1432E+01  0.3278E+02
      5.324  0.1633E+01  0.3301E+02
      5.473  0.1840E+01  0.3327E+02
      5.622  0.2310E+01  0.3356E+02
      5.771  0.3115E+01  0.3400E+02
      5.921  0.3450E+01  0.3449E+02
      6.070  0.3927E+01  0.3503E+02
      6.219  0.8563E+01  0.3603E+02
      6.368  0.4170E+01  0.3684E+02
      6.517  0.3006E+01  0.3738E+02
      6.666  0.1344E+01  0.3770E+02
      6.816  0.1174E+00  0.3780E+02
      6.965  0.1110E+00  0.3781E+02
      7.114  0.1048E+00  0.3783E+02
      7.263  0.9870E-01  0.3785E+02
      7.412  0.9280E-01  0.3786E+02
      7.561  0.8707E-01  0.3787E+02
      7.711  0.8152E-01  0.3789E+02
      7.860  0.7615E-01  0.3790E+02
      8.009  0.7094E-01  0.3791E+02
      8.158  0.7184E-01  0.3792E+02
      8.307  0.9013E-01  0.3793E+02
      8.456  0.1261E+00  0.3795E+02
      8.606  0.2273E+00  0.3797E+02
      8.755  0.2337E+00  0.3801E+02
      8.904  0.2593E+00  0.3804E+02
      9.053  0.3020E+00  0.3809E+02
      9.202  0.3506E+00  0.3814E+02
      9.351  0.4090E+00  0.3819E+02
      9.501  0.5048E+00  0.3826E+02
      9.650  0.6169E+00  0.3834E+02
      9.799  0.7289E+00  0.3845E+02
      9.948  0.1330E+01  0.3861E+02
     10.097  0.1601E+01  0.3884E+02
     10.246  0.1831E+01  0.3910E+02
     10.395  0.2092E+01  0.3939E+02
     10.545  0.3490E+01  0.3983E+02
     10.694  0.0000E+00  0.4000E+02
     10.843  0.0000E+00  0.4000E+02
     10.992  0.0000E+00  0.4000E+02
     11.141  0.0000E+00  0.4000E+02
     11.290  0.0000E+00  0.4000E+02
     11.440  0.0000E+00  0.4000E+02
     11.589  0.0000E+00  0.4000E+02
     11.738  0.0000E+00  0.4000E+02
     11.887  0.0000E+00  0.4000E+02
     12.036  0.0000E+00  0.4000E+02
     12.185  0.0000E+00  0.4000E+02
     12.335  0.0000E+00  0.4000E+02
     12.484  0.0000E+00  0.4000E+02
     12.633  0.0000E+00  0.4000E+02
