 vasp.5.4.4.18Apr17-6-g9f103f2a35 (build Jun 30 2017 11:15:00) complex          
  
 executed on    STALLO_VASP_5.4.4 date 2019.11.06  13:12:14
 running on    4 total cores
 distrk:  each k-point on    4 cores,    1 groups
 distr:  one band on NCORES_PER_BAND=   2 cores,    2 groups


--------------------------------------------------------------------------------------------------------


 INCAR:
 POTCAR:   PAW_PBE Sr_sv 07Sep2000                
 POTCAR:   PAW_PBE Ti 08Apr2002                   
 POTCAR:   PAW_PBE O 08Apr2002                    
 POTCAR:   PAW_PBE Sr_sv 07Sep2000                
   VRHFIN =Sr: 4s4p5s                                                           
   LEXCH  = PE                                                                  
   EATOM  =   842.4562 eV,   61.9188 Ry                                         
                                                                                
   TITEL  = PAW_PBE Sr_sv 07Sep2000                                             
   LULTRA =        F    use ultrasoft PP ?                                      
   IUNSCR =        1    unscreen: 0-lin 1-nonlin 2-no                           
   RPACOR =    2.200    partial core radius                                     
   POMASS =   87.620; ZVAL   =   10.000    mass and valenz                      
   RCORE  =    2.500    outmost cutoff radius                                   
   RWIGS  =    4.040; RWIGS  =    2.138    wigner-seitz radius (au A)           
   ENMAX  =  229.282; ENMIN  =  171.961 eV                                      
   RCLOC  =    2.201    cutoff for local pot                                    
   LCOR   =        T    correct aug charges                                     
   LPAW   =        T    paw PP                                                  
   EAUG   =  366.804                                                            
   DEXC   =     .000                                                            
   RMAX   =    3.045    core radius for proj-oper                               
   RAUG   =    1.300    factor for augmentation sphere                          
   RDEP   =    2.562    radius for radial grids                                 
   QCUT   =   -4.105; QGAM   =    8.210    optimization parameters              
                                                                                
   Description                                                                  
     l     E      TYP  RCUT    TYP  RCUT                                        
     0   .000     23  2.480                                                     
     0   .000     23  2.480                                                     
     1   .000     23  2.500                                                     
     1   .000     23  2.500                                                     
     2   .000     23  2.500                                                     
     2   .000     23  2.500                                                     
  local pseudopotential read in
  partial core-charges read in
  atomic valenz-charges read in
  non local Contribution for L=           0  read in
    real space projection operators read in
  non local Contribution for L=           0  read in
    real space projection operators read in
  non local Contribution for L=           1  read in
    real space projection operators read in
  non local Contribution for L=           1  read in
    real space projection operators read in
  non local Contribution for L=           2  read in
    real space projection operators read in
  non local Contribution for L=           2  read in
    real space projection operators read in
    PAW grid and wavefunctions read in
 
   number of l-projection  operators is LMAX  =           6
   number of lm-projection operators is LMMAX =          18
 
 POTCAR:   PAW_PBE Ti 08Apr2002                   
   VRHFIN =Ti: d3 s1                                                            
   LEXCH  = PE                                                                  
   EATOM  =    94.7929 eV,    6.9671 Ry                                         
                                                                                
   TITEL  = PAW_PBE Ti 08Apr2002                                                
   LULTRA =        F    use ultrasoft PP ?                                      
   IUNSCR =        1    unscreen: 0-lin 1-nonlin 2-no                           
   RPACOR =    2.200    partial core radius                                     
   POMASS =   47.880; ZVAL   =    4.000    mass and valenz                      
   RCORE  =    2.800    outmost cutoff radius                                   
   RWIGS  =    2.500; RWIGS  =    1.323    wigner-seitz radius (au A)           
   ENMAX  =  178.330; ENMIN  =  133.747 eV                                      
   RCLOC  =    2.215    cutoff for local pot                                    
   LCOR   =        T    correct aug charges                                     
   LPAW   =        T    paw PP                                                  
   EAUG   =  328.883                                                            
   DEXC   =    -.043                                                            
   RMAX   =    3.453    core radius for proj-oper                               
   RAUG   =    1.300    factor for augmentation sphere                          
   RDEP   =    2.885    radius for radial grids                                 
   QCUT   =   -3.620; QGAM   =    7.241    optimization parameters              
                                                                                
   Description                                                                  
     l     E      TYP  RCUT    TYP  RCUT                                        
     2   .000     23  2.800                                                     
     2   .000     23  2.800                                                     
     0   .000     23  2.800                                                     
     0  1.500     23  2.800                                                     
     1  -.400     23  2.800                                                     
     3   .000      7   .000                                                     
  local pseudopotential read in
  partial core-charges read in
  atomic valenz-charges read in
  non local Contribution for L=           2  read in
    real space projection operators read in
  non local Contribution for L=           2  read in
    real space projection operators read in
  non local Contribution for L=           0  read in
    real space projection operators read in
  non local Contribution for L=           0  read in
    real space projection operators read in
  non local Contribution for L=           1  read in
    real space projection operators read in
    PAW grid and wavefunctions read in
 
   number of l-projection  operators is LMAX  =           5
   number of lm-projection operators is LMMAX =          15
 
 POTCAR:   PAW_PBE O 08Apr2002                    
   VRHFIN =O: s2p4                                                              
   LEXCH  = PE                                                                  
   EATOM  =   432.3788 eV,   31.7789 Ry                                         
                                                                                
   TITEL  = PAW_PBE O 08Apr2002                                                 
   LULTRA =        F    use ultrasoft PP ?                                      
   IUNSCR =        0    unscreen: 0-lin 1-nonlin 2-no                           
   RPACOR =     .000    partial core radius                                     
   POMASS =   16.000; ZVAL   =    6.000    mass and valenz                      
   RCORE  =    1.520    outmost cutoff radius                                   
   RWIGS  =    1.550; RWIGS  =     .820    wigner-seitz radius (au A)           
   ENMAX  =  400.000; ENMIN  =  300.000 eV                                      
   ICORE  =        2    local potential                                         
   LCOR   =        T    correct aug charges                                     
   LPAW   =        T    paw PP                                                  
   EAUG   =  605.392                                                            
   DEXC   =     .000                                                            
   RMAX   =    2.264    core radius for proj-oper                               
   RAUG   =    1.300    factor for augmentation sphere                          
   RDEP   =    1.550    radius for radial grids                                 
   QCUT   =   -5.520; QGAM   =   11.041    optimization parameters              
                                                                                
   Description                                                                  
     l     E      TYP  RCUT    TYP  RCUT                                        
     0   .000     23  1.200                                                     
     0  -.700     23  1.200                                                     
     1   .000     23  1.520                                                     
     1   .600     23  1.520                                                     
     2   .000      7  1.500                                                     
  local pseudopotential read in
  atomic valenz-charges read in
  non local Contribution for L=           0  read in
    real space projection operators read in
  non local Contribution for L=           0  read in
    real space projection operators read in
  non local Contribution for L=           1  read in
    real space projection operators read in
  non local Contribution for L=           1  read in
    real space projection operators read in
    PAW grid and wavefunctions read in
 
   number of l-projection  operators is LMAX  =           4
   number of lm-projection operators is LMMAX =           8
 
 WARNING: PSMAXN for non-local potential too small
          PSMAXN should be >   14.0303017386150       NTYP=           2
 PAW_PBE Sr_sv 07Sep2000                :
 energy of atom  1       EATOM= -842.4562
 kinetic energy error for atom=    0.0003 (will be added to EATOM!!)
 PAW_PBE Ti 08Apr2002                   :
 energy of atom  2       EATOM=  -94.7929
 kinetic energy error for atom=    0.0000 (will be added to EATOM!!)
 PAW_PBE O 08Apr2002                    :
 energy of atom  3       EATOM= -432.3788
 kinetic energy error for atom=    0.0059 (will be added to EATOM!!)
 
 
 POSCAR: ICSD_CollCode262269                     
  positions in direct lattice
  No initial velocities read in
 exchange correlation table for  LEXCH =        8
   RHO(1)=    0.500       N(1)  =     2000
   RHO(2)=  100.500       N(2)  =     4000
 


--------------------------------------------------------------------------------------------------------


 ion  position               nearest neighbor table
   1  0.000  0.000  0.000-   3 2.76   4 2.76   5 2.76   4 2.76   5 2.76   3 2.76   5 2.76   5 2.76
                             3 2.76   4 2.76   4 2.76   3 2.76   2 3.38   2 3.38   2 3.38   2 3.38
   2  0.500  0.500  0.500-   3 1.95   4 1.95   5 1.95   3 1.95   4 1.95   5 1.95   1 3.38   1 3.38
                             1 3.38   1 3.38   1 3.38   1 3.38   1 3.38   1 3.38
   3  0.500  0.500  0.000-   2 1.95   2 1.95   1 2.76   1 2.76   1 2.76   1 2.76
   4  0.500  0.000  0.500-   2 1.95   2 1.95   1 2.76   1 2.76   1 2.76   1 2.76
   5  0.000  0.500  0.500-   2 1.95   2 1.95   1 2.76   1 2.76   1 2.76   1 2.76
 
  LATTYP: Found a simple cubic cell.
 ALAT       =     3.9052680000
  
  Lattice vectors:
  
 A1 = (   3.9052680000,   0.0000000000,   0.0000000000)
 A2 = (   0.0000000000,   3.9052680000,   0.0000000000)
 A3 = (   0.0000000000,   0.0000000000,   3.9052680000)


Analysis of symmetry for initial positions (statically):
=====================================================================
 Subroutine PRICEL returns:
 Original cell was already a primitive cell.
 

 Routine SETGRP: Setting up the symmetry group for a 
 simple cubic supercell.


 Subroutine GETGRP returns: Found 48 space group operations
 (whereof 48 operations were pure point group operations)
 out of a pool of 48 trial point group operations.


The static configuration has the point symmetry O_h .


Analysis of symmetry for dynamics (positions and initial velocities):
=====================================================================
 Subroutine PRICEL returns:
 Original cell was already a primitive cell.
 

 Routine SETGRP: Setting up the symmetry group for a 
 simple cubic supercell.


 Subroutine GETGRP returns: Found 48 space group operations
 (whereof 48 operations were pure point group operations)
 out of a pool of 48 trial point group operations.


The dynamic configuration has the point symmetry O_h .


 Subroutine INISYM returns: Found 48 space group operations
 (whereof 48 operations are pure point group operations),
 and found     1 'primitive' translations

 
 
 KPOINTS: k-density: 4.0                          

Automatic generation of k-mesh.
Space group operators:
 irot       det(A)        alpha          n_x          n_y          n_z        tau_x        tau_y        tau_z
    1     1.000000     0.000000     1.000000     0.000000     0.000000     0.000000     0.000000     0.000000
    2    -1.000000     0.000000     1.000000     0.000000     0.000000     0.000000     0.000000     0.000000
    3     1.000000   120.000000    -0.577350    -0.577350    -0.577350     0.000000     0.000000     0.000000
    4    -1.000000   120.000000    -0.577350    -0.577350    -0.577350     0.000000     0.000000     0.000000
    5     1.000000   120.000000     0.577350     0.577350     0.577350     0.000000     0.000000     0.000000
    6    -1.000000   120.000000     0.577350     0.577350     0.577350     0.000000     0.000000     0.000000
    7     1.000000    90.000000     0.000000     0.000000    -1.000000     0.000000     0.000000     0.000000
    8    -1.000000    90.000000     0.000000     0.000000    -1.000000     0.000000     0.000000     0.000000
    9     1.000000   180.000000     0.000000     0.707107     0.707107     0.000000     0.000000     0.000000
   10    -1.000000   180.000000     0.000000     0.707107     0.707107     0.000000     0.000000     0.000000
   11     1.000000    90.000000     0.000000     1.000000     0.000000     0.000000     0.000000     0.000000
   12    -1.000000    90.000000     0.000000     1.000000     0.000000     0.000000     0.000000     0.000000
   13     1.000000   180.000000     0.000000     0.000000     1.000000     0.000000     0.000000     0.000000
   14    -1.000000   180.000000     0.000000     0.000000     1.000000     0.000000     0.000000     0.000000
   15     1.000000   120.000000    -0.577350     0.577350     0.577350     0.000000     0.000000     0.000000
   16    -1.000000   120.000000    -0.577350     0.577350     0.577350     0.000000     0.000000     0.000000
   17     1.000000   120.000000    -0.577350     0.577350    -0.577350     0.000000     0.000000     0.000000
   18    -1.000000   120.000000    -0.577350     0.577350    -0.577350     0.000000     0.000000     0.000000
   19     1.000000    90.000000     0.000000     0.000000     1.000000     0.000000     0.000000     0.000000
   20    -1.000000    90.000000     0.000000     0.000000     1.000000     0.000000     0.000000     0.000000
   21     1.000000    90.000000    -1.000000     0.000000     0.000000     0.000000     0.000000     0.000000
   22    -1.000000    90.000000    -1.000000     0.000000     0.000000     0.000000     0.000000     0.000000
   23     1.000000   180.000000     0.707107     0.000000     0.707107     0.000000     0.000000     0.000000
   24    -1.000000   180.000000     0.707107     0.000000     0.707107     0.000000     0.000000     0.000000
   25     1.000000   120.000000     0.577350    -0.577350     0.577350     0.000000     0.000000     0.000000
   26    -1.000000   120.000000     0.577350    -0.577350     0.577350     0.000000     0.000000     0.000000
   27     1.000000   120.000000    -0.577350    -0.577350     0.577350     0.000000     0.000000     0.000000
   28    -1.000000   120.000000    -0.577350    -0.577350     0.577350     0.000000     0.000000     0.000000
   29     1.000000   180.000000     1.000000     0.000000     0.000000     0.000000     0.000000     0.000000
   30    -1.000000   180.000000     1.000000     0.000000     0.000000     0.000000     0.000000     0.000000
   31     1.000000    90.000000     0.000000    -1.000000     0.000000     0.000000     0.000000     0.000000
   32    -1.000000    90.000000     0.000000    -1.000000     0.000000     0.000000     0.000000     0.000000
   33     1.000000   180.000000     0.707107     0.707107     0.000000     0.000000     0.000000     0.000000
   34    -1.000000   180.000000     0.707107     0.707107     0.000000     0.000000     0.000000     0.000000
   35     1.000000    90.000000     1.000000     0.000000     0.000000     0.000000     0.000000     0.000000
   36    -1.000000    90.000000     1.000000     0.000000     0.000000     0.000000     0.000000     0.000000
   37     1.000000   120.000000     0.577350    -0.577350    -0.577350     0.000000     0.000000     0.000000
   38    -1.000000   120.000000     0.577350    -0.577350    -0.577350     0.000000     0.000000     0.000000
   39     1.000000   180.000000     0.000000     1.000000     0.000000     0.000000     0.000000     0.000000
   40    -1.000000   180.000000     0.000000     1.000000     0.000000     0.000000     0.000000     0.000000
   41     1.000000   120.000000     0.577350     0.577350    -0.577350     0.000000     0.000000     0.000000
   42    -1.000000   120.000000     0.577350     0.577350    -0.577350     0.000000     0.000000     0.000000
   43     1.000000   180.000000     0.000000    -0.707107     0.707107     0.000000     0.000000     0.000000
   44    -1.000000   180.000000     0.000000    -0.707107     0.707107     0.000000     0.000000     0.000000
   45     1.000000   180.000000     0.707107    -0.707107     0.000000     0.000000     0.000000     0.000000
   46    -1.000000   180.000000     0.707107    -0.707107     0.000000     0.000000     0.000000     0.000000
   47     1.000000   180.000000     0.707107     0.000000    -0.707107     0.000000     0.000000     0.000000
   48    -1.000000   180.000000     0.707107     0.000000    -0.707107     0.000000     0.000000     0.000000
 
 Subroutine IBZKPT returns following result:
 ===========================================
 
 Found     20 irreducible k-points:
 
 Following reciprocal coordinates:
            Coordinates               Weight
  0.000000  0.000000  0.000000      1.000000
  0.142857  0.000000  0.000000      6.000000
  0.285714  0.000000  0.000000      6.000000
  0.428571  0.000000  0.000000      6.000000
  0.142857  0.142857  0.000000     12.000000
  0.285714  0.142857  0.000000     24.000000
  0.428571  0.142857  0.000000     24.000000
  0.285714  0.285714  0.000000     12.000000
  0.428571  0.285714  0.000000     24.000000
  0.428571  0.428571  0.000000     12.000000
  0.142857  0.142857  0.142857      8.000000
  0.285714  0.142857  0.142857     24.000000
  0.428571  0.142857  0.142857     24.000000
  0.285714  0.285714  0.142857     24.000000
  0.428571  0.285714  0.142857     48.000000
  0.428571  0.428571  0.142857     24.000000
  0.285714  0.285714  0.285714      8.000000
  0.428571  0.285714  0.285714     24.000000
  0.428571  0.428571  0.285714     24.000000
  0.428571  0.428571  0.428571      8.000000
 
 Following cartesian coordinates:
            Coordinates               Weight
  0.000000  0.000000  0.000000      1.000000
  0.036581  0.000000  0.000000      6.000000
  0.073161  0.000000  0.000000      6.000000
  0.109742  0.000000  0.000000      6.000000
  0.036581  0.036581  0.000000     12.000000
  0.073161  0.036581  0.000000     24.000000
  0.109742  0.036581  0.000000     24.000000
  0.073161  0.073161  0.000000     12.000000
  0.109742  0.073161  0.000000     24.000000
  0.109742  0.109742  0.000000     12.000000
  0.036581  0.036581  0.036581      8.000000
  0.073161  0.036581  0.036581     24.000000
  0.109742  0.036581  0.036581     24.000000
  0.073161  0.073161  0.036581     24.000000
  0.109742  0.073161  0.036581     48.000000
  0.109742  0.109742  0.036581     24.000000
  0.073161  0.073161  0.073161      8.000000
  0.109742  0.073161  0.073161     24.000000
  0.109742  0.109742  0.073161     24.000000
  0.109742  0.109742  0.109742      8.000000
 
 TETIRR: Found    163 inequivalent tetrahedra from     2058


--------------------------------------------------------------------------------------------------------




 Dimension of arrays:
   k-points           NKPTS =     20   k-points in BZ     NKDIM =     20   number of bands    NBANDS=     20
   number of dos      NEDOS =    301   number of ions     NIONS =      5
   non local maximal  LDIM  =      6   non local SUM 2l+1 LMDIM =     18
   total plane-waves  NPLWV =  21952
   max r-space proj   IRMAX =      1   max aug-charges    IRDMAX=  25652
   dimension x,y,z NGX =    28 NGY =   28 NGZ =   28
   dimension x,y,z NGXF=    56 NGYF=   56 NGZF=   56
   support grid    NGXF=    56 NGYF=   56 NGZF=   56
   ions per type =               1   1   3
   NGX,Y,Z   is equivalent  to a cutoff of  11.92, 11.92, 11.92 a.u.
   NGXF,Y,Z  is equivalent  to a cutoff of  23.84, 23.84, 23.84 a.u.

 SYSTEM =  unknown system                          
 POSCAR =  ICSD_CollCode262269                     

 Startparameter for this run:
   NWRITE =      2    write-flag & timer
   PREC   = normal    normal or accurate (medium, high low for compatibility)
   ISTART =      0    job   : 0-new  1-cont  2-samecut
   ICHARG =      2    charge: 1-file 2-atom 10-const
   ISPIN  =      1    spin polarized calculation?
   LNONCOLLINEAR =      F non collinear calculations
   LSORBIT =      F    spin-orbit coupling
   INIWAV =      1    electr: 0-lowe 1-rand  2-diag
   LASPH  =      F    aspherical Exc in radial PAW
   METAGGA=      F    non-selfconsistent MetaGGA calc.

 Electronic Relaxation 1
   ENCUT  =  750.0 eV  55.12 Ry    7.42 a.u.   8.72  8.72  8.72*2*pi/ulx,y,z
   ENINI  =  750.0     initial cutoff
   ENAUG  =  605.4 eV  augmentation charge cutoff
   NELM   =     60;   NELMIN=  4; NELMDL= -5     # of ELM steps 
   EDIFF  = 0.1E-04   stopping-criterion for ELM
   LREAL  =      F    real-space projection
   NLSPLINE    = F    spline interpolate recip. space projectors
   LCOMPAT=      F    compatible to vasp.4.4
   GGA_COMPAT  = T    GGA compatible to vasp.4.4-vasp.4.6
   LMAXPAW     = -100 max onsite density
   LMAXMIX     =    2 max onsite mixed and CHGCAR
   VOSKOWN=      0    Vosko Wilk Nusair interpolation
   ROPT   =    0.00000   0.00000   0.00000
 Ionic relaxation
   EDIFFG = 0.1E-03   stopping-criterion for IOM
   NSW    =      0    number of steps for IOM
   NBLOCK =      1;   KBLOCK =      1    inner block; outer block 
   IBRION =     -1    ionic relax: 0-MD 1-quasi-New 2-CG
   NFREE  =      0    steps in history (QN), initial steepest desc. (CG)
   ISIF   =      2    stress and relaxation
   IWAVPR =     10    prediction:  0-non 1-charg 2-wave 3-comb
   ISYM   =      2    0-nonsym 1-usesym 2-fastsym
   LCORR  =      T    Harris-Foulkes like correction to forces

   POTIM  = 0.5000    time-step for ionic-motion
   TEIN   =    0.0    initial temperature
   TEBEG  =    0.0;   TEEND  =   0.0 temperature during run
   SMASS  =  -3.00    Nose mass-parameter (am)
   estimated Nose-frequenzy (Omega)   =  0.10E-29 period in steps =****** mass=  -0.349E-27a.u.
   SCALEE = 1.0000    scale energy and forces
   NPACO  =    256;   APACO  = 16.0  distance and # of slots for P.C.
   PSTRESS=    0.0 pullay stress

  Mass of Ions in am
   POMASS =  87.62 47.88 16.00
  Ionic Valenz
   ZVAL   =  10.00  4.00  6.00
  Atomic Wigner-Seitz radii
   RWIGS  =  -1.00 -1.00 -1.00
  virtual crystal weights 
   VCA    =   1.00  1.00  1.00
   NELECT =      32.0000    total number of electrons
   NUPDOWN=      -1.0000    fix difference up-down

 DOS related values:
   EMIN   =  10.00;   EMAX   =-10.00  energy-range for DOS
   EFERMI =   0.00
   ISMEAR =    -5;   SIGMA  =   0.20  broadening in eV -4-tet -1-fermi 0-gaus

 Electronic relaxation 2 (details)
   IALGO  =     68    algorithm
   LDIAG  =      T    sub-space diagonalisation (order eigenvalues)
   LSUBROT=      F    optimize rotation matrix (better conditioning)
   TURBO    =      0    0=normal 1=particle mesh
   IRESTART =      0    0=no restart 2=restart with 2 vectors
   NREBOOT  =      0    no. of reboots
   NMIN     =      0    reboot dimension
   EREF     =   0.00    reference energy to select bands
   IMIX   =      4    mixing-type and parameters
     AMIX     =   0.40;   BMIX     =  1.00
     AMIX_MAG =   1.60;   BMIX_MAG =  1.00
     AMIN     =   0.10
     WC   =   100.;   INIMIX=   1;  MIXPRE=   1;  MAXMIX= -45

 Intra band minimization:
   WEIMIN = 0.0000     energy-eigenvalue tresh-hold
   EBREAK =  0.13E-06  absolut break condition
   DEPER  =   0.30     relativ break condition  

   TIME   =   0.40     timestep for ELM

  volume/ion in A,a.u.               =      11.91        80.39
  Fermi-wavevector in a.u.,A,eV,Ry     =   1.330885  2.515009 24.099399  1.771256
  Thomas-Fermi vector in A             =   2.459938
 
 Write flags
   LWAVE        =      F    write WAVECAR
   LDOWNSAMPLE  =      F    k-point downsampling of WAVECAR
   LCHARG       =      T    write CHGCAR
   LVTOT        =      F    write LOCPOT, total local potential
   LVHAR        =      F    write LOCPOT, Hartree potential only
   LELF         =      F    write electronic localiz. function (ELF)
   LORBIT       =      0    0 simple, 1 ext, 2 COOP (PROOUT), +10 PAW based schemes


 Dipole corrections
   LMONO  =      F    monopole corrections only (constant potential shift)
   LDIPOL =      F    correct potential (dipole corrections)
   IDIPOL =      0    1-x, 2-y, 3-z, 4-all directions 
   EPSILON=  1.0000000 bulk dielectric constant

 Exchange correlation treatment:
   GGA     =    --    GGA type
   LEXCH   =     8    internal setting for exchange type
   VOSKOWN=      0    Vosko Wilk Nusair interpolation
   LHFCALC =     F    Hartree Fock is set to
   LHFONE  =     F    Hartree Fock one center treatment
   AEXX    =    0.0000 exact exchange contribution

 Linear response parameters
   LEPSILON=     F    determine dielectric tensor
   LRPA    =     F    only Hartree local field effects (RPA)
   LNABLA  =     F    use nabla operator in PAW spheres
   LVEL    =     F    velocity operator in full k-point grid
   LINTERFAST=   F  fast interpolation
   KINTER  =     0    interpolate to denser k-point grid
   CSHIFT  =0.1000    complex shift for real part using Kramers Kronig
   OMEGAMAX=  -1.0    maximum frequency
   DEG_THRESHOLD= 0.2000000E-02 threshold for treating states as degnerate
   RTIME   =   -0.100 relaxation time in fs
  (WPLASMAI=    0.000 imaginary part of plasma frequency in eV, 0.658/RTIME)
   DFIELD  = 0.0000000 0.0000000 0.0000000 field for delta impulse in time
 
 Orbital magnetization related:
   ORBITALMAG=     F  switch on orbital magnetization
   LCHIMAG   =     F  perturbation theory with respect to B field
   DQ        =  0.001000  dq finite difference perturbation B field
   LLRAUG    =     F  two centre corrections for induced B field



--------------------------------------------------------------------------------------------------------


 Static calculation
 charge density and potential will be updated during run
 non-spin polarized calculation
 RMM-DIIS sequential band-by-band and
  variant of blocked Davidson during initial phase
 perform sub-space diagonalisation
    before iterative eigenvector-optimisation
 modified Broyden-mixing scheme, WC =      100.0
 initial mixing is a Kerker type mixing with AMIX =  0.4000 and BMIX =      1.0000
 Hartree-type preconditioning will be used
 using additional bands            4
 reciprocal scheme for non local part
 use partial core corrections
 calculate Harris-corrections to forces 
   (improved forces if not selfconsistent)
 use gradient corrections 
 use of overlap-Matrix (Vanderbilt PP)
 Fermi weights with tetrahedron method with Bloechl corrections


--------------------------------------------------------------------------------------------------------


  energy-cutoff  :      750.00
  volume of cell :       59.56
      direct lattice vectors                 reciprocal lattice vectors
     3.905268000  0.000000000  0.000000000     0.256064373  0.000000000  0.000000000
     0.000000000  3.905268000  0.000000000     0.000000000  0.256064373  0.000000000
     0.000000000  0.000000000  3.905268000     0.000000000  0.000000000  0.256064373

  length of vectors
     3.905268000  3.905268000  3.905268000     0.256064373  0.256064373  0.256064373


 
 k-points in units of 2pi/SCALE and weight: k-density: 4.0                          
   0.00000000  0.00000000  0.00000000       0.003
   0.03658062  0.00000000  0.00000000       0.017
   0.07316125  0.00000000  0.00000000       0.017
   0.10974187  0.00000000  0.00000000       0.017
   0.03658062  0.03658062  0.00000000       0.035
   0.07316125  0.03658062  0.00000000       0.070
   0.10974187  0.03658062  0.00000000       0.070
   0.07316125  0.07316125  0.00000000       0.035
   0.10974187  0.07316125  0.00000000       0.070
   0.10974187  0.10974187  0.00000000       0.035
   0.03658062  0.03658062  0.03658062       0.023
   0.07316125  0.03658062  0.03658062       0.070
   0.10974187  0.03658062  0.03658062       0.070
   0.07316125  0.07316125  0.03658062       0.070
   0.10974187  0.07316125  0.03658062       0.140
   0.10974187  0.10974187  0.03658062       0.070
   0.07316125  0.07316125  0.07316125       0.023
   0.10974187  0.07316125  0.07316125       0.070
   0.10974187  0.10974187  0.07316125       0.070
   0.10974187  0.10974187  0.10974187       0.023
 
 k-points in reciprocal lattice and weights: k-density: 4.0                          
   0.00000000  0.00000000  0.00000000       0.003
   0.14285714  0.00000000  0.00000000       0.017
   0.28571429  0.00000000  0.00000000       0.017
   0.42857143  0.00000000  0.00000000       0.017
   0.14285714  0.14285714  0.00000000       0.035
   0.28571429  0.14285714  0.00000000       0.070
   0.42857143  0.14285714  0.00000000       0.070
   0.28571429  0.28571429  0.00000000       0.035
   0.42857143  0.28571429  0.00000000       0.070
   0.42857143  0.42857143  0.00000000       0.035
   0.14285714  0.14285714  0.14285714       0.023
   0.28571429  0.14285714  0.14285714       0.070
   0.42857143  0.14285714  0.14285714       0.070
   0.28571429  0.28571429  0.14285714       0.070
   0.42857143  0.28571429  0.14285714       0.140
   0.42857143  0.42857143  0.14285714       0.070
   0.28571429  0.28571429  0.28571429       0.023
   0.42857143  0.28571429  0.28571429       0.070
   0.42857143  0.42857143  0.28571429       0.070
   0.42857143  0.42857143  0.42857143       0.023
 
 position of ions in fractional coordinates (direct lattice) 
   0.00000000  0.00000000  0.00000000
   0.50000000  0.50000000  0.50000000
   0.50000000  0.50000000  0.00000000
   0.50000000  0.00000000  0.50000000
   0.00000000  0.50000000  0.50000000
 
 position of ions in cartesian coordinates  (Angst):
   0.00000000  0.00000000  0.00000000
   1.95263400  1.95263400  1.95263400
   1.95263400  1.95263400  0.00000000
   1.95263400  0.00000000  1.95263400
   0.00000000  1.95263400  1.95263400
 


--------------------------------------------------------------------------------------------------------


 k-point  1 :   0.0000 0.0000 0.0000  plane waves:    2801
 k-point  2 :   0.1429 0.0000 0.0000  plane waves:    2801
 k-point  3 :   0.2857 0.0000 0.0000  plane waves:    2790
 k-point  4 :   0.4286 0.0000 0.0000  plane waves:    2802
 k-point  5 :   0.1429 0.1429 0.0000  plane waves:    2791
 k-point  6 :   0.2857 0.1429 0.0000  plane waves:    2779
 k-point  7 :   0.4286 0.1429 0.0000  plane waves:    2781
 k-point  8 :   0.2857 0.2857 0.0000  plane waves:    2776
 k-point  9 :   0.4286 0.2857 0.0000  plane waves:    2778
 k-point 10 :   0.4286 0.4286 0.0000  plane waves:    2768
 k-point 11 :   0.1429 0.1429 0.1429  plane waves:    2779
 k-point 12 :   0.2857 0.1429 0.1429  plane waves:    2772
 k-point 13 :   0.4286 0.1429 0.1429  plane waves:    2783
 k-point 14 :   0.2857 0.2857 0.1429  plane waves:    2778
 k-point 15 :   0.4286 0.2857 0.1429  plane waves:    2781
 k-point 16 :   0.4286 0.4286 0.1429  plane waves:    2775
 k-point 17 :   0.2857 0.2857 0.2857  plane waves:    2773
 k-point 18 :   0.4286 0.2857 0.2857  plane waves:    2774
 k-point 19 :   0.4286 0.4286 0.2857  plane waves:    2782
 k-point 20 :   0.4286 0.4286 0.4286  plane waves:    2788

 maximum and minimum number of plane-waves per node :      1414     1374

 maximum number of plane-waves:      2802
 maximum index in each direction: 
   IXMAX=    8   IYMAX=    8   IZMAX=    8
   IXMIN=   -9   IYMIN=   -9   IZMIN=   -9


 parallel 3D FFT for wavefunctions:
    minimum data exchange during FFTs selected (reduces bandwidth)
 parallel 3D FFT for charge:
    minimum data exchange during FFTs selected (reduces bandwidth)


 total amount of memory used by VASP MPI-rank0    51961. kBytes
=======================================================================

   base      :      30000. kBytes
   nonl-proj :      12155. kBytes
   fftplans  :       1861. kBytes
   grid      :       3330. kBytes
   one-center:         46. kBytes
   wavefun   :       4569. kBytes
 
     INWAV:  cpu time    0.0000: real time    0.0002
 Broyden mixing: mesh for mixing (old mesh)
   NGX = 17   NGY = 17   NGZ = 17
  (NGX  = 56   NGY  = 56   NGZ  = 56)
  gives a total of   4913 points

 initial charge density was supplied:
 charge density of overlapping atoms calculated
 number of electron      32.0000000 magnetization 
 keeping initial charge density in first step


--------------------------------------------------------------------------------------------------------


 Maximum index for augmentation-charges         6233 (set IRDMAX)


--------------------------------------------------------------------------------------------------------


 First call to EWALD:  gamma=   0.454
 Maximum number of real-space cells 3x 3x 3
 Maximum number of reciprocal cells 3x 3x 3

    FEWALD:  cpu time    0.0020: real time    0.0015


--------------------------------------- Iteration      1(   1)  ---------------------------------------


    POTLOK:  cpu time    0.0280: real time    0.0885
    SETDIJ:  cpu time    0.0060: real time    0.0066
     EDDAV:  cpu time    0.3639: real time    0.3678
 BZINTS: Fermi energy: 20.440508; 32.000000 electrons
         Band energy: 152.549021;  BLOECHL correction: -0.140752
       DOS:  cpu time    0.0050: real time    0.0055
    --------------------------------------------
      LOOP:  cpu time    0.4029: real time    0.4684

 eigenvalue-minimisations  :   800
 total energy-change (2. order) : 0.3662446E+03  (-0.1978009E+04)
 number of electron      32.0000000 magnetization 
 augmentation part       32.0000000 magnetization 

 Free energy of the ion-electron system (eV)
  ---------------------------------------------------
  alpha Z        PSCENC =       185.39985751
  Ewald energy   TEWEN  =     -1934.07799583
  -Hartree energ DENC   =      -403.14003404
  -exchange      EXHF   =         0.00000000
  -V(xc)+E(xc)   XCENC  =        82.31787849
  PAW double counting   =      1333.61297253    -1284.78446064
  entropy T*S    EENTRO =         0.00000000
  eigenvalues    EBANDS =       152.54902087
  atomic energy  EATOM  =      2234.36736180
  Solvation  Ediel_sol  =         0.00000000
  ---------------------------------------------------
  free energy    TOTEN  =       366.24460068 eV

  energy without entropy =      366.24460068  energy(sigma->0) =      366.24460068


--------------------------------------------------------------------------------------------------------




--------------------------------------- Iteration      1(   2)  ---------------------------------------


     EDDAV:  cpu time    0.4639: real time    0.4653
 BZINTS: Fermi energy:  8.551219; 32.000000 electrons
         Band energy:-225.995102;  BLOECHL correction: -0.110289
       DOS:  cpu time    0.0040: real time    0.0043
    --------------------------------------------
      LOOP:  cpu time    0.4679: real time    0.4695

 eigenvalue-minimisations  :  1064
 total energy-change (2. order) :-0.3785441E+03  (-0.3660501E+03)
 number of electron      32.0000000 magnetization 
 augmentation part       32.0000000 magnetization 

 Free energy of the ion-electron system (eV)
  ---------------------------------------------------
  alpha Z        PSCENC =       185.39985751
  Ewald energy   TEWEN  =     -1934.07799583
  -Hartree energ DENC   =      -403.14003404
  -exchange      EXHF   =         0.00000000
  -V(xc)+E(xc)   XCENC  =        82.31787849
  PAW double counting   =      1333.61297253    -1284.78446064
  entropy T*S    EENTRO =         0.00000000
  eigenvalues    EBANDS =      -225.99510184
  atomic energy  EATOM  =      2234.36736180
  Solvation  Ediel_sol  =         0.00000000
  ---------------------------------------------------
  free energy    TOTEN  =       -12.29952203 eV

  energy without entropy =      -12.29952203  energy(sigma->0) =      -12.29952203


--------------------------------------------------------------------------------------------------------




--------------------------------------- Iteration      1(   3)  ---------------------------------------


     EDDAV:  cpu time    0.4669: real time    0.4760
 BZINTS: Fermi energy:  0.183501; 32.000000 electrons
         Band energy:-262.507480;  BLOECHL correction:  0.000000
       DOS:  cpu time    0.0010: real time    0.0012
    --------------------------------------------
      LOOP:  cpu time    0.4679: real time    0.4772

 eigenvalue-minimisations  :   984
 total energy-change (2. order) :-0.3651238E+02  (-0.3613365E+02)
 number of electron      32.0000000 magnetization 
 augmentation part       32.0000000 magnetization 

 Free energy of the ion-electron system (eV)
  ---------------------------------------------------
  alpha Z        PSCENC =       185.39985751
  Ewald energy   TEWEN  =     -1934.07799583
  -Hartree energ DENC   =      -403.14003404
  -exchange      EXHF   =         0.00000000
  -V(xc)+E(xc)   XCENC  =        82.31787849
  PAW double counting   =      1333.61297253    -1284.78446064
  entropy T*S    EENTRO =         0.00000000
  eigenvalues    EBANDS =      -262.50748046
  atomic energy  EATOM  =      2234.36736180
  Solvation  Ediel_sol  =         0.00000000
  ---------------------------------------------------
  free energy    TOTEN  =       -48.81190065 eV

  energy without entropy =      -48.81190065  energy(sigma->0) =      -48.81190065


--------------------------------------------------------------------------------------------------------




--------------------------------------- Iteration      1(   4)  ---------------------------------------


     EDDAV:  cpu time    0.5899: real time    0.5904
 BZINTS: Fermi energy: -0.434312; 32.000000 electrons
         Band energy:-263.911733;  BLOECHL correction:  0.000000
       DOS:  cpu time    0.0010: real time    0.0011
    --------------------------------------------
      LOOP:  cpu time    0.5909: real time    0.5914

 eigenvalue-minimisations  :  1308
 total energy-change (2. order) :-0.1404253E+01  (-0.1402221E+01)
 number of electron      32.0000000 magnetization 
 augmentation part       32.0000000 magnetization 

 Free energy of the ion-electron system (eV)
  ---------------------------------------------------
  alpha Z        PSCENC =       185.39985751
  Ewald energy   TEWEN  =     -1934.07799583
  -Hartree energ DENC   =      -403.14003404
  -exchange      EXHF   =         0.00000000
  -V(xc)+E(xc)   XCENC  =        82.31787849
  PAW double counting   =      1333.61297253    -1284.78446064
  entropy T*S    EENTRO =         0.00000000
  eigenvalues    EBANDS =      -263.91173339
  atomic energy  EATOM  =      2234.36736180
  Solvation  Ediel_sol  =         0.00000000
  ---------------------------------------------------
  free energy    TOTEN  =       -50.21615358 eV

  energy without entropy =      -50.21615358  energy(sigma->0) =      -50.21615358


--------------------------------------------------------------------------------------------------------




--------------------------------------- Iteration      1(   5)  ---------------------------------------


     EDDAV:  cpu time    0.4939: real time    0.4949
 BZINTS: Fermi energy: -0.524878; 32.000000 electrons
         Band energy:-263.941744;  BLOECHL correction:  0.000000
       DOS:  cpu time    0.0000: real time    0.0009
    CHARGE:  cpu time    0.0310: real time    0.0304
    MIXING:  cpu time    0.0010: real time    0.0012
    --------------------------------------------
      LOOP:  cpu time    0.5259: real time    0.5274

 eigenvalue-minimisations  :  1068
 total energy-change (2. order) :-0.3001036E-01  (-0.2999118E-01)
 number of electron      32.0000031 magnetization 
 augmentation part        3.3990873 magnetization 

 Broyden mixing:
  rms(total) = 0.18247E+01    rms(broyden)= 0.18247E+01
  rms(prec ) = 0.47630E+01
  weight for this iteration     100.00

 Free energy of the ion-electron system (eV)
  ---------------------------------------------------
  alpha Z        PSCENC =       185.39985751
  Ewald energy   TEWEN  =     -1934.07799583
  -Hartree energ DENC   =      -403.14003404
  -exchange      EXHF   =         0.00000000
  -V(xc)+E(xc)   XCENC  =        82.31787849
  PAW double counting   =      1333.61297253    -1284.78446064
  entropy T*S    EENTRO =         0.00000000
  eigenvalues    EBANDS =      -263.94174375
  atomic energy  EATOM  =      2234.36736180
  Solvation  Ediel_sol  =         0.00000000
  ---------------------------------------------------
  free energy    TOTEN  =       -50.24616393 eV

  energy without entropy =      -50.24616393  energy(sigma->0) =      -50.24616393


--------------------------------------------------------------------------------------------------------




--------------------------------------- Iteration      1(   6)  ---------------------------------------


    POTLOK:  cpu time    0.0260: real time    0.0279
    SETDIJ:  cpu time    0.0060: real time    0.0054
    EDDIAG:  cpu time    0.0780: real time    0.0788
  RMM-DIIS:  cpu time    0.3199: real time    0.3193
    ORTHCH:  cpu time    0.0090: real time    0.0089
 BZINTS: Fermi energy:  3.277090; 32.000000 electrons
         Band energy:-201.004948;  BLOECHL correction:  0.000000
       DOS:  cpu time    0.0010: real time    0.0011
    CHARGE:  cpu time    0.0300: real time    0.0301
    MIXING:  cpu time    0.0010: real time    0.0008
    --------------------------------------------
      LOOP:  cpu time    0.4709: real time    0.4723

 eigenvalue-minimisations  :   864
 total energy-change (2. order) : 0.9824469E+01  (-0.5858220E+01)
 number of electron      32.0000024 magnetization 
 augmentation part        3.4786722 magnetization 

 Broyden mixing:
  rms(total) = 0.62480E+00    rms(broyden)= 0.62469E+00
  rms(prec ) = 0.11383E+01
  weight for this iteration     100.00

 eigenvalues of (default mixing * dielectric matrix)
  average eigenvalue GAMMA=   0.7958
  0.7958

 Free energy of the ion-electron system (eV)
  ---------------------------------------------------
  alpha Z        PSCENC =       185.39985751
  Ewald energy   TEWEN  =     -1934.07799583
  -Hartree energ DENC   =      -457.82503014
  -exchange      EXHF   =         0.00000000
  -V(xc)+E(xc)   XCENC  =        87.10795042
  PAW double counting   =      1487.15419988    -1441.54309058
  entropy T*S    EENTRO =         0.00000000
  eigenvalues    EBANDS =      -201.00494837
  atomic energy  EATOM  =      2234.36736180
  Solvation  Ediel_sol  =         0.00000000
  ---------------------------------------------------
  free energy    TOTEN  =       -40.42169531 eV

  energy without entropy =      -40.42169531  energy(sigma->0) =      -40.42169531


--------------------------------------------------------------------------------------------------------




--------------------------------------- Iteration      1(   7)  ---------------------------------------


    POTLOK:  cpu time    0.0250: real time    0.0267
    SETDIJ:  cpu time    0.0060: real time    0.0055
    EDDIAG:  cpu time    0.0780: real time    0.0780
  RMM-DIIS:  cpu time    0.3419: real time    0.3412
    ORTHCH:  cpu time    0.0080: real time    0.0089
 BZINTS: Fermi energy:  2.637580; 32.000000 electrons
         Band energy:-210.497171;  BLOECHL correction:  0.000000
       DOS:  cpu time    0.0010: real time    0.0009
    CHARGE:  cpu time    0.0300: real time    0.0301
    MIXING:  cpu time    0.0010: real time    0.0008
    --------------------------------------------
      LOOP:  cpu time    0.4909: real time    0.4921

 eigenvalue-minimisations  :   957
 total energy-change (2. order) : 0.6073434E+00  (-0.1530343E+00)
 number of electron      32.0000025 magnetization 
 augmentation part        3.3941232 magnetization 

 Broyden mixing:
  rms(total) = 0.32235E+00    rms(broyden)= 0.32235E+00
  rms(prec ) = 0.56764E+00
  weight for this iteration     100.00

 eigenvalues of (default mixing * dielectric matrix)
  average eigenvalue GAMMA=   1.6987
  0.8839  2.5136

 Free energy of the ion-electron system (eV)
  ---------------------------------------------------
  alpha Z        PSCENC =       185.39985751
  Ewald energy   TEWEN  =     -1934.07799583
  -Hartree energ DENC   =      -445.58272600
  -exchange      EXHF   =         0.00000000
  -V(xc)+E(xc)   XCENC  =        86.24316087
  PAW double counting   =      1497.73143108    -1453.39827082
  entropy T*S    EENTRO =         0.00000000
  eigenvalues    EBANDS =      -210.49717051
  atomic energy  EATOM  =      2234.36736180
  Solvation  Ediel_sol  =         0.00000000
  ---------------------------------------------------
  free energy    TOTEN  =       -39.81435189 eV

  energy without entropy =      -39.81435189  energy(sigma->0) =      -39.81435189


--------------------------------------------------------------------------------------------------------




--------------------------------------- Iteration      1(   8)  ---------------------------------------


    POTLOK:  cpu time    0.0260: real time    0.0264
    SETDIJ:  cpu time    0.0060: real time    0.0055
    EDDIAG:  cpu time    0.0770: real time    0.0776
  RMM-DIIS:  cpu time    0.3439: real time    0.3435
    ORTHCH:  cpu time    0.0090: real time    0.0089
 BZINTS: Fermi energy:  2.355487; 32.000000 electrons
         Band energy:-216.653910;  BLOECHL correction:  0.000000
       DOS:  cpu time    0.0010: real time    0.0009
    CHARGE:  cpu time    0.0300: real time    0.0300
    MIXING:  cpu time    0.0010: real time    0.0014
    --------------------------------------------
      LOOP:  cpu time    0.4939: real time    0.4943

 eigenvalue-minimisations  :   961
 total energy-change (2. order) : 0.8427645E-01  (-0.9416906E-01)
 number of electron      32.0000025 magnetization 
 augmentation part        3.4535038 magnetization 

 Broyden mixing:
  rms(total) = 0.83051E-01    rms(broyden)= 0.83037E-01
  rms(prec ) = 0.18819E+00
  weight for this iteration     100.00

 eigenvalues of (default mixing * dielectric matrix)
  average eigenvalue GAMMA=   1.3278
  2.2916  0.8459  0.8459

 Free energy of the ion-electron system (eV)
  ---------------------------------------------------
  alpha Z        PSCENC =       185.39985751
  Ewald energy   TEWEN  =     -1934.07799583
  -Hartree energ DENC   =      -437.00712692
  -exchange      EXHF   =         0.00000000
  -V(xc)+E(xc)   XCENC  =        85.90199793
  PAW double counting   =      1545.90660042    -1503.56685997
  entropy T*S    EENTRO =         0.00000000
  eigenvalues    EBANDS =      -216.65391039
  atomic energy  EATOM  =      2234.36736180
  Solvation  Ediel_sol  =         0.00000000
  ---------------------------------------------------
  free energy    TOTEN  =       -39.73007544 eV

  energy without entropy =      -39.73007544  energy(sigma->0) =      -39.73007544


--------------------------------------------------------------------------------------------------------




--------------------------------------- Iteration      1(   9)  ---------------------------------------


    POTLOK:  cpu time    0.0250: real time    0.0264
    SETDIJ:  cpu time    0.0060: real time    0.0054
    EDDIAG:  cpu time    0.0770: real time    0.0773
  RMM-DIIS:  cpu time    0.3969: real time    0.3957
    ORTHCH:  cpu time    0.0080: real time    0.0089
 BZINTS: Fermi energy:  2.496014; 32.000000 electrons
         Band energy:-214.805027;  BLOECHL correction:  0.000000
       DOS:  cpu time    0.0010: real time    0.0009
    CHARGE:  cpu time    0.0300: real time    0.0300
    MIXING:  cpu time    0.0010: real time    0.0009
    --------------------------------------------
      LOOP:  cpu time    0.5449: real time    0.5457

 eigenvalue-minimisations  :  1101
 total energy-change (2. order) : 0.1403605E-01  (-0.5839699E-02)
 number of electron      32.0000025 magnetization 
 augmentation part        3.4457090 magnetization 

 Broyden mixing:
  rms(total) = 0.57722E-01    rms(broyden)= 0.57721E-01
  rms(prec ) = 0.12770E+00
  weight for this iteration     100.00

 eigenvalues of (default mixing * dielectric matrix)
  average eigenvalue GAMMA=   1.5285
  0.9091  0.9091  2.1480  2.1480

 Free energy of the ion-electron system (eV)
  ---------------------------------------------------
  alpha Z        PSCENC =       185.39985751
  Ewald energy   TEWEN  =     -1934.07799583
  -Hartree energ DENC   =      -438.81883679
  -exchange      EXHF   =         0.00000000
  -V(xc)+E(xc)   XCENC  =        86.03344698
  PAW double counting   =      1553.67403680    -1511.48888316
  entropy T*S    EENTRO =         0.00000000
  eigenvalues    EBANDS =      -214.80502671
  atomic energy  EATOM  =      2234.36736180
  Solvation  Ediel_sol  =         0.00000000
  ---------------------------------------------------
  free energy    TOTEN  =       -39.71603939 eV

  energy without entropy =      -39.71603939  energy(sigma->0) =      -39.71603939


--------------------------------------------------------------------------------------------------------




--------------------------------------- Iteration      1(  10)  ---------------------------------------


    POTLOK:  cpu time    0.0260: real time    0.0265
    SETDIJ:  cpu time    0.0060: real time    0.0053
    EDDIAG:  cpu time    0.0760: real time    0.0771
  RMM-DIIS:  cpu time    0.3449: real time    0.3446
    ORTHCH:  cpu time    0.0090: real time    0.0089
 BZINTS: Fermi energy:  2.645445; 32.000000 electrons
         Band energy:-211.552154;  BLOECHL correction:  0.000000
       DOS:  cpu time    0.0010: real time    0.0009
    CHARGE:  cpu time    0.0300: real time    0.0300
    MIXING:  cpu time    0.0010: real time    0.0010
    --------------------------------------------
      LOOP:  cpu time    0.4939: real time    0.4943

 eigenvalue-minimisations  :   963
 total energy-change (2. order) : 0.3166996E-02  (-0.1309761E-01)
 number of electron      32.0000025 magnetization 
 augmentation part        3.4127190 magnetization 

 Broyden mixing:
  rms(total) = 0.32334E-01    rms(broyden)= 0.32330E-01
  rms(prec ) = 0.64786E-01
  weight for this iteration     100.00

 eigenvalues of (default mixing * dielectric matrix)
  average eigenvalue GAMMA=   1.4068
  2.4836  0.9061  1.0399  1.3022  1.3022

 Free energy of the ion-electron system (eV)
  ---------------------------------------------------
  alpha Z        PSCENC =       185.39985751
  Ewald energy   TEWEN  =     -1934.07799583
  -Hartree energ DENC   =      -442.33597183
  -exchange      EXHF   =         0.00000000
  -V(xc)+E(xc)   XCENC  =        86.24536216
  PAW double counting   =      1560.24159672    -1518.00092913
  entropy T*S    EENTRO =         0.00000000
  eigenvalues    EBANDS =      -211.55215381
  atomic energy  EATOM  =      2234.36736180
  Solvation  Ediel_sol  =         0.00000000
  ---------------------------------------------------
  free energy    TOTEN  =       -39.71287239 eV

  energy without entropy =      -39.71287239  energy(sigma->0) =      -39.71287239


--------------------------------------------------------------------------------------------------------




--------------------------------------- Iteration      1(  11)  ---------------------------------------


    POTLOK:  cpu time    0.0260: real time    0.0289
    SETDIJ:  cpu time    0.0060: real time    0.0055
    EDDIAG:  cpu time    0.0760: real time    0.0766
  RMM-DIIS:  cpu time    0.3849: real time    0.3838
    ORTHCH:  cpu time    0.0090: real time    0.0089
 BZINTS: Fermi energy:  2.632865; 32.000000 electrons
         Band energy:-212.505738;  BLOECHL correction:  0.000000
       DOS:  cpu time    0.0010: real time    0.0011
    CHARGE:  cpu time    0.0300: real time    0.0300
    MIXING:  cpu time    0.0010: real time    0.0010
    --------------------------------------------
      LOOP:  cpu time    0.5339: real time    0.5357

 eigenvalue-minimisations  :  1059
 total energy-change (2. order) : 0.2135376E-02  (-0.1305684E-02)
 number of electron      32.0000025 magnetization 
 augmentation part        3.4173243 magnetization 

 Broyden mixing:
  rms(total) = 0.87360E-02    rms(broyden)= 0.87360E-02
  rms(prec ) = 0.19310E-01
  weight for this iteration     100.00

 eigenvalues of (default mixing * dielectric matrix)
  average eigenvalue GAMMA=   1.5437
  2.1327  2.1327  2.1600  0.9331  0.9517  0.9517

 Free energy of the ion-electron system (eV)
  ---------------------------------------------------
  alpha Z        PSCENC =       185.39985751
  Ewald energy   TEWEN  =     -1934.07799583
  -Hartree energ DENC   =      -441.30025924
  -exchange      EXHF   =         0.00000000
  -V(xc)+E(xc)   XCENC  =        86.19299654
  PAW double counting   =      1560.94506283    -1518.73202308
  entropy T*S    EENTRO =         0.00000000
  eigenvalues    EBANDS =      -212.50573755
  atomic energy  EATOM  =      2234.36736180
  Solvation  Ediel_sol  =         0.00000000
  ---------------------------------------------------
  free energy    TOTEN  =       -39.71073702 eV

  energy without entropy =      -39.71073702  energy(sigma->0) =      -39.71073702


--------------------------------------------------------------------------------------------------------




--------------------------------------- Iteration      1(  12)  ---------------------------------------


    POTLOK:  cpu time    0.0260: real time    0.0275
    SETDIJ:  cpu time    0.0050: real time    0.0053
    EDDIAG:  cpu time    0.0770: real time    0.0770
  RMM-DIIS:  cpu time    0.3859: real time    0.3851
    ORTHCH:  cpu time    0.0080: real time    0.0090
 BZINTS: Fermi energy:  2.543376; 32.000000 electrons
         Band energy:-213.201702;  BLOECHL correction:  0.000000
       DOS:  cpu time    0.0010: real time    0.0009
    CHARGE:  cpu time    0.0310: real time    0.0302
    MIXING:  cpu time    0.0010: real time    0.0011
    --------------------------------------------
      LOOP:  cpu time    0.5349: real time    0.5360

 eigenvalue-minimisations  :  1066
 total energy-change (2. order) :-0.9465458E-03  (-0.1022522E-02)
 number of electron      32.0000025 magnetization 
 augmentation part        3.4166526 magnetization 

 Broyden mixing:
  rms(total) = 0.17961E-01    rms(broyden)= 0.17960E-01
  rms(prec ) = 0.40758E-01
  weight for this iteration     100.00

 eigenvalues of (default mixing * dielectric matrix)
  average eigenvalue GAMMA=   1.5447
  2.8855  1.8301  1.8301  1.2364  1.2364  0.8973  0.8973

 Free energy of the ion-electron system (eV)
  ---------------------------------------------------
  alpha Z        PSCENC =       185.39985751
  Ewald energy   TEWEN  =     -1934.07799583
  -Hartree energ DENC   =      -440.68820301
  -exchange      EXHF   =         0.00000000
  -V(xc)+E(xc)   XCENC  =        86.14907328
  PAW double counting   =      1559.22725923    -1516.88733492
  entropy T*S    EENTRO =         0.00000000
  eigenvalues    EBANDS =      -213.20170162
  atomic energy  EATOM  =      2234.36736180
  Solvation  Ediel_sol  =         0.00000000
  ---------------------------------------------------
  free energy    TOTEN  =       -39.71168356 eV

  energy without entropy =      -39.71168356  energy(sigma->0) =      -39.71168356


--------------------------------------------------------------------------------------------------------




--------------------------------------- Iteration      1(  13)  ---------------------------------------


    POTLOK:  cpu time    0.0260: real time    0.0312
    SETDIJ:  cpu time    0.0050: real time    0.0053
    EDDIAG:  cpu time    0.0770: real time    0.0770
  RMM-DIIS:  cpu time    0.3679: real time    0.3670
    ORTHCH:  cpu time    0.0080: real time    0.0089
 BZINTS: Fermi energy:  2.663132; 32.000000 electrons
         Band energy:-212.478140;  BLOECHL correction:  0.000000
       DOS:  cpu time    0.0010: real time    0.0011
    CHARGE:  cpu time    0.0310: real time    0.0304
    MIXING:  cpu time    0.0010: real time    0.0011
    --------------------------------------------
      LOOP:  cpu time    0.5169: real time    0.5220

 eigenvalue-minimisations  :  1025
 total energy-change (2. order) : 0.4110551E-03  (-0.7407237E-03)
 number of electron      32.0000025 magnetization 
 augmentation part        3.4168767 magnetization 

 Broyden mixing:
  rms(total) = 0.73123E-02    rms(broyden)= 0.73114E-02
  rms(prec ) = 0.19860E-01
  weight for this iteration     100.00

 eigenvalues of (default mixing * dielectric matrix)
  average eigenvalue GAMMA=   1.5461
  2.5409  2.2145  2.2145  1.2944  1.2944  1.1882  0.8107  0.8107

 Free energy of the ion-electron system (eV)
  ---------------------------------------------------
  alpha Z        PSCENC =       185.39985751
  Ewald energy   TEWEN  =     -1934.07799583
  -Hartree energ DENC   =      -441.44367241
  -exchange      EXHF   =         0.00000000
  -V(xc)+E(xc)   XCENC  =        86.20642470
  PAW double counting   =      1561.42932634    -1519.11443466
  entropy T*S    EENTRO =         0.00000000
  eigenvalues    EBANDS =      -212.47813996
  atomic energy  EATOM  =      2234.36736180
  Solvation  Ediel_sol  =         0.00000000
  ---------------------------------------------------
  free energy    TOTEN  =       -39.71127251 eV

  energy without entropy =      -39.71127251  energy(sigma->0) =      -39.71127251


--------------------------------------------------------------------------------------------------------




--------------------------------------- Iteration      1(  14)  ---------------------------------------


    POTLOK:  cpu time    0.0260: real time    0.0271
    SETDIJ:  cpu time    0.0060: real time    0.0055
    EDDIAG:  cpu time    0.0770: real time    0.0772
  RMM-DIIS:  cpu time    0.3589: real time    0.3584
    ORTHCH:  cpu time    0.0080: real time    0.0089
 BZINTS: Fermi energy:  2.665877; 32.000000 electrons
         Band energy:-212.622122;  BLOECHL correction:  0.000000
       DOS:  cpu time    0.0010: real time    0.0011
    CHARGE:  cpu time    0.0300: real time    0.0302
    MIXING:  cpu time    0.0010: real time    0.0011
    --------------------------------------------
      LOOP:  cpu time    0.5079: real time    0.5095

 eigenvalue-minimisations  :   975
 total energy-change (2. order) : 0.8205107E-04  (-0.1585962E-03)
 number of electron      32.0000025 magnetization 
 augmentation part        3.4121531 magnetization 

 Broyden mixing:
  rms(total) = 0.26010E-02    rms(broyden)= 0.26009E-02
  rms(prec ) = 0.69983E-02
  weight for this iteration     100.00

 eigenvalues of (default mixing * dielectric matrix)
  average eigenvalue GAMMA=   1.5826
  2.8432  2.7980  2.7980  1.2292  1.2292  1.1099  0.8455  0.6951  0.6951

 Free energy of the ion-electron system (eV)
  ---------------------------------------------------
  alpha Z        PSCENC =       185.39985751
  Ewald energy   TEWEN  =     -1934.07799583
  -Hartree energ DENC   =      -441.29962890
  -exchange      EXHF   =         0.00000000
  -V(xc)+E(xc)   XCENC  =        86.19099843
  PAW double counting   =      1561.03468376    -1518.70434508
  entropy T*S    EENTRO =         0.00000000
  eigenvalues    EBANDS =      -212.62212214
  atomic energy  EATOM  =      2234.36736180
  Solvation  Ediel_sol  =         0.00000000
  ---------------------------------------------------
  free energy    TOTEN  =       -39.71119046 eV

  energy without entropy =      -39.71119046  energy(sigma->0) =      -39.71119046


--------------------------------------------------------------------------------------------------------




--------------------------------------- Iteration      1(  15)  ---------------------------------------


    POTLOK:  cpu time    0.0260: real time    0.0293
    SETDIJ:  cpu time    0.0070: real time    0.0055
    EDDIAG:  cpu time    0.0760: real time    0.0773
  RMM-DIIS:  cpu time    0.3379: real time    0.3372
    ORTHCH:  cpu time    0.0080: real time    0.0089
 BZINTS: Fermi energy:  2.558323; 32.000000 electrons
         Band energy:-212.599498;  BLOECHL correction:  0.000000
       DOS:  cpu time    0.0010: real time    0.0009
    CHARGE:  cpu time    0.0300: real time    0.0301
    MIXING:  cpu time    0.0020: real time    0.0012
    --------------------------------------------
      LOOP:  cpu time    0.4879: real time    0.4904

 eigenvalue-minimisations  :   895
 total energy-change (2. order) :-0.3016335E-04  (-0.5029017E-04)
 number of electron      32.0000025 magnetization 
 augmentation part        3.4117023 magnetization 

 Broyden mixing:
  rms(total) = 0.18010E-02    rms(broyden)= 0.18010E-02
  rms(prec ) = 0.43956E-02
  weight for this iteration     100.00

 eigenvalues of (default mixing * dielectric matrix)
  average eigenvalue GAMMA=   1.5531
  3.0848  3.0848  2.4610  1.2269  1.2269  0.9329  0.9329  1.0054  0.8510  0.7249

 Free energy of the ion-electron system (eV)
  ---------------------------------------------------
  alpha Z        PSCENC =       185.39985751
  Ewald energy   TEWEN  =     -1934.07799583
  -Hartree energ DENC   =      -441.33774751
  -exchange      EXHF   =         0.00000000
  -V(xc)+E(xc)   XCENC  =        86.19416915
  PAW double counting   =      1561.10033565    -1518.75770374
  entropy T*S    EENTRO =         0.00000000
  eigenvalues    EBANDS =      -212.59949765
  atomic energy  EATOM  =      2234.36736180
  Solvation  Ediel_sol  =         0.00000000
  ---------------------------------------------------
  free energy    TOTEN  =       -39.71122062 eV

  energy without entropy =      -39.71122062  energy(sigma->0) =      -39.71122062


--------------------------------------------------------------------------------------------------------




--------------------------------------- Iteration      1(  16)  ---------------------------------------


    POTLOK:  cpu time    0.0260: real time    0.0269
    SETDIJ:  cpu time    0.0060: real time    0.0055
    EDDIAG:  cpu time    0.0770: real time    0.0769
  RMM-DIIS:  cpu time    0.3140: real time    0.3142
    ORTHCH:  cpu time    0.0090: real time    0.0089
 BZINTS: Fermi energy:  2.562360; 32.000000 electrons
         Band energy:-212.630063;  BLOECHL correction:  0.000000
       DOS:  cpu time    0.0010: real time    0.0009
    CHARGE:  cpu time    0.0300: real time    0.0301
    MIXING:  cpu time    0.0010: real time    0.0013
    --------------------------------------------
      LOOP:  cpu time    0.4639: real time    0.4647

 eigenvalue-minimisations  :   857
 total energy-change (2. order) :-0.1447000E-05  (-0.1319139E-04)
 number of electron      32.0000025 magnetization 
 augmentation part        3.4124054 magnetization 

 Broyden mixing:
  rms(total) = 0.60519E-03    rms(broyden)= 0.60519E-03
  rms(prec ) = 0.13664E-02
  weight for this iteration     100.00

 eigenvalues of (default mixing * dielectric matrix)
  average eigenvalue GAMMA=   1.5295
  3.0135  2.6990  2.6990  1.2093  1.2093  1.2421  1.2421  0.9788  0.9788  0.7760
  0.7760

 Free energy of the ion-electron system (eV)
  ---------------------------------------------------
  alpha Z        PSCENC =       185.39985751
  Ewald energy   TEWEN  =     -1934.07799583
  -Hartree energ DENC   =      -441.33008099
  -exchange      EXHF   =         0.00000000
  -V(xc)+E(xc)   XCENC  =        86.19413645
  PAW double counting   =      1561.00299515    -1518.63743325
  entropy T*S    EENTRO =         0.00000000
  eigenvalues    EBANDS =      -212.63006290
  atomic energy  EATOM  =      2234.36736180
  Solvation  Ediel_sol  =         0.00000000
  ---------------------------------------------------
  free energy    TOTEN  =       -39.71122207 eV

  energy without entropy =      -39.71122207  energy(sigma->0) =      -39.71122207


--------------------------------------------------------------------------------------------------------




--------------------------------------- Iteration      1(  17)  ---------------------------------------


    POTLOK:  cpu time    0.0260: real time    0.0263
    SETDIJ:  cpu time    0.0060: real time    0.0055
    EDDIAG:  cpu time    0.0770: real time    0.0772
  RMM-DIIS:  cpu time    0.2560: real time    0.2554
    ORTHCH:  cpu time    0.0080: real time    0.0089
 BZINTS: Fermi energy:  2.564332; 32.000000 electrons
         Band energy:-212.602257;  BLOECHL correction:  0.000000
       DOS:  cpu time    0.0000: real time    0.0009
    --------------------------------------------
      LOOP:  cpu time    0.3729: real time    0.3742

 eigenvalue-minimisations  :   695
 total energy-change (2. order) :-0.5518099E-05  (-0.5000907E-05)
 number of electron      32.0000025 magnetization 
 augmentation part        3.4124054 magnetization 

 Free energy of the ion-electron system (eV)
  ---------------------------------------------------
  alpha Z        PSCENC =       185.39985751
  Ewald energy   TEWEN  =     -1934.07799583
  -Hartree energ DENC   =      -441.36348457
  -exchange      EXHF   =         0.00000000
  -V(xc)+E(xc)   XCENC  =        86.19627629
  PAW double counting   =      1561.10118733    -1518.73217288
  entropy T*S    EENTRO =         0.00000000
  eigenvalues    EBANDS =      -212.60225724
  atomic energy  EATOM  =      2234.36736180
  Solvation  Ediel_sol  =         0.00000000
  ---------------------------------------------------
  free energy    TOTEN  =       -39.71122758 eV

  energy without entropy =      -39.71122758  energy(sigma->0) =      -39.71122758


--------------------------------------------------------------------------------------------------------




 average (electrostatic) potential at core
  the test charge radii are     1.1929  1.2598  0.7215
  (the norm of the test charge is              1.0000)
       1 -36.1364       2 -26.7979       3 -71.0628       4 -71.0628       5 -71.0628
 
 
 
 E-fermi :   2.5643     XC(G=0): -11.1504     alpha+bet :-12.6354


 k-point     1 :       0.0000    0.0000    0.0000
  band No.  band energies     occupation 
      1     -30.0825      2.00000
      2     -14.8191      2.00000
      3     -13.8124      2.00000
      4     -13.8124      2.00000
      5     -12.1469      2.00000
      6     -12.1469      2.00000
      7     -12.1469      2.00000
      8      -0.2145      2.00000
      9      -0.2145      2.00000
     10      -0.2145      2.00000
     11       1.4737      2.00000
     12       1.4737      2.00000
     13       1.4737      2.00000
     14       2.3133      2.00000
     15       2.3133      2.00000
     16       2.3133      2.00000
     17       4.3422      0.00000
     18       4.3422      0.00000
     19       4.3422      0.00000
     20       8.0353      0.00000

 k-point     2 :       0.1429    0.0000    0.0000
  band No.  band energies     occupation 
      1     -30.0781      2.00000
      2     -14.8317      2.00000
      3     -13.8346      2.00000
      4     -13.8048      2.00000
      5     -12.1378      2.00000
      6     -12.1378      2.00000
      7     -12.0120      2.00000
      8      -0.4789      2.00000
      9      -0.2279      2.00000
     10      -0.2279      2.00000
     11       1.2047      2.00000
     12       1.2047      2.00000
     13       1.2970      2.00000
     14       1.7113      2.00000
     15       2.1872      2.00000
     16       2.1872      2.00000
     17       4.3711      0.00000
     18       4.7916      0.00000
     19       4.7916      0.00000
     20       8.4827      0.00000

 k-point     3 :       0.2857    0.0000    0.0000
  band No.  band energies     occupation 
      1     -30.0681      2.00000
      2     -14.9169      2.00000
      3     -13.7877      2.00000
      4     -13.7687      2.00000
      5     -12.1172      2.00000
      6     -12.1172      2.00000
      7     -11.7575      2.00000
      8      -1.1030      2.00000
      9      -0.2473      2.00000
     10      -0.2473      2.00000
     11       0.6864      2.00000
     12       0.6864      2.00000
     13       0.7692      2.00000
     14       0.9439      2.00000
     15       2.0284      2.00000
     16       2.0284      2.00000
     17       4.4378      0.00000
     18       5.6016      0.00000
     19       5.6016      0.00000
     20       9.2675      0.00000

 k-point     4 :       0.4286    0.0000    0.0000
  band No.  band energies     occupation 
      1     -30.0601      2.00000
      2     -15.0180      2.00000
      3     -13.7739      2.00000
      4     -13.6390      2.00000
      5     -12.1006      2.00000
      6     -12.1006      2.00000
      7     -11.5861      2.00000
      8      -1.6341      2.00000
      9      -0.2360      2.00000
     10      -0.2360      2.00000
     11       0.2342      2.00000
     12       0.3134      2.00000
     13       0.3134      2.00000
     14       0.6930      2.00000
     15       1.9388      2.00000
     16       1.9388      2.00000
     17       4.4933      0.00000
     18       6.1671      0.00000
     19       6.1671      0.00000
     20       9.8473      0.00000

 k-point     5 :       0.1429    0.1429    0.0000
  band No.  band energies     occupation 
      1     -30.0738      2.00000
      2     -14.8179      2.00000
      3     -13.8688      2.00000
      4     -13.7987      2.00000
      5     -12.1284      2.00000
      6     -12.0642      2.00000
      7     -11.9668      2.00000
      8      -0.6408      2.00000
      9      -0.3463      2.00000
     10      -0.2397      2.00000
     11       0.6687      2.00000
     12       1.0014      2.00000
     13       1.4776      2.00000
     14       1.5323      2.00000
     15       1.8723      2.00000
     16       2.0064      2.00000
     17       4.7579      0.00000
     18       4.8619      0.00000
     19       5.0422      0.00000
     20       8.6896      0.00000

 k-point     6 :       0.2857    0.1429    0.0000
  band No.  band energies     occupation 
      1     -30.0641      2.00000
      2     -14.8474      2.00000
      3     -13.8601      2.00000
      4     -13.7598      2.00000
      5     -12.1072      2.00000
      6     -12.0314      2.00000
      7     -11.7733      2.00000
      8      -1.1573      2.00000
      9      -0.5131      2.00000
     10      -0.2558      2.00000
     11      -0.0020      2.00000
     12       0.5598      2.00000
     13       0.8967      2.00000
     14       1.4559      2.00000
     15       1.6914      2.00000
     16       1.7827      2.00000
     17       4.8504      0.00000
     18       5.6120      0.00000
     19       5.6674      0.00000
     20       9.3872      0.00000

 k-point     7 :       0.4286    0.1429    0.0000
  band No.  band energies     occupation 
      1     -30.0564      2.00000
      2     -14.9180      2.00000
      3     -13.7750      2.00000
      4     -13.7218      2.00000
      5     -12.0901      2.00000
      6     -12.0203      2.00000
      7     -11.6296      2.00000
      8      -1.6484      2.00000
      9      -0.6990      2.00000
     10      -0.3596      2.00000
     11      -0.2391      2.00000
     12       0.2128      2.00000
     13       0.5946      2.00000
     14       1.3930      2.00000
     15       1.5402      2.00000
     16       1.6690      2.00000
     17       4.8928      0.00000
     18       6.1680      0.00000
     19       6.1886      0.00000
     20      10.0312      0.00000

 k-point     8 :       0.2857    0.2857    0.0000
  band No.  band energies     occupation 
      1     -30.0552      2.00000
      2     -14.7114      2.00000
      3     -13.9780      2.00000
      4     -13.7285      2.00000
      5     -12.0846      2.00000
      6     -11.8921      2.00000
      7     -11.7800      2.00000
      8      -1.3911      2.00000
      9      -0.9257      2.00000
     10      -0.7802      2.00000
     11      -0.2684      2.00000
     12       0.2629      2.00000
     13       0.8636      2.00000
     14       1.2125      2.00000
     15       1.4238      2.00000
     16       2.0039      2.00000
     17       5.5629      0.00000
     18       5.6870      0.00000
     19       5.9795      0.00000
     20       9.9199      0.00000

 k-point     9 :       0.4286    0.2857    0.0000
  band No.  band energies     occupation 
      1     -30.0479      2.00000
      2     -14.6553      2.00000
      3     -13.9383      2.00000
      4     -13.7616      2.00000
      5     -12.0663      2.00000
      6     -11.8655      2.00000
      7     -11.7109      2.00000
      8      -1.7032      2.00000
      9      -1.4457      2.00000
     10      -0.9970      2.00000
     11      -0.2481      2.00000
     12      -0.0061      2.00000
     13       0.8274      2.00000
     14       1.1388      2.00000
     15       1.2323      2.00000
     16       2.1256      2.00000
     17       5.6397      0.00000
     18       6.1717      0.00000
     19       6.3533      0.00000
     20      10.4233      0.00000

 k-point    10 :       0.4286    0.4286    0.0000
  band No.  band energies     occupation 
      1     -30.0411      2.00000
      2     -14.3552      2.00000
      3     -14.0526      2.00000
      4     -13.8918      2.00000
      5     -12.0470      2.00000
      6     -11.7620      2.00000
      7     -11.7473      2.00000
      8      -1.9215      2.00000
      9      -1.7935      2.00000
     10      -1.4990      2.00000
     11      -0.2503      2.00000
     12      -0.1839      2.00000
     13       0.9713      2.00000
     14       1.0052      2.00000
     15       1.0843      2.00000
     16       2.4499      2.00000
     17       6.1632      0.00000
     18       6.1848      0.00000
     19       6.6015      0.00000
     20      10.5842      0.00000

 k-point    11 :       0.1429    0.1429    0.1429
  band No.  band energies     occupation 
      1     -30.0696      2.00000
      2     -14.7880      2.00000
      3     -13.8458      2.00000
      4     -13.8458      2.00000
      5     -12.0803      2.00000
      6     -12.0803      2.00000
      7     -11.9041      2.00000
      8      -0.8077      2.00000
      9      -0.3519      2.00000
     10      -0.3519      2.00000
     11       0.5638      2.00000
     12       0.5638      2.00000
     13       1.1604      2.00000
     14       1.6706      2.00000
     15       1.8169      2.00000
     16       1.8169      2.00000
     17       5.0077      0.00000
     18       5.0999      0.00000
     19       5.0999      0.00000
     20       8.9843      0.00000

 k-point    12 :       0.2857    0.1429    0.1429
  band No.  band energies     occupation 
      1     -30.0602      2.00000
      2     -14.7758      2.00000
      3     -13.8573      2.00000
      4     -13.7917      2.00000
      5     -12.1189      2.00000
      6     -11.9947      2.00000
      7     -11.7704      2.00000
      8      -1.2245      2.00000
      9      -0.6279      2.00000
     10      -0.3664      2.00000
     11      -0.0167      2.00000
     12       0.0396      2.00000
     13       0.8836      2.00000
     14       1.5598      2.00000
     15       1.6505      2.00000
     16       1.6868      2.00000
     17       5.1225      0.00000
     18       5.6910      0.00000
     19       5.6982      0.00000
     20       9.6876      0.00000

 k-point    13 :       0.4286    0.1429    0.1429
  band No.  band energies     occupation 
      1     -30.0527      2.00000
      2     -14.8186      2.00000
      3     -13.7821      2.00000
      4     -13.7459      2.00000
      5     -12.1527      2.00000
      6     -11.9313      2.00000
      7     -11.6788      2.00000
      8      -1.6602      2.00000
      9      -0.8533      2.00000
     10      -0.4530      2.00000
     11      -0.3940      2.00000
     12      -0.2358      2.00000
     13       0.9708      2.00000
     14       1.3042      2.00000
     15       1.5126      2.00000
     16       1.5995      2.00000
     17       5.1715      0.00000
     18       6.1984      0.00000
     19       6.2144      0.00000
     20      10.2110      0.00000

 k-point    14 :       0.2857    0.2857    0.1429
  band No.  band energies     occupation 
      1     -30.0514      2.00000
      2     -14.6309      2.00000
      3     -13.9279      2.00000
      4     -13.7489      2.00000
      5     -12.1238      2.00000
      6     -11.9571      2.00000
      7     -11.7522      2.00000
      8      -1.4334      2.00000
      9      -0.9209      2.00000
     10      -0.7203      2.00000
     11      -0.4885      2.00000
     12      -0.1053      2.00000
     13       0.4427      2.00000
     14       1.4947      2.00000
     15       1.5551      2.00000
     16       2.0133      2.00000
     17       5.6967      0.00000
     18       5.7924      0.00000
     19       6.0176      0.00000
     20      10.0726      0.00000

 k-point    15 :       0.4286    0.2857    0.1429
  band No.  band energies     occupation 
      1     -30.0443      2.00000
      2     -14.5583      2.00000
      3     -13.9030      2.00000
      4     -13.7325      2.00000
      5     -12.1606      2.00000
      6     -11.8740      2.00000
      7     -11.7658      2.00000
      8      -1.7007      2.00000
      9      -1.3783      2.00000
     10      -0.9872      2.00000
     11      -0.5092      2.00000
     12      -0.3634      2.00000
     13       0.4658      2.00000
     14       1.3892      2.00000
     15       1.4874      2.00000
     16       2.1351      2.00000
     17       5.7832      0.00000
     18       6.2438      0.00000
     19       6.3886      0.00000
     20      10.5989      0.00000

 k-point    16 :       0.4286    0.4286    0.1429
  band No.  band energies     occupation 
      1     -30.0376      2.00000
      2     -14.2611      2.00000
      3     -13.9860      2.00000
      4     -13.8303      2.00000
      5     -12.1300      2.00000
      6     -11.8611      2.00000
      7     -11.8188      2.00000
      8      -1.8262      2.00000
      9      -1.7295      2.00000
     10      -1.4952      2.00000
     11      -0.5243      2.00000
     12      -0.4662      2.00000
     13       0.3298      2.00000
     14       1.4285      2.00000
     15       1.4725      2.00000
     16       2.4643      2.00000
     17       6.2606      0.00000
     18       6.2807      0.00000
     19       6.6404      0.00000
     20      10.4821      0.00000

 k-point    17 :       0.2857    0.2857    0.2857
  band No.  band energies     occupation 
      1     -30.0430      2.00000
      2     -14.4481      2.00000
      3     -13.8014      2.00000
      4     -13.8014      2.00000
      5     -12.1172      2.00000
      6     -12.1172      2.00000
      7     -11.7688      2.00000
      8      -1.5236      2.00000
      9      -0.9093      2.00000
     10      -0.9093      2.00000
     11      -0.5697      2.00000
     12      -0.5697      2.00000
     13      -0.5462      2.00000
     14       1.8019      2.00000
     15       1.8019      2.00000
     16       2.1424      2.00000
     17       6.0685      0.00000
     18       6.1169      0.00000
     19       6.1169      0.00000
     20      10.3959      0.00000

 k-point    18 :       0.4286    0.2857    0.2857
  band No.  band energies     occupation 
      1     -30.0362      2.00000
      2     -14.3081      2.00000
      3     -13.8376      2.00000
      4     -13.6798      2.00000
      5     -12.2660      2.00000
      6     -12.0115      2.00000
      7     -11.8694      2.00000
      8      -1.7018      2.00000
      9      -1.3114      2.00000
     10      -1.0029      2.00000
     11      -0.8978      2.00000
     12      -0.8260      2.00000
     13      -0.4371      2.00000
     14       1.8323      2.00000
     15       1.9662      2.00000
     16       2.2452      2.00000
     17       6.1654      0.00000
     18       6.4553      0.00000
     19       6.4798      0.00000
     20      10.5828      0.00000

 k-point    19 :       0.4286    0.4286    0.2857
  band No.  band energies     occupation 
      1     -30.0297      2.00000
      2     -14.0256      2.00000
      3     -13.8103      2.00000
      4     -13.6922      2.00000
      5     -12.2869      2.00000
      6     -12.1090      2.00000
      7     -12.0150      2.00000
      8      -1.7939      2.00000
      9      -1.4864      2.00000
     10      -1.4154      2.00000
     11      -0.9426      2.00000
     12      -0.8522      2.00000
     13      -0.7474      2.00000
     14       2.0556      2.00000
     15       2.0918      2.00000
     16       2.5009      2.00000
     17       6.5246      0.00000
     18       6.5366      0.00000
     19       6.7295      0.00000
     20      10.0632      0.00000

 k-point    20 :       0.4286    0.4286    0.4286
  band No.  band energies     occupation 
      1     -30.0234      2.00000
      2     -13.7683      2.00000
      3     -13.6240      2.00000
      4     -13.6240      2.00000
      5     -12.3523      2.00000
      6     -12.3523      2.00000
      7     -12.2389      2.00000
      8      -1.8822      2.00000
      9      -1.4785      2.00000
     10      -1.4785      2.00000
     11      -1.1768      2.00000
     12      -1.0690      2.00000
     13      -1.0690      2.00000
     14       2.4682      2.00000
     15       2.4682      2.00000
     16       2.5558      2.00000
     17       6.8063      0.00000
     18       9.7794      0.00000
     19       9.8130      0.00000
     20       9.8322      0.00000


--------------------------------------------------------------------------------------------------------


 soft charge-density along one line, spin component           1
         0         1         2         3         4         5         6         7         8         9
 total charge-density along one line
 
 pseudopotential strength for first ion, spin component:           1
-11.345  -7.403  -0.000  -0.000  -0.000   0.000   0.000   0.000
 -7.403  -5.734  -0.000  -0.000  -0.000   0.000   0.000   0.000
 -0.000  -0.000 -14.872  -0.000   0.000   0.103   0.000  -0.000
 -0.000  -0.000  -0.000 -14.872   0.000   0.000   0.103  -0.000
 -0.000  -0.000   0.000   0.000 -14.872  -0.000  -0.000   0.103
  0.000   0.000   0.103   0.000  -0.000   0.037   0.000  -0.000
  0.000   0.000   0.000   0.103  -0.000   0.000   0.037  -0.000
  0.000   0.000  -0.000  -0.000   0.103  -0.000  -0.000   0.037
  0.000   0.000  -0.000   0.000  -0.000   0.000  -0.000   0.000
 -0.000  -0.000  -0.000  -0.000   0.000   0.000   0.000  -0.000
  0.000   0.000   0.000  -0.000   0.000  -0.000   0.000  -0.000
  0.000   0.000   0.000  -0.000  -0.000  -0.000   0.000   0.000
  0.000   0.000   0.000  -0.000  -0.000  -0.000   0.000   0.000
  0.000   0.000  -0.000   0.000  -0.000  -0.000   0.000  -0.000
 -0.000  -0.000  -0.000  -0.000   0.000  -0.000  -0.000   0.000
  0.000   0.000   0.000  -0.000   0.000   0.000   0.000   0.000
  0.000   0.000   0.000  -0.000  -0.000   0.000  -0.000  -0.000
  0.000   0.000   0.000  -0.000  -0.000  -0.000  -0.000  -0.000
 total augmentation occupancy for first ion, spin component:           1
  2.105  -0.226   0.000   0.000   0.000   0.000   0.000   0.000  -0.000   0.000   0.000  -0.000  -0.000  -0.000   0.000   0.000
 -0.226   0.472   0.000   0.000   0.000   0.000   0.000   0.000  -0.000  -0.000   0.000   0.000  -0.000   0.000  -0.000   0.000
  0.000   0.000   2.025   0.000   0.000   0.073   0.000  -0.000   0.000   0.000   0.000   0.000   0.000   0.000   0.000   0.000
  0.000   0.000   0.000   2.025  -0.000  -0.000   0.073  -0.000   0.000   0.000   0.000   0.000   0.000   0.000   0.000   0.000
  0.000   0.000   0.000  -0.000   2.025  -0.000   0.000   0.073   0.000   0.000   0.000   0.000   0.000   0.000   0.000   0.000
  0.000   0.000   0.073   0.000   0.000   0.298  -0.000  -0.000   0.000   0.000   0.000   0.000   0.000   0.000   0.000   0.000
  0.000   0.000   0.000   0.073   0.000  -0.000   0.298   0.000   0.000   0.000   0.000   0.000   0.000   0.000   0.000   0.000
  0.000   0.000   0.000  -0.000   0.073  -0.000   0.000   0.298   0.000   0.000   0.000   0.000   0.000   0.000   0.000   0.000
 -0.000  -0.000   0.000   0.000   0.000   0.000   0.000   0.000   0.094  -0.000   0.000  -0.000   0.000  -0.424  -0.000   0.000
  0.000  -0.000   0.000   0.000   0.000   0.000   0.000   0.000  -0.000   0.094  -0.000   0.000  -0.000   0.000  -0.424  -0.000
  0.000   0.000   0.000   0.000   0.000   0.000   0.000   0.000   0.000   0.000   0.063   0.000   0.000   0.000   0.000  -0.275
  0.000   0.000   0.000   0.000   0.000   0.000   0.000   0.000  -0.000   0.000  -0.000   0.094   0.000   0.000  -0.000  -0.000
 -0.000  -0.000   0.000   0.000   0.000   0.000   0.000   0.000  -0.000  -0.000   0.000   0.000   0.063   0.000  -0.000   0.000
  0.000  -0.000   0.000   0.000   0.000   0.000   0.000   0.000  -0.424   0.000   0.000   0.000  -0.000   2.030   0.000   0.000
 -0.000  -0.000   0.000   0.000   0.000   0.000   0.000   0.000   0.000  -0.424  -0.000  -0.000  -0.000  -0.000   2.030   0.000
  0.000   0.000   0.000   0.000   0.000   0.000   0.000   0.000  -0.000   0.000  -0.275   0.000   0.000   0.000   0.000   1.268
 -0.000   0.000   0.000   0.000   0.000   0.000   0.000   0.000   0.000   0.000  -0.000  -0.424   0.000  -0.000   0.000   0.000
  0.000   0.000   0.000   0.000   0.000   0.000   0.000   0.000   0.000  -0.000  -0.000   0.000  -0.275   0.000   0.000   0.000


------------------------ aborting loop because EDIFF is reached ----------------------------------------


    CHARGE:  cpu time    0.0300: real time    0.0305
    FORLOC:  cpu time    0.0030: real time    0.0032
    FORNL :  cpu time    0.0990: real time    0.0985
    STRESS:  cpu time    0.3709: real time    0.3712
    FORCOR:  cpu time    0.0270: real time    0.0270
    FORHAR:  cpu time    0.0070: real time    0.0069
    MIXING:  cpu time    0.0010: real time    0.0013
    OFIELD:  cpu time    0.0000: real time    0.0000

  FORCE on cell =-STRESS in cart. coord.  units (eV):
  Direction    XX          YY          ZZ          XY          YZ          ZX
  --------------------------------------------------------------------------------------
  Alpha Z   185.39986   185.39986   185.39986
  Ewald    -644.69310  -644.69310  -644.69310     0.00000    -0.00000    -0.00000
  Hartree   147.10054   147.10054   147.10054    -0.00000    -0.00000    -0.00000
  E(xc)    -145.39566  -145.39566  -145.39566    -0.00000    -0.00000    -0.00000
  Local      -9.96316    -9.96316    -9.96316    -0.00000     0.00000    -0.00000
  n-local  -123.25646  -119.07319  -114.63851    -0.47457    -0.41130    -0.30100
  augment    28.88462    28.88462    28.88462     0.00000    -0.00000     0.00000
  Kinetic   550.38949   562.55349   566.96189    -2.56447    -2.75918    -1.78197
  Fock        0.00000     0.00000     0.00000     0.00000     0.00000     0.00000
  -------------------------------------------------------------------------------------
  Total       2.31200     2.31200     2.31200     0.00000     0.00000    -0.00000
  in kB      62.19367    62.19367    62.19367     0.00000     0.00000    -0.00000
  external pressure =       62.19 kB  Pullay stress =        0.00 kB


 VOLUME and BASIS-vectors are now :
 -----------------------------------------------------------------------------
  energy-cutoff  :      750.00
  volume of cell :       59.56
      direct lattice vectors                 reciprocal lattice vectors
     3.905268000  0.000000000  0.000000000     0.256064373  0.000000000  0.000000000
     0.000000000  3.905268000  0.000000000     0.000000000  0.256064373  0.000000000
     0.000000000  0.000000000  3.905268000     0.000000000  0.000000000  0.256064373

  length of vectors
     3.905268000  3.905268000  3.905268000     0.256064373  0.256064373  0.256064373


 FORCES acting on ions
    electron-ion (+dipol)            ewald-force                    non-local-force                 convergence-correction
 -----------------------------------------------------------------------------------------------
   -.421E-14 -.375E-14 -.404E-14   -.987E-14 0.226E-14 -.502E-14   0.000E+00 0.000E+00 0.000E+00   -.202E-13 0.226E-14 0.739E-14
   0.877E-14 -.320E-12 0.264E-12   0.387E-14 0.424E-14 -.122E-14   0.000E+00 0.000E+00 0.000E+00   0.607E-14 -.141E-14 -.420E-14
   0.152E-12 0.173E-11 0.110E-11   0.648E-14 0.208E-14 -.144E-14   0.000E+00 0.000E+00 0.000E+00   0.164E-13 -.998E-15 -.201E-14
   0.152E-12 -.728E-14 0.367E-11   0.284E-14 -.378E-14 0.434E-14   0.000E+00 0.000E+00 0.000E+00   0.200E-13 0.261E-14 -.218E-13
   -.954E-14 0.154E-12 0.151E-12   -.327E-14 -.425E-14 0.433E-14   0.000E+00 0.000E+00 0.000E+00   -.130E-13 -.276E-14 -.218E-13
 -----------------------------------------------------------------------------------------------
   0.299E-12 0.155E-11 0.518E-11   0.432E-16 0.547E-15 0.100E-14   0.000E+00 0.000E+00 0.000E+00   0.921E-14 -.295E-15 -.423E-13
 
 
 POSITION                                       TOTAL-FORCE (eV/Angst)
 -----------------------------------------------------------------------------------
      0.00000      0.00000      0.00000         0.000000      0.000000      0.000000
      1.95263      1.95263      1.95263         0.000000      0.000000      0.000000
      1.95263      1.95263      0.00000         0.000000      0.000000      0.000000
      1.95263      0.00000      1.95263         0.000000      0.000000      0.000000
      0.00000      1.95263      1.95263         0.000000      0.000000      0.000000
 -----------------------------------------------------------------------------------
    total drift:                                0.000000      0.000000      0.000000


--------------------------------------------------------------------------------------------------------



  FREE ENERGIE OF THE ION-ELECTRON SYSTEM (eV)
  ---------------------------------------------------
  free  energy   TOTEN  =       -39.71122758 eV

  energy  without entropy=      -39.71122758  energy(sigma->0) =      -39.71122758
 


--------------------------------------------------------------------------------------------------------


    POTLOK:  cpu time    0.0310: real time    0.0308


--------------------------------------------------------------------------------------------------------


     LOOP+:  cpu time    9.1296: real time    9.5384
    4ORBIT:  cpu time    0.0000: real time    0.0000
 BZINTS: Fermi energy:  2.564332; 32.000000 electrons
         Band energy:-212.602257;  BLOECHL correction:  0.000000

 total amount of memory used by VASP MPI-rank0    51961. kBytes
=======================================================================

   base      :      30000. kBytes
   nonl-proj :      12155. kBytes
   fftplans  :       1861. kBytes
   grid      :       3330. kBytes
   one-center:         46. kBytes
   wavefun   :       4569. kBytes
 
  
  
 General timing and accounting informations for this job:
 ========================================================
  
                  Total CPU time used (sec):       10.004
                            User time (sec):        9.852
                          System time (sec):        0.153
                         Elapsed time (sec):       11.140
  
                   Maximum memory used (kb):       53180.
                   Average memory used (kb):           0.
  
                          Minor page faults:        16958
                          Major page faults:          100
                 Voluntary context switches:         2767
