Starting job 28513897 ("jobname") on c18-1 at Wed Nov 6 13:12:13 CET 2019
 running on    4 total cores
 distrk:  each k-point on    4 cores,    1 groups
 distr:  one band on    2 cores,    2 groups
 using from now: INCAR     
 vasp.5.4.4.18Apr17-6-g9f103f2a35 (build Jun 30 2017 11:15:00) complex          
  
 POSCAR found type information on POSCAR  Sr Ti O 
 POSCAR found :  3 types and       5 ions
 scaLAPACK will be used
 WARNING: PSMAXN for non-local potential too small
 LDA part: xc-table for Pade appr. of Perdew
 POSCAR, INCAR and KPOINTS ok, starting setup
 FFT: planning ...
 WAVECAR not read
 entering main loop
       N       E                     dE             d eps       ncg     rms          rms(c)
DAV:   1     0.366244600685E+03    0.36624E+03   -0.19780E+04   800   0.215E+03
DAV:   2    -0.122995220250E+02   -0.37854E+03   -0.36605E+03  1064   0.422E+02
DAV:   3    -0.488119006484E+02   -0.36512E+02   -0.36134E+02   984   0.144E+02
DAV:   4    -0.502161535757E+02   -0.14043E+01   -0.14022E+01  1308   0.258E+01
DAV:   5    -0.502461639321E+02   -0.30010E-01   -0.29991E-01  1068   0.317E+00    0.182E+01
RMM:   6    -0.404216953090E+02    0.98245E+01   -0.58582E+01   864   0.445E+01    0.625E+00
RMM:   7    -0.398143518912E+02    0.60734E+00   -0.15303E+00   957   0.102E+01    0.322E+00
RMM:   8    -0.397300754423E+02    0.84276E-01   -0.94169E-01   961   0.766E+00    0.831E-01
RMM:   9    -0.397160393881E+02    0.14036E-01   -0.58397E-02  1101   0.195E+00    0.577E-01
RMM:  10    -0.397128723924E+02    0.31670E-02   -0.13098E-01   963   0.209E+00    0.323E-01
RMM:  11    -0.397107370167E+02    0.21354E-02   -0.13057E-02  1059   0.680E-01    0.874E-02
RMM:  12    -0.397116835625E+02   -0.94655E-03   -0.10225E-02  1066   0.541E-01    0.180E-01
RMM:  13    -0.397112725074E+02    0.41106E-03   -0.74072E-03  1025   0.467E-01    0.731E-02
RMM:  14    -0.397111904563E+02    0.82051E-04   -0.15860E-03   975   0.230E-01    0.260E-02
RMM:  15    -0.397112206196E+02   -0.30163E-04   -0.50290E-04   895   0.674E-02    0.180E-02
RMM:  16    -0.397112220666E+02   -0.14470E-05   -0.13191E-04   857   0.578E-02    0.605E-03
RMM:  17    -0.397112275847E+02   -0.55181E-05   -0.50009E-05   695   0.349E-02
   1 F= -.39711228E+02 E0= -.39711228E+02  d E =0.000000E+00

Currently Loaded Modulefiles:
  1) intel/2017.4         2) perf-reports/7.0.6

Job script resource usage:
       JobID  MaxVMSize     MaxRSS 
------------ ---------- ---------- 
28513897.ba+    216884K      2558K 

Job step resource usage:
       JobID    JobName  AllocCPUS  MaxVMSize     MaxRSS    Elapsed ExitCode 
------------ ---------- ---------- ---------- ---------- ---------- -------- 
28513897        jobname          4                         00:00:15      0:0 
28513897.0    pmi_proxy          1    279832K       517K   00:00:12      0:0 

Job 28513897 ("jobname") completed on c18-1 at Wed Nov 6 13:12:25 CET 2019
