<?xml version="1.0" encoding="ISO-8859-1"?>
<modeling>
 <generator>
  <i name="program" type="string">vasp </i>
  <i name="version" type="string">5.4.4.18Apr17-6-g9f103f2a35  </i>
  <i name="subversion" type="string">(build Jun 30 2017 11:15:00) complex            parallel </i>
  <i name="platform" type="string">STALLO_VASP_5.4.4 </i>
  <i name="date" type="string">2019 11 06 </i>
  <i name="time" type="string">13:12:14 </i>
 </generator>
 <incar>
  <i type="string" name="PREC">normal    ! low/normal/accurate</i>
  <i type="string" name="ALGO"> Fast      ! Algorithm for electronic re</i>
  <i type="int" name="ISPIN">     1</i>
  <i type="int" name="NELMIN">     4</i>
  <i name="EDIFF">      0.00001000</i>
  <i type="int" name="NSW">     0</i>
  <i name="ENCUT">    750.00000000</i>
  <i type="logical" name="LREAL"> F  </i>
  <i type="int" name="ISMEAR">    -5</i>
  <i name="SIGMA">      0.20000000</i>
  <i type="logical" name="LWAVE"> F  </i>
  <v type="int" name="KPOINT_BSE">    -1     0     0     0</v>
 </incar>
 <structure name="primitive_cell" >
  <crystal>
   <varray name="basis" >
    <v>       3.90526800       0.00000000       0.00000000 </v>
    <v>       0.00000000       3.90526800       0.00000000 </v>
    <v>       0.00000000       0.00000000       3.90526800 </v>
   </varray>
   <i name="volume">     59.55970368 </i>
   <varray name="rec_basis" >
    <v>       0.25606437       0.00000000       0.00000000 </v>
    <v>       0.00000000       0.25606437       0.00000000 </v>
    <v>       0.00000000       0.00000000       0.25606437 </v>
   </varray>
  </crystal>
  <varray name="positions" >
   <v>       0.00000000       0.00000000       0.00000000 </v>
   <v>      -0.50000000      -0.50000000       0.00000000 </v>
   <v>      -0.50000000       0.00000000      -0.50000000 </v>
   <v>       0.00000000      -0.50000000      -0.50000000 </v>
   <v>      -0.50000000      -0.50000000      -0.50000000 </v>
  </varray>
 </structure>
 <varray name="primitive_index" >
  <v type="int" >        1 </v>
  <v type="int" >        3 </v>
  <v type="int" >        4 </v>
  <v type="int" >        5 </v>
  <v type="int" >        2 </v>
 </varray>
 <kpoints>
  <generation param="Gamma">
   <v type="int" name="divisions">       7        7        7 </v>
   <v name="usershift">      0.00000000       0.00000000       0.00000000 </v>
   <v name="genvec1">      0.14285714       0.00000000       0.00000000 </v>
   <v name="genvec2">      0.00000000       0.14285714       0.00000000 </v>
   <v name="genvec3">      0.00000000       0.00000000       0.14285714 </v>
   <v name="shift">      0.00000000       0.00000000       0.00000000 </v>
  </generation>
  <varray name="kpointlist" >
   <v>       0.00000000       0.00000000       0.00000000 </v>
   <v>       0.14285714       0.00000000       0.00000000 </v>
   <v>       0.28571429       0.00000000       0.00000000 </v>
   <v>       0.42857143       0.00000000       0.00000000 </v>
   <v>       0.14285714       0.14285714       0.00000000 </v>
   <v>       0.28571429       0.14285714       0.00000000 </v>
   <v>       0.42857143       0.14285714       0.00000000 </v>
   <v>       0.28571429       0.28571429       0.00000000 </v>
   <v>       0.42857143       0.28571429       0.00000000 </v>
   <v>       0.42857143       0.42857143       0.00000000 </v>
   <v>       0.14285714       0.14285714       0.14285714 </v>
   <v>       0.28571429       0.14285714       0.14285714 </v>
   <v>       0.42857143       0.14285714       0.14285714 </v>
   <v>       0.28571429       0.28571429       0.14285714 </v>
   <v>       0.42857143       0.28571429       0.14285714 </v>
   <v>       0.42857143       0.42857143       0.14285714 </v>
   <v>       0.28571429       0.28571429       0.28571429 </v>
   <v>       0.42857143       0.28571429       0.28571429 </v>
   <v>       0.42857143       0.42857143       0.28571429 </v>
   <v>       0.42857143       0.42857143       0.42857143 </v>
  </varray>
  <varray name="weights" >
   <v>       0.00291545 </v>
   <v>       0.01749271 </v>
   <v>       0.01749271 </v>
   <v>       0.01749271 </v>
   <v>       0.03498542 </v>
   <v>       0.06997085 </v>
   <v>       0.06997085 </v>
   <v>       0.03498542 </v>
   <v>       0.06997085 </v>
   <v>       0.03498542 </v>
   <v>       0.02332362 </v>
   <v>       0.06997085 </v>
   <v>       0.06997085 </v>
   <v>       0.06997085 </v>
   <v>       0.13994169 </v>
   <v>       0.06997085 </v>
   <v>       0.02332362 </v>
   <v>       0.06997085 </v>
   <v>       0.06997085 </v>
   <v>       0.02332362 </v>
  </varray>
  <varray name="tetrahedronlist"  type="int" >
   <v type="int" >       12        1        2        2        5 </v>
   <v type="int" >       12        2        2        5        5 </v>
   <v type="int" >       12        2        5        5       11 </v>
   <v type="int" >       12        2        3        5        6 </v>
   <v type="int" >       12        2        5        5        6 </v>
   <v type="int" >       12        5        5        6       11 </v>
   <v type="int" >       12        3        5        6        6 </v>
   <v type="int" >       24        5        6        6       12 </v>
   <v type="int" >       24        5        6       11       12 </v>
   <v type="int" >       12        3        4        6        7 </v>
   <v type="int" >       12        3        6        6        7 </v>
   <v type="int" >       12        6        6        7       12 </v>
   <v type="int" >       12        4        6        7        7 </v>
   <v type="int" >       12        6        7        7       13 </v>
   <v type="int" >       12        6        7       12       13 </v>
   <v type="int" >        6        4        4        7        7 </v>
   <v type="int" >       12        4        7        7        7 </v>
   <v type="int" >       12        7        7        7       13 </v>
   <v type="int" >        6        7        7       13       13 </v>
   <v type="int" >       12        5        6        8       11 </v>
   <v type="int" >       12        6        8       11       12 </v>
   <v type="int" >       12        8       11       12       14 </v>
   <v type="int" >       12        6        7        9       12 </v>
   <v type="int" >       12        6        8        9       12 </v>
   <v type="int" >       12        8        9       12       14 </v>
   <v type="int" >       12        7        9       12       13 </v>
   <v type="int" >       12        9       12       13       15 </v>
   <v type="int" >       12        9       12       14       15 </v>
   <v type="int" >       12        7        7        9       13 </v>
   <v type="int" >       12        7        9        9       13 </v>
   <v type="int" >       12        9        9       13       15 </v>
   <v type="int" >       12        7        9       13       13 </v>
   <v type="int" >       12        9       13       13       15 </v>
   <v type="int" >       12        9       13       15       15 </v>
   <v type="int" >       12        6        7        8       13 </v>
   <v type="int" >       12        7        8        9       13 </v>
   <v type="int" >       12        8        9       13       15 </v>
   <v type="int" >       12        6        8       12       13 </v>
   <v type="int" >       12        8       12       13       14 </v>
   <v type="int" >       12        8       13       14       15 </v>
   <v type="int" >       12        6        6        8       12 </v>
   <v type="int" >       12        6        8       12       14 </v>
   <v type="int" >       12        6       11       12       12 </v>
   <v type="int" >       12        6       12       12       14 </v>
   <v type="int" >       12        2        3        5       11 </v>
   <v type="int" >       12        3        5        6       11 </v>
   <v type="int" >       12        3        6       11       12 </v>
   <v type="int" >       12        8        9       10       14 </v>
   <v type="int" >       12        9       10       14       15 </v>
   <v type="int" >       12       10       14       15       16 </v>
   <v type="int" >       24        9        9       10       15 </v>
   <v type="int" >       12        9       10       10       15 </v>
   <v type="int" >       12       10       10       15       16 </v>
   <v type="int" >       12        9       10       15       15 </v>
   <v type="int" >       12       10       15       15       16 </v>
   <v type="int" >       12       10       15       16       16 </v>
   <v type="int" >       12        8        9        9       15 </v>
   <v type="int" >       12        9       10       15       16 </v>
   <v type="int" >       12        8        9       14       15 </v>
   <v type="int" >       12        9       14       15       15 </v>
   <v type="int" >       24        9       15       15       16 </v>
   <v type="int" >       12        6        7        8       14 </v>
   <v type="int" >       12        7        8        9       14 </v>
   <v type="int" >       12        7        9       14       15 </v>
   <v type="int" >       12        6        7       12       14 </v>
   <v type="int" >       12        7       12       13       14 </v>
   <v type="int" >       12        7       13       14       15 </v>
   <v type="int" >       12        3        4        6       12 </v>
   <v type="int" >       12        4        6        7       12 </v>
   <v type="int" >       12        4        7       12       13 </v>
   <v type="int" >       12       10       10       10       16 </v>
   <v type="int" >       12       10       10       16       16 </v>
   <v type="int" >       12       10       16       16       16 </v>
   <v type="int" >       12        9        9       10       16 </v>
   <v type="int" >       12        9       10       10       16 </v>
   <v type="int" >       12        9       10       16       16 </v>
   <v type="int" >       12        9        9       15       16 </v>
   <v type="int" >       12        9       15       16       16 </v>
   <v type="int" >       12        7        7        9       15 </v>
   <v type="int" >       12        7        9        9       15 </v>
   <v type="int" >       12        7        9       15       15 </v>
   <v type="int" >       12        7        7       13       15 </v>
   <v type="int" >       12        7       13       13       15 </v>
   <v type="int" >       12        7       13       15       15 </v>
   <v type="int" >       12        4        4        7       13 </v>
   <v type="int" >       12        4        7        7       13 </v>
   <v type="int" >       12        4        7       13       13 </v>
   <v type="int" >       12        8        9       10       16 </v>
   <v type="int" >       12        8        9       15       16 </v>
   <v type="int" >       12        8       14       15       16 </v>
   <v type="int" >       12        6        7        9       15 </v>
   <v type="int" >       12        6        8        9       15 </v>
   <v type="int" >       12        6        8       14       15 </v>
   <v type="int" >       12        6        7       13       15 </v>
   <v type="int" >       12        6       12       13       15 </v>
   <v type="int" >       12        6       12       14       15 </v>
   <v type="int" >       12        3        4        7       13 </v>
   <v type="int" >       12        3        6        7       13 </v>
   <v type="int" >       12        3        6       12       13 </v>
   <v type="int" >       12        5        6        8       14 </v>
   <v type="int" >       12        5        6       12       14 </v>
   <v type="int" >       12        5       11       12       14 </v>
   <v type="int" >       12        2        3        6       12 </v>
   <v type="int" >       12        2        5        6       12 </v>
   <v type="int" >       12        2        5       11       12 </v>
   <v type="int" >       12        1        2        5       11 </v>
   <v type="int" >       12       11       12       12       14 </v>
   <v type="int" >       12       12       12       14       14 </v>
   <v type="int" >       12       12       14       14       17 </v>
   <v type="int" >       12       12       13       14       15 </v>
   <v type="int" >       12       12       14       14       15 </v>
   <v type="int" >       12       14       14       15       17 </v>
   <v type="int" >       12       13       14       15       15 </v>
   <v type="int" >       24       14       15       15       18 </v>
   <v type="int" >       24       14       15       17       18 </v>
   <v type="int" >        6       13       13       15       15 </v>
   <v type="int" >       12       13       15       15       15 </v>
   <v type="int" >       12       15       15       15       18 </v>
   <v type="int" >        6       15       15       18       18 </v>
   <v type="int" >       12       14       15       16       17 </v>
   <v type="int" >       12       15       16       17       18 </v>
   <v type="int" >       12       16       17       18       19 </v>
   <v type="int" >       24       15       15       16       18 </v>
   <v type="int" >       12       15       16       16       18 </v>
   <v type="int" >       12       16       16       18       19 </v>
   <v type="int" >       12       15       16       18       18 </v>
   <v type="int" >       12       16       18       18       19 </v>
   <v type="int" >       12       16       18       19       19 </v>
   <v type="int" >       12       15       16       18       19 </v>
   <v type="int" >       12       15       17       18       18 </v>
   <v type="int" >       24       15       18       18       19 </v>
   <v type="int" >       12       12       13       14       17 </v>
   <v type="int" >       12       13       14       15       17 </v>
   <v type="int" >       12       13       15       17       18 </v>
   <v type="int" >       12       16       16       16       19 </v>
   <v type="int" >       12       16       16       19       19 </v>
   <v type="int" >       12       16       19       19       19 </v>
   <v type="int" >       12       15       15       16       19 </v>
   <v type="int" >       12       15       16       16       19 </v>
   <v type="int" >       12       15       16       19       19 </v>
   <v type="int" >       12       15       15       18       19 </v>
   <v type="int" >       12       15       18       19       19 </v>
   <v type="int" >       12       13       13       15       18 </v>
   <v type="int" >       12       13       15       15       18 </v>
   <v type="int" >       12       13       15       18       18 </v>
   <v type="int" >       12       14       15       16       19 </v>
   <v type="int" >       12       14       15       18       19 </v>
   <v type="int" >       12       14       17       18       19 </v>
   <v type="int" >       12       12       13       15       18 </v>
   <v type="int" >       12       12       14       15       18 </v>
   <v type="int" >       12       12       14       17       18 </v>
   <v type="int" >       12       11       12       14       17 </v>
   <v type="int" >       12       17       18       18       19 </v>
   <v type="int" >       18       18       18       19       19 </v>
   <v type="int" >       24       18       19       19       20 </v>
   <v type="int" >       12       18       19       19       19 </v>
   <v type="int" >       24       19       19       19       20 </v>
   <v type="int" >       18       19       19       20       20 </v>
   <v type="int" >       12       19       20       20       20 </v>
   <v type="int" >       12       18       18       19       20 </v>
   <v type="int" >       12       18       19       20       20 </v>
   <v type="int" >       12       17       18       19       20 </v>
   <v type="int" >        6       20       20       20       20 </v>
  </varray>
  <i name="volumeweight">      0.00048591 </i>
 </kpoints>
 <parameters>
  <separator name="general" >
   <i type="string" name="SYSTEM">unknown system</i>
   <i type="logical" name="LCOMPAT"> F  </i>
  </separator>
  <separator name="electronic" >
   <i type="string" name="PREC">normal</i>
   <i name="ENMAX">    750.00000000</i>
   <i name="ENAUG">    605.39200000</i>
   <i name="EDIFF">      0.00001000</i>
   <i type="int" name="IALGO">    68</i>
   <i type="int" name="IWAVPR">    10</i>
   <i type="int" name="NBANDS">    20</i>
   <i name="NELECT">     32.00000000</i>
   <i type="int" name="TURBO">     0</i>
   <i type="int" name="IRESTART">     0</i>
   <i type="int" name="NREBOOT">     0</i>
   <i type="int" name="NMIN">     0</i>
   <i name="EREF">      0.00000000</i>
   <separator name="electronic smearing" >
    <i type="int" name="ISMEAR">    -5</i>
    <i name="SIGMA">      0.20000000</i>
    <i name="KSPACING">      0.50000000</i>
    <i type="logical" name="KGAMMA"> T  </i>
   </separator>
   <separator name="electronic projectors" >
    <i type="logical" name="LREAL"> F  </i>
    <v name="ROPT">      0.00000000      0.00000000      0.00000000</v>
    <i type="int" name="LMAXPAW">  -100</i>
    <i type="int" name="LMAXMIX">     2</i>
    <i type="logical" name="NLSPLINE"> F  </i>
   </separator>
   <separator name="electronic startup" >
    <i type="int" name="ISTART">     0</i>
    <i type="int" name="ICHARG">     2</i>
    <i type="int" name="INIWAV">     1</i>
   </separator>
   <separator name="electronic spin" >
    <i type="int" name="ISPIN">     1</i>
    <i type="logical" name="LNONCOLLINEAR"> F  </i>
    <v name="MAGMOM">      1.00000000      1.00000000      1.00000000      1.00000000      1.00000000</v>
    <i name="NUPDOWN">     -1.00000000</i>
    <i type="logical" name="LSORBIT"> F  </i>
    <v name="SAXIS">      0.00000000      0.00000000      1.00000000</v>
    <i type="logical" name="LSPIRAL"> F  </i>
    <v name="QSPIRAL">      0.00000000      0.00000000      0.00000000</v>
    <i type="logical" name="LZEROZ"> F  </i>
   </separator>
   <separator name="electronic exchange-correlation" >
    <i type="logical" name="LASPH"> F  </i>
    <i type="logical" name="LMETAGGA"> F  </i>
   </separator>
   <separator name="electronic convergence" >
    <i type="int" name="NELM">    60</i>
    <i type="int" name="NELMDL">    -5</i>
    <i type="int" name="NELMIN">     4</i>
    <i name="ENINI">    750.00000000</i>
    <separator name="electronic convergence detail" >
     <i type="logical" name="LDIAG"> T  </i>
     <i type="logical" name="LSUBROT"> F  </i>
     <i name="WEIMIN">      0.00000000</i>
     <i name="EBREAK">      0.00000013</i>
     <i name="DEPER">      0.30000000</i>
     <i type="int" name="NRMM">     4</i>
     <i name="TIME">      0.40000000</i>
    </separator>
   </separator>
   <separator name="electronic mixer" >
    <i name="AMIX">      0.40000000</i>
    <i name="BMIX">      1.00000000</i>
    <i name="AMIN">      0.10000000</i>
    <i name="AMIX_MAG">      1.60000000</i>
    <i name="BMIX_MAG">      1.00000000</i>
    <separator name="electronic mixer details" >
     <i type="int" name="IMIX">     4</i>
     <i type="logical" name="MIXFIRST"> F  </i>
     <i type="int" name="MAXMIX">   -45</i>
     <i name="WC">    100.00000000</i>
     <i type="int" name="INIMIX">     1</i>
     <i type="int" name="MIXPRE">     1</i>
     <i type="int" name="MREMOVE">     5</i>
    </separator>
   </separator>
   <separator name="electronic dipolcorrection" >
    <i type="logical" name="LDIPOL"> F  </i>
    <i type="logical" name="LMONO"> F  </i>
    <i type="int" name="IDIPOL">     0</i>
    <i name="EPSILON">      1.00000000</i>
    <v name="DIPOL">   -100.00000000   -100.00000000   -100.00000000</v>
    <i name="EFIELD">      0.00000000</i>
   </separator>
  </separator>
  <separator name="grids" >
   <i type="int" name="NGX">    28</i>
   <i type="int" name="NGY">    28</i>
   <i type="int" name="NGZ">    28</i>
   <i type="int" name="NGXF">    56</i>
   <i type="int" name="NGYF">    56</i>
   <i type="int" name="NGZF">    56</i>
   <i type="logical" name="ADDGRID"> F  </i>
  </separator>
  <separator name="ionic" >
   <i type="int" name="NSW">     0</i>
   <i type="int" name="IBRION">    -1</i>
   <i type="int" name="MDALGO">     0</i>
   <i type="int" name="ISIF">     2</i>
   <i name="PSTRESS">      0.00000000</i>
   <i name="EDIFFG">      0.00010000</i>
   <i type="int" name="NFREE">     0</i>
   <i name="POTIM">      0.50000000</i>
   <i name="SMASS">     -3.00000000</i>
   <i name="SCALEE">      1.00000000</i>
  </separator>
  <separator name="ionic md" >
   <i name="TEBEG">      0.00010000</i>
   <i name="TEEND">      0.00010000</i>
   <i type="int" name="NBLOCK">     1</i>
   <i type="int" name="KBLOCK">     1</i>
   <i type="int" name="NPACO">   256</i>
   <i name="APACO">     16.00000000</i>
  </separator>
  <separator name="symmetry" >
   <i type="int" name="ISYM">     2</i>
   <i name="SYMPREC">      0.00001000</i>
  </separator>
  <separator name="dos" >
   <i type="int" name="LORBIT">     0</i>
   <v name="RWIGS">     -1.00000000     -1.00000000     -1.00000000</v>
   <i type="int" name="NEDOS">   301</i>
   <i name="EMIN">     10.00000000</i>
   <i name="EMAX">    -10.00000000</i>
   <i name="EFERMI">      0.00000000</i>
  </separator>
  <separator name="writing" >
   <i type="int" name="NWRITE">     2</i>
   <i type="logical" name="LWAVE"> F  </i>
   <i type="logical" name="LDOWNSAMPLE"> F  </i>
   <i type="logical" name="LCHARG"> T  </i>
   <i type="logical" name="LPARD"> F  </i>
   <i type="logical" name="LVTOT"> F  </i>
   <i type="logical" name="LVHAR"> F  </i>
   <i type="logical" name="LELF"> F  </i>
   <i type="logical" name="LOPTICS"> F  </i>
   <v name="STM">      0.00000000      0.00000000      0.00000000      0.00000000      0.00000000      0.00000000      0.00000000</v>
  </separator>
  <separator name="performance" >
   <i type="int" name="NPAR">     2</i>
   <i type="int" name="NSIM">     4</i>
   <i type="int" name="NBLK">    -1</i>
   <i type="logical" name="LPLANE"> T  </i>
   <i type="logical" name="LSCALAPACK"> T  </i>
   <i type="logical" name="LSCAAWARE"> F  </i>
   <i type="logical" name="LSCALU"> F  </i>
   <i type="logical" name="LASYNC"> F  </i>
   <i type="logical" name="LORBITALREAL"> F  </i>
  </separator>
  <separator name="miscellaneous" >
   <i type="int" name="IDIOT">     3</i>
   <i type="int" name="ISPECIAL">     0</i>
   <i type="logical" name="LMUSIC"> F  </i>
   <v name="POMASS">     87.62000000     47.88000000     16.00000000</v>
   <v name="DARWINR">      0.00000000      0.00000000      0.00000000</v>
   <v name="DARWINV">      1.00000000      1.00000000      1.00000000</v>
   <i type="logical" name="LCORR"> T  </i>
  </separator>
  <i type="logical" name="GGA_COMPAT"> T  </i>
  <i type="logical" name="LBERRY"> F  </i>
  <i type="int" name="ICORELEVEL">     0</i>
  <i type="logical" name="LDAU"> F  </i>
  <i type="int" name="I_CONSTRAINED_M">     0</i>
  <separator name="electronic exchange-correlation" >
   <i type="string" name="GGA">--</i>
   <i type="int" name="VOSKOWN">     0</i>
   <i type="logical" name="LHFCALC"> F  </i>
   <i type="string" name="PRECFOCK"></i>
   <i type="logical" name="LSYMGRAD"> F  </i>
   <i type="logical" name="LHFONE"> F  </i>
   <i type="logical" name="LRHFCALC"> F  </i>
   <i type="logical" name="LTHOMAS"> F  </i>
   <i type="logical" name="LMODELHF"> F  </i>
   <i name="ENCUT4O">     -1.00000000</i>
   <i type="int" name="EXXOEP">     0</i>
   <i type="int" name="FOURORBIT">     0</i>
   <i name="AEXX">      0.00000000</i>
   <i name="HFALPHA">      0.00000000</i>
   <i name="MCALPHA">      0.00000000</i>
   <i name="ALDAX">      1.00000000</i>
   <i name="AGGAX">      1.00000000</i>
   <i name="ALDAC">      1.00000000</i>
   <i name="AGGAC">      1.00000000</i>
   <i type="int" name="NKREDX">     1</i>
   <i type="int" name="NKREDY">     1</i>
   <i type="int" name="NKREDZ">     1</i>
   <i type="logical" name="SHIFTRED"> F  </i>
   <i type="logical" name="ODDONLY"> F  </i>
   <i type="logical" name="EVENONLY"> F  </i>
   <i type="int" name="LMAXFOCK">     0</i>
   <i type="int" name="NMAXFOCKAE">     0</i>
   <i type="logical" name="LFOCKAEDFT"> F  </i>
   <i name="HFSCREEN">      0.00000000</i>
   <i name="HFSCREENC">      0.00000000</i>
   <i type="int" name="NBANDSGWLOW">     0</i>
  </separator>
  <separator name="vdW DFT" >
   <i type="logical" name="LUSE_VDW"> F  </i>
   <i name="Zab_VDW">     -0.84910000</i>
   <i name="PARAM1">      0.12340000</i>
   <i name="PARAM2">      1.00000000</i>
   <i name="PARAM3">      0.00000000</i>
  </separator>
  <separator name="model GW" >
   <i type="int" name="MODEL_GW">     0</i>
   <i name="MODEL_EPS0">      7.14716444</i>
   <i name="MODEL_ALPHA">      1.00000000</i>
  </separator>
  <separator name="linear response parameters" >
   <i type="logical" name="LEPSILON"> F  </i>
   <i type="logical" name="LRPA"> F  </i>
   <i type="logical" name="LNABLA"> F  </i>
   <i type="logical" name="LVEL"> F  </i>
   <i type="int" name="KINTER">     0</i>
   <i name="CSHIFT">      0.10000000</i>
   <i name="OMEGAMAX">     -1.00000000</i>
   <i name="DEG_THRESHOLD">      0.00200000</i>
   <i name="RTIME">     -0.10000000</i>
   <i name="WPLASMAI">      0.00000000</i>
   <v name="DFIELD">      0.00000000      0.00000000      0.00000000</v>
   <v name="WPLASMA">      0.00000000      0.00000000      0.00000000      0.00000000      0.00000000      0.00000000      0.00000000      0.00000000      0.00000000</v>
  </separator>
  <separator name="orbital magnetization" >
   <i type="logical" name="NUCIND"> F  </i>
   <v name="MAGPOS">      0.00000000      0.00000000      0.00000000</v>
   <i type="logical" name="LNICSALL"> T  </i>
   <i type="logical" name="ORBITALMAG"> F  </i>
   <i type="logical" name="LMAGBLOCH"> F  </i>
   <i type="logical" name="LCHIMAG"> F  </i>
   <i type="logical" name="LGAUGE"> T  </i>
   <i type="int" name="MAGATOM">     0</i>
   <v name="MAGDIPOL">      0.00000000      0.00000000      0.00000000</v>
   <v name="AVECCONST">      0.00000000      0.00000000      0.00000000</v>
  </separator>
  <separator name="response functions" >
   <i type="logical" name="LADDER"> F  </i>
   <i type="logical" name="LRPAFORCE"> F  </i>
   <i type="logical" name="LFXC"> F  </i>
   <i type="logical" name="LHARTREE"> T  </i>
   <i type="int" name="IBSE">     0</i>
   <v type="int" name="KPOINT">    -1     0     0     0</v>
   <i type="logical" name="LTCTE"> F  </i>
   <i type="logical" name="LTETE"> F  </i>
   <i type="logical" name="LTRIPLET"> F  </i>
   <i type="logical" name="LFXCEPS"> F  </i>
   <i type="logical" name="LFXHEG"> F  </i>
   <i type="int" name="NATURALO">     2</i>
   <i type="logical" name="L2ORDER"> F  </i>
   <i type="logical" name="LMP2LT"> F  </i>
   <i type="logical" name="LUSEW"> F  </i>
   <i name="ENCUTGW">     -2.00000000</i>
   <i name="ENCUTGWSOFT">     -2.00000000</i>
   <i name="ENCUTLF">     -1.00000000</i>
   <i type="int" name="LMAXMP2">    -1</i>
   <i name="SCISSOR">      0.00000000</i>
   <i type="int" name="NOMEGA">     0</i>
   <i type="int" name="NOMEGAR">     0</i>
   <i type="int" name="NBANDSGW">    -1</i>
   <i type="int" name="NBANDSO">    -1</i>
   <i type="int" name="NBANDSV">    -1</i>
   <i type="int" name="NELM">     1</i>
   <i type="int" name="NELMHF">     1</i>
   <i type="int" name="DIM">     3</i>
   <i type="int" name="ANTIRES">     0</i>
   <i name="OMEGAMAX">    -30.00000000</i>
   <i name="OMEGAMIN">    -30.00000000</i>
   <i name="OMEGATL">   -200.00000000</i>
   <i type="int" name="OMEGAGRID">   140</i>
   <i name="CSHIFT">     -0.10000000</i>
   <i type="logical" name="SELFENERGY"> F  </i>
   <i type="logical" name="LSPECTRAL"> F  </i>
   <i type="logical" name="LSPECTRALGW"> F  </i>
   <i type="logical" name="LSINGLES"> F  </i>
   <i type="logical" name="LFERMIGW"> F  </i>
   <i type="logical" name="ODDONLYGW"> F  </i>
   <i type="logical" name="EVENONLYGW"> F  </i>
   <i type="int" name="NKREDLFX">     1</i>
   <i type="int" name="NKREDLFY">     1</i>
   <i type="int" name="NKREDLFZ">     1</i>
   <i type="int" name="MAXMEM">  2800</i>
   <i type="int" name="TELESCOPE">     0</i>
   <i type="int" name="TAUPAR">     1</i>
   <i type="int" name="OMEGAPAR">    -1</i>
   <i name="LAMBDA">      1.00000000</i>
  </separator>
  <separator name="External order field" >
   <i name="OFIELD_KAPPA">      0.00000000</i>
   <v name="OFIELD_K">      0.00000000      0.00000000      0.00000000</v>
   <i name="OFIELD_Q6_NEAR">      0.00000000</i>
   <i name="OFIELD_Q6_FAR">      0.00000000</i>
   <i name="OFIELD_A">      0.00000000</i>
  </separator>
 </parameters>
 <atominfo>
  <atoms>       5 </atoms>
  <types>       3 </types>
  <array name="atoms" >
   <dimension dim="1">ion</dimension>
   <field type="string">element</field>
   <field type="int">atomtype</field>
   <set>
    <rc><c>Sr</c><c>   1</c></rc>
    <rc><c>Ti</c><c>   2</c></rc>
    <rc><c>O </c><c>   3</c></rc>
    <rc><c>O </c><c>   3</c></rc>
    <rc><c>O </c><c>   3</c></rc>
   </set>
  </array>
  <array name="atomtypes" >
   <dimension dim="1">type</dimension>
   <field type="int">atomspertype</field>
   <field type="string">element</field>
   <field>mass</field>
   <field>valence</field>
   <field type="string">pseudopotential</field>
   <set>
    <rc><c>   1</c><c>Sr</c><c>     87.62000000</c><c>     10.00000000</c><c> PAW_PBE Sr_sv 07Sep2000                </c></rc>
    <rc><c>   1</c><c>Ti</c><c>     47.88000000</c><c>      4.00000000</c><c> PAW_PBE Ti 08Apr2002                   </c></rc>
    <rc><c>   3</c><c>O </c><c>     16.00000000</c><c>      6.00000000</c><c> PAW_PBE O 08Apr2002                    </c></rc>
   </set>
  </array>
 </atominfo>
 <structure name="initialpos" >
  <crystal>
   <varray name="basis" >
    <v>       3.90526800       0.00000000       0.00000000 </v>
    <v>       0.00000000       3.90526800       0.00000000 </v>
    <v>       0.00000000       0.00000000       3.90526800 </v>
   </varray>
   <i name="volume">     59.55970368 </i>
   <varray name="rec_basis" >
    <v>       0.25606437       0.00000000       0.00000000 </v>
    <v>       0.00000000       0.25606437       0.00000000 </v>
    <v>       0.00000000       0.00000000       0.25606437 </v>
   </varray>
  </crystal>
  <varray name="positions" >
   <v>       0.00000000       0.00000000       0.00000000 </v>
   <v>       0.50000000       0.50000000       0.50000000 </v>
   <v>       0.50000000       0.50000000       0.00000000 </v>
   <v>       0.50000000       0.00000000       0.50000000 </v>
   <v>       0.00000000       0.50000000       0.50000000 </v>
  </varray>
 </structure>
 <calculation>
  <scstep>
   <time name="dav">    0.36    0.37</time>
   <time name="total">    0.40    0.47</time>
   <energy>
    <i name="alphaZ">    185.39985751 </i>
    <i name="ewald">  -1934.07799583 </i>
    <i name="hartreedc">   -403.14003404 </i>
    <i name="XCdc">     82.31787849 </i>
    <i name="pawpsdc">   1333.61297253 </i>
    <i name="pawaedc">  -1284.78446064 </i>
    <i name="eentropy">      0.00000000 </i>
    <i name="bandstr">    152.54902087 </i>
    <i name="atom">   2234.36736180 </i>
    <i name="e_fr_energy">    366.24460068 </i>
    <i name="e_wo_entrp">    366.24460068 </i>
    <i name="e_0_energy">    366.24460068 </i>
   </energy>
  </scstep>
  <scstep>
   <time name="dav">    0.46    0.47</time>
   <time name="total">    0.47    0.47</time>
   <energy>
    <i name="e_fr_energy">    -12.29952203 </i>
    <i name="e_wo_entrp">    -12.29952203 </i>
    <i name="e_0_energy">    -12.29952203 </i>
   </energy>
  </scstep>
  <scstep>
   <time name="dav">    0.47    0.48</time>
   <time name="total">    0.47    0.48</time>
   <energy>
    <i name="e_fr_energy">    -48.81190065 </i>
    <i name="e_wo_entrp">    -48.81190065 </i>
    <i name="e_0_energy">    -48.81190065 </i>
   </energy>
  </scstep>
  <scstep>
   <time name="dav">    0.59    0.59</time>
   <time name="total">    0.59    0.59</time>
   <energy>
    <i name="e_fr_energy">    -50.21615358 </i>
    <i name="e_wo_entrp">    -50.21615358 </i>
    <i name="e_0_energy">    -50.21615358 </i>
   </energy>
  </scstep>
  <scstep>
   <time name="dav">    0.49    0.49</time>
   <time name="total">    0.53    0.53</time>
   <energy>
    <i name="e_fr_energy">    -50.24616393 </i>
    <i name="e_wo_entrp">    -50.24616393 </i>
    <i name="e_0_energy">    -50.24616393 </i>
   </energy>
  </scstep>
  <scstep>
   <time name="diag">    0.08    0.08</time>
   <time name="diis">    0.32    0.32</time>
   <time name="orth">    0.01    0.01</time>
   <time name="total">    0.47    0.47</time>
   <energy>
    <i name="e_fr_energy">    -40.42169531 </i>
    <i name="e_wo_entrp">    -40.42169531 </i>
    <i name="e_0_energy">    -40.42169531 </i>
   </energy>
  </scstep>
  <scstep>
   <time name="diag">    0.08    0.08</time>
   <time name="diis">    0.34    0.34</time>
   <time name="orth">    0.01    0.01</time>
   <time name="total">    0.49    0.49</time>
   <energy>
    <i name="e_fr_energy">    -39.81435189 </i>
    <i name="e_wo_entrp">    -39.81435189 </i>
    <i name="e_0_energy">    -39.81435189 </i>
   </energy>
  </scstep>
  <scstep>
   <time name="diag">    0.08    0.08</time>
   <time name="diis">    0.34    0.34</time>
   <time name="orth">    0.01    0.01</time>
   <time name="total">    0.49    0.49</time>
   <energy>
    <i name="e_fr_energy">    -39.73007544 </i>
    <i name="e_wo_entrp">    -39.73007544 </i>
    <i name="e_0_energy">    -39.73007544 </i>
   </energy>
  </scstep>
  <scstep>
   <time name="diag">    0.08    0.08</time>
   <time name="diis">    0.40    0.40</time>
   <time name="orth">    0.01    0.01</time>
   <time name="total">    0.54    0.55</time>
   <energy>
    <i name="e_fr_energy">    -39.71603939 </i>
    <i name="e_wo_entrp">    -39.71603939 </i>
    <i name="e_0_energy">    -39.71603939 </i>
   </energy>
  </scstep>
  <scstep>
   <time name="diag">    0.08    0.08</time>
   <time name="diis">    0.34    0.34</time>
   <time name="orth">    0.01    0.01</time>
   <time name="total">    0.49    0.49</time>
   <energy>
    <i name="e_fr_energy">    -39.71287239 </i>
    <i name="e_wo_entrp">    -39.71287239 </i>
    <i name="e_0_energy">    -39.71287239 </i>
   </energy>
  </scstep>
  <scstep>
   <time name="diag">    0.08    0.08</time>
   <time name="diis">    0.38    0.38</time>
   <time name="orth">    0.01    0.01</time>
   <time name="total">    0.53    0.54</time>
   <energy>
    <i name="e_fr_energy">    -39.71073702 </i>
    <i name="e_wo_entrp">    -39.71073702 </i>
    <i name="e_0_energy">    -39.71073702 </i>
   </energy>
  </scstep>
  <scstep>
   <time name="diag">    0.08    0.08</time>
   <time name="diis">    0.39    0.39</time>
   <time name="orth">    0.01    0.01</time>
   <time name="total">    0.53    0.54</time>
   <energy>
    <i name="e_fr_energy">    -39.71168356 </i>
    <i name="e_wo_entrp">    -39.71168356 </i>
    <i name="e_0_energy">    -39.71168356 </i>
   </energy>
  </scstep>
  <scstep>
   <time name="diag">    0.08    0.08</time>
   <time name="diis">    0.37    0.37</time>
   <time name="orth">    0.01    0.01</time>
   <time name="total">    0.52    0.52</time>
   <energy>
    <i name="e_fr_energy">    -39.71127251 </i>
    <i name="e_wo_entrp">    -39.71127251 </i>
    <i name="e_0_energy">    -39.71127251 </i>
   </energy>
  </scstep>
  <scstep>
   <time name="diag">    0.08    0.08</time>
   <time name="diis">    0.36    0.36</time>
   <time name="orth">    0.01    0.01</time>
   <time name="total">    0.51    0.51</time>
   <energy>
    <i name="e_fr_energy">    -39.71119046 </i>
    <i name="e_wo_entrp">    -39.71119046 </i>
    <i name="e_0_energy">    -39.71119046 </i>
   </energy>
  </scstep>
  <scstep>
   <time name="diag">    0.08    0.08</time>
   <time name="diis">    0.34    0.34</time>
   <time name="orth">    0.01    0.01</time>
   <time name="total">    0.49    0.49</time>
   <energy>
    <i name="e_fr_energy">    -39.71122062 </i>
    <i name="e_wo_entrp">    -39.71122062 </i>
    <i name="e_0_energy">    -39.71122062 </i>
   </energy>
  </scstep>
  <scstep>
   <time name="diag">    0.08    0.08</time>
   <time name="diis">    0.31    0.31</time>
   <time name="orth">    0.01    0.01</time>
   <time name="total">    0.46    0.46</time>
   <energy>
    <i name="e_fr_energy">    -39.71122207 </i>
    <i name="e_wo_entrp">    -39.71122207 </i>
    <i name="e_0_energy">    -39.71122207 </i>
   </energy>
  </scstep>
  <scstep>
   <time name="diag">    0.08    0.08</time>
   <time name="diis">    0.26    0.26</time>
   <time name="orth">    0.01    0.01</time>
   <time name="total">    0.37    0.37</time>
   <energy>
    <i name="alphaZ">    185.39985751 </i>
    <i name="ewald">  -1934.07799583 </i>
    <i name="hartreedc">   -441.36348457 </i>
    <i name="XCdc">     86.19627629 </i>
    <i name="pawpsdc">   1561.10118733 </i>
    <i name="pawaedc">  -1518.73217288 </i>
    <i name="eentropy">      0.00000000 </i>
    <i name="bandstr">   -212.60225724 </i>
    <i name="atom">   2234.36736180 </i>
    <i name="e_fr_energy">    -39.71122758 </i>
    <i name="e_wo_entrp">    -39.71122758 </i>
    <i name="e_0_energy">    -39.71122758 </i>
   </energy>
  </scstep>
  <structure>
   <crystal>
    <varray name="basis" >
     <v>       3.90526800       0.00000000       0.00000000 </v>
     <v>       0.00000000       3.90526800       0.00000000 </v>
     <v>       0.00000000       0.00000000       3.90526800 </v>
    </varray>
    <i name="volume">     59.55970368 </i>
    <varray name="rec_basis" >
     <v>       0.25606437       0.00000000       0.00000000 </v>
     <v>       0.00000000       0.25606437       0.00000000 </v>
     <v>       0.00000000       0.00000000       0.25606437 </v>
    </varray>
   </crystal>
   <varray name="positions" >
    <v>       0.00000000       0.00000000       0.00000000 </v>
    <v>       0.50000000       0.50000000       0.50000000 </v>
    <v>       0.50000000       0.50000000       0.00000000 </v>
    <v>       0.50000000       0.00000000       0.50000000 </v>
    <v>       0.00000000       0.50000000       0.50000000 </v>
   </varray>
  </structure>
  <varray name="forces" >
   <v>       0.00000000       0.00000000       0.00000000 </v>
   <v>       0.00000000       0.00000000       0.00000000 </v>
   <v>       0.00000000       0.00000000       0.00000000 </v>
   <v>       0.00000000       0.00000000       0.00000000 </v>
   <v>       0.00000000       0.00000000       0.00000000 </v>
  </varray>
  <varray name="stress" >
   <v>      62.19366590      -0.00000000      -0.00000000 </v>
   <v>       0.00000000      62.19366590       0.00000000 </v>
   <v>       0.00000000       0.00000000      62.19366590 </v>
  </varray>
  <energy>
   <i name="e_fr_energy">    -39.71122758 </i>
   <i name="e_wo_entrp">    -39.71122758 </i>
   <i name="e_0_energy">      0.00000000 </i>
  </energy>
  <time name="totalsc">    9.13    9.54</time>
  <eigenvalues>
   <array>
    <dimension dim="1">band</dimension>
    <dimension dim="2">kpoint</dimension>
    <dimension dim="3">spin</dimension>
    <field>eigene</field>
    <field>occ</field>
    <set>
     <set comment="spin 1">
      <set comment="kpoint 1">
       <r>  -30.0825    1.0000 </r>
       <r>  -14.8191    1.0000 </r>
       <r>  -13.8124    1.0000 </r>
       <r>  -13.8124    1.0000 </r>
       <r>  -12.1469    1.0000 </r>
       <r>  -12.1469    1.0000 </r>
       <r>  -12.1469    1.0000 </r>
       <r>   -0.2145    1.0000 </r>
       <r>   -0.2145    1.0000 </r>
       <r>   -0.2145    1.0000 </r>
       <r>    1.4737    1.0000 </r>
       <r>    1.4737    1.0000 </r>
       <r>    1.4737    1.0000 </r>
       <r>    2.3133    1.0000 </r>
       <r>    2.3133    1.0000 </r>
       <r>    2.3133    1.0000 </r>
       <r>    4.3422    0.0000 </r>
       <r>    4.3422    0.0000 </r>
       <r>    4.3422    0.0000 </r>
       <r>    8.0353    0.0000 </r>
      </set>
      <set comment="kpoint 2">
       <r>  -30.0781    1.0000 </r>
       <r>  -14.8317    1.0000 </r>
       <r>  -13.8346    1.0000 </r>
       <r>  -13.8048    1.0000 </r>
       <r>  -12.1378    1.0000 </r>
       <r>  -12.1378    1.0000 </r>
       <r>  -12.0120    1.0000 </r>
       <r>   -0.4789    1.0000 </r>
       <r>   -0.2279    1.0000 </r>
       <r>   -0.2279    1.0000 </r>
       <r>    1.2047    1.0000 </r>
       <r>    1.2047    1.0000 </r>
       <r>    1.2970    1.0000 </r>
       <r>    1.7113    1.0000 </r>
       <r>    2.1872    1.0000 </r>
       <r>    2.1872    1.0000 </r>
       <r>    4.3711    0.0000 </r>
       <r>    4.7916    0.0000 </r>
       <r>    4.7916    0.0000 </r>
       <r>    8.4827    0.0000 </r>
      </set>
      <set comment="kpoint 3">
       <r>  -30.0681    1.0000 </r>
       <r>  -14.9169    1.0000 </r>
       <r>  -13.7877    1.0000 </r>
       <r>  -13.7687    1.0000 </r>
       <r>  -12.1172    1.0000 </r>
       <r>  -12.1172    1.0000 </r>
       <r>  -11.7575    1.0000 </r>
       <r>   -1.1030    1.0000 </r>
       <r>   -0.2473    1.0000 </r>
       <r>   -0.2473    1.0000 </r>
       <r>    0.6864    1.0000 </r>
       <r>    0.6864    1.0000 </r>
       <r>    0.7692    1.0000 </r>
       <r>    0.9439    1.0000 </r>
       <r>    2.0284    1.0000 </r>
       <r>    2.0284    1.0000 </r>
       <r>    4.4378    0.0000 </r>
       <r>    5.6016    0.0000 </r>
       <r>    5.6016    0.0000 </r>
       <r>    9.2675    0.0000 </r>
      </set>
      <set comment="kpoint 4">
       <r>  -30.0601    1.0000 </r>
       <r>  -15.0180    1.0000 </r>
       <r>  -13.7739    1.0000 </r>
       <r>  -13.6390    1.0000 </r>
       <r>  -12.1006    1.0000 </r>
       <r>  -12.1006    1.0000 </r>
       <r>  -11.5861    1.0000 </r>
       <r>   -1.6341    1.0000 </r>
       <r>   -0.2360    1.0000 </r>
       <r>   -0.2360    1.0000 </r>
       <r>    0.2342    1.0000 </r>
       <r>    0.3134    1.0000 </r>
       <r>    0.3134    1.0000 </r>
       <r>    0.6930    1.0000 </r>
       <r>    1.9388    1.0000 </r>
       <r>    1.9388    1.0000 </r>
       <r>    4.4933    0.0000 </r>
       <r>    6.1671    0.0000 </r>
       <r>    6.1671    0.0000 </r>
       <r>    9.8473    0.0000 </r>
      </set>
      <set comment="kpoint 5">
       <r>  -30.0738    1.0000 </r>
       <r>  -14.8179    1.0000 </r>
       <r>  -13.8688    1.0000 </r>
       <r>  -13.7987    1.0000 </r>
       <r>  -12.1284    1.0000 </r>
       <r>  -12.0642    1.0000 </r>
       <r>  -11.9668    1.0000 </r>
       <r>   -0.6408    1.0000 </r>
       <r>   -0.3463    1.0000 </r>
       <r>   -0.2397    1.0000 </r>
       <r>    0.6687    1.0000 </r>
       <r>    1.0014    1.0000 </r>
       <r>    1.4776    1.0000 </r>
       <r>    1.5323    1.0000 </r>
       <r>    1.8723    1.0000 </r>
       <r>    2.0064    1.0000 </r>
       <r>    4.7579    0.0000 </r>
       <r>    4.8619    0.0000 </r>
       <r>    5.0422    0.0000 </r>
       <r>    8.6896    0.0000 </r>
      </set>
      <set comment="kpoint 6">
       <r>  -30.0641    1.0000 </r>
       <r>  -14.8474    1.0000 </r>
       <r>  -13.8601    1.0000 </r>
       <r>  -13.7598    1.0000 </r>
       <r>  -12.1072    1.0000 </r>
       <r>  -12.0314    1.0000 </r>
       <r>  -11.7733    1.0000 </r>
       <r>   -1.1573    1.0000 </r>
       <r>   -0.5131    1.0000 </r>
       <r>   -0.2558    1.0000 </r>
       <r>   -0.0020    1.0000 </r>
       <r>    0.5598    1.0000 </r>
       <r>    0.8967    1.0000 </r>
       <r>    1.4559    1.0000 </r>
       <r>    1.6914    1.0000 </r>
       <r>    1.7827    1.0000 </r>
       <r>    4.8504    0.0000 </r>
       <r>    5.6120    0.0000 </r>
       <r>    5.6674    0.0000 </r>
       <r>    9.3872    0.0000 </r>
      </set>
      <set comment="kpoint 7">
       <r>  -30.0564    1.0000 </r>
       <r>  -14.9180    1.0000 </r>
       <r>  -13.7750    1.0000 </r>
       <r>  -13.7218    1.0000 </r>
       <r>  -12.0901    1.0000 </r>
       <r>  -12.0203    1.0000 </r>
       <r>  -11.6296    1.0000 </r>
       <r>   -1.6484    1.0000 </r>
       <r>   -0.6990    1.0000 </r>
       <r>   -0.3596    1.0000 </r>
       <r>   -0.2391    1.0000 </r>
       <r>    0.2128    1.0000 </r>
       <r>    0.5946    1.0000 </r>
       <r>    1.3930    1.0000 </r>
       <r>    1.5402    1.0000 </r>
       <r>    1.6690    1.0000 </r>
       <r>    4.8928    0.0000 </r>
       <r>    6.1680    0.0000 </r>
       <r>    6.1886    0.0000 </r>
       <r>   10.0312    0.0000 </r>
      </set>
      <set comment="kpoint 8">
       <r>  -30.0552    1.0000 </r>
       <r>  -14.7114    1.0000 </r>
       <r>  -13.9780    1.0000 </r>
       <r>  -13.7285    1.0000 </r>
       <r>  -12.0846    1.0000 </r>
       <r>  -11.8921    1.0000 </r>
       <r>  -11.7800    1.0000 </r>
       <r>   -1.3911    1.0000 </r>
       <r>   -0.9257    1.0000 </r>
       <r>   -0.7802    1.0000 </r>
       <r>   -0.2684    1.0000 </r>
       <r>    0.2629    1.0000 </r>
       <r>    0.8636    1.0000 </r>
       <r>    1.2125    1.0000 </r>
       <r>    1.4238    1.0000 </r>
       <r>    2.0039    1.0000 </r>
       <r>    5.5629    0.0000 </r>
       <r>    5.6870    0.0000 </r>
       <r>    5.9795    0.0000 </r>
       <r>    9.9199    0.0000 </r>
      </set>
      <set comment="kpoint 9">
       <r>  -30.0479    1.0000 </r>
       <r>  -14.6553    1.0000 </r>
       <r>  -13.9383    1.0000 </r>
       <r>  -13.7616    1.0000 </r>
       <r>  -12.0663    1.0000 </r>
       <r>  -11.8655    1.0000 </r>
       <r>  -11.7109    1.0000 </r>
       <r>   -1.7032    1.0000 </r>
       <r>   -1.4457    1.0000 </r>
       <r>   -0.9970    1.0000 </r>
       <r>   -0.2481    1.0000 </r>
       <r>   -0.0061    1.0000 </r>
       <r>    0.8274    1.0000 </r>
       <r>    1.1388    1.0000 </r>
       <r>    1.2323    1.0000 </r>
       <r>    2.1256    1.0000 </r>
       <r>    5.6397    0.0000 </r>
       <r>    6.1717    0.0000 </r>
       <r>    6.3533    0.0000 </r>
       <r>   10.4233    0.0000 </r>
      </set>
      <set comment="kpoint 10">
       <r>  -30.0411    1.0000 </r>
       <r>  -14.3552    1.0000 </r>
       <r>  -14.0526    1.0000 </r>
       <r>  -13.8918    1.0000 </r>
       <r>  -12.0470    1.0000 </r>
       <r>  -11.7620    1.0000 </r>
       <r>  -11.7473    1.0000 </r>
       <r>   -1.9215    1.0000 </r>
       <r>   -1.7935    1.0000 </r>
       <r>   -1.4990    1.0000 </r>
       <r>   -0.2503    1.0000 </r>
       <r>   -0.1839    1.0000 </r>
       <r>    0.9713    1.0000 </r>
       <r>    1.0052    1.0000 </r>
       <r>    1.0843    1.0000 </r>
       <r>    2.4499    1.0000 </r>
       <r>    6.1632    0.0000 </r>
       <r>    6.1848    0.0000 </r>
       <r>    6.6015    0.0000 </r>
       <r>   10.5842    0.0000 </r>
      </set>
      <set comment="kpoint 11">
       <r>  -30.0696    1.0000 </r>
       <r>  -14.7880    1.0000 </r>
       <r>  -13.8458    1.0000 </r>
       <r>  -13.8458    1.0000 </r>
       <r>  -12.0803    1.0000 </r>
       <r>  -12.0803    1.0000 </r>
       <r>  -11.9041    1.0000 </r>
       <r>   -0.8077    1.0000 </r>
       <r>   -0.3519    1.0000 </r>
       <r>   -0.3519    1.0000 </r>
       <r>    0.5638    1.0000 </r>
       <r>    0.5638    1.0000 </r>
       <r>    1.1604    1.0000 </r>
       <r>    1.6706    1.0000 </r>
       <r>    1.8169    1.0000 </r>
       <r>    1.8169    1.0000 </r>
       <r>    5.0077    0.0000 </r>
       <r>    5.0999    0.0000 </r>
       <r>    5.0999    0.0000 </r>
       <r>    8.9843    0.0000 </r>
      </set>
      <set comment="kpoint 12">
       <r>  -30.0602    1.0000 </r>
       <r>  -14.7758    1.0000 </r>
       <r>  -13.8573    1.0000 </r>
       <r>  -13.7917    1.0000 </r>
       <r>  -12.1189    1.0000 </r>
       <r>  -11.9947    1.0000 </r>
       <r>  -11.7704    1.0000 </r>
       <r>   -1.2245    1.0000 </r>
       <r>   -0.6279    1.0000 </r>
       <r>   -0.3664    1.0000 </r>
       <r>   -0.0167    1.0000 </r>
       <r>    0.0396    1.0000 </r>
       <r>    0.8836    1.0000 </r>
       <r>    1.5598    1.0000 </r>
       <r>    1.6505    1.0000 </r>
       <r>    1.6868    1.0000 </r>
       <r>    5.1225    0.0000 </r>
       <r>    5.6910    0.0000 </r>
       <r>    5.6982    0.0000 </r>
       <r>    9.6876    0.0000 </r>
      </set>
      <set comment="kpoint 13">
       <r>  -30.0527    1.0000 </r>
       <r>  -14.8186    1.0000 </r>
       <r>  -13.7821    1.0000 </r>
       <r>  -13.7459    1.0000 </r>
       <r>  -12.1527    1.0000 </r>
       <r>  -11.9313    1.0000 </r>
       <r>  -11.6788    1.0000 </r>
       <r>   -1.6602    1.0000 </r>
       <r>   -0.8533    1.0000 </r>
       <r>   -0.4530    1.0000 </r>
       <r>   -0.3940    1.0000 </r>
       <r>   -0.2358    1.0000 </r>
       <r>    0.9708    1.0000 </r>
       <r>    1.3042    1.0000 </r>
       <r>    1.5126    1.0000 </r>
       <r>    1.5995    1.0000 </r>
       <r>    5.1715    0.0000 </r>
       <r>    6.1984    0.0000 </r>
       <r>    6.2144    0.0000 </r>
       <r>   10.2110    0.0000 </r>
      </set>
      <set comment="kpoint 14">
       <r>  -30.0514    1.0000 </r>
       <r>  -14.6309    1.0000 </r>
       <r>  -13.9279    1.0000 </r>
       <r>  -13.7489    1.0000 </r>
       <r>  -12.1238    1.0000 </r>
       <r>  -11.9571    1.0000 </r>
       <r>  -11.7522    1.0000 </r>
       <r>   -1.4334    1.0000 </r>
       <r>   -0.9209    1.0000 </r>
       <r>   -0.7203    1.0000 </r>
       <r>   -0.4885    1.0000 </r>
       <r>   -0.1053    1.0000 </r>
       <r>    0.4427    1.0000 </r>
       <r>    1.4947    1.0000 </r>
       <r>    1.5551    1.0000 </r>
       <r>    2.0133    1.0000 </r>
       <r>    5.6967    0.0000 </r>
       <r>    5.7924    0.0000 </r>
       <r>    6.0176    0.0000 </r>
       <r>   10.0726    0.0000 </r>
      </set>
      <set comment="kpoint 15">
       <r>  -30.0443    1.0000 </r>
       <r>  -14.5583    1.0000 </r>
       <r>  -13.9030    1.0000 </r>
       <r>  -13.7325    1.0000 </r>
       <r>  -12.1606    1.0000 </r>
       <r>  -11.8740    1.0000 </r>
       <r>  -11.7658    1.0000 </r>
       <r>   -1.7007    1.0000 </r>
       <r>   -1.3783    1.0000 </r>
       <r>   -0.9872    1.0000 </r>
       <r>   -0.5092    1.0000 </r>
       <r>   -0.3634    1.0000 </r>
       <r>    0.4658    1.0000 </r>
       <r>    1.3892    1.0000 </r>
       <r>    1.4874    1.0000 </r>
       <r>    2.1351    1.0000 </r>
       <r>    5.7832    0.0000 </r>
       <r>    6.2438    0.0000 </r>
       <r>    6.3886    0.0000 </r>
       <r>   10.5989    0.0000 </r>
      </set>
      <set comment="kpoint 16">
       <r>  -30.0376    1.0000 </r>
       <r>  -14.2611    1.0000 </r>
       <r>  -13.9860    1.0000 </r>
       <r>  -13.8303    1.0000 </r>
       <r>  -12.1300    1.0000 </r>
       <r>  -11.8611    1.0000 </r>
       <r>  -11.8188    1.0000 </r>
       <r>   -1.8262    1.0000 </r>
       <r>   -1.7295    1.0000 </r>
       <r>   -1.4952    1.0000 </r>
       <r>   -0.5243    1.0000 </r>
       <r>   -0.4662    1.0000 </r>
       <r>    0.3298    1.0000 </r>
       <r>    1.4285    1.0000 </r>
       <r>    1.4725    1.0000 </r>
       <r>    2.4643    1.0000 </r>
       <r>    6.2606    0.0000 </r>
       <r>    6.2807    0.0000 </r>
       <r>    6.6404    0.0000 </r>
       <r>   10.4821    0.0000 </r>
      </set>
      <set comment="kpoint 17">
       <r>  -30.0430    1.0000 </r>
       <r>  -14.4481    1.0000 </r>
       <r>  -13.8014    1.0000 </r>
       <r>  -13.8014    1.0000 </r>
       <r>  -12.1172    1.0000 </r>
       <r>  -12.1172    1.0000 </r>
       <r>  -11.7688    1.0000 </r>
       <r>   -1.5236    1.0000 </r>
       <r>   -0.9093    1.0000 </r>
       <r>   -0.9093    1.0000 </r>
       <r>   -0.5697    1.0000 </r>
       <r>   -0.5697    1.0000 </r>
       <r>   -0.5462    1.0000 </r>
       <r>    1.8019    1.0000 </r>
       <r>    1.8019    1.0000 </r>
       <r>    2.1424    1.0000 </r>
       <r>    6.0685    0.0000 </r>
       <r>    6.1169    0.0000 </r>
       <r>    6.1169    0.0000 </r>
       <r>   10.3959    0.0000 </r>
      </set>
      <set comment="kpoint 18">
       <r>  -30.0362    1.0000 </r>
       <r>  -14.3081    1.0000 </r>
       <r>  -13.8376    1.0000 </r>
       <r>  -13.6798    1.0000 </r>
       <r>  -12.2660    1.0000 </r>
       <r>  -12.0115    1.0000 </r>
       <r>  -11.8694    1.0000 </r>
       <r>   -1.7018    1.0000 </r>
       <r>   -1.3114    1.0000 </r>
       <r>   -1.0029    1.0000 </r>
       <r>   -0.8978    1.0000 </r>
       <r>   -0.8260    1.0000 </r>
       <r>   -0.4371    1.0000 </r>
       <r>    1.8323    1.0000 </r>
       <r>    1.9662    1.0000 </r>
       <r>    2.2452    1.0000 </r>
       <r>    6.1654    0.0000 </r>
       <r>    6.4553    0.0000 </r>
       <r>    6.4798    0.0000 </r>
       <r>   10.5828    0.0000 </r>
      </set>
      <set comment="kpoint 19">
       <r>  -30.0297    1.0000 </r>
       <r>  -14.0256    1.0000 </r>
       <r>  -13.8103    1.0000 </r>
       <r>  -13.6922    1.0000 </r>
       <r>  -12.2869    1.0000 </r>
       <r>  -12.1090    1.0000 </r>
       <r>  -12.0150    1.0000 </r>
       <r>   -1.7939    1.0000 </r>
       <r>   -1.4864    1.0000 </r>
       <r>   -1.4154    1.0000 </r>
       <r>   -0.9426    1.0000 </r>
       <r>   -0.8522    1.0000 </r>
       <r>   -0.7474    1.0000 </r>
       <r>    2.0556    1.0000 </r>
       <r>    2.0918    1.0000 </r>
       <r>    2.5009    1.0000 </r>
       <r>    6.5246    0.0000 </r>
       <r>    6.5366    0.0000 </r>
       <r>    6.7295    0.0000 </r>
       <r>   10.0632    0.0000 </r>
      </set>
      <set comment="kpoint 20">
       <r>  -30.0234    1.0000 </r>
       <r>  -13.7683    1.0000 </r>
       <r>  -13.6240    1.0000 </r>
       <r>  -13.6240    1.0000 </r>
       <r>  -12.3523    1.0000 </r>
       <r>  -12.3523    1.0000 </r>
       <r>  -12.2389    1.0000 </r>
       <r>   -1.8822    1.0000 </r>
       <r>   -1.4785    1.0000 </r>
       <r>   -1.4785    1.0000 </r>
       <r>   -1.1768    1.0000 </r>
       <r>   -1.0690    1.0000 </r>
       <r>   -1.0690    1.0000 </r>
       <r>    2.4682    1.0000 </r>
       <r>    2.4682    1.0000 </r>
       <r>    2.5558    1.0000 </r>
       <r>    6.8063    0.0000 </r>
       <r>    9.7794    0.0000 </r>
       <r>    9.8130    0.0000 </r>
       <r>    9.8322    0.0000 </r>
      </set>
     </set>
    </set>
   </array>
  </eigenvalues>
  <separator name="orbital magnetization" >
   <v name="MAGDIPOLOUT">      0.00000000      0.00000000      0.00000000</v>
  </separator>
  <dos>
   <i name="efermi">      2.56433150 </i>
   <total>
    <array>
     <dimension dim="1">gridpoints</dimension>
     <dimension dim="2">spin</dimension>
     <field>energy</field>
     <field>total</field>
     <field>integrated</field>
     <set>
      <set comment="spin 1">
       <r>   -32.1166     0.0000     0.0000 </r>
       <r>   -31.9674     0.0000     0.0000 </r>
       <r>   -31.8182     0.0000     0.0000 </r>
       <r>   -31.6691     0.0000     0.0000 </r>
       <r>   -31.5199     0.0000     0.0000 </r>
       <r>   -31.3707     0.0000     0.0000 </r>
       <r>   -31.2216     0.0000     0.0000 </r>
       <r>   -31.0724     0.0000     0.0000 </r>
       <r>   -30.9232     0.0000     0.0000 </r>
       <r>   -30.7741     0.0000     0.0000 </r>
       <r>   -30.6249     0.0000     0.0000 </r>
       <r>   -30.4757     0.0000     0.0000 </r>
       <r>   -30.3266     0.0000     0.0000 </r>
       <r>   -30.1774     0.0000     0.0000 </r>
       <r>   -30.0282    15.9942     1.9439 </r>
       <r>   -29.8791     0.0000     2.0000 </r>
       <r>   -29.7299     0.0000     2.0000 </r>
       <r>   -29.5808     0.0000     2.0000 </r>
       <r>   -29.4316     0.0000     2.0000 </r>
       <r>   -29.2824     0.0000     2.0000 </r>
       <r>   -29.1333     0.0000     2.0000 </r>
       <r>   -28.9841     0.0000     2.0000 </r>
       <r>   -28.8349     0.0000     2.0000 </r>
       <r>   -28.6858     0.0000     2.0000 </r>
       <r>   -28.5366     0.0000     2.0000 </r>
       <r>   -28.3874     0.0000     2.0000 </r>
       <r>   -28.2383     0.0000     2.0000 </r>
       <r>   -28.0891     0.0000     2.0000 </r>
       <r>   -27.9399     0.0000     2.0000 </r>
       <r>   -27.7908     0.0000     2.0000 </r>
       <r>   -27.6416     0.0000     2.0000 </r>
       <r>   -27.4924     0.0000     2.0000 </r>
       <r>   -27.3433     0.0000     2.0000 </r>
       <r>   -27.1941     0.0000     2.0000 </r>
       <r>   -27.0449     0.0000     2.0000 </r>
       <r>   -26.8958     0.0000     2.0000 </r>
       <r>   -26.7466     0.0000     2.0000 </r>
       <r>   -26.5974     0.0000     2.0000 </r>
       <r>   -26.4483     0.0000     2.0000 </r>
       <r>   -26.2991     0.0000     2.0000 </r>
       <r>   -26.1500     0.0000     2.0000 </r>
       <r>   -26.0008     0.0000     2.0000 </r>
       <r>   -25.8516     0.0000     2.0000 </r>
       <r>   -25.7025     0.0000     2.0000 </r>
       <r>   -25.5533     0.0000     2.0000 </r>
       <r>   -25.4041     0.0000     2.0000 </r>
       <r>   -25.2550     0.0000     2.0000 </r>
       <r>   -25.1058     0.0000     2.0000 </r>
       <r>   -24.9566     0.0000     2.0000 </r>
       <r>   -24.8075     0.0000     2.0000 </r>
       <r>   -24.6583     0.0000     2.0000 </r>
       <r>   -24.5091     0.0000     2.0000 </r>
       <r>   -24.3600     0.0000     2.0000 </r>
       <r>   -24.2108     0.0000     2.0000 </r>
       <r>   -24.0616     0.0000     2.0000 </r>
       <r>   -23.9125     0.0000     2.0000 </r>
       <r>   -23.7633     0.0000     2.0000 </r>
       <r>   -23.6141     0.0000     2.0000 </r>
       <r>   -23.4650     0.0000     2.0000 </r>
       <r>   -23.3158     0.0000     2.0000 </r>
       <r>   -23.1667     0.0000     2.0000 </r>
       <r>   -23.0175     0.0000     2.0000 </r>
       <r>   -22.8683     0.0000     2.0000 </r>
       <r>   -22.7192     0.0000     2.0000 </r>
       <r>   -22.5700     0.0000     2.0000 </r>
       <r>   -22.4208     0.0000     2.0000 </r>
       <r>   -22.2717     0.0000     2.0000 </r>
       <r>   -22.1225     0.0000     2.0000 </r>
       <r>   -21.9733     0.0000     2.0000 </r>
       <r>   -21.8242     0.0000     2.0000 </r>
       <r>   -21.6750     0.0000     2.0000 </r>
       <r>   -21.5258     0.0000     2.0000 </r>
       <r>   -21.3767     0.0000     2.0000 </r>
       <r>   -21.2275     0.0000     2.0000 </r>
       <r>   -21.0783     0.0000     2.0000 </r>
       <r>   -20.9292     0.0000     2.0000 </r>
       <r>   -20.7800     0.0000     2.0000 </r>
       <r>   -20.6308     0.0000     2.0000 </r>
       <r>   -20.4817     0.0000     2.0000 </r>
       <r>   -20.3325     0.0000     2.0000 </r>
       <r>   -20.1833     0.0000     2.0000 </r>
       <r>   -20.0342     0.0000     2.0000 </r>
       <r>   -19.8850     0.0000     2.0000 </r>
       <r>   -19.7359     0.0000     2.0000 </r>
       <r>   -19.5867     0.0000     2.0000 </r>
       <r>   -19.4375     0.0000     2.0000 </r>
       <r>   -19.2884     0.0000     2.0000 </r>
       <r>   -19.1392     0.0000     2.0000 </r>
       <r>   -18.9900     0.0000     2.0000 </r>
       <r>   -18.8409     0.0000     2.0000 </r>
       <r>   -18.6917     0.0000     2.0000 </r>
       <r>   -18.5425     0.0000     2.0000 </r>
       <r>   -18.3934     0.0000     2.0000 </r>
       <r>   -18.2442     0.0000     2.0000 </r>
       <r>   -18.0950     0.0000     2.0000 </r>
       <r>   -17.9459     0.0000     2.0000 </r>
       <r>   -17.7967     0.0000     2.0000 </r>
       <r>   -17.6475     0.0000     2.0000 </r>
       <r>   -17.4984     0.0000     2.0000 </r>
       <r>   -17.3492     0.0000     2.0000 </r>
       <r>   -17.2000     0.0000     2.0000 </r>
       <r>   -17.0509     0.0000     2.0000 </r>
       <r>   -16.9017     0.0000     2.0000 </r>
       <r>   -16.7526     0.0000     2.0000 </r>
       <r>   -16.6034     0.0000     2.0000 </r>
       <r>   -16.4542     0.0000     2.0000 </r>
       <r>   -16.3051     0.0000     2.0000 </r>
       <r>   -16.1559     0.0000     2.0000 </r>
       <r>   -16.0067     0.0000     2.0000 </r>
       <r>   -15.8576     0.0000     2.0000 </r>
       <r>   -15.7084     0.0000     2.0000 </r>
       <r>   -15.5592     0.0000     2.0000 </r>
       <r>   -15.4101     0.0000     2.0000 </r>
       <r>   -15.2609     0.0000     2.0000 </r>
       <r>   -15.1117     0.0000     2.0000 </r>
       <r>   -14.9626     0.6405     2.0154 </r>
       <r>   -14.8134     6.4333     2.4402 </r>
       <r>   -14.6642     2.8879     2.9637 </r>
       <r>   -14.5151     1.9633     3.3168 </r>
       <r>   -14.3659     1.5473     3.5788 </r>
       <r>   -14.2167     0.9189     3.7853 </r>
       <r>   -14.0676     0.5705     3.8951 </r>
       <r>   -13.9184     8.3316     4.3898 </r>
       <r>   -13.7692    16.3241     6.5456 </r>
       <r>   -13.6201     0.0000     8.0000 </r>
       <r>   -13.4709     0.0000     8.0000 </r>
       <r>   -13.3218     0.0000     8.0000 </r>
       <r>   -13.1726     0.0000     8.0000 </r>
       <r>   -13.0234     0.0000     8.0000 </r>
       <r>   -12.8743     0.0000     8.0000 </r>
       <r>   -12.7251     0.0000     8.0000 </r>
       <r>   -12.5759     0.0000     8.0000 </r>
       <r>   -12.4268     0.0000     8.0000 </r>
       <r>   -12.2776     3.5569     8.1482 </r>
       <r>   -12.1284    21.3670     9.0059 </r>
       <r>   -11.9793    10.0404    11.0984 </r>
       <r>   -11.8301     6.7010    12.4578 </r>
       <r>   -11.6809     3.7334    13.8181 </r>
       <r>   -11.5318     0.0000    14.0000 </r>
       <r>   -11.3826     0.0000    14.0000 </r>
       <r>   -11.2334     0.0000    14.0000 </r>
       <r>   -11.0843     0.0000    14.0000 </r>
       <r>   -10.9351     0.0000    14.0000 </r>
       <r>   -10.7859     0.0000    14.0000 </r>
       <r>   -10.6368     0.0000    14.0000 </r>
       <r>   -10.4876     0.0000    14.0000 </r>
       <r>   -10.3385     0.0000    14.0000 </r>
       <r>   -10.1893     0.0000    14.0000 </r>
       <r>   -10.0401     0.0000    14.0000 </r>
       <r>    -9.8910     0.0000    14.0000 </r>
       <r>    -9.7418     0.0000    14.0000 </r>
       <r>    -9.5926     0.0000    14.0000 </r>
       <r>    -9.4435     0.0000    14.0000 </r>
       <r>    -9.2943     0.0000    14.0000 </r>
       <r>    -9.1451     0.0000    14.0000 </r>
       <r>    -8.9960     0.0000    14.0000 </r>
       <r>    -8.8468     0.0000    14.0000 </r>
       <r>    -8.6976     0.0000    14.0000 </r>
       <r>    -8.5485     0.0000    14.0000 </r>
       <r>    -8.3993     0.0000    14.0000 </r>
       <r>    -8.2501     0.0000    14.0000 </r>
       <r>    -8.1010     0.0000    14.0000 </r>
       <r>    -7.9518     0.0000    14.0000 </r>
       <r>    -7.8026     0.0000    14.0000 </r>
       <r>    -7.6535     0.0000    14.0000 </r>
       <r>    -7.5043     0.0000    14.0000 </r>
       <r>    -7.3551     0.0000    14.0000 </r>
       <r>    -7.2060     0.0000    14.0000 </r>
       <r>    -7.0568     0.0000    14.0000 </r>
       <r>    -6.9077     0.0000    14.0000 </r>
       <r>    -6.7585     0.0000    14.0000 </r>
       <r>    -6.6093     0.0000    14.0000 </r>
       <r>    -6.4602     0.0000    14.0000 </r>
       <r>    -6.3110     0.0000    14.0000 </r>
       <r>    -6.1618     0.0000    14.0000 </r>
       <r>    -6.0127     0.0000    14.0000 </r>
       <r>    -5.8635     0.0000    14.0000 </r>
       <r>    -5.7143     0.0000    14.0000 </r>
       <r>    -5.5652     0.0000    14.0000 </r>
       <r>    -5.4160     0.0000    14.0000 </r>
       <r>    -5.2668     0.0000    14.0000 </r>
       <r>    -5.1177     0.0000    14.0000 </r>
       <r>    -4.9685     0.0000    14.0000 </r>
       <r>    -4.8193     0.0000    14.0000 </r>
       <r>    -4.6702     0.0000    14.0000 </r>
       <r>    -4.5210     0.0000    14.0000 </r>
       <r>    -4.3718     0.0000    14.0000 </r>
       <r>    -4.2227     0.0000    14.0000 </r>
       <r>    -4.0735     0.0000    14.0000 </r>
       <r>    -3.9244     0.0000    14.0000 </r>
       <r>    -3.7752     0.0000    14.0000 </r>
       <r>    -3.6260     0.0000    14.0000 </r>
       <r>    -3.4769     0.0000    14.0000 </r>
       <r>    -3.3277     0.0000    14.0000 </r>
       <r>    -3.1785     0.0000    14.0000 </r>
       <r>    -3.0294     0.0000    14.0000 </r>
       <r>    -2.8802     0.0000    14.0000 </r>
       <r>    -2.7310     0.0000    14.0000 </r>
       <r>    -2.5819     0.0000    14.0000 </r>
       <r>    -2.4327     0.0000    14.0000 </r>
       <r>    -2.2835     0.0000    14.0000 </r>
       <r>    -2.1344     0.0000    14.0000 </r>
       <r>    -1.9852     0.0000    14.0000 </r>
       <r>    -1.8360     2.0778    14.0998 </r>
       <r>    -1.6869     7.3481    14.8100 </r>
       <r>    -1.5377     3.2163    15.4891 </r>
       <r>    -1.3885     4.3525    16.2613 </r>
       <r>    -1.2394     3.4238    16.8417 </r>
       <r>    -1.0902     3.4342    17.3504 </r>
       <r>    -0.9410     5.1759    17.9876 </r>
       <r>    -0.7919     4.9303    18.7460 </r>
       <r>    -0.6427     5.2225    19.5068 </r>
       <r>    -0.4936     6.6977    20.3528 </r>
       <r>    -0.3444     8.8110    21.4229 </r>
       <r>    -0.1952     3.7402    22.6261 </r>
       <r>    -0.0461     3.2053    23.1412 </r>
       <r>     0.1031     2.4572    23.5520 </r>
       <r>     0.2523     2.1765    23.8934 </r>
       <r>     0.4014     1.8532    24.1751 </r>
       <r>     0.5506     2.7032    24.5074 </r>
       <r>     0.6998     3.1560    24.9536 </r>
       <r>     0.8489     3.2936    25.4441 </r>
       <r>     0.9981     1.0643    25.7650 </r>
       <r>     1.1473     2.0953    25.9833 </r>
       <r>     1.2964     4.6364    26.4755 </r>
       <r>     1.4456     5.9274    27.4051 </r>
       <r>     1.5948     5.9382    28.4559 </r>
       <r>     1.7439     5.9588    29.3268 </r>
       <r>     1.8931     4.8520    30.1533 </r>
       <r>     2.0423     3.5256    30.7647 </r>
       <r>     2.1914     2.8725    31.2514 </r>
       <r>     2.3406     2.0301    31.6024 </r>
       <r>     2.4897     1.5898    31.9162 </r>
       <r>     2.6389     0.0000    32.0000 </r>
       <r>     2.7881     0.0000    32.0000 </r>
       <r>     2.9372     0.0000    32.0000 </r>
       <r>     3.0864     0.0000    32.0000 </r>
       <r>     3.2356     0.0000    32.0000 </r>
       <r>     3.3847     0.0000    32.0000 </r>
       <r>     3.5339     0.0000    32.0000 </r>
       <r>     3.6831     0.0000    32.0000 </r>
       <r>     3.8322     0.0000    32.0000 </r>
       <r>     3.9814     0.0000    32.0000 </r>
       <r>     4.1306     0.0000    32.0000 </r>
       <r>     4.2797     0.0000    32.0000 </r>
       <r>     4.4289     0.1331    32.0070 </r>
       <r>     4.5781     0.4775    32.0494 </r>
       <r>     4.7272     0.8908    32.1514 </r>
       <r>     4.8764     1.5289    32.3376 </r>
       <r>     5.0256     1.5138    32.5690 </r>
       <r>     5.1747     1.4317    32.7828 </r>
       <r>     5.3239     1.6327    33.0113 </r>
       <r>     5.4731     1.8404    33.2703 </r>
       <r>     5.6222     2.3099    33.5640 </r>
       <r>     5.7714     3.1149    33.9993 </r>
       <r>     5.9205     3.4501    34.4850 </r>
       <r>     6.0697     3.9268    35.0328 </r>
       <r>     6.2189     8.5635    36.0257 </r>
       <r>     6.3680     4.1705    36.8386 </r>
       <r>     6.5172     3.0062    37.3801 </r>
       <r>     6.6664     1.3435    37.7013 </r>
       <r>     6.8155     0.1174    37.7976 </r>
       <r>     6.9647     0.1110    37.8146 </r>
       <r>     7.1139     0.1048    37.8307 </r>
       <r>     7.2630     0.0987    37.8459 </r>
       <r>     7.4122     0.0928    37.8601 </r>
       <r>     7.5614     0.0871    37.8736 </r>
       <r>     7.7105     0.0815    37.8861 </r>
       <r>     7.8597     0.0761    37.8979 </r>
       <r>     8.0089     0.0709    37.9089 </r>
       <r>     8.1580     0.0718    37.9193 </r>
       <r>     8.3072     0.0901    37.9312 </r>
       <r>     8.4564     0.1261    37.9471 </r>
       <r>     8.6055     0.2273    37.9738 </r>
       <r>     8.7547     0.2337    38.0084 </r>
       <r>     8.9038     0.2593    38.0449 </r>
       <r>     9.0530     0.3020    38.0866 </r>
       <r>     9.2022     0.3506    38.1352 </r>
       <r>     9.3513     0.4090    38.1915 </r>
       <r>     9.5005     0.5048    38.2594 </r>
       <r>     9.6497     0.6169    38.3429 </r>
       <r>     9.7988     0.7289    38.4494 </r>
       <r>     9.9480     1.3297    38.6137 </r>
       <r>    10.0972     1.6013    38.8449 </r>
       <r>    10.2463     1.8312    39.0999 </r>
       <r>    10.3955     2.0924    39.3934 </r>
       <r>    10.5447     3.4897    39.8276 </r>
       <r>    10.6938     0.0000    40.0000 </r>
       <r>    10.8430     0.0000    40.0000 </r>
       <r>    10.9922     0.0000    40.0000 </r>
       <r>    11.1413     0.0000    40.0000 </r>
       <r>    11.2905     0.0000    40.0000 </r>
       <r>    11.4397     0.0000    40.0000 </r>
       <r>    11.5888     0.0000    40.0000 </r>
       <r>    11.7380     0.0000    40.0000 </r>
       <r>    11.8872     0.0000    40.0000 </r>
       <r>    12.0363     0.0000    40.0000 </r>
       <r>    12.1855     0.0000    40.0000 </r>
       <r>    12.3346     0.0000    40.0000 </r>
       <r>    12.4838     0.0000    40.0000 </r>
       <r>    12.6330     0.0000    40.0000 </r>
      </set>
     </set>
    </array>
   </total>
  </dos>
 </calculation>
 <structure name="finalpos" >
  <crystal>
   <varray name="basis" >
    <v>       3.90526800       0.00000000       0.00000000 </v>
    <v>       0.00000000       3.90526800       0.00000000 </v>
    <v>       0.00000000       0.00000000       3.90526800 </v>
   </varray>
   <i name="volume">     59.55970368 </i>
   <varray name="rec_basis" >
    <v>       0.25606437       0.00000000       0.00000000 </v>
    <v>       0.00000000       0.25606437       0.00000000 </v>
    <v>       0.00000000       0.00000000       0.25606437 </v>
   </varray>
  </crystal>
  <varray name="positions" >
   <v>       0.00000000       0.00000000       0.00000000 </v>
   <v>       0.50000000       0.50000000       0.50000000 </v>
   <v>       0.50000000       0.50000000       0.00000000 </v>
   <v>       0.50000000       0.00000000       0.50000000 </v>
   <v>       0.00000000       0.50000000       0.50000000 </v>
  </varray>
 </structure>
</modeling>
