   9   9   0   0
  0.1255774E+02  0.4913700E-09  0.4913700E-09  0.5405130E-09  0.5000000E-15
  1.000000000000000E-004
  CAR 
 unknown system                          
     13.83027463    -20.37235761  301      1.11829631      1.00000000
    -20.372  0.0000E+00  0.0000E+00
    -20.258  0.0000E+00  0.0000E+00
    -20.144  0.0000E+00  0.0000E+00
    -20.030  0.0000E+00  0.0000E+00
    -19.916  0.0000E+00  0.0000E+00
    -19.802  0.0000E+00  0.0000E+00
    -19.688  0.0000E+00  0.0000E+00
    -19.574  0.0000E+00  0.0000E+00
    -19.460  0.0000E+00  0.0000E+00
    -19.346  0.0000E+00  0.0000E+00
    -19.232  0.0000E+00  0.0000E+00
    -19.118  0.0000E+00  0.0000E+00
    -19.004  0.0000E+00  0.0000E+00
    -18.890  0.0000E+00  0.0000E+00
    -18.776  0.0000E+00  0.0000E+00
    -18.662  0.0000E+00  0.0000E+00
    -18.548  0.0000E+00  0.0000E+00
    -18.434  0.0000E+00  0.0000E+00
    -18.320  0.3564E+00  0.6196E-02
    -18.206  0.1376E+01  0.1242E+00
    -18.092  0.2316E+01  0.3339E+00
    -17.978  0.4165E+01  0.7087E+00
    -17.864  0.9522E+01  0.1365E+01
    -17.750  0.5062E+00  0.1984E+01
    -17.636  0.1150E+01  0.2073E+01
    -17.522  0.2265E+01  0.2261E+01
    -17.408  0.7171E+01  0.2718E+01
    -17.294  0.2995E+01  0.3620E+01
    -17.180  0.1244E+01  0.3844E+01
    -17.066  0.6022E+00  0.3944E+01
    -16.952  0.1058E+01  0.4022E+01
    -16.838  0.6851E+01  0.4412E+01
    -16.724  0.3808E+01  0.5324E+01
    -16.610  0.2033E+01  0.5633E+01
    -16.496  0.1289E+01  0.5814E+01
    -16.382  0.7626E+00  0.5931E+01
    -16.268  0.3193E+02  0.6102E+01
    -16.154  0.2352E+02  0.1176E+02
    -16.040  0.0000E+00  0.1200E+02
    -15.926  0.0000E+00  0.1200E+02
    -15.812  0.0000E+00  0.1200E+02
    -15.698  0.0000E+00  0.1200E+02
    -15.584  0.0000E+00  0.1200E+02
    -15.470  0.0000E+00  0.1200E+02
    -15.356  0.0000E+00  0.1200E+02
    -15.242  0.0000E+00  0.1200E+02
    -15.128  0.0000E+00  0.1200E+02
    -15.014  0.0000E+00  0.1200E+02
    -14.900  0.0000E+00  0.1200E+02
    -14.786  0.0000E+00  0.1200E+02
    -14.672  0.0000E+00  0.1200E+02
    -14.558  0.0000E+00  0.1200E+02
    -14.444  0.0000E+00  0.1200E+02
    -14.330  0.0000E+00  0.1200E+02
    -14.216  0.0000E+00  0.1200E+02
    -14.102  0.0000E+00  0.1200E+02
    -13.988  0.0000E+00  0.1200E+02
    -13.874  0.0000E+00  0.1200E+02
    -13.760  0.0000E+00  0.1200E+02
    -13.646  0.0000E+00  0.1200E+02
    -13.532  0.0000E+00  0.1200E+02
    -13.418  0.0000E+00  0.1200E+02
    -13.304  0.0000E+00  0.1200E+02
    -13.190  0.0000E+00  0.1200E+02
    -13.076  0.0000E+00  0.1200E+02
    -12.962  0.0000E+00  0.1200E+02
    -12.848  0.0000E+00  0.1200E+02
    -12.734  0.0000E+00  0.1200E+02
    -12.620  0.0000E+00  0.1200E+02
    -12.506  0.0000E+00  0.1200E+02
    -12.392  0.0000E+00  0.1200E+02
    -12.278  0.0000E+00  0.1200E+02
    -12.164  0.0000E+00  0.1200E+02
    -12.050  0.0000E+00  0.1200E+02
    -11.936  0.0000E+00  0.1200E+02
    -11.822  0.0000E+00  0.1200E+02
    -11.708  0.0000E+00  0.1200E+02
    -11.594  0.0000E+00  0.1200E+02
    -11.480  0.0000E+00  0.1200E+02
    -11.366  0.0000E+00  0.1200E+02
    -11.252  0.0000E+00  0.1200E+02
    -11.138  0.0000E+00  0.1200E+02
    -11.024  0.0000E+00  0.1200E+02
    -10.910  0.0000E+00  0.1200E+02
    -10.796  0.0000E+00  0.1200E+02
    -10.682  0.0000E+00  0.1200E+02
    -10.568  0.0000E+00  0.1200E+02
    -10.454  0.0000E+00  0.1200E+02
    -10.340  0.0000E+00  0.1200E+02
    -10.226  0.0000E+00  0.1200E+02
    -10.112  0.0000E+00  0.1200E+02
     -9.998  0.0000E+00  0.1200E+02
     -9.884  0.0000E+00  0.1200E+02
     -9.770  0.0000E+00  0.1200E+02
     -9.656  0.0000E+00  0.1200E+02
     -9.542  0.0000E+00  0.1200E+02
     -9.428  0.0000E+00  0.1200E+02
     -9.314  0.0000E+00  0.1200E+02
     -9.199  0.0000E+00  0.1200E+02
     -9.085  0.0000E+00  0.1200E+02
     -8.971  0.0000E+00  0.1200E+02
     -8.857  0.0000E+00  0.1200E+02
     -8.743  0.0000E+00  0.1200E+02
     -8.629  0.0000E+00  0.1200E+02
     -8.515  0.0000E+00  0.1200E+02
     -8.401  0.0000E+00  0.1200E+02
     -8.287  0.0000E+00  0.1200E+02
     -8.173  0.1098E+00  0.1200E+02
     -8.059  0.4245E+00  0.1203E+02
     -7.945  0.5225E+00  0.1208E+02
     -7.831  0.7374E+00  0.1216E+02
     -7.717  0.9205E+00  0.1225E+02
     -7.603  0.1310E+01  0.1238E+02
     -7.489  0.1820E+01  0.1255E+02
     -7.375  0.3780E+01  0.1284E+02
     -7.261  0.3943E+01  0.1363E+02
     -7.147  0.8241E+00  0.1391E+02
     -7.033  0.4361E+00  0.1398E+02
     -6.919  0.2392E+00  0.1401E+02
     -6.805  0.2737E+00  0.1404E+02
     -6.691  0.4189E+00  0.1408E+02
     -6.577  0.6502E+00  0.1414E+02
     -6.463  0.1094E+01  0.1424E+02
     -6.349  0.1849E+01  0.1440E+02
     -6.235  0.5204E+01  0.1477E+02
     -6.121  0.3140E+01  0.1535E+02
     -6.007  0.1765E+01  0.1562E+02
     -5.893  0.1072E+01  0.1578E+02
     -5.779  0.7302E+00  0.1588E+02
     -5.665  0.4860E+00  0.1595E+02
     -5.551  0.1652E+00  0.1600E+02
     -5.437  0.1126E+01  0.1604E+02
     -5.323  0.3041E+01  0.1628E+02
     -5.209  0.3000E+01  0.1667E+02
     -5.095  0.2904E+01  0.1700E+02
     -4.981  0.2504E+01  0.1732E+02
     -4.867  0.1716E+01  0.1755E+02
     -4.753  0.1266E+01  0.1772E+02
     -4.639  0.9173E+00  0.1785E+02
     -4.525  0.6641E+00  0.1793E+02
     -4.411  0.3197E+01  0.1810E+02
     -4.297  0.1160E+02  0.1963E+02
     -4.183  0.6020E+01  0.2065E+02
     -4.069  0.7610E+01  0.2137E+02
     -3.955  0.5888E+01  0.2199E+02
     -3.841  0.8148E+01  0.2255E+02
     -3.727  0.5510E+01  0.2340E+02
     -3.613  0.2532E+01  0.2386E+02
     -3.499  0.1366E+00  0.2400E+02
     -3.385  0.0000E+00  0.2400E+02
     -3.271  0.0000E+00  0.2400E+02
     -3.157  0.0000E+00  0.2400E+02
     -3.043  0.0000E+00  0.2400E+02
     -2.929  0.0000E+00  0.2400E+02
     -2.815  0.0000E+00  0.2400E+02
     -2.701  0.0000E+00  0.2400E+02
     -2.587  0.0000E+00  0.2400E+02
     -2.473  0.0000E+00  0.2400E+02
     -2.359  0.0000E+00  0.2400E+02
     -2.245  0.0000E+00  0.2400E+02
     -2.131  0.8164E+01  0.2421E+02
     -2.017  0.1006E+02  0.2560E+02
     -1.903  0.5540E+01  0.2633E+02
     -1.789  0.9848E+01  0.2710E+02
     -1.675  0.5937E+01  0.2788E+02
     -1.561  0.9025E+01  0.2860E+02
     -1.447  0.6047E+01  0.2959E+02
     -1.333  0.6845E+00  0.3001E+02
     -1.219  0.1106E+02  0.3038E+02
     -1.105  0.6647E+01  0.3169E+02
     -0.991  0.6690E+01  0.3208E+02
     -0.877  0.6347E+01  0.3377E+02
     -0.763  0.2472E+01  0.3400E+02
     -0.649  0.5901E+01  0.3456E+02
     -0.535  0.1015E+02  0.3538E+02
     -0.421  0.9728E+01  0.3664E+02
     -0.307  0.4737E+01  0.3758E+02
     -0.193  0.7220E+01  0.3814E+02
     -0.079  0.1091E+02  0.3940E+02
      0.035  0.3990E+01  0.4018E+02
      0.149  0.1626E+02  0.4153E+02
      0.263  0.1425E+01  0.4202E+02
      0.377  0.1368E+02  0.4294E+02
      0.491  0.3924E+01  0.4376E+02
      0.605  0.4501E+01  0.4428E+02
      0.719  0.8164E+01  0.4498E+02
      0.833  0.6767E+01  0.4606E+02
      0.947  0.8345E+01  0.4679E+02
      1.061  0.3026E+01  0.4797E+02
      1.175  0.0000E+00  0.4800E+02
      1.289  0.0000E+00  0.4800E+02
      1.403  0.0000E+00  0.4800E+02
      1.517  0.0000E+00  0.4800E+02
      1.631  0.0000E+00  0.4800E+02
      1.745  0.0000E+00  0.4800E+02
      1.859  0.0000E+00  0.4800E+02
      1.973  0.0000E+00  0.4800E+02
      2.087  0.0000E+00  0.4800E+02
      2.201  0.0000E+00  0.4800E+02
      2.315  0.0000E+00  0.4800E+02
      2.429  0.0000E+00  0.4800E+02
      2.543  0.0000E+00  0.4800E+02
      2.657  0.0000E+00  0.4800E+02
      2.771  0.0000E+00  0.4800E+02
      2.885  0.0000E+00  0.4800E+02
      2.999  0.0000E+00  0.4800E+02
      3.113  0.0000E+00  0.4800E+02
      3.227  0.0000E+00  0.4800E+02
      3.341  0.0000E+00  0.4800E+02
      3.455  0.0000E+00  0.4800E+02
      3.569  0.0000E+00  0.4800E+02
      3.683  0.0000E+00  0.4800E+02
      3.798  0.0000E+00  0.4800E+02
      3.912  0.0000E+00  0.4800E+02
      4.026  0.0000E+00  0.4800E+02
      4.140  0.0000E+00  0.4800E+02
      4.254  0.0000E+00  0.4800E+02
      4.368  0.0000E+00  0.4800E+02
      4.482  0.0000E+00  0.4800E+02
      4.596  0.0000E+00  0.4800E+02
      4.710  0.0000E+00  0.4800E+02
      4.824  0.0000E+00  0.4800E+02
      4.938  0.0000E+00  0.4800E+02
      5.052  0.0000E+00  0.4800E+02
      5.166  0.0000E+00  0.4800E+02
      5.280  0.0000E+00  0.4800E+02
      5.394  0.0000E+00  0.4800E+02
      5.508  0.0000E+00  0.4800E+02
      5.622  0.0000E+00  0.4800E+02
      5.736  0.0000E+00  0.4800E+02
      5.850  0.0000E+00  0.4800E+02
      5.964  0.0000E+00  0.4800E+02
      6.078  0.0000E+00  0.4800E+02
      6.192  0.0000E+00  0.4800E+02
      6.306  0.0000E+00  0.4800E+02
      6.420  0.0000E+00  0.4800E+02
      6.534  0.0000E+00  0.4800E+02
      6.648  0.0000E+00  0.4800E+02
      6.762  0.0000E+00  0.4800E+02
      6.876  0.0000E+00  0.4800E+02
      6.990  0.0000E+00  0.4800E+02
      7.104  0.0000E+00  0.4800E+02
      7.218  0.9520E-02  0.4800E+02
      7.332  0.4489E-01  0.4800E+02
      7.446  0.1064E+00  0.4801E+02
      7.560  0.1956E+00  0.4803E+02
      7.674  0.2448E+00  0.4805E+02
      7.788  0.2765E+00  0.4808E+02
      7.902  0.2960E+00  0.4812E+02
      8.016  0.3411E+00  0.4815E+02
      8.130  0.3887E+00  0.4819E+02
      8.244  0.4389E+00  0.4824E+02
      8.358  0.4914E+00  0.4829E+02
      8.472  0.5460E+00  0.4835E+02
      8.586  0.6808E+00  0.4842E+02
      8.700  0.8323E+00  0.4851E+02
      8.814  0.8200E+00  0.4860E+02
      8.928  0.8802E+00  0.4870E+02
      9.042  0.9424E+00  0.4881E+02
      9.156  0.1007E+01  0.4892E+02
      9.270  0.1097E+01  0.4903E+02
      9.384  0.1527E+01  0.4919E+02
      9.498  0.1358E+01  0.4936E+02
      9.612  0.1242E+01  0.4951E+02
      9.726  0.1402E+01  0.4966E+02
      9.840  0.1482E+01  0.4982E+02
      9.954  0.1813E+01  0.5003E+02
     10.068  0.1108E+01  0.5019E+02
     10.182  0.1857E+01  0.5033E+02
     10.296  0.5462E+01  0.5070E+02
     10.410  0.8058E+01  0.5178E+02
     10.524  0.3817E+01  0.5230E+02
     10.638  0.7854E+01  0.5297E+02
     10.752  0.7162E+01  0.5385E+02
     10.866  0.2827E+01  0.5439E+02
     10.980  0.3283E+01  0.5469E+02
     11.094  0.8176E+01  0.5531E+02
     11.208  0.2779E+01  0.5598E+02
     11.322  0.3267E+01  0.5637E+02
     11.436  0.5662E+01  0.5685E+02
     11.550  0.5403E+01  0.5761E+02
     11.664  0.8173E+00  0.5795E+02
     11.778  0.2269E+00  0.5799E+02
     11.892  0.0000E+00  0.5800E+02
     12.006  0.0000E+00  0.5800E+02
     12.120  0.0000E+00  0.5800E+02
     12.234  0.0000E+00  0.5800E+02
     12.348  0.0000E+00  0.5800E+02
     12.462  0.0000E+00  0.5800E+02
     12.576  0.0000E+00  0.5800E+02
     12.690  0.0000E+00  0.5800E+02
     12.804  0.0000E+00  0.5800E+02
     12.918  0.0000E+00  0.5800E+02
     13.032  0.0000E+00  0.5800E+02
     13.146  0.0000E+00  0.5800E+02
     13.260  0.0000E+00  0.5800E+02
     13.374  0.0000E+00  0.5800E+02
     13.488  0.0000E+00  0.5800E+02
     13.602  0.0000E+00  0.5800E+02
     13.716  0.0000E+00  0.5800E+02
     13.830  0.0000E+00  0.5800E+02
