       N       E                     dE             d eps       ncg     rms          rms(c)
DAV:   1     0.407180399738E+03    0.40718E+03   -0.33399E+04  3190   0.226E+03
DAV:   2    -0.536716083927E+02   -0.46085E+03   -0.44997E+03  4307   0.401E+02
DAV:   3    -0.802887721077E+02   -0.26617E+02   -0.26531E+02  3715   0.106E+02
DAV:   4    -0.806708993827E+02   -0.38213E+00   -0.38138E+00  3764   0.135E+01
DAV:   5    -0.806780672312E+02   -0.71678E-02   -0.71649E-02  3680   0.184E+00    0.188E+01
RMM:   6    -0.710720891290E+02    0.96060E+01   -0.42047E+01  3387   0.346E+01    0.514E+00
RMM:   7    -0.710524967175E+02    0.19592E-01   -0.16984E+00  3673   0.600E+00    0.340E+00
RMM:   8    -0.710679779612E+02   -0.15481E-01   -0.28047E-01  3595   0.441E+00    0.648E-01
RMM:   9    -0.710600152525E+02    0.79627E-02   -0.58163E-02  3734   0.128E+00    0.138E-01
RMM:  10    -0.710634065956E+02   -0.33913E-02   -0.18487E-02  3671   0.730E-01    0.248E-01
RMM:  11    -0.710618785799E+02    0.15280E-02   -0.32451E-03  3728   0.333E-01    0.698E-02
RMM:  12    -0.710618213742E+02    0.57206E-04   -0.10260E-03  3721   0.171E-01    0.874E-03
RMM:  13    -0.710618233521E+02   -0.19779E-05   -0.29188E-05  2746   0.319E-02
   1 F= -.71061823E+02 E0= -.71061823E+02  d E =0.000000E+00
