   20   20  200    1
  0.2397744E+02  0.5581684E-09  0.3946846E-09  0.2176795E-08  0.5000000E-15
  1.000000000000000E-004
  CAR 
 unknown system                          
    128     12     76
 
  0.0000000E+00  0.0000000E+00  0.0000000E+00  0.2857143E-01
    1      -35.572977   1.000000
    2      -34.395414   1.000000
    3      -33.133177   1.000000
    4      -32.552963   1.000000
    5      -19.863853   1.000000
    6      -19.608527   1.000000
    7      -19.184096   1.000000
    8      -18.859033   1.000000
    9      -18.579436   1.000000
   10      -18.352090   1.000000
   11      -17.689543   1.000000
   12      -17.618027   1.000000
   13      -17.299924   1.000000
   14      -17.196905   1.000000
   15      -17.169435   1.000000
   16      -17.034711   1.000000
   17      -16.481073   1.000000
   18      -16.378088   1.000000
   19      -16.151197   1.000000
   20      -16.084980   1.000000
   21      -15.939269   1.000000
   22      -15.888783   1.000000
   23      -15.214265   1.000000
   24      -14.844524   1.000000
   25      -14.813284   1.000000
   26      -14.628548   1.000000
   27      -14.508312   1.000000
   28      -13.800407   1.000000
   29       -6.341036   1.000000
   30       -6.285586   1.000000
   31       -5.584367   1.000000
   32       -5.448530   1.000000
   33       -5.269619   1.000000
   34       -5.092012   1.000000
   35       -5.048112   1.000000
   36       -4.930066   1.000000
   37       -4.757702   1.000000
   38       -4.715682   1.000000
   39       -4.441348   1.000000
   40       -4.194501   1.000000
   41       -4.107826   1.000000
   42       -4.063548   1.000000
   43       -3.994388   1.000000
   44       -3.993638   1.000000
   45       -3.750640   1.000000
   46       -3.610864   1.000000
   47       -3.325990   1.000000
   48       -3.171624   1.000000
   49       -2.910827   1.000000
   50       -2.876197   1.000000
   51       -2.765814   1.000000
   52       -2.755341   1.000000
   53       -2.661892   1.000000
   54       -2.419684   1.000000
   55       -2.029513   1.000000
   56       -1.941599   1.000000
   57       -1.896883   1.000000
   58       -1.699536   1.000000
   59       -1.484543   1.000000
   60       -1.474687   1.000000
   61       -1.406115   1.000000
   62       -1.076877   1.000000
   63       -0.767061   0.999999
   64       -0.126605   0.579739
   65       -0.037311   0.333534
   66        0.291712   0.002919
   67        0.791251   0.000000
   68        1.041823   0.000000
   69        1.324220   0.000000
   70        1.533976   0.000000
   71        1.721917   0.000000
   72        1.806183   0.000000
   73        2.127914   0.000000
   74        2.630264   0.000000
   75        2.721011   0.000000
   76        2.965276   0.000000
 
  0.2000000E+00  0.0000000E+00  0.0000000E+00  0.5714286E-01
    1      -35.572749   1.000000
    2      -34.395176   1.000000
    3      -33.132941   1.000000
    4      -32.552805   1.000000
    5      -19.867373   1.000000
    6      -19.690764   1.000000
    7      -19.111702   1.000000
    8      -18.897732   1.000000
    9      -18.563072   1.000000
   10      -18.358705   1.000000
   11      -17.690297   1.000000
   12      -17.629792   1.000000
   13      -17.285463   1.000000
   14      -17.197461   1.000000
   15      -17.152771   1.000000
   16      -17.044737   1.000000
   17      -16.481826   1.000000
   18      -16.420293   1.000000
   19      -16.122814   1.000000
   20      -16.057010   1.000000
   21      -15.937981   1.000000
   22      -15.848193   1.000000
   23      -15.215057   1.000000
   24      -14.836789   1.000000
   25      -14.768616   1.000000
   26      -14.649922   1.000000
   27      -14.508849   1.000000
   28      -13.798156   1.000000
   29       -6.411546   1.000000
   30       -6.241082   1.000000
   31       -5.553690   1.000000
   32       -5.408114   1.000000
   33       -5.253732   1.000000
   34       -5.110571   1.000000
   35       -5.060665   1.000000
   36       -4.878047   1.000000
   37       -4.836661   1.000000
   38       -4.685583   1.000000
   39       -4.399804   1.000000
   40       -4.233367   1.000000
   41       -4.172830   1.000000
   42       -4.066210   1.000000
   43       -4.008194   1.000000
   44       -3.856092   1.000000
   45       -3.778321   1.000000
   46       -3.593045   1.000000
   47       -3.474178   1.000000
   48       -3.195405   1.000000
   49       -2.962742   1.000000
   50       -2.856659   1.000000
   51       -2.779140   1.000000
   52       -2.745699   1.000000
   53       -2.559995   1.000000
   54       -2.399664   1.000000
   55       -2.188447   1.000000
   56       -1.967343   1.000000
   57       -1.873286   1.000000
   58       -1.809276   1.000000
   59       -1.492992   1.000000
   60       -1.459625   1.000000
   61       -1.213431   1.000000
   62       -1.098642   1.000000
   63       -0.918976   1.000000
   64       -0.322815   0.943930
   65        0.183773   0.023105
   66        0.242276   0.008039
   67        0.841107   0.000000
   68        1.026360   0.000000
   69        1.290227   0.000000
   70        1.396849   0.000000
   71        1.791534   0.000000
   72        1.890521   0.000000
   73        2.108839   0.000000
   74        2.588951   0.000000
   75        2.755178   0.000000
   76        3.020793   0.000000
 
  0.4000000E+00  0.0000000E+00  0.0000000E+00  0.5714286E-01
    1      -35.572381   1.000000
    2      -34.394792   1.000000
    3      -33.132560   1.000000
    4      -32.552548   1.000000
    5      -19.884466   1.000000
    6      -19.777055   1.000000
    7      -19.029134   1.000000
    8      -18.955006   1.000000
    9      -18.528337   1.000000
   10      -18.386952   1.000000
   11      -17.691511   1.000000
   12      -17.645496   1.000000
   13      -17.254450   1.000000
   14      -17.191783   1.000000
   15      -17.127716   1.000000
   16      -17.076017   1.000000
   17      -16.483038   1.000000
   18      -16.463798   1.000000
   19      -16.085791   1.000000
   20      -16.007405   1.000000
   21      -15.948601   1.000000
   22      -15.789798   1.000000
   23      -15.216330   1.000000
   24      -14.782305   1.000000
   25      -14.722705   1.000000
   26      -14.696422   1.000000
   27      -14.509711   1.000000
   28      -13.795067   1.000000
   29       -6.493769   1.000000
   30       -6.203048   1.000000
   31       -5.500188   1.000000
   32       -5.319404   1.000000
   33       -5.243106   1.000000
   34       -5.145206   1.000000
   35       -5.095303   1.000000
   36       -4.860636   1.000000
   37       -4.818828   1.000000
   38       -4.649681   1.000000
   39       -4.470527   1.000000
   40       -4.147472   1.000000
   41       -4.140535   1.000000
   42       -4.072863   1.000000
   43       -4.020926   1.000000
   44       -3.853419   1.000000
   45       -3.796227   1.000000
   46       -3.735233   1.000000
   47       -3.585874   1.000000
   48       -3.293208   1.000000
   49       -2.844152   1.000000
   50       -2.789398   1.000000
   51       -2.786586   1.000000
   52       -2.720676   1.000000
   53       -2.542059   1.000000
   54       -2.416435   1.000000
   55       -2.319487   1.000000
   56       -2.184977   1.000000
   57       -1.833267   1.000000
   58       -1.732851   1.000000
   59       -1.525636   1.000000
   60       -1.369077   1.000000
   61       -1.216362   1.000000
   62       -1.135132   1.000000
   63       -0.956468   1.000000
   64       -0.683285   0.999982
   65        0.168438   0.029712
   66        0.554594   0.000002
   67        0.770847   0.000000
   68        0.995140   0.000000
   69        1.240783   0.000000
   70        1.544452   0.000000
   71        1.764659   0.000000
   72        1.926722   0.000000
   73        2.106688   0.000000
   74        2.506055   0.000000
   75        2.523883   0.000000
   76        2.879359   0.000000
 
  0.0000000E+00  0.1428571E+00  0.0000000E+00  0.5714286E-01
    1      -35.568483   1.000000
    2      -34.391259   1.000000
    3      -33.129044   1.000000
    4      -32.548529   1.000000
    5      -19.934711   1.000000
    6      -19.545962   1.000000
    7      -19.140146   1.000000
    8      -18.895336   1.000000
    9      -18.639398   1.000000
   10      -18.293170   1.000000
   11      -17.660589   1.000000
   12      -17.542714   1.000000
   13      -17.353608   1.000000
   14      -17.289925   1.000000
   15      -17.139476   1.000000
   16      -16.976073   1.000000
   17      -16.426026   1.000000
   18      -16.350984   1.000000
   19      -16.169678   1.000000
   20      -16.107763   1.000000
   21      -16.068560   1.000000
   22      -15.913631   1.000000
   23      -15.090553   1.000000
   24      -14.897329   1.000000
   25      -14.859169   1.000000
   26      -14.664777   1.000000
   27      -14.191392   1.000000
   28      -13.927385   1.000000
   29       -6.356536   1.000000
   30       -6.203345   1.000000
   31       -5.621653   1.000000
   32       -5.579017   1.000000
   33       -5.496226   1.000000
   34       -5.333358   1.000000
   35       -5.006327   1.000000
   36       -4.898887   1.000000
   37       -4.784044   1.000000
   38       -4.669058   1.000000
   39       -4.413819   1.000000
   40       -4.328951   1.000000
   41       -4.289504   1.000000
   42       -4.141636   1.000000
   43       -4.014911   1.000000
   44       -3.742626   1.000000
   45       -3.697105   1.000000
   46       -3.552976   1.000000
   47       -3.331857   1.000000
   48       -3.130684   1.000000
   49       -3.101444   1.000000
   50       -2.999169   1.000000
   51       -2.929492   1.000000
   52       -2.873641   1.000000
   53       -2.397239   1.000000
   54       -2.300986   1.000000
   55       -2.089438   1.000000
   56       -1.966602   1.000000
   57       -1.877784   1.000000
   58       -1.776883   1.000000
   59       -1.598714   1.000000
   60       -1.508554   1.000000
   61       -1.422993   1.000000
   62       -0.804479   1.000000
   63       -0.769459   0.999999
   64       -0.110710   0.535393
   65        0.075959   0.109140
   66        0.415702   0.000140
   67        0.571581   0.000001
   68        0.914965   0.000000
   69        1.434965   0.000000
   70        1.460633   0.000000
   71        1.644947   0.000000
   72        1.712490   0.000000
   73        2.330568   0.000000
   74        2.734405   0.000000
   75        2.766447   0.000000
   76        2.890814   0.000000
 
  0.2000000E+00  0.1428571E+00  0.0000000E+00  0.1142857E+00
    1      -35.568289   1.000000
    2      -34.391055   1.000000
    3      -33.128843   1.000000
    4      -32.548395   1.000000
    5      -19.916981   1.000000
    6      -19.636099   1.000000
    7      -19.085062   1.000000
    8      -18.930040   1.000000
    9      -18.616210   1.000000
   10      -18.309673   1.000000
   11      -17.677326   1.000000
   12      -17.541639   1.000000
   13      -17.331028   1.000000
   14      -17.264376   1.000000
   15      -17.144185   1.000000
   16      -16.995489   1.000000
   17      -16.456676   1.000000
   18      -16.349740   1.000000
   19      -16.138526   1.000000
   20      -16.097369   1.000000
   21      -16.034286   1.000000
   22      -15.917056   1.000000
   23      -15.088892   1.000000
   24      -14.881133   1.000000
   25      -14.828068   1.000000
   26      -14.677428   1.000000
   27      -14.189232   1.000000
   28      -13.919793   1.000000
   29       -6.376353   1.000000
   30       -6.230489   1.000000
   31       -5.669826   1.000000
   32       -5.501162   1.000000
   33       -5.480422   1.000000
   34       -5.347190   1.000000
   35       -5.017088   1.000000
   36       -4.888062   1.000000
   37       -4.875499   1.000000
   38       -4.573504   1.000000
   39       -4.388751   1.000000
   40       -4.341963   1.000000
   41       -4.269078   1.000000
   42       -4.157039   1.000000
   43       -4.028785   1.000000
   44       -3.761229   1.000000
   45       -3.625736   1.000000
   46       -3.566186   1.000000
   47       -3.472035   1.000000
   48       -3.196699   1.000000
   49       -3.025199   1.000000
   50       -2.994206   1.000000
   51       -2.949738   1.000000
   52       -2.832074   1.000000
   53       -2.353581   1.000000
   54       -2.298384   1.000000
   55       -2.175021   1.000000
   56       -2.015285   1.000000
   57       -1.872585   1.000000
   58       -1.820470   1.000000
   59       -1.697853   1.000000
   60       -1.417044   1.000000
   61       -1.294726   1.000000
   62       -0.939463   1.000000
   63       -0.686604   0.999984
   64       -0.295875   0.918966
   65        0.192359   0.019979
   66        0.330051   0.001232
   67        0.635612   0.000000
   68        0.969732   0.000000
   69        1.365469   0.000000
   70        1.405672   0.000000
   71        1.507246   0.000000
   72        1.934379   0.000000
   73        2.326395   0.000000
   74        2.669873   0.000000
   75        2.766960   0.000000
   76        2.888469   0.000000
 
  0.4000000E+00  0.1428571E+00  0.0000000E+00  0.1142857E+00
    1      -35.567975   1.000000
    2      -34.390725   1.000000
    3      -33.128516   1.000000
    4      -32.548176   1.000000
    5      -19.866343   1.000000
    6      -19.771836   1.000000
    7      -19.033606   1.000000
    8      -18.977131   1.000000
    9      -18.569038   1.000000
   10      -18.351355   1.000000
   11      -17.701845   1.000000
   12      -17.540121   1.000000
   13      -17.285187   1.000000
   14      -17.215514   1.000000
   15      -17.155853   1.000000
   16      -17.040978   1.000000
   17      -16.495758   1.000000
   18      -16.346593   1.000000
   19      -16.087317   1.000000
   20      -16.053524   1.000000
   21      -16.011615   1.000000
   22      -15.929974   1.000000
   23      -15.086001   1.000000
   24      -14.840803   1.000000
   25      -14.785154   1.000000
   26      -14.704629   1.000000
   27      -14.179556   1.000000
   28      -13.911354   1.000000
   29       -6.452524   1.000000
   30       -6.218347   1.000000
   31       -5.739087   1.000000
   32       -5.517052   1.000000
   33       -5.356065   1.000000
   34       -5.329547   1.000000
   35       -5.089915   1.000000
   36       -4.846930   1.000000
   37       -4.810541   1.000000
   38       -4.587084   1.000000
   39       -4.431247   1.000000
   40       -4.347240   1.000000
   41       -4.247392   1.000000
   42       -4.118953   1.000000
   43       -4.047964   1.000000
   44       -3.824532   1.000000
   45       -3.691715   1.000000
   46       -3.618723   1.000000
   47       -3.369268   1.000000
   48       -3.256571   1.000000
   49       -3.115005   1.000000
   50       -3.041132   1.000000
   51       -2.882395   1.000000
   52       -2.686023   1.000000
   53       -2.434172   1.000000
   54       -2.300420   1.000000
   55       -2.179969   1.000000
   56       -2.075422   1.000000
   57       -1.880239   1.000000
   58       -1.806192   1.000000
   59       -1.695748   1.000000
   60       -1.618356   1.000000
   61       -1.064470   1.000000
   62       -0.840546   1.000000
   63       -0.719511   0.999994
   64       -0.641235   0.999939
   65        0.090218   0.091440
   66        0.493815   0.000014
   67        0.702181   0.000000
   68        0.910897   0.000000
   69        1.303776   0.000000
   70        1.445983   0.000000
   71        1.618766   0.000000
   72        1.945062   0.000000
   73        2.339008   0.000000
   74        2.603580   0.000000
   75        2.686041   0.000000
   76        2.775125   0.000000
 
  0.0000000E+00  0.2857143E+00  0.0000000E+00  0.5714286E-01
    1      -35.558356   1.000000
    2      -34.381899   1.000000
    3      -33.119733   1.000000
    4      -32.538536   1.000000
    5      -20.115883   1.000000
    6      -19.384261   1.000000
    7      -19.052780   1.000000
    8      -18.871076   1.000000
    9      -18.787683   1.000000
   10      -18.141366   1.000000
   11      -17.682320   1.000000
   12      -17.519473   1.000000
   13      -17.496553   1.000000
   14      -17.287903   1.000000
   15      -17.062174   1.000000
   16      -16.824778   1.000000
   17      -16.514485   1.000000
   18      -16.407697   1.000000
   19      -16.378699   1.000000
   20      -16.115639   1.000000
   21      -15.860764   1.000000
   22      -15.839691   1.000000
   23      -15.105044   1.000000
   24      -14.875398   1.000000
   25      -14.844550   1.000000
   26      -14.619346   1.000000
   27      -14.253609   1.000000
   28      -13.773311   1.000000
   29       -6.505503   1.000000
   30       -6.027175   1.000000
   31       -5.955389   1.000000
   32       -5.646781   1.000000
   33       -5.627891   1.000000
   34       -5.498093   1.000000
   35       -5.154295   1.000000
   36       -5.103843   1.000000
   37       -4.837355   1.000000
   38       -4.701268   1.000000
   39       -4.552126   1.000000
   40       -4.533416   1.000000
   41       -4.340002   1.000000
   42       -4.036942   1.000000
   43       -3.904707   1.000000
   44       -3.876813   1.000000
   45       -3.815654   1.000000
   46       -3.476591   1.000000
   47       -3.379030   1.000000
   48       -3.235241   1.000000
   49       -3.134395   1.000000
   50       -3.053204   1.000000
   51       -2.971322   1.000000
   52       -2.771005   1.000000
   53       -2.764105   1.000000
   54       -2.284565   1.000000
   55       -2.139287   1.000000
   56       -2.023323   1.000000
   57       -1.864918   1.000000
   58       -1.818327   1.000000
   59       -1.665305   1.000000
   60       -1.484406   1.000000
   61       -1.313206   1.000000
   62       -0.751206   0.999998
   63       -0.521138   0.998610
   64       -0.110561   0.534975
   65        0.032678   0.177463
   66        0.411273   0.000158
   67        0.720055   0.000000
   68        1.038055   0.000000
   69        1.289273   0.000000
   70        1.624155   0.000000
   71        1.682623   0.000000
   72        1.798586   0.000000
   73        2.474989   0.000000
   74        2.536518   0.000000
   75        2.962019   0.000000
   76        3.079786   0.000000
 
  0.2000000E+00  0.2857143E+00  0.0000000E+00  0.1142857E+00
    1      -35.558237   1.000000
    2      -34.381769   1.000000
    3      -33.119607   1.000000
    4      -32.538454   1.000000
    5      -20.081144   1.000000
    6      -19.466923   1.000000
    7      -19.039516   1.000000
    8      -18.892588   1.000000
    9      -18.758663   1.000000
   10      -18.175882   1.000000
   11      -17.700188   1.000000
   12      -17.476279   1.000000
   13      -17.464801   1.000000
   14      -17.292012   1.000000
   15      -17.072517   1.000000
   16      -16.860779   1.000000
   17      -16.499630   1.000000
   18      -16.415193   1.000000
   19      -16.327252   1.000000
   20      -16.114137   1.000000
   21      -15.879136   1.000000
   22      -15.853851   1.000000
   23      -15.053782   1.000000
   24      -14.873589   1.000000
   25      -14.840585   1.000000
   26      -14.635227   1.000000
   27      -14.230040   1.000000
   28      -13.760304   1.000000
   29       -6.475061   1.000000
   30       -6.105462   1.000000
   31       -6.019919   1.000000
   32       -5.780546   1.000000
   33       -5.568964   1.000000
   34       -5.445953   1.000000
   35       -5.239558   1.000000
   36       -5.055870   1.000000
   37       -4.818069   1.000000
   38       -4.781328   1.000000
   39       -4.571300   1.000000
   40       -4.421050   1.000000
   41       -4.236301   1.000000
   42       -4.059301   1.000000
   43       -3.927067   1.000000
   44       -3.877741   1.000000
   45       -3.794880   1.000000
   46       -3.521604   1.000000
   47       -3.491005   1.000000
   48       -3.274119   1.000000
   49       -3.084091   1.000000
   50       -2.955230   1.000000
   51       -2.875818   1.000000
   52       -2.832943   1.000000
   53       -2.767784   1.000000
   54       -2.332319   1.000000
   55       -2.085801   1.000000
   56       -2.060606   1.000000
   57       -2.011745   1.000000
   58       -1.693415   1.000000
   59       -1.633669   1.000000
   60       -1.496376   1.000000
   61       -1.208500   1.000000
   62       -0.751920   0.999998
   63       -0.487593   0.997055
   64       -0.243778   0.848439
   65        0.087451   0.094697
   66        0.362303   0.000565
   67        0.614567   0.000000
   68        1.122072   0.000000
   69        1.246997   0.000000
   70        1.466238   0.000000
   71        1.732884   0.000000
   72        1.945041   0.000000
   73        2.490952   0.000000
   74        2.549157   0.000000
   75        2.859842   0.000000
   76        3.021350   0.000000
 
  0.4000000E+00  0.2857143E+00  0.0000000E+00  0.1142857E+00
    1      -35.558046   1.000000
    2      -34.381561   1.000000
    3      -33.119403   1.000000
    4      -32.538322   1.000000
    5      -20.009982   1.000000
    6      -19.594149   1.000000
    7      -19.041044   1.000000
    8      -18.927322   1.000000
    9      -18.697581   1.000000
   10      -18.242633   1.000000
   11      -17.728708   1.000000
   12      -17.404565   1.000000
   13      -17.402662   1.000000
   14      -17.301866   1.000000
   15      -17.085834   1.000000
   16      -16.929042   1.000000
   17      -16.493651   1.000000
   18      -16.402967   1.000000
   19      -16.245222   1.000000
   20      -16.114349   1.000000
   21      -15.900432   1.000000
   22      -15.889337   1.000000
   23      -14.970177   1.000000
   24      -14.873592   1.000000
   25      -14.835545   1.000000
   26      -14.659413   1.000000
   27      -14.189602   1.000000
   28      -13.742145   1.000000
   29       -6.441734   1.000000
   30       -6.204741   1.000000
   31       -6.100868   1.000000
   32       -5.951924   1.000000
   33       -5.507625   1.000000
   34       -5.323900   1.000000
   35       -5.286920   1.000000
   36       -5.096431   1.000000
   37       -4.943260   1.000000
   38       -4.712230   1.000000
   39       -4.519378   1.000000
   40       -4.455606   1.000000
   41       -4.103134   1.000000
   42       -4.054307   1.000000
   43       -3.955475   1.000000
   44       -3.828606   1.000000
   45       -3.823817   1.000000
   46       -3.728198   1.000000
   47       -3.415787   1.000000
   48       -3.195255   1.000000
   49       -3.100481   1.000000
   50       -3.023317   1.000000
   51       -2.880646   1.000000
   52       -2.789211   1.000000
   53       -2.619748   1.000000
   54       -2.340100   1.000000
   55       -2.277941   1.000000
   56       -2.036050   1.000000
   57       -1.946051   1.000000
   58       -1.658343   1.000000
   59       -1.620099   1.000000
   60       -1.570610   1.000000
   61       -0.955611   1.000000
   62       -0.708470   0.999992
   63       -0.491927   0.997319
   64       -0.446225   0.993078
   65        0.090706   0.090874
   66        0.174496   0.026935
   67        0.643499   0.000000
   68        1.069069   0.000000
   69        1.309144   0.000000
   70        1.494433   0.000000
   71        1.769123   0.000000
   72        1.943511   0.000000
   73        2.512977   0.000000
   74        2.611821   0.000000
   75        2.859792   0.000000
   76        2.909396   0.000000
 
  0.0000000E+00  0.4285714E+00  0.0000000E+00  0.5714286E-01
    1      -35.550203   1.000000
    2      -34.374366   1.000000
    3      -33.112240   1.000000
    4      -32.530492   1.000000
    5      -20.265460   1.000000
    6      -19.221165   1.000000
    7      -18.985286   1.000000
    8      -18.924988   1.000000
    9      -18.788576   1.000000
   10      -17.988906   1.000000
   11      -17.736939   1.000000
   12      -17.656967   1.000000
   13      -17.622287   1.000000
   14      -17.114245   1.000000
   15      -17.006259   1.000000
   16      -16.726805   1.000000
   17      -16.672417   1.000000
   18      -16.576284   1.000000
   19      -16.398554   1.000000
   20      -15.936005   1.000000
   21      -15.841417   1.000000
   22      -15.558983   1.000000
   23      -15.302240   1.000000
   24      -14.848624   1.000000
   25      -14.680715   1.000000
   26      -14.610032   1.000000
   27      -14.602905   1.000000
   28      -13.518716   1.000000
   29       -6.659530   1.000000
   30       -6.224381   1.000000
   31       -5.880296   1.000000
   32       -5.748350   1.000000
   33       -5.683322   1.000000
   34       -5.466119   1.000000
   35       -5.450822   1.000000
   36       -5.160572   1.000000
   37       -4.924697   1.000000
   38       -4.892851   1.000000
   39       -4.608643   1.000000
   40       -4.542748   1.000000
   41       -4.247025   1.000000
   42       -4.142259   1.000000
   43       -4.007457   1.000000
   44       -3.882024   1.000000
   45       -3.775780   1.000000
   46       -3.557003   1.000000
   47       -3.551252   1.000000
   48       -3.192778   1.000000
   49       -3.114539   1.000000
   50       -3.026323   1.000000
   51       -2.990406   1.000000
   52       -2.905896   1.000000
   53       -2.830326   1.000000
   54       -2.517953   1.000000
   55       -2.366246   1.000000
   56       -1.942059   1.000000
   57       -1.791756   1.000000
   58       -1.751278   1.000000
   59       -1.650398   1.000000
   60       -1.434887   1.000000
   61       -1.325034   1.000000
   62       -0.516397   0.998449
   63       -0.482643   0.996724
   64       -0.226821   0.818551
   65       -0.066268   0.410827
   66        0.479924   0.000022
   67        1.069540   0.000000
   68        1.197907   0.000000
   69        1.423523   0.000000
   70        1.438933   0.000000
   71        1.655128   0.000000
   72        2.097432   0.000000
   73        2.626958   0.000000
   74        2.701159   0.000000
   75        2.931339   0.000000
   76        3.103258   0.000000
 
  0.2000000E+00  0.4285714E+00  0.0000000E+00  0.1142857E+00
    1      -35.550145   1.000000
    2      -34.374297   1.000000
    3      -33.112175   1.000000
    4      -32.530452   1.000000
    5      -20.227015   1.000000
    6      -19.279907   1.000000
    7      -18.990913   1.000000
    8      -18.888556   1.000000
    9      -18.841780   1.000000
   10      -18.038363   1.000000
   11      -17.676377   1.000000
   12      -17.661135   1.000000
   13      -17.589121   1.000000
   14      -17.154558   1.000000
   15      -17.005571   1.000000
   16      -16.723233   1.000000
   17      -16.695562   1.000000
   18      -16.493687   1.000000
   19      -16.411677   1.000000
   20      -15.943817   1.000000
   21      -15.872072   1.000000
   22      -15.602154   1.000000
   23      -15.219257   1.000000
   24      -14.847903   1.000000
   25      -14.756310   1.000000
   26      -14.630022   1.000000
   27      -14.483481   1.000000
   28      -13.503392   1.000000
   29       -6.623967   1.000000
   30       -6.230975   1.000000
   31       -6.052332   1.000000
   32       -5.866070   1.000000
   33       -5.684635   1.000000
   34       -5.508989   1.000000
   35       -5.443131   1.000000
   36       -5.129407   1.000000
   37       -4.971107   1.000000
   38       -4.807118   1.000000
   39       -4.646253   1.000000
   40       -4.476681   1.000000
   41       -4.245221   1.000000
   42       -4.121972   1.000000
   43       -3.988614   1.000000
   44       -3.881218   1.000000
   45       -3.762870   1.000000
   46       -3.631329   1.000000
   47       -3.504244   1.000000
   48       -3.351940   1.000000
   49       -3.101660   1.000000
   50       -2.978883   1.000000
   51       -2.935425   1.000000
   52       -2.813906   1.000000
   53       -2.783940   1.000000
   54       -2.588116   1.000000
   55       -2.268129   1.000000
   56       -2.061692   1.000000
   57       -1.820498   1.000000
   58       -1.629132   1.000000
   59       -1.607831   1.000000
   60       -1.462043   1.000000
   61       -1.220532   1.000000
   62       -0.520844   0.998600
   63       -0.455150   0.994205
   64       -0.277356   0.897457
   65        0.003227   0.236741
   66        0.509229   0.000009
   67        0.706407   0.000000
   68        1.161749   0.000000
   69        1.336562   0.000000
   70        1.501924   0.000000
   71        1.911672   0.000000
   72        2.063833   0.000000
   73        2.591539   0.000000
   74        2.755295   0.000000
   75        2.844478   0.000000
   76        3.246452   0.000000
 
  0.4000000E+00  0.4285714E+00  0.0000000E+00  0.1142857E+00
    1      -35.550052   1.000000
    2      -34.374186   1.000000
    3      -33.112069   1.000000
    4      -32.530388   1.000000
    5      -20.154829   1.000000
    6      -19.380520   1.000000
    7      -18.994538   1.000000
    8      -18.928311   1.000000
    9      -18.817717   1.000000
   10      -18.128263   1.000000
   11      -17.696632   1.000000
   12      -17.562061   1.000000
   13      -17.519628   1.000000
   14      -17.210093   1.000000
   15      -16.997715   1.000000
   16      -16.809861   1.000000
   17      -16.644869   1.000000
   18      -16.437229   1.000000
   19      -16.373786   1.000000
   20      -15.979236   1.000000
   21      -15.882564   1.000000
   22      -15.676019   1.000000
   23      -15.102234   1.000000
   24      -14.847374   1.000000
   25      -14.822008   1.000000
   26      -14.619913   1.000000
   27      -14.390189   1.000000
   28      -13.479763   1.000000
   29       -6.557894   1.000000
   30       -6.266439   1.000000
   31       -6.227137   1.000000
   32       -6.043688   1.000000
   33       -5.768990   1.000000
   34       -5.520974   1.000000
   35       -5.384570   1.000000
   36       -5.101394   1.000000
   37       -5.009290   1.000000
   38       -4.801366   1.000000
   39       -4.782352   1.000000
   40       -4.339523   1.000000
   41       -4.146697   1.000000
   42       -4.123778   1.000000
   43       -4.017937   1.000000
   44       -3.878189   1.000000