       N       E                     dE             d eps       ncg     rms          rms(c)
DAV:   1     0.156541472455E+04    0.15654E+04   -0.55131E+04  1848   0.147E+03
DAV:   2     0.177906135209E+03   -0.13875E+04   -0.13338E+04  2232   0.375E+02
DAV:   3    -0.173594010947E+03   -0.35150E+03   -0.34278E+03  2500   0.186E+02
DAV:   4    -0.197961632178E+03   -0.24368E+02   -0.24282E+02  2360   0.581E+01
DAV:   5    -0.199289874691E+03   -0.13282E+01   -0.13277E+01  3136   0.119E+01    0.375E+01
RMM:   6    -0.208131474821E+03   -0.88416E+01   -0.41166E+02  2150   0.585E+01    0.547E+01
RMM:   7    -0.174304732194E+03    0.33827E+02   -0.90621E+01  2008   0.302E+01    0.222E+01
RMM:   8    -0.161361226926E+03    0.12944E+02   -0.23856E+01  1967   0.167E+01    0.154E+01
RMM:   9    -0.156955304580E+03    0.44059E+01   -0.19429E+00  2099   0.544E+00    0.128E+01
RMM:  10    -0.156233795761E+03    0.72151E+00   -0.41650E+01  1963   0.170E+01    0.272E+01
RMM:  11    -0.155958138989E+03    0.27566E+00   -0.45893E+00  2521   0.387E+00    0.286E+01
RMM:  12    -0.158507124414E+03   -0.25490E+01   -0.18554E+00  2482   0.292E+00    0.334E+01
RMM:  13    -0.158292439213E+03    0.21469E+00   -0.41830E-01  2651   0.125E+00    0.330E+01
RMM:  14    -0.158374115018E+03   -0.81676E-01   -0.71889E-02  3019   0.419E-01    0.332E+01
RMM:  15    -0.158409292987E+03   -0.35178E-01   -0.21874E-02  2859   0.266E-01    0.333E+01
RMM:  16    -0.158943189752E+03   -0.53390E+00   -0.27531E-01  2006   0.142E+00    0.337E+01
RMM:  17    -0.161476445985E+03   -0.25333E+01   -0.85536E-01  2041   0.245E+00    0.369E+01
RMM:  18    -0.162934694534E+03   -0.14582E+01   -0.52381E-01  2210   0.173E+00    0.387E+01
RMM:  19    -0.163847593758E+03   -0.91290E+00   -0.15423E-01  2337   0.878E-01    0.399E+01
RMM:  20    -0.166366125560E+03   -0.25185E+01   -0.38181E-01  2020   0.162E+00    0.423E+01
RMM:  21    -0.169428979850E+03   -0.30629E+01   -0.74515E-01  2101   0.221E+00    0.453E+01
RMM:  22    -0.168187190219E+03    0.12418E+01   -0.47948E-02  2116   0.587E-01    0.445E+01
RMM:  23    -0.158077938708E+03    0.10109E+02   -0.40649E+00  1853   0.563E+00    0.327E+01
RMM:  24    -0.151459400127E+03    0.66185E+01   -0.97786E+00  1948   0.880E+00    0.125E+01
RMM:  25    -0.151743042927E+03   -0.28364E+00   -0.98589E-01  2319   0.250E+00    0.127E+01
RMM:  26    -0.151359865828E+03    0.38318E+00   -0.39875E-01  2188   0.162E+00    0.107E+01
RMM:  27    -0.151357956661E+03    0.19092E-02   -0.31305E-01  2129   0.142E+00    0.113E+01
RMM:  28    -0.151164381635E+03    0.19358E+00   -0.35455E-01  1996   0.161E+00    0.103E+01
RMM:  29    -0.151264384720E+03   -0.10000E+00   -0.10175E-01  1940   0.104E+00    0.100E+01
RMM:  30    -0.151232869631E+03    0.31515E-01   -0.30625E-01  1943   0.158E+00    0.111E+01
RMM:  31    -0.153620970646E+03   -0.23881E+01   -0.11299E+01  1980   0.963E+00    0.210E+01
RMM:  32    -0.152391372883E+03    0.12296E+01   -0.12702E+01  1901   0.110E+01    0.117E+01
RMM:  33    -0.150461639591E+03    0.19297E+01   -0.17290E+00  1828   0.458E+00    0.764E+00
RMM:  34    -0.149749612948E+03    0.71203E+00   -0.85922E-01  1995   0.249E+00    0.612E+00
RMM:  35    -0.149585924396E+03    0.16369E+00   -0.31776E-01  2170   0.140E+00    0.572E+00
RMM:  36    -0.149370733158E+03    0.21519E+00   -0.52140E-01  1946   0.217E+00    0.460E+00
RMM:  37    -0.149211698014E+03    0.15904E+00   -0.65474E-01  2066   0.229E+00    0.405E+00
RMM:  38    -0.149264733263E+03   -0.53035E-01   -0.28767E-01  2405   0.126E+00    0.469E+00
RMM:  39    -0.149238939290E+03    0.25794E-01   -0.34190E-02  1970   0.606E-01    0.452E+00
RMM:  40    -0.149239719669E+03   -0.78038E-03   -0.10035E-01  1981   0.922E-01    0.471E+00
RMM:  41    -0.149129225876E+03    0.11049E+00   -0.19348E-01  2006   0.111E+00    0.330E+00
RMM:  42    -0.149255833630E+03   -0.12661E+00   -0.93045E-02  2223   0.803E-01    0.484E+00
RMM:  43    -0.149275165108E+03   -0.19331E-01   -0.12916E-02  2576   0.286E-01    0.499E+00
RMM:  44    -0.149229823368E+03    0.45342E-01   -0.56785E-03  2040   0.217E-01    0.465E+00
RMM:  45    -0.149257549956E+03   -0.27727E-01   -0.41581E-02  1887   0.654E-01    0.451E+00
RMM:  46    -0.149384413597E+03   -0.12686E+00   -0.82766E-02  1978   0.799E-01    0.505E+00
RMM:  47    -0.149382004870E+03    0.24087E-02   -0.10954E-02  2567   0.202E-01    0.514E+00
RMM:  48    -0.149251313253E+03    0.13069E+00   -0.11236E-01  1880   0.996E-01    0.401E+00
RMM:  49    -0.149167410402E+03    0.83903E-01   -0.69888E-02  2000   0.873E-01    0.305E+00
RMM:  50    -0.149081042975E+03    0.86367E-01   -0.67856E-02  2048   0.738E-01    0.234E+00
RMM:  51    -0.149033052782E+03    0.47990E-01   -0.38585E-02  1976   0.561E-01    0.183E+00
RMM:  52    -0.149003308541E+03    0.29744E-01   -0.29475E-02  1959   0.498E-01    0.169E+00
RMM:  53    -0.148957256323E+03    0.46052E-01   -0.78135E-02  1891   0.822E-01    0.937E-01
RMM:  54    -0.148954554966E+03    0.27014E-02   -0.20023E-02  2392   0.271E-01    0.803E-01
RMM:  55    -0.148949689354E+03    0.48656E-02   -0.40240E-03  2085   0.179E-01    0.686E-01
RMM:  56    -0.148944066177E+03    0.56232E-02   -0.65859E-03  1908   0.268E-01    0.618E-01
RMM:  57    -0.148939995124E+03    0.40711E-02   -0.88517E-03  1990   0.265E-01    0.438E-01
RMM:  58    -0.148938570507E+03    0.14246E-02   -0.17341E-02  1954   0.379E-01    0.386E-01
RMM:  59    -0.148937682554E+03    0.88795E-03   -0.26677E-03  2303   0.116E-01    0.154E-01
RMM:  60    -0.148937548015E+03    0.13454E-03   -0.91795E-04  2139   0.796E-02
   1 F= -.14893755E+03 E0= -.14878466E+03  d E =-.148938E+03
       N       E                     dE             d eps       ncg     rms          rms(c)
DAV:   1    -0.150639977320E+03   -0.17023E+01   -0.42577E+02  1824   0.816E+01    0.753E+00
RMM:   2    -0.155366017670E+03   -0.47260E+01   -0.31000E+01  1836   0.234E+01    0.122E+01
RMM:   3    -0.153575876851E+03    0.17901E+01   -0.28161E+00  1959   0.709E+00    0.103E+01
RMM:   4    -0.155949832432E+03   -0.23740E+01   -0.29114E+01  1833   0.170E+01    0.234E+01
RMM:   5    -0.152033208965E+03    0.39166E+01   -0.64370E+00  1838   0.924E+00    0.658E+00
RMM:   6    -0.153456119859E+03   -0.14229E+01   -0.32758E+00  1917   0.596E+00    0.808E+00
RMM:   7    -0.153221692973E+03    0.23443E+00   -0.25078E-01  2453   0.134E+00    0.746E+00
RMM:   8    -0.152740558724E+03    0.48113E+00   -0.41387E-01  1881   0.197E+00    0.726E+00
RMM:   9    -0.152198465581E+03    0.54209E+00   -0.51951E-01  1997   0.197E+00    0.629E+00
RMM:  10    -0.151719152642E+03    0.47931E+00   -0.45398E-01  2020   0.199E+00    0.414E+00
RMM:  11    -0.151601334083E+03    0.11782E+00   -0.16293E-01  2257   0.102E+00    0.368E+00
RMM:  12    -0.151495277488E+03    0.10606E+00   -0.10300E-01  2095   0.942E-01    0.335E+00
RMM:  13    -0.151350797811E+03    0.14448E+00   -0.14655E-01  2052   0.112E+00    0.254E+00
RMM:  14    -0.151348745041E+03    0.20528E-02   -0.22770E-02  2645   0.344E-01    0.249E+00
RMM:  15    -0.151340611208E+03    0.81338E-02   -0.13496E-02  2489   0.300E-01    0.274E+00
RMM:  16    -0.151363244123E+03   -0.22633E-01   -0.19450E-02  2168   0.383E-01    0.393E+00
RMM:  17    -0.151332417499E+03    0.30827E-01   -0.13203E-02  2097   0.352E-01    0.347E+00
RMM:  18    -0.151338814774E+03   -0.63973E-02   -0.39233E-03  2445   0.167E-01    0.367E+00
RMM:  19    -0.151318710978E+03    0.20104E-01   -0.39065E-02  1905   0.617E-01    0.295E+00
RMM:  20    -0.151354352838E+03   -0.35642E-01   -0.43664E-02  2032   0.634E-01    0.362E+00
RMM:  21    -0.151328874696E+03    0.25478E-01   -0.23808E-02  2072   0.499E-01    0.288E+00
RMM:  22    -0.151302453503E+03    0.26421E-01   -0.84178E-03  1929   0.291E-01    0.230E+00
RMM:  23    -0.151280711608E+03    0.21742E-01   -0.69373E-03  2122   0.228E-01    0.190E+00
RMM:  24    -0.151259039521E+03    0.21672E-01   -0.14358E-02  1966   0.372E-01    0.163E+00
RMM:  25    -0.151229516308E+03    0.29523E-01   -0.53300E-02  2026   0.639E-01    0.774E-01
RMM:  26    -0.151224226031E+03    0.52903E-02   -0.17879E-02  2243   0.387E-01    0.508E-01
RMM:  27    -0.151224502258E+03   -0.27623E-03   -0.59982E-03  2417   0.203E-01    0.448E-01
RMM:  28    -0.151221437000E+03    0.30653E-02   -0.20582E-03  2358   0.119E-01    0.364E-01
RMM:  29    -0.151216347654E+03    0.50893E-02   -0.92061E-03  2072   0.244E-01    0.219E-01
RMM:  30    -0.151215456964E+03    0.89069E-03   -0.40761E-03  2273   0.169E-01    0.190E-01
RMM:  31    -0.151215070644E+03    0.38632E-03   -0.13122E-03  2461   0.846E-02    0.162E-01
RMM:  32    -0.151214818266E+03    0.25238E-03   -0.13582E-03  2111   0.102E-01    0.128E-01
RMM:  33    -0.151215009613E+03   -0.19135E-03   -0.75541E-04  2196   0.731E-02    0.160E-01
RMM:  34    -0.151214951735E+03    0.57877E-04   -0.77597E-04  2027   0.821E-02    0.160E-01
RMM:  35    -0.151214852789E+03    0.98946E-04   -0.26413E-04  2055   0.419E-02    0.140E-01
RMM:  36    -0.151215047165E+03   -0.19438E-03   -0.14435E-04  1773   0.356E-02    0.168E-01
RMM:  37    -0.151214666346E+03    0.38082E-03   -0.18204E-04  1764   0.467E-02    0.819E-02
RMM:  38    -0.151214681123E+03   -0.14778E-04   -0.73992E-05  1506   0.253E-02    0.786E-02
RMM:  39    -0.151214629217E+03    0.51906E-04   -0.25019E-05  1181   0.189E-02    0.688E-02
RMM:  40    -0.151214588120E+03    0.41097E-04   -0.38168E-05  1302   0.176E-02    0.598E-02
RMM:  41    -0.151214537550E+03    0.50571E-04   -0.11862E-04  1531   0.329E-02    0.447E-02
RMM:  42    -0.151214517769E+03    0.19780E-04   -0.14108E-04  1557   0.348E-02    0.311E-02
RMM:  43    -0.151214513320E+03    0.44495E-05   -0.18816E-05  1076   0.139E-02
   2 F= -.15121451E+03 E0= -.15109144E+03  d E =-.227697E+01
       N       E                     dE             d eps       ncg     rms          rms(c)
DAV:   1    -0.151577205002E+03   -0.36269E+00   -0.16411E+02  1824   0.528E+01    0.293E+00
RMM:   2    -0.152595019947E+03   -0.10178E+01   -0.68140E+00  1843   0.112E+01    0.841E+00
RMM:   3    -0.152918222585E+03   -0.32320E+00   -0.33526E+00  1928   0.621E+00    0.863E+00
RMM:   4    -0.152087810651E+03    0.83041E+00   -0.24507E+00  1929   0.502E+00    0.452E+00
RMM:   5    -0.152252541312E+03   -0.16473E+00   -0.27345E+00  2143   0.473E+00    0.299E+00
RMM:   6    -0.152044371311E+03    0.20817E+00   -0.22464E-01  1956   0.156E+00    0.283E+00
RMM:   7    -0.151995229723E+03    0.49142E-01   -0.81036E-02  2217   0.809E-01    0.147E+00
RMM:   8    -0.151950655129E+03    0.44575E-01   -0.10603E-01  2107   0.935E-01    0.130E+00
RMM:   9    -0.151922989236E+03    0.27666E-01   -0.15355E-01  2047   0.108E+00    0.927E-01
RMM:  10    -0.151919022693E+03    0.39665E-02   -0.21722E-01  2132   0.117E+00    0.835E-01
RMM:  11    -0.151906185836E+03    0.12837E-01   -0.29653E-02  2064   0.559E-01    0.791E-01
RMM:  12    -0.151897646881E+03    0.85390E-02   -0.29920E-02  2077   0.454E-01    0.554E-01
RMM:  13    -0.151897639786E+03    0.70954E-05   -0.52820E-03  2156   0.206E-01    0.463E-01
RMM:  14    -0.151896033112E+03    0.16067E-02   -0.14434E-03  2202   0.106E-01    0.256E-01
RMM:  15    -0.151895093201E+03    0.93991E-03   -0.28729E-03  1952   0.160E-01    0.253E-01
RMM:  16    -0.151894506727E+03    0.58647E-03   -0.14835E-03  2123   0.990E-02    0.144E-01
RMM:  17    -0.151894267986E+03    0.23874E-03   -0.79718E-04  2118   0.733E-02    0.113E-01
RMM:  18    -0.151894233896E+03    0.34090E-04   -0.42870E-04  2020   0.592E-02    0.107E-01
RMM:  19    -0.151894134751E+03    0.99145E-04   -0.36510E-04  1608   0.565E-02    0.101E-01
RMM:  20    -0.151894068067E+03    0.66684E-04   -0.24074E-04  1601   0.346E-02    0.860E-02
RMM:  21    -0.151894040180E+03    0.27887E-04   -0.21309E-05  1130   0.160E-02    0.790E-02
RMM:  22    -0.151894008538E+03    0.31642E-04   -0.17284E-05  1087   0.153E-02    0.705E-02
RMM:  23    -0.151893983573E+03    0.24966E-04   -0.18082E-05  1103   0.128E-02    0.629E-02
RMM:  24    -0.151893961245E+03    0.22327E-04   -0.82891E-06  1028   0.110E-02    0.539E-02
RMM:  25    -0.151893926564E+03    0.34682E-04   -0.25213E-05  1175   0.129E-02    0.402E-02
RMM:  26    -0.151893891667E+03    0.34897E-04   -0.46509E-05  1384   0.182E-02    0.247E-02
RMM:  27    -0.151893880924E+03    0.10742E-04   -0.21049E-05  1145   0.138E-02    0.157E-02
RMM:  28    -0.151893877328E+03    0.35962E-05   -0.12737E-05  1007   0.111E-02
   3 F= -.15189388E+03 E0= -.15178011E+03  d E =-.679364E+00
       N       E                     dE             d eps       ncg     rms          rms(c)
DAV:   1    -0.152229040188E+03   -0.33516E+00   -0.71381E+01  1824   0.346E+01    0.251E+00
RMM:   2    -0.152503891935E+03   -0.27485E+00   -0.32564E+00  1866   0.756E+00    0.304E+00
RMM:   3    -0.152480963205E+03    0.22929E-01   -0.98963E-01  1977   0.346E+00    0.299E+00
RMM:   4    -0.152484797047E+03   -0.38338E-02   -0.85971E-01  2100   0.232E+00    0.253E+00
RMM:   5    -0.152370054538E+03    0.11474E+00   -0.25985E-01  1957   0.159E+00    0.186E+00
RMM:   6    -0.152332613116E+03    0.37441E-01   -0.14602E-01  2223   0.998E-01    0.759E-01
RMM:   7    -0.152336007564E+03   -0.33944E-02   -0.84528E-03  2236   0.299E-01    0.842E-01
RMM:   8    -0.152331557215E+03    0.44503E-02   -0.65066E-03  2254   0.231E-01    0.646E-01
RMM:   9    -0.152323028743E+03    0.85285E-02   -0.22159E-02  2074   0.416E-01    0.431E-01
RMM:  10    -0.152321075115E+03    0.19536E-02   -0.11815E-02  2313   0.271E-01    0.246E-01
RMM:  11    -0.152320178996E+03    0.89612E-03   -0.50783E-03  2248   0.192E-01    0.115E-01
RMM:  12    -0.152320073126E+03    0.10587E-03   -0.21104E-03  2277   0.130E-01    0.935E-02
RMM:  13    -0.152320161117E+03   -0.87990E-04   -0.97119E-04  2239   0.857E-02    0.738E-02
RMM:  14    -0.152320128419E+03    0.32697E-04   -0.12781E-04  1825   0.339E-02    0.564E-02
RMM:  15    -0.152320092013E+03    0.36406E-04   -0.32973E-04  1905   0.552E-02    0.447E-02
RMM:  16    -0.152320098245E+03   -0.62314E-05   -0.13269E-04  1704   0.311E-02    0.313E-02
RMM:  17    -0.152320113429E+03   -0.15184E-04   -0.53276E-05  1460   0.225E-02    0.279E-02
RMM:  18    -0.152320112857E+03    0.57232E-06   -0.99044E-06  1049   0.142E-02
   4 F= -.15232011E+03 E0= -.15220991E+03  d E =-.426236E+00
       N       E                     dE             d eps       ncg     rms          rms(c)
DAV:   1    -0.151843757304E+03    0.47636E+00   -0.48327E+02  1824   0.886E+01    0.522E+00
RMM:   2    -0.153107288715E+03   -0.12635E+01   -0.15953E+01  1859   0.164E+01    0.366E+00
RMM:   3    -0.153062064092E+03    0.45225E-01   -0.14712E+00  2203   0.521E+00    0.158E+00
RMM:   4    -0.153051184334E+03    0.10880E-01   -0.41653E-01  2391   0.216E+00    0.134E+00
RMM:   5    -0.153026008262E+03    0.25176E-01   -0.78522E-02  2427   0.838E-01    0.879E-01
RMM:   6    -0.153015997446E+03    0.10011E-01   -0.61330E-02  2410   0.666E-01    0.235E-01
RMM:   7    -0.153017630692E+03   -0.16332E-02   -0.20464E-02  2551   0.412E-01    0.239E-01
RMM:   8    -0.153016711429E+03    0.91926E-03   -0.83934E-03  2481   0.256E-01    0.174E-01
RMM:   9    -0.153016272794E+03    0.43863E-03   -0.85584E-03  2480   0.236E-01    0.643E-02
RMM:  10    -0.153016473804E+03   -0.20101E-03   -0.24217E-03  2600   0.111E-01    0.573E-02
RMM:  11    -0.153016528276E+03   -0.54473E-04   -0.98109E-04  2227   0.759E-02    0.568E-02
RMM:  12    -0.153016602542E+03   -0.74266E-04   -0.68717E-04  2224   0.659E-02    0.384E-02
RMM:  13    -0.153016632546E+03   -0.30004E-04   -0.30537E-04  1886   0.400E-02    0.328E-02
RMM:  14    -0.153016622870E+03    0.96765E-05   -0.22858E-04  1855   0.392E-02    0.211E-02
RMM:  15    -0.153016628902E+03   -0.60319E-05   -0.10208E-04  1420   0.239E-02    0.152E-02
RMM:  16    -0.153016632870E+03   -0.39681E-05   -0.63103E-05  1308   0.183E-02
   5 F= -.15301663E+03 E0= -.15292857E+03  d E =-.696520E+00
       N       E                     dE             d eps       ncg     rms          rms(c)
DAV:   1    -0.153069265103E+03   -0.52636E-01   -0.17080E+01  1864   0.157E+01    0.104E+00
RMM:   2    -0.153123140381E+03   -0.53875E-01   -0.55802E-01  1843   0.294E+00    0.106E+00
RMM:   3    -0.153117276491E+03    0.58639E-02   -0.11727E-01  1979   0.122E+00    0.901E-01
RMM:   4    -0.153103436278E+03    0.13840E-01   -0.41616E-02  2047   0.658E-01    0.664E-01
RMM:   5    -0.153095249951E+03    0.81863E-02   -0.42823E-02  2002   0.551E-01    0.227E-01
RMM:   6    -0.153094613911E+03    0.63604E-03   -0.89024E-03  2150   0.263E-01    0.126E-01
RMM:   7    -0.153094509305E+03    0.10461E-03   -0.27883E-03  2346   0.137E-01    0.764E-02
RMM:   8    -0.153094445248E+03    0.64057E-04   -0.97302E-04  2046   0.881E-02    0.378E-02
RMM:   9    -0.153094491611E+03   -0.46363E-04   -0.23975E-04  1849   0.380E-02    0.357E-02
RMM:  10    -0.153094481422E+03    0.10189E-04   -0.13784E-04  1666   0.341E-02    0.272E-02
RMM:  11    -0.153094501505E+03   -0.20083E-04   -0.10845E-04  1578   0.290E-02    0.236E-02
RMM:  12    -0.153094500426E+03    0.10787E-05   -0.30072E-05  1159   0.178E-02
   6 F= -.15309450E+03 E0= -.15300551E+03  d E =-.778676E-01
       N       E                     dE             d eps       ncg     rms          rms(c)
DAV:   1    -0.153158724686E+03   -0.64223E-01   -0.21169E+01  1832   0.170E+01    0.143E+00
RMM:   2    -0.153189638965E+03   -0.30914E-01   -0.58562E-01  1846   0.315E+00    0.485E-01
RMM:   3    -0.153189735695E+03   -0.96731E-04   -0.60595E-02  2151   0.959E-01    0.423E-01
RMM:   4    -0.153189397685E+03    0.33801E-03   -0.15418E-02  2453   0.380E-01    0.312E-01
RMM:   5    -0.153188005631E+03    0.13921E-02   -0.47299E-03  2386   0.199E-01    0.215E-01
RMM:   6    -0.153187751024E+03    0.25461E-03   -0.24613E-03  2392   0.133E-01    0.935E-02
RMM:   7    -0.153187718129E+03    0.32894E-04   -0.12429E-03  2230   0.106E-01    0.404E-02
RMM:   8    -0.153187825400E+03   -0.10727E-03   -0.10265E-03  2188   0.812E-02    0.268E-02
RMM:   9    -0.153187869411E+03   -0.44011E-04   -0.19871E-04  1694   0.313E-02    0.193E-02
RMM:  10    -0.153187879423E+03   -0.10012E-04   -0.10990E-04  1490   0.268E-02    0.903E-03
RMM:  11    -0.153187884830E+03   -0.54064E-05   -0.51440E-05  1241   0.173E-02
   7 F= -.15318788E+03 E0= -.15310118E+03  d E =-.933844E-01
       N       E                     dE             d eps       ncg     rms          rms(c)
DAV:   1    -0.153218254098E+03   -0.30375E-01   -0.39084E+01  1824   0.229E+01    0.126E+00
RMM:   2    -0.153298054162E+03   -0.79800E-01   -0.98072E-01  1846   0.386E+00    0.367E-01
RMM:   3    -0.153298273581E+03   -0.21942E-03   -0.75431E-02  2153   0.113E+00    0.330E-01
RMM:   4    -0.153300052673E+03   -0.17791E-02   -0.25037E-02  2312   0.458E-01    0.371E-01
RMM:   5    -0.153297556946E+03    0.24957E-02   -0.12983E-02  2148   0.339E-01    0.132E-01
RMM:   6    -0.153297841309E+03   -0.28436E-03   -0.71960E-03  2481   0.193E-01    0.483E-02
RMM:   7    -0.153297878615E+03   -0.37306E-04   -0.91188E-04  2381   0.684E-02    0.358E-02
RMM:   8    -0.153297903865E+03   -0.25250E-04   -0.53123E-04  2003   0.549E-02    0.156E-02
RMM:   9    -0.153297934242E+03   -0.30378E-04   -0.30188E-04  1721   0.353E-02    0.105E-02
RMM:  10    -0.153297944335E+03   -0.10093E-04   -0.12813E-04  1316   0.223E-02    0.845E-03
RMM:  11    -0.153297952469E+03   -0.81339E-05   -0.75648E-05  1213   0.160E-02
   8 F= -.15329795E+03 E0= -.15321404E+03  d E =-.110068E+00
       N       E                     dE             d eps       ncg     rms          rms(c)
DAV:   1    -0.153324582496E+03   -0.26638E-01   -0.34414E+01  1832   0.208E+01    0.124E+00
RMM:   2    -0.153410454967E+03   -0.85872E-01   -0.92461E-01  1840   0.367E+00    0.785E-01
RMM:   3    -0.153400881502E+03    0.95735E-02   -0.10049E-01  2130   0.120E+00    0.604E-01
RMM:   4    -0.153391202411E+03    0.96791E-02   -0.67500E-02  2224   0.761E-01    0.225E-01
RMM:   5    -0.153392247150E+03   -0.10447E-02   -0.31819E-02  2357   0.378E-01    0.117E-01
RMM:   6    -0.153391949994E+03    0.29716E-03   -0.22376E-03  2364   0.128E-01    0.643E-02
RMM:   7    -0.153391972807E+03   -0.22813E-04   -0.93618E-04  2236   0.673E-02    0.300E-02
RMM:   8    -0.153391992632E+03   -0.19825E-04   -0.50334E-04  1918   0.523E-02    0.998E-03
RMM:   9    -0.153392037136E+03   -0.44504E-04   -0.21550E-04  1569   0.283E-02    0.758E-03
RMM:  10    -0.153392052207E+03   -0.15071E-04   -0.10557E-04  1275   0.194E-02    0.400E-03
RMM:  11    -0.153392060859E+03   -0.86521E-05   -0.65066E-05  1183   0.164E-02
   9 F= -.15339206E+03 E0= -.15330890E+03  d E =-.941084E-01
       N       E                     dE             d eps       ncg     rms          rms(c)
DAV:   1    -0.153415964630E+03   -0.23912E-01   -0.18238E+01  1824   0.154E+01    0.888E-01
RMM:   2    -0.153450278607E+03   -0.34314E-01   -0.45074E-01  1840   0.258E+00    0.297E-01
RMM:   3    -0.153451684997E+03   -0.14064E-02   -0.31474E-02  2168   0.758E-01    0.171E-01
RMM:   4    -0.153451663074E+03    0.21923E-04   -0.83145E-03  2394   0.284E-01    0.804E-02
RMM:   5    -0.153451814194E+03   -0.15112E-03   -0.43604E-03  2308   0.174E-01    0.641E-02
RMM:   6    -0.153451822484E+03   -0.82901E-05   -0.71338E-04  2334   0.643E-02    0.480E-02
RMM:   7    -0.153451793397E+03    0.29087E-04   -0.54990E-04  2003   0.576E-02    0.261E-02
RMM:   8    -0.153451810885E+03   -0.17488E-04   -0.19865E-04  1594   0.279E-02    0.173E-02
RMM:   9    -0.153451813908E+03   -0.30229E-05   -0.12883E-04  1506   0.253E-02    0.732E-03
RMM:  10    -0.153451820365E+03   -0.64570E-05   -0.57901E-05  1216   0.166E-02
  10 F= -.15345182E+03 E0= -.15336935E+03  d E =-.597595E-01
       N       E                     dE             d eps       ncg     rms          rms(c)
DAV:   1    -0.153273429748E+03    0.17838E+00   -0.12979E+02  1824   0.412E+01    0.229E+00
RMM:   2    -0.153566456683E+03   -0.29303E+00   -0.34450E+00  1836   0.699E+00    0.592E-01
RMM:   3    -0.153580343263E+03   -0.13887E-01   -0.26972E-01  2153   0.210E+00    0.461E-01
RMM:   4    -0.153586967710E+03   -0.66244E-02   -0.65802E-02  2479   0.749E-01    0.426E-01
RMM:   5    -0.153583373523E+03    0.35942E-02   -0.19419E-02  2342   0.424E-01    0.258E-01
RMM:   6    -0.153582907094E+03    0.46643E-03   -0.26756E-02  2367   0.383E-01    0.110E-01
RMM:   7    -0.153583059883E+03   -0.15279E-03   -0.31890E-03  2546   0.117E-01    0.926E-02
RMM:   8    -0.153583139760E+03   -0.79877E-04   -0.20997E-03  2371   0.111E-01    0.216E-02
RMM:   9    -0.153583220224E+03   -0.80464E-04   -0.78649E-04  2199   0.538E-02    0.288E-02
RMM:  10    -0.153583236675E+03   -0.16451E-04   -0.38755E-04  1899   0.407E-02    0.135E-02
RMM:  11    -0.153583268180E+03   -0.31505E-04   -0.20829E-04  1489   0.264E-02    0.957E-03
RMM:  12    -0.153583282195E+03   -0.14015E-04   -0.10826E-04  1281   0.193E-02    0.438E-03
RMM:  13    -0.153583292923E+03   -0.10727E-04   -0.67858E-05  1178   0.156E-02    0.271E-03
RMM:  14    -0.153583299717E+03   -0.67940E-05   -0.40056E-05  1143   0.137E-02
  11 F= -.15358330E+03 E0= -.15350497E+03  d E =-.131479E+00
       N       E                     dE             d eps       ncg     rms          rms(c)
DAV:   1    -0.153522744951E+03    0.60548E-01   -0.63788E+01  1824   0.293E+01    0.156E+00
RMM:   2    -0.153655161642E+03   -0.13242E+00   -0.15743E+00  1840   0.488E+00    0.270E-01
RMM:   3    -0.153662851077E+03   -0.76894E-02   -0.12889E-01  2182   0.145E+00    0.390E-01
RMM:   4    -0.153662756105E+03    0.94972E-04   -0.22179E-02  2474   0.453E-01    0.184E-01
RMM:   5    -0.153662620541E+03    0.13556E-03   -0.67101E-03  2451   0.221E-01    0.899E-02
RMM:   6    -0.153662770497E+03   -0.14996E-03   -0.29412E-03  2522   0.130E-01    0.450E-02
RMM:   7    -0.153662891191E+03   -0.12069E-03   -0.11057E-03  2408   0.666E-02    0.535E-02
RMM:   8    -0.153662882171E+03    0.90200E-05   -0.67707E-04  2099   0.587E-02    0.168E-02
RMM:   9    -0.153662912223E+03   -0.30052E-04   -0.38378E-04  1799   0.410E-02    0.980E-03
RMM:  10    -0.153662930055E+03   -0.17832E-04   -0.18849E-04  1537   0.309E-02    0.107E-02
RMM:  11    -0.153662935387E+03   -0.53326E-05   -0.91227E-05  1258   0.194E-02
  12 F= -.15366294E+03 E0= -.15358598E+03  d E =-.796357E-01
       N       E                     dE             d eps       ncg     rms          rms(c)
DAV:   1    -0.153638476378E+03    0.24454E-01   -0.36597E+01  1824   0.221E+01    0.118E+00
RMM:   2    -0.153715190458E+03   -0.76714E-01   -0.89758E-01  1838   0.367E+00    0.455E-01
RMM:   3    -0.153715337317E+03   -0.14686E-03   -0.72899E-02  2212   0.107E+00    0.257E-01
RMM:   4    -0.153715067680E+03    0.26964E-03   -0.20456E-02  2398   0.430E-01    0.865E-02
RMM:   5    -0.153715146857E+03   -0.79177E-04   -0.30627E-03  2546   0.135E-01    0.611E-02
RMM:   6    -0.153715297555E+03   -0.15070E-03   -0.12619E-03  2477   0.859E-02    0.352E-02
RMM:   7    -0.153715378446E+03   -0.80891E-04   -0.64050E-04  2298   0.552E-02    0.242E-02
RMM:   8    -0.153715422908E+03   -0.44462E-04   -0.30684E-04  1968   0.376E-02    0.183E-02
RMM:   9    -0.153715433724E+03   -0.10816E-04   -0.15853E-04  1492   0.250E-02    0.116E-02
RMM:  10    -0.153715442227E+03   -0.85039E-05   -0.94806E-05  1368   0.234E-02
  13 F= -.15371544E+03 E0= -.15364065E+03  d E =-.525068E-01
       N       E                     dE             d eps       ncg     rms          rms(c)
DAV:   1    -0.153548912980E+03    0.16652E+00   -0.10429E+02  1824   0.381E+01    0.198E+00
RMM:   2    -0.153781457315E+03   -0.23254E+00   -0.26716E+00  1839   0.647E+00    0.496E-01
RMM:   3    -0.153791390817E+03   -0.99335E-02   -0.22324E-01  2174   0.190E+00    0.250E-01
RMM:   4    -0.153793025943E+03   -0.16351E-02   -0.31094E-02  2685   0.489E-01    0.241E-01
RMM:   5    -0.153792699396E+03    0.32655E-03   -0.80634E-03  2412   0.255E-01    0.957E-02
RMM:   6    -0.153792878312E+03   -0.17892E-03   -0.41026E-03  2391   0.183E-01    0.660E-02
RMM:   7    -0.153792974786E+03   -0.96474E-04   -0.16351E-03  2452   0.888E-02    0.545E-02
RMM:   8    -0.153793019965E+03   -0.45179E-04   -0.99248E-04  2204   0.710E-02    0.218E-02
RMM:   9    -0.153793072058E+03   -0.52093E-04   -0.48129E-04  2078   0.450E-02    0.217E-02
RMM:  10    -0.153793093512E+03   -0.21454E-04   -0.24744E-04  1712   0.355E-02    0.123E-02
RMM:  11    -0.153793114763E+03   -0.21251E-04   -0.12344E-04  1334   0.198E-02    0.800E-03
RMM:  12    -0.153793123966E+03   -0.92028E-05   -0.64906E-05  1245   0.179E-02
  14 F= -.15379312E+03 E0= -.15372187E+03  d E =-.776817E-01
       N       E                     dE             d eps       ncg     rms          rms(c)
DAV:   1    -0.153527416501E+03    0.26570E+00   -0.14187E+02  1824   0.441E+01    0.234E+00
RMM:   2    -0.153847510824E+03   -0.32009E+00   -0.36749E+00  1839   0.734E+00    0.740E-01
RMM:   3    -0.153861550974E+03   -0.14040E-01   -0.25867E-01  2027   0.227E+00    0.285E-01
RMM:   4    -0.153865737586E+03   -0.41866E-02   -0.55739E-02  2646   0.669E-01    0.235E-01
RMM:   5    -0.153866392306E+03   -0.65472E-03   -0.13579E-02  2543   0.351E-01    0.174E-01
RMM:   6    -0.153866214028E+03    0.17828E-03   -0.55319E-03  2500   0.176E-01    0.929E-02
RMM:   7    -0.153866342288E+03   -0.12826E-03   -0.25902E-03  2531   0.121E-01    0.493E-02
RMM:   8    -0.153866384337E+03   -0.42049E-04   -0.10544E-03  2364   0.660E-02    0.143E-02
RMM:   9    -0.153866439428E+03   -0.55091E-04   -0.49325E-04  1727   0.371E-02    0.130E-02
RMM:  10    -0.153866467115E+03   -0.27687E-04   -0.28342E-04  1701   0.317E-02    0.957E-03
RMM:  11    -0.153866483038E+03   -0.15923E-04   -0.16733E-04  1476   0.243E-02    0.609E-03
RMM:  12    -0.153866492583E+03   -0.95452E-05   -0.85918E-05  1289   0.181E-02
  15 F= -.15386649E+03 E0= -.15379899E+03  d E =-.733686E-01
       N       E                     dE             d eps       ncg     rms          rms(c)
DAV:   1    -0.153870727520E+03   -0.42445E-02   -0.44804E+00  1840   0.826E+00    0.361E-01
RMM:   2    -0.153881713486E+03   -0.10986E-01   -0.12324E-01  1839   0.147E+00    0.223E-01
RMM:   3    -0.153880267579E+03    0.14459E-02   -0.12241E-02  1933   0.453E-01    0.965E-02
RMM:   4    -0.153880361695E+03   -0.94116E-04   -0.31315E-03  2390   0.156E-01    0.533E-02
RMM:   5    -0.153880377920E+03   -0.16225E-04   -0.74613E-04  2162   0.882E-02    0.469E-02
RMM:   6    -0.153880376050E+03    0.18701E-05   -0.12844E-04  1834   0.352E-02    0.278E-02
RMM:   7    -0.153880364515E+03    0.11534E-04   -0.12639E-04  1614   0.340E-02    0.113E-02
RMM:   8    -0.153880372144E+03   -0.76289E-05   -0.53262E-05  1417   0.229E-02
  16 F= -.15388037E+03 E0= -.15381280E+03  d E =-.138796E-01
       N       E                     dE             d eps       ncg     rms          rms(c)
DAV:   1    -0.153865673940E+03    0.14691E-01   -0.14955E+01  1824   0.150E+01    0.718E-01
RMM:   2    -0.153897703586E+03   -0.32030E-01   -0.37005E-01  1841   0.252E+00    0.278E-01
RMM:   3    -0.153898800489E+03   -0.10969E-02   -0.29136E-02  2045   0.782E-01    0.227E-01
RMM:   4    -0.153898450973E+03    0.34952E-03   -0.66805E-03  2444   0.247E-01    0.815E-02
RMM:   5    -0.153898300698E+03    0.15027E-03   -0.16383E-03  2313   0.112E-01    0.297E-02
RMM:   6    -0.153898332910E+03   -0.32212E-04   -0.42341E-04  2227   0.475E-02    0.204E-02
RMM:   7    -0.153898367651E+03   -0.34741E-04   -0.41762E-04  1889   0.544E-02    0.290E-02
RMM:   8    -0.153898368746E+03   -0.10946E-05   -0.11939E-04  1531   0.293E-02    0.111E-02
RMM:   9    -0.153898375578E+03   -0.68323E-05   -0.81349E-05  1400   0.208E-02
  17 F= -.15389838E+03 E0= -.15383293E+03  d E =-.180034E-01
       N       E                     dE             d eps       ncg     rms          rms(c)
DAV:   1    -0.153825533787E+03    0.72835E-01   -0.47417E+01  1824   0.266E+01    0.126E+00
RMM:   2    -0.153925234973E+03   -0.99701E-01   -0.11266E+00  1838   0.438E+00    0.365E-01
RMM:   3    -0.153929105821E+03   -0.38708E-02   -0.85610E-02  2190   0.124E+00    0.109E-01
RMM:   4    -0.153930023113E+03   -0.91729E-03   -0.10841E-02  2646   0.331E-01    0.852E-02
RMM:   5    -0.153930133334E+03   -0.11022E-03   -0.33279E-03  2705   0.158E-01    0.377E-02
RMM:   6    -0.153930236466E+03   -0.10313E-03   -0.10311E-03  2649   0.662E-02    0.208E-02
RMM:   7    -0.153930275191E+03   -0.38726E-04   -0.47838E-04  2208   0.491E-02    0.125E-02
RMM:   8    -0.153930302179E+03   -0.26988E-04   -0.21158E-04  1656   0.288E-02    0.674E-03
RMM:   9    -0.153930315927E+03   -0.13748E-04   -0.11403E-04  1433   0.212E-02    0.593E-03
RMM:  10    -0.153930322592E+03   -0.66646E-05   -0.62305E-05  1309   0.173E-02
  18 F= -.15393032E+03 E0= -.15386669E+03  d E =-.319470E-01
       N       E                     dE             d eps       ncg     rms          rms(c)
DAV:   1    -0.153871564018E+03    0.58752E-01   -0.37439E+01  1824   0.240E+01    0.110E+00
RMM:   2    -0.153951021912E+03   -0.79458E-01   -0.87685E-01  1838   0.395E+00    0.196E-01
RMM:   3    -0.153954819898E+03   -0.37980E-02   -0.66929E-02  2140   0.116E+00    0.110E-01
RMM:   4    -0.153955686860E+03   -0.86696E-03   -0.12091E-02  2740   0.325E-01    0.767E-02
RMM:   5    -0.153955659638E+03    0.27221E-04   -0.15274E-03  2657   0.112E-01    0.401E-02
RMM:   6    -0.153955712091E+03   -0.52453E-04   -0.10846E-03  2537   0.862E-02    0.426E-02
RMM:   7    -0.153955711115E+03    0.97676E-06   -0.47503E-04  2296   0.578E-02    0.123E-02
RMM:   8    -0.153955726178E+03   -0.15063E-04   -0.15926E-04  1635   0.270E-02    0.796E-03
RMM:   9    -0.153955738349E+03   -0.12171E-04   -0.96984E-05  1483   0.214E-02    0.341E-03
RMM:  10    -0.153955743585E+03   -0.52366E-05   -0.53054E-05  1320   0.172E-02
  19 F= -.15395574E+03 E0= -.15389428E+03  d E =-.254210E-01
       N       E                     dE             d eps       ncg     rms          rms(c)
DAV:   1    -0.153956283149E+03   -0.54480E-03   -0.23136E-02  1912   0.592E-01    0.261E-02
RMM:   2    -0.153956336368E+03   -0.53220E-04   -0.58660E-04  1850   0.968E-02    0.546E-03
RMM:   3    -0.153956337891E+03   -0.15225E-05   -0.45953E-05  1301   0.287E-02    0.302E-03
RMM:   4    -0.153956339004E+03   -0.11128E-05   -0.12648E-05  1004   0.129E-02
  20 F= -.15395634E+03 E0= -.15389495E+03  d E =-.595418E-03
       N       E                     dE             d eps       ncg     rms          rms(c)
DAV:   1    -0.153945143958E+03    0.11194E-01   -0.29359E+00  1824   0.640E+00    0.316E-01
RMM:   2    -0.153950921841E+03   -0.57779E-02   -0.67139E-02  1837   0.103E+00    0.541E-02
RMM:   3    -0.153951093803E+03   -0.17196E-03   -0.44449E-03  2103   0.289E-01    0.329E-02
RMM:   4    -0.153951210954E+03   -0.11715E-03   -0.96590E-04  2403   0.950E-02    0.284E-02
RMM:   5    -0.153951214733E+03   -0.37789E-05   -0.21056E-04  1976   0.416E-02    0.188E-02
RMM:   6    -0.153951222842E+03   -0.81091E-05   -0.86970E-05  1437   0.235E-02
  21 F= -.15395122E+03 E0= -.15388930E+03  d E =0.511616E-02
       N       E                     dE             d eps       ncg     rms          rms(c)
DAV:   1    -0.153923965283E+03    0.27249E-01   -0.19785E+01  1824   0.173E+01    0.777E-01
RMM:   2    -0.153964937520E+03   -0.40972E-01   -0.45469E-01  1836   0.281E+00    0.126E-01
RMM:   3    -0.153966795423E+03   -0.18579E-02   -0.31260E-02  2171   0.780E-01    0.372E-02
RMM:   4    -0.153967177756E+03   -0.38233E-03   -0.44043E-03  2743   0.204E-01    0.400E-02
RMM:   5    -0.153967215756E+03   -0.38000E-04   -0.71550E-04  2494   0.735E-02    0.265E-02
RMM:   6    -0.153967235956E+03   -0.20200E-04   -0.30049E-04  2315   0.390E-02    0.122E-02
RMM:   7    -0.153967248306E+03   -0.12350E-04   -0.15262E-04  1703   0.284E-02    0.527E-03
RMM:   8    -0.153967253681E+03   -0.53756E-05   -0.70005E-05  1364   0.198E-02
  22 F= -.15396725E+03 E0= -.15390726E+03  d E =-.160308E-01
       N       E                     dE             d eps       ncg     rms          rms(c)
DAV:   1    -0.153890054249E+03    0.77194E-01   -0.43931E+01  1824   0.260E+01    0.119E+00
RMM:   2    -0.153983629920E+03   -0.93576E-01   -0.10732E+00  1837   0.432E+00    0.151E-01
RMM:   3    -0.153988372390E+03   -0.47425E-02   -0.70547E-02  2129   0.122E+00    0.877E-02
RMM:   4    -0.153989117477E+03   -0.74509E-03   -0.10428E-02  2732   0.323E-01    0.802E-02
RMM:   5    -0.153989090762E+03    0.26715E-04   -0.15789E-03  2675   0.116E-01    0.416E-02
RMM:   6    -0.153989175837E+03   -0.85075E-04   -0.73275E-04  2585   0.623E-02    0.190E-02
RMM:   7    -0.153989229273E+03   -0.53436E-04   -0.34487E-04  2190   0.402E-02    0.163E-02
RMM:   8    -0.153989253216E+03   -0.23943E-04   -0.18211E-04  1813   0.302E-02    0.724E-03
RMM:   9    -0.153989266018E+03   -0.12802E-04   -0.93828E-05  1512   0.219E-02    0.381E-03
RMM:  10    -0.153989274747E+03   -0.87290E-05   -0.53021E-05  1345   0.177E-02
  23 F= -.15398927E+03 E0= -.15393189E+03  d E =-.220211E-01
       N       E                     dE             d eps       ncg     rms          rms(c)
DAV:   1    -0.153990209677E+03   -0.94366E-03   -0.86943E-01  1840   0.361E+00    0.171E-01
RMM:   2    -0.153992133891E+03   -0.19242E-02   -0.23132E-02  1839   0.630E-01    0.114E-01
RMM:   3    -0.153992114290E+03    0.19601E-04   -0.18956E-03  2013   0.189E-01    0.668E-02
RMM:   4    -0.153992095897E+03    0.18393E-04   -0.98036E-04  2203   0.925E-02    0.274E-02
RMM:   5    -0.153992119202E+03   -0.23305E-04   -0.16470E-04  1759   0.383E-02    0.257E-02
RMM:   6    -0.153992108695E+03    0.10507E-04   -0.84999E-05  1491   0.270E-02    0.139E-02
RMM:   7    -0.153992110360E+03   -0.16644E-05   -0.31740E-05  1230   0.180E-02
  24 F= -.15399211E+03 E0= -.15393553E+03  d E =-.283561E-02
       N       E                     dE             d eps       ncg     rms          rms(c)
DAV:   1    -0.153847165594E+03    0.14494E+00   -0.72498E+01  1824   0.333E+01    0.153E+00
RMM:   2    -0.154005645712E+03   -0.15848E+00   -0.17496E+00  1836   0.552E+00    0.277E-01
RMM:   3    -0.154014309943E+03   -0.86642E-02   -0.12844E-01  2155   0.160E+00    0.112E-01
RMM:   4    -0.154015672949E+03   -0.13630E-02   -0.17735E-02  2730   0.414E-01    0.717E-02
RMM:   5    -0.154015799929E+03   -0.12698E-03   -0.27310E-03  2629   0.161E-01    0.663E-02
RMM:   6    -0.154015876513E+03   -0.76584E-04   -0.10585E-03  2649   0.707E-02    0.192E-02
RMM:   7    -0.154015949510E+03   -0.72997E-04   -0.55285E-04  2419   0.531E-02    0.184E-02
RMM:   8    -0.154015973142E+03   -0.23632E-04   -0.28760E-04  2225   0.385E-02    0.426E-03
RMM:   9    -0.154015986360E+03   -0.13218E-04   -0.12590E-04  1586   0.234E-02    0.595E-03
RMM:  10    -0.154015993446E+03   -0.70862E-05   -0.67400E-05  1425   0.183E-02
  25 F= -.15401599E+03 E0= -.15396319E+03  d E =-.238831E-01
       N       E                     dE             d eps       ncg     rms          rms(c)
DAV:   1    -0.154015461647E+03    0.52471E-03   -0.18511E+00  1824   0.534E+00    0.222E-01
RMM:   2    -0.154019307617E+03   -0.38460E-02   -0.43122E-02  1836   0.872E-01    0.705E-02
RMM:   3    -0.154019472571E+03   -0.16495E-03   -0.30352E-03  2041   0.258E-01    0.407E-02
RMM:   4    -0.154019507795E+03   -0.35225E-04   -0.62727E-04  2519   0.772E-02    0.256E-02
RMM:   5    -0.154019516286E+03   -0.84906E-05   -0.13600E-04  2132   0.363E-02    0.192E-02
RMM:   6    -0.154019513943E+03    0.23428E-05   -0.46584E-05  1447   0.214E-02
  26 F= -.15401951E+03 E0= -.15396732E+03  d E =-.352050E-02
       N       E                     dE             d eps       ncg     rms          rms(c)
DAV:   1    -0.153870216186E+03    0.14930E+00   -0.57498E+01  1824   0.296E+01    0.130E+00
RMM:   2    -0.153992098297E+03   -0.12188E+00   -0.14044E+00  1835   0.495E+00    0.182E-01
RMM:   3    -0.153998218240E+03   -0.61199E-02   -0.91122E-02  2119   0.139E+00    0.146E-01
RMM:   4    -0.153999027803E+03   -0.80956E-03   -0.13570E-02  2718   0.358E-01    0.119E-01
RMM:   5    -0.153998963267E+03    0.64535E-04   -0.20000E-03  2649   0.131E-01    0.104E-01
RMM:   6    -0.153998969561E+03   -0.62932E-05   -0.84332E-04  2641   0.706E-02    0.741E-02
RMM:   7    -0.153998972348E+03   -0.27875E-05   -0.53854E-04  2522   0.587E-02    0.518E-02
RMM:   8    -0.153998989201E+03   -0.16852E-04   -0.29417E-04  2322   0.453E-02    0.266E-02
RMM:   9    -0.153998991017E+03   -0.18162E-05   -0.13698E-04  1768   0.285E-02    0.160E-02
RMM:  10    -0.153998992532E+03   -0.15147E-05   -0.84166E-05  1614   0.233E-02
  27 F= -.15399899E+03 E0= -.15394323E+03  d E =0.205214E-01
       N       E                     dE             d eps       ncg     rms          rms(c)
DAV:   1    -0.153958034355E+03    0.40957E-01   -0.24787E+01  1824   0.196E+01    0.838E-01
RMM:   2    -0.154010406287E+03   -0.52372E-01   -0.57636E-01  1835   0.323E+00    0.177E-01
RMM:   3    -0.154013084490E+03   -0.26782E-02   -0.41362E-02  2168   0.903E-01    0.142E-01
RMM:   4    -0.154013331385E+03   -0.24690E-03   -0.50883E-03  2636   0.228E-01    0.964E-02
RMM:   5    -0.154013302083E+03    0.29302E-04   -0.10802E-03  2441   0.106E-01    0.631E-02
RMM:   6    -0.154013303579E+03   -0.14968E-05   -0.56209E-04  2535   0.650E-02    0.356E-02
RMM:   7    -0.154013291773E+03    0.11806E-04   -0.20945E-04  2136   0.349E-02    0.194E-02
RMM:   8    -0.154013292606E+03   -0.83284E-06   -0.11626E-04  1876   0.264E-02    0.632E-03
RMM:   9    -0.154013295321E+03   -0.27155E-05   -0.36501E-05  1317   0.177E-02
  28 F= -.15401330E+03 E0= -.15395968E+03  d E =-.143028E-01
       N       E                     dE             d eps       ncg     rms          rms(c)
DAV:   1    -0.154005727733E+03    0.75649E-02   -0.19588E+00  1824   0.551E+00    0.234E-01
RMM:   2    -0.154009589121E+03   -0.38614E-02   -0.43780E-02  1834   0.898E-01    0.611E-02
RMM:   3    -0.154009754708E+03   -0.16559E-03   -0.30743E-03  2071   0.256E-01    0.439E-02
RMM:   4    -0.154009782469E+03   -0.27761E-04   -0.51999E-04  2429   0.702E-02    0.307E-02
RMM:   5    -0.154009778894E+03    0.35751E-05   -0.66172E-05  1605   0.295E-02
  29 F= -.15400978E+03 E0= -.15395580E+03  d E =0.351643E-02
       N       E                     dE             d eps       ncg     rms          rms(c)
DAV:   1    -0.154010275437E+03   -0.49297E-03   -0.67298E-02  1848   0.104E+00    0.533E-02
RMM:   2    -0.154010489434E+03   -0.21400E-03   -0.26963E-03  1854   0.224E-01    0.662E-02
RMM:   3    -0.154010416222E+03    0.73212E-04   -0.21939E-04  1858   0.640E-02    0.364E-02
RMM:   4    -0.154010410514E+03    0.57075E-05   -0.17146E-04  1625   0.379E-02    0.140E-02
RMM:   5    -0.154010408772E+03    0.17427E-05   -0.23166E-05  1098   0.172E-02
  30 F= -.15401041E+03 E0= -.15395651E+03  d E =-.629878E-03
       N       E                     dE             d eps       ncg     rms          rms(c)
DAV:   1    -0.154011323142E+03   -0.91263E-03   -0.26701E-01  1832   0.204E+00    0.940E-02
RMM:   2    -0.154011952564E+03   -0.62942E-03   -0.73051E-03  1852   0.346E-01    0.668E-02
RMM:   3    -0.154011930979E+03    0.21585E-04   -0.74297E-04  2018   0.120E-01    0.368E-02
RMM:   4    -0.154011916652E+03    0.14327E-04   -0.10820E-04  1767   0.327E-02    0.233E-02
RMM:   5    -0.154011906433E+03    0.10219E-04   -0.45021E-05  1400   0.223E-02    0.124E-02
RMM:   6    -0.154011906763E+03   -0.33008E-06   -0.19404E-05  1062   0.166E-02
  31 F= -.15401191E+03 E0= -.15395824E+03  d E =-.149799E-02
       N       E                     dE             d eps       ncg     rms          rms(c)
DAV:   1    -0.154012404491E+03   -0.49806E-03   -0.67056E-02  1832   0.102E+00    0.457E-02
RMM:   2    -0.154012521255E+03   -0.11676E-03   -0.17425E-03  1834   0.178E-01    0.344E-02
RMM:   3    -0.154012533960E+03   -0.12705E-04   -0.18138E-04  1960   0.545E-02    0.230E-02
RMM:   4    -0.154012536918E+03   -0.29574E-05   -0.37278E-05  1256   0.221E-02
  32 F= -.15401254E+03 E0= -.15395911E+03  d E =-.630155E-03
       N       E                     dE             d eps       ncg     rms          rms(c)
DAV:   1    -0.154013085935E+03   -0.55197E-03   -0.18029E-01  1824   0.168E+00    0.735E-02
RMM:   2    -0.154013464298E+03   -0.37836E-03   -0.41808E-03  1822   0.282E-01    0.494E-02
RMM:   3    -0.154013493760E+03   -0.29462E-04   -0.89610E-04  1940   0.113E-01    0.334E-02
RMM:   4    -0.154013471749E+03    0.22012E-04   -0.66090E-05  1533   0.301E-02    0.156E-02
RMM:   5    -0.154013472341E+03   -0.59255E-06   -0.40191E-05  1307   0.223E-02
  33 F= -.15401347E+03 E0= -.15396006E+03  d E =-.935423E-03
       N       E                     dE             d eps       ncg     rms          rms(c)
DAV:   1    -0.154013954534E+03   -0.48279E-03   -0.62365E-02  1840   0.998E-01    0.414E-02
RMM:   2    -0.154014081128E+03   -0.12659E-03   -0.14016E-03  1819   0.159E-01    0.215E-02
RMM:   3    -0.154014084833E+03   -0.37056E-05   -0.14216E-04  1835   0.513E-02    0.154E-02
RMM:   4    -0.154014084183E+03    0.65012E-06   -0.19644E-05  1076   0.162E-02
  34 F= -.15401408E+03 E0= -.15396075E+03  d E =-.611842E-03
       N       E                     dE             d eps       ncg     rms          rms(c)
DAV:   1    -0.154014312459E+03   -0.22763E-03   -0.20207E-02  1824   0.545E-01    0.281E-02
RMM:   2    -0.154014348309E+03   -0.35850E-04   -0.56075E-04  1769   0.102E-01    0.112E-02
RMM:   3    -0.154014352532E+03   -0.42231E-05   -0.42421E-05  1244   0.287E-02    0.602E-03
RMM:   4    -0.154014353513E+03   -0.98061E-06   -0.10533E-05   999   0.135E-02
  35 F= -.15401435E+03 E0= -.15396112E+03  d E =-.269329E-03
       N       E                     dE             d eps       ncg     rms          rms(c)
DAV:   1    -0.154014324077E+03    0.28455E-04   -0.15506E-04  1848   0.500E-02    0.318E-03
RMM:   2    -0.154014324176E+03   -0.99211E-07   -0.34184E-06   903   0.868E-03    0.174E-03
RMM:   3    -0.154014324121E+03    0.54933E-07   -0.78948E-07   703   0.448E-03    0.108E-03
RMM:   4    -0.154014324277E+03   -0.15595E-06   -0.32486E-07   462   0.319E-03
  36 F= -.15401432E+03 E0= -.15396109E+03  d E =0.292355E-04
       N       E                     dE             d eps       ncg     rms          rms(c)
DAV:   1    -0.154012197755E+03    0.21264E-02   -0.32280E-01  1824   0.226E+00    0.887E-02
RMM:   2    -0.154012842160E+03   -0.64441E-03   -0.72890E-03  1835   0.367E-01    0.219E-02
RMM:   3    -0.154012884362E+03   -0.42201E-04   -0.53346E-04  2007   0.105E-01    0.108E-02
RMM:   4    -0.154012889729E+03   -0.53673E-05   -0.73784E-05  1532   0.284E-02
  37 F= -.15401289E+03 E0= -.15395933E+03  d E =0.143455E-02
       N       E                     dE             d eps       ncg     rms          rms(c)
DAV:   1    -0.154005024570E+03    0.78598E-02   -0.18370E+00  1824   0.538E+00    0.197E-01
RMM:   2    -0.154008757167E+03   -0.37326E-02   -0.39401E-02  1835   0.848E-01    0.934E-02
RMM:   3    -0.154008805860E+03   -0.48693E-04   -0.32552E-03  2102   0.258E-01    0.325E-02
RMM:   4    -0.154008821959E+03   -0.16099E-04   -0.94684E-04  2509   0.843E-02    0.276E-02
RMM:   5    -0.154008833597E+03   -0.11638E-04   -0.17544E-04  2075   0.420E-02    0.191E-02
RMM:   6    -0.154008839603E+03   -0.60060E-05   -0.84426E-05  1703   0.242E-02
  38 F= -.15400884E+03 E0= -.15395460E+03  d E =0.405013E-02
       N       E                     dE             d eps       ncg     rms          rms(c)
DAV:   1    -0.154006597423E+03    0.22362E-02   -0.25189E-01  1888   0.199E+00    0.813E-02
RMM:   2    -0.154007115288E+03   -0.51786E-03   -0.60663E-03  1841   0.332E-01    0.366E-02
RMM:   3    -0.154007142099E+03   -0.26812E-04   -0.44343E-04  2043   0.937E-02    0.232E-02
RMM:   4    -0.154007144910E+03   -0.28105E-05   -0.97655E-05  1761   0.299E-02
  39 F= -.15400714E+03 E0= -.15395263E+03  d E =0.169469E-02
       N       E                     dE             d eps       ncg     rms          rms(c)
DAV:   1    -0.154007944842E+03   -0.80274E-03   -0.10314E-01  1872   0.126E+00    0.513E-02
RMM:   2    -0.154008147029E+03   -0.20219E-03   -0.25782E-03  1818   0.212E-01    0.183E-02
RMM:   3    -0.154008136558E+03    0.10471E-04   -0.17468E-04  1758   0.638E-02    0.837E-03
RMM:   4    -0.154008145549E+03   -0.89911E-05   -0.27165E-05  1148   0.191E-02
  40 F= -.15400815E+03 E0= -.15395379E+03  d E =-.100064E-02
       N       E                     dE             d eps       ncg     rms          rms(c)
DAV:   1    -0.154003491165E+03    0.46454E-02   -0.74395E-01  1824   0.340E+00    0.134E-01
RMM:   2    -0.154004990177E+03   -0.14990E-02   -0.16395E-02  1834   0.550E-01    0.376E-02
RMM:   3    -0.154005054348E+03   -0.64171E-04   -0.13569E-03  2117   0.161E-01    0.151E-02
RMM:   4    -0.154005068469E+03   -0.14121E-04   -0.20944E-04  2090   0.443E-02    0.663E-03
RMM:   5    -0.154005069595E+03   -0.11255E-05   -0.30380E-05  1174   0.197E-02
  41 F= -.15400507E+03 E0= -.15395028E+03  d E =0.307595E-02
       N       E                     dE             d eps       ncg     rms          rms(c)
DAV:   1    -0.154005898936E+03   -0.83047E-03   -0.10962E-01  1840   0.128E+00    0.545E-02
RMM:   2    -0.154006112504E+03   -0.21357E-03   -0.23668E-03  1828   0.209E-01    0.191E-02
RMM:   3    -0.154006125286E+03   -0.12782E-04   -0.26400E-04  1910   0.647E-02    0.711E-03
RMM:   4    -0.154006127262E+03   -0.19763E-05   -0.20554E-05  1092   0.172E-02
  42 F= -.15400613E+03 E0= -.15395149E+03  d E =-.105767E-02
       N       E                     dE             d eps       ncg     rms          rms(c)
DAV:   1    -0.154006053300E+03    0.71986E-04   -0.35026E-04  1900   0.728E-02    0.383E-03
RMM:   2    -0.154006054378E+03   -0.10777E-05   -0.52820E-06   952   0.109E-02    0.232E-03
RMM:   3    -0.154006055738E+03   -0.13597E-05   -0.11620E-06   850   0.550E-03    0.123E-03
RMM:   4    -0.154006056428E+03   -0.68985E-06   -0.60026E-07   645   0.373E-03
  43 F= -.15400606E+03 E0= -.15395140E+03  d E =0.708347E-04
       N       E                     dE             d eps       ncg     rms          rms(c)
DAV:   1    -0.154004699570E+03    0.13562E-02   -0.79037E-02  1840   0.112E+00    0.451E-02
RMM:   2    -0.154004855479E+03   -0.15591E-03   -0.18043E-03  1830   0.182E-01    0.883E-03
RMM:   3    -0.154004863937E+03   -0.84586E-05   -0.14073E-04  1758   0.535E-02    0.625E-03
RMM:   4    -0.154004865937E+03   -0.19996E-05   -0.18943E-05  1049   0.161E-02
  44 F= -.15400487E+03 E0= -.15395005E+03  d E =0.119049E-02
       N       E                     dE             d eps       ncg     rms          rms(c)
DAV:   1    -0.154000819915E+03    0.40440E-02   -0.56612E+00  1840   0.944E+00    0.387E-01
RMM:   2    -0.154011805445E+03   -0.10986E-01   -0.12756E-01  1838   0.153E+00    0.841E-02
RMM:   3    -0.154012387000E+03   -0.58156E-03   -0.97110E-03  2106   0.450E-01    0.213E-02
RMM:   4    -0.154012530141E+03   -0.14314E-03   -0.14343E-03  2657   0.114E-01    0.148E-02
RMM:   5    -0.154012544678E+03   -0.14537E-04   -0.20290E-04  1896   0.421E-02    0.116E-02
RMM:   6    -0.154012551883E+03   -0.72052E-05   -0.84259E-05  1537   0.221E-02
  45 F= -.15401255E+03 E0= -.15395868E+03  d E =-.768595E-02
       N       E                     dE             d eps       ncg     rms          rms(c)
DAV:   1    -0.154012727865E+03   -0.18319E-03   -0.13389E+00  1832   0.456E+00    0.199E-01
RMM:   2    -0.154015515925E+03   -0.27881E-02   -0.34335E-02  1835   0.808E-01    0.287E-02
RMM:   3    -0.154015684637E+03   -0.16871E-03   -0.24147E-03  2198   0.211E-01    0.186E-02
RMM:   4    -0.154015699136E+03   -0.14499E-04   -0.28988E-04  2322   0.550E-02    0.142E-02
RMM:   5    -0.154015704045E+03   -0.49088E-05   -0.58004E-05  1408   0.242E-02
  46 F= -.15401570E+03 E0= -.15396289E+03  d E =-.315216E-02
       N       E                     dE             d eps       ncg     rms          rms(c)
DAV:   1    -0.154016620071E+03   -0.92093E-03   -0.15673E-01  1888   0.155E+00    0.649E-02
RMM:   2    -0.154016944988E+03   -0.32492E-03   -0.32454E-03  1840   0.239E-01    0.317E-02
RMM:   3    -0.154016940321E+03    0.46668E-05   -0.30801E-04  2016   0.743E-02    0.110E-02
RMM:   4    -0.154016945042E+03   -0.47208E-05   -0.82924E-05  1643   0.258E-02
  47 F= -.15401695E+03 E0= -.15396419E+03  d E =-.124100E-02
       N       E                     dE             d eps       ncg     rms          rms(c)
DAV:   1    -0.154017018571E+03   -0.78250E-04   -0.68321E-04  1972   0.103E-01    0.449E-03
RMM:   2    -0.154017020119E+03   -0.15479E-05   -0.20251E-05  1078   0.183E-02    0.194E-03
RMM:   3    -0.154017020246E+03   -0.12679E-06   -0.28979E-06   901   0.872E-03    0.168E-03
RMM:   4    -0.154017020479E+03   -0.23316E-06   -0.21440E-06   838   0.579E-03
  48 F= -.15401702E+03 E0= -.15396427E+03  d E =-.754369E-04
       N       E                     dE             d eps       ncg     rms          rms(c)
DAV:   1    -0.154010193855E+03    0.68264E-02   -0.15836E+00  1828   0.499E+00    0.211E-01
RMM:   2    -0.154013425789E+03   -0.32319E-02   -0.36388E-02  1835   0.829E-01    0.379E-02
RMM:   3    -0.154013652200E+03   -0.22641E-03   -0.32913E-03  2160   0.243E-01    0.213E-02
RMM:   4    -0.154013671398E+03   -0.19197E-04   -0.37871E-04  2332   0.620E-02    0.188E-02
RMM:   5    -0.154013663368E+03    0.80292E-05   -0.11702E-04  1909   0.344E-02    0.512E-03
RMM:   6    -0.154013664460E+03   -0.10921E-05   -0.23601E-05  1188   0.160E-02
  49 F= -.15401366E+03 E0= -.15396032E+03  d E =0.335602E-02
       N       E                     dE             d eps       ncg     rms          rms(c)
DAV:   1    -0.154011180430E+03    0.24829E-02   -0.40625E-01  1832   0.250E+00    0.106E-01
RMM:   2    -0.154012044519E+03   -0.86409E-03   -0.89908E-03  1838   0.407E-01    0.387E-02
RMM:   3    -0.154012056499E+03   -0.11980E-04   -0.10010E-03  2105   0.129E-01    0.581E-03
RMM:   4    -0.154012071236E+03   -0.14736E-04   -0.14455E-04  1856   0.346E-02    0.744E-03
RMM:   5    -0.154012071690E+03   -0.45445E-06   -0.22008E-05  1120   0.179E-02
  50 F= -.15401207E+03 E0= -.15395862E+03  d E =0.159277E-02
       N       E                     dE             d eps       ncg     rms          rms(c)
DAV:   1    -0.154009716960E+03    0.23543E-02   -0.36452E-01  1824   0.239E+00    0.957E-02
RMM:   2    -0.154010474216E+03   -0.75726E-03   -0.84883E-03  1836   0.394E-01    0.798E-03
RMM:   3    -0.154010513358E+03   -0.39142E-04   -0.57620E-04  2040   0.110E-01    0.510E-03
RMM:   4    -0.154010520504E+03   -0.71463E-05   -0.83940E-05  1544   0.280E-02
  51 F= -.15401052E+03 E0= -.15395683E+03  d E =0.155119E-02
       N       E                     dE             d eps       ncg     rms          rms(c)
DAV:   1    -0.154009329774E+03    0.11836E-02   -0.12894E-01  1824   0.141E+00    0.595E-02
RMM:   2    -0.154009587546E+03   -0.25777E-03   -0.30703E-03  1838   0.232E-01    0.600E-03
RMM:   3    -0.154009601161E+03   -0.13615E-04   -0.20951E-04  1844   0.669E-02    0.362E-03
RMM:   4    -0.154009604129E+03   -0.29689E-05   -0.34046E-05  1207   0.186E-02
  52 F= -.15400960E+03 E0= -.15395582E+03  d E =0.916375E-03
       N       E                     dE             d eps       ncg     rms          rms(c)
DAV:   1    -0.154005906553E+03    0.36946E-02   -0.64479E-01  1824   0.316E+00    0.128E-01
RMM:   2    -0.154007226240E+03   -0.13197E-02   -0.14712E-02  1837   0.517E-01    0.155E-02
RMM:   3    -0.154007299551E+03   -0.73312E-04   -0.10217E-03  2110   0.144E-01    0.539E-03
RMM:   4    -0.154007314634E+03   -0.15083E-04   -0.13565E-04  1854   0.368E-02    0.238E-03
RMM:   5    -0.154007316916E+03   -0.22822E-05   -0.21923E-05  1136   0.174E-02
  53 F= -.15400732E+03 E0= -.15395333E+03  d E =0.228721E-02
       N       E                     dE             d eps       ncg     rms          rms(c)
DAV:   1    -0.154004455300E+03    0.28593E-02   -0.36427E+00  1824   0.748E+00    0.307E-01
RMM:   2    -0.154011981565E+03   -0.75263E-02   -0.81854E-02  1837   0.122E+00    0.536E-02
RMM:   3    -0.154012371909E+03   -0.39034E-03   -0.59116E-03  2103   0.346E-01    0.847E-03
RMM:   4    -0.154012451609E+03   -0.79700E-04   -0.85051E-04  2502   0.865E-02    0.129E-02
RMM:   5    -0.154012452033E+03   -0.42383E-06   -0.85268E-05  1518   0.318E-02
  54 F= -.15401245E+03 E0= -.15395918E+03  d E =-.513512E-02
       N       E                     dE             d eps       ncg     rms          rms(c)
DAV:   1    -0.154010787563E+03    0.16640E-02   -0.22781E-01  1824   0.188E+00    0.800E-02
RMM:   2    -0.154011267591E+03   -0.48003E-03   -0.51208E-03  1833   0.310E-01    0.214E-02
RMM:   3    -0.154011284691E+03   -0.17101E-04   -0.40719E-04  1952   0.890E-02    0.440E-03
RMM:   4    -0.154011290064E+03   -0.53720E-05   -0.37595E-05  1197   0.217E-02
  55 F= -.15401129E+03 E0= -.15395790E+03  d E =0.116197E-02
       N       E                     dE             d eps       ncg     rms          rms(c)
DAV:   1    -0.154009875867E+03    0.14088E-02   -0.25629E+00  1824   0.630E+00    0.270E-01
RMM:   2    -0.154015114609E+03   -0.52387E-02   -0.56120E-02  1837   0.102E+00    0.807E-02
RMM:   3    -0.154015312879E+03   -0.19827E-03   -0.43667E-03  2122   0.292E-01    0.300E-02
RMM:   4    -0.154015362592E+03   -0.49714E-04   -0.74317E-04  2579   0.794E-02    0.964E-03
RMM:   5    -0.154015368570E+03   -0.59784E-05   -0.81182E-05  1534   0.291E-02
  56 F= -.15401537E+03 E0= -.15396258E+03  d E =-.407851E-02
       N       E                     dE             d eps       ncg     rms          rms(c)
DAV:   1    -0.154002809519E+03    0.12553E-01   -0.89675E+00  1824   0.118E+01    0.501E-01
RMM:   2    -0.154021518786E+03   -0.18709E-01   -0.20398E-01  1838   0.192E+00    0.101E-01
RMM:   3    -0.154022492257E+03   -0.97347E-03   -0.16154E-02  2161   0.555E-01    0.178E-02
RMM:   4    -0.154022673588E+03   -0.18133E-03   -0.21528E-03  2716   0.139E-01    0.129E-02
RMM:   5    -0.154022695158E+03   -0.21570E-04   -0.27038E-04  2066   0.509E-02    0.887E-03
RMM:   6    -0.154022707896E+03   -0.12738E-04   -0.12357E-04  2002   0.274E-02    0.314E-03
RMM:   7    -0.154022713043E+03   -0.51474E-05   -0.35069E-05  1388   0.174E-02
  57 F= -.15402271E+03 E0= -.15397100E+03  d E =-.734447E-02
       N       E                     dE             d eps       ncg     rms          rms(c)
DAV:   1    -0.154016910943E+03    0.57970E-02   -0.41594E+00  1824   0.806E+00    0.344E-01
RMM:   2    -0.154025576763E+03   -0.86658E-02   -0.96399E-02  1837   0.133E+00    0.555E-02
RMM:   3    -0.154026103669E+03   -0.52691E-03   -0.80609E-03  2181   0.389E-01    0.251E-02
RMM:   4    -0.154026186023E+03   -0.82354E-04   -0.10360E-03  2618   0.975E-02    0.241E-02
RMM:   5    -0.154026181093E+03    0.49302E-05   -0.14599E-04  1831   0.382E-02    0.181E-02
RMM:   6    -0.154026177757E+03    0.33359E-05   -0.74910E-05  1561   0.218E-02
  58 F= -.15402618E+03 E0= -.15397532E+03  d E =-.346471E-02
       N       E                     dE             d eps       ncg     rms          rms(c)
DAV:   1    -0.154026620573E+03   -0.43948E-03   -0.21202E-01  1848   0.182E+00    0.744E-02
RMM:   2    -0.154027046453E+03   -0.42588E-03   -0.47212E-03  1839   0.294E-01    0.193E-02
RMM:   3    -0.154027061719E+03   -0.15266E-04   -0.46236E-04  2135   0.879E-02    0.788E-03
RMM:   4    -0.154027065664E+03   -0.39458E-05   -0.58354E-05  1380   0.239E-02
  59 F= -.15402707E+03 E0= -.15397633E+03  d E =-.887907E-03
       N       E                     dE             d eps       ncg     rms          rms(c)
DAV:   1    -0.154027375924E+03   -0.31421E-03   -0.26990E-02  1864   0.648E-01    0.258E-02
RMM:   2    -0.154027432223E+03   -0.56299E-04   -0.66196E-04  1835   0.109E-01    0.733E-03
RMM:   3    -0.154027432241E+03   -0.17610E-07   -0.37425E-05  1213   0.307E-02    0.331E-03
RMM:   4    -0.154027434069E+03   -0.18283E-05   -0.10945E-05   992   0.136E-02
  60 F= -.15402743E+03 E0= -.15397675E+03  d E =-.368405E-03
       N       E                     dE             d eps       ncg     rms          rms(c)
DAV:   1    -0.154026583373E+03    0.84887E-03   -0.12367E+00  1824   0.437E+00    0.177E-01
RMM:   2    -0.154029106648E+03   -0.25233E-02   -0.28100E-02  1836   0.710E-01    0.270E-02
RMM:   3    -0.154029256342E+03   -0.14969E-03   -0.21840E-03  2160   0.205E-01    0.200E-02
RMM:   4    -0.154029258716E+03   -0.23745E-05   -0.25979E-04  2262   0.540E-02    0.722E-03
RMM:   5    -0.154029258669E+03    0.47830E-07   -0.36079E-05  1282   0.214E-02
  61 F= -.15402926E+03 E0= -.15397901E+03  d E =-.182460E-02
       N       E                     dE             d eps       ncg     rms          rms(c)
DAV:   1    -0.154029392997E+03   -0.13428E-03   -0.54090E-03  1896   0.291E-01    0.116E-02
RMM:   2    -0.154029404799E+03   -0.11802E-04   -0.13768E-04  1743   0.473E-02    0.260E-03
RMM:   3    -0.154029406187E+03   -0.13880E-05   -0.14046E-05  1016   0.165E-02    0.365E-03
RMM:   4    -0.154029406535E+03   -0.34855E-06   -0.46204E-06   942   0.923E-03
  62 F= -.15402941E+03 E0= -.15397920E+03  d E =-.147867E-03
       N       E                     dE             d eps       ncg     rms          rms(c)
DAV:   1    -0.154029295541E+03    0.11065E-03   -0.56305E-01  1824   0.292E+00    0.117E-01
RMM:   2    -0.154030453010E+03   -0.11575E-02   -0.12919E-02  1831   0.477E-01    0.187E-02
RMM:   3    -0.154030526970E+03   -0.73960E-04   -0.97897E-04  2132   0.136E-01    0.163E-02
RMM:   4    -0.154030522890E+03    0.40797E-05   -0.11381E-04  1786   0.355E-02    0.107E-02
RMM:   5    -0.154030522674E+03    0.21591E-06   -0.14980E-05  1099   0.156E-02
  63 F= -.15403052E+03 E0= -.15398059E+03  d E =-.111614E-02
       N       E                     dE             d eps       ncg     rms          rms(c)
DAV:   1    -0.153991175289E+03    0.39348E-01   -0.15290E+01  1824   0.153E+01    0.643E-01
RMM:   2    -0.154022585582E+03   -0.31410E-01   -0.35385E-01  1837   0.253E+00    0.136E-01
RMM:   3    -0.154024210552E+03   -0.16250E-02   -0.25023E-02  2139   0.703E-01    0.596E-02
RMM:   4    -0.154024531354E+03   -0.32080E-03   -0.33335E-03  2685   0.182E-01    0.307E-02
RMM:   5    -0.154024576497E+03   -0.45143E-04   -0.48836E-04  2461   0.699E-02    0.201E-02
RMM:   6    -0.154024592729E+03   -0.16232E-04   -0.17901E-04  1877   0.310E-02    0.133E-02
RMM:   7    -0.154024598971E+03   -0.62416E-05   -0.75430E-05  1513   0.214E-02
  64 F= -.15402460E+03 E0= -.15397305E+03  d E =0.592370E-02
       N       E                     dE             d eps       ncg     rms          rms(c)
DAV:   1    -0.154017061124E+03    0.75316E-02   -0.55273E+00  1824   0.929E+00    0.401E-01
RMM:   2    -0.154028501731E+03   -0.11441E-01   -0.12895E-01  1837   0.155E+00    0.513E-02
RMM:   3    -0.154029145650E+03   -0.64392E-03   -0.85543E-03  2117   0.420E-01    0.151E-02
RMM:   4    -0.154029248236E+03   -0.10259E-03   -0.11472E-03  2573   0.106E-01    0.119E-02
RMM:   5    -0.154029253131E+03   -0.48955E-05   -0.13323E-04  1671   0.378E-02    0.973E-03
RMM:   6    -0.154029256185E+03   -0.30538E-05   -0.46929E-05  1349   0.181E-02
  65 F= -.15402926E+03 E0= -.15397880E+03  d E =-.465721E-02
       N       E                     dE             d eps       ncg     rms          rms(c)
DAV:   1    -0.154025187608E+03    0.40655E-02   -0.10610E+00  1824   0.399E+00    0.171E-01
RMM:   2    -0.154027293598E+03   -0.21060E-02   -0.24090E-02  1838   0.650E-01    0.322E-02
RMM:   3    -0.154027405626E+03   -0.11203E-03   -0.14705E-03  2016   0.176E-01    0.168E-02
RMM:   4    -0.154027429282E+03   -0.23656E-04   -0.24722E-04  2087   0.470E-02    0.868E-03
RMM:   5    -0.154027429949E+03   -0.66717E-06   -0.21571E-05  1181   0.191E-02
  66 F= -.15402743E+03 E0= -.15397656E+03  d E =0.182624E-02
       N       E                     dE             d eps       ncg     rms          rms(c)
DAV:   1    -0.154027138340E+03    0.29094E-03   -0.12445E-01  1840   0.128E+00    0.707E-02
RMM:   2    -0.154027356186E+03   -0.21785E-03   -0.34147E-03  1834   0.237E-01    0.236E-02
RMM:   3    -0.154027392875E+03   -0.36690E-04   -0.30445E-04  1890   0.650E-02    0.160E-02
RMM:   4    -0.154027386428E+03    0.64469E-05   -0.41700E-05  1287   0.216E-02
  67 F= -.15402739E+03 E0= -.15397636E+03  d E =0.435205E-04
       N       E                     dE             d eps       ncg     rms          rms(c)
DAV:   1    -0.154025060578E+03    0.23323E-02   -0.54980E-01  1824   0.291E+00    0.117E-01
RMM:   2    -0.154026146722E+03   -0.10861E-02   -0.12640E-02  1836   0.473E-01    0.488E-02
RMM:   3    -0.154026168843E+03   -0.22121E-04   -0.85150E-04  2069   0.133E-01    0.297E-02
RMM:   4    -0.154026171004E+03   -0.21615E-05   -0.13716E-04  1948   0.367E-02    0.164E-02
RMM:   5    -0.154026169847E+03    0.11571E-05   -0.40513E-05  1331   0.221E-02
  68 F= -.15402617E+03 E0= -.15397475E+03  d E =0.121658E-02
       N       E                     dE             d eps       ncg     rms          rms(c)
DAV:   1    -0.154024799500E+03    0.13715E-02   -0.22089E-01  1824   0.187E+00    0.839E-02
RMM:   2    -0.154025241808E+03   -0.44231E-03   -0.54119E-03  1847   0.322E-01    0.349E-02
RMM:   3    -0.154025270729E+03   -0.28920E-04   -0.32000E-04  1996   0.843E-02    0.342E-02
RMM:   4    -0.154025261518E+03    0.92111E-05   -0.91006E-05  1657   0.310E-02
  69 F= -.15402526E+03 E0= -.15397367E+03  d E =0.908329E-03
       N       E                     dE             d eps       ncg     rms          rms(c)
DAV:   1    -0.154025372899E+03   -0.10217E-03   -0.10474E+00  1824   0.405E+00    0.161E-01
RMM:   2    -0.154027411125E+03   -0.20382E-02   -0.22386E-02  1838   0.646E-01    0.333E-02
RMM:   3    -0.154027510626E+03   -0.99501E-04   -0.16477E-03  2107   0.183E-01    0.783E-03
RMM:   4    -0.154027527165E+03   -0.16539E-04   -0.19949E-04  1997   0.446E-02    0.559E-03
RMM:   5    -0.154027528494E+03   -0.13294E-05   -0.26780E-05  1189   0.190E-02
  70 F= -.15402753E+03 E0= -.15397620E+03  d E =-.226698E-02
       N       E                     dE             d eps       ncg     rms          rms(c)
DAV:   1    -0.154027910227E+03   -0.38306E-03   -0.54106E-02  1824   0.891E-01    0.399E-02
RMM:   2    -0.154028025525E+03   -0.11530E-03   -0.14553E-03  1841   0.154E-01    0.146E-02
RMM:   3    -0.154028029746E+03   -0.42212E-05   -0.11226E-04  1657   0.451E-02    0.125E-02
RMM:   4    -0.154028028875E+03    0.87042E-06   -0.23680E-05  1154   0.158E-02
  71 F= -.15402803E+03 E0= -.15397686E+03  d E =-.500382E-03
       N       E                     dE             d eps       ncg     rms          rms(c)
DAV:   1    -0.154028220762E+03   -0.19102E-03   -0.90318E-03  1856   0.356E-01    0.142E-02
RMM:   2    -0.154028237164E+03   -0.16403E-04   -0.21091E-04  1700   0.550E-02    0.830E-03
RMM:   3    -0.154028235785E+03    0.13797E-05   -0.12867E-05  1007   0.177E-02    0.403E-03
RMM:   4    -0.154028236243E+03   -0.45823E-06   -0.46866E-06   951   0.824E-03
  72 F= -.15402824E+03 E0= -.15397706E+03  d E =-.207367E-03
       N       E                     dE             d eps       ncg     rms          rms(c)
DAV:   1    -0.154028351929E+03   -0.11614E-03   -0.40379E-03  1872   0.248E-01    0.922E-03
RMM:   2    -0.154028360786E+03   -0.88573E-05   -0.11094E-04  1589   0.440E-02    0.536E-03
RMM:   3    -0.154028360645E+03    0.14093E-06   -0.58577E-06   971   0.133E-02    0.303E-03
RMM:   4    -0.154028360497E+03    0.14878E-06   -0.20428E-06   913   0.625E-03
  73 F= -.15402836E+03 E0= -.15397721E+03  d E =-.124254E-03
       N       E                     dE             d eps       ncg     rms          rms(c)
DAV:   1    -0.154028406589E+03   -0.45944E-04   -0.51340E-04  1904   0.856E-02    0.343E-03
RMM:   2    -0.154028407425E+03   -0.83599E-06   -0.11598E-05   964   0.141E-02    0.203E-03
RMM:   3    -0.154028407702E+03   -0.27634E-06   -0.14355E-06   821   0.620E-03    0.166E-03
RMM:   4    -0.154028407683E+03    0.18241E-07   -0.39356E-07   421   0.329E-03
  74 F= -.15402841E+03 E0= -.15397726E+03  d E =-.471867E-04
       N       E                     dE             d eps       ncg     rms          rms(c)
DAV:   1    -0.154028642420E+03   -0.23472E-03   -0.34415E-02  1824   0.714E-01    0.308E-02
RMM:   2    -0.154028708310E+03   -0.65890E-04   -0.78617E-04  1821   0.117E-01    0.130E-02
RMM:   3    -0.154028712891E+03   -0.45811E-05   -0.42185E-05  1254   0.310E-02    0.123E-02
RMM:   4    -0.154028713335E+03   -0.44349E-06   -0.10227E-05  1018   0.125E-02
  75 F= -.15402871E+03 E0= -.15397758E+03  d E =-.305651E-03
       N       E                     dE             d eps       ncg     rms          rms(c)
DAV:   1    -0.154028785360E+03   -0.72469E-04   -0.46373E-01  1824   0.261E+00    0.123E-01
RMM:   2    -0.154029667176E+03   -0.88182E-03   -0.10341E-02  1840   0.422E-01    0.418E-02
RMM:   3    -0.154029695683E+03   -0.28508E-04   -0.77678E-04  2123   0.121E-01    0.231E-02
RMM:   4    -0.154029704859E+03   -0.91756E-05   -0.13938E-04  1942   0.373E-02    0.136E-02
RMM:   5    -0.154029713253E+03   -0.83942E-05   -0.24529E-05  1195   0.168E-02
  76 F= -.15402971E+03 E0= -.15397860E+03  d E =-.999919E-03
       N       E                     dE             d eps       ncg     rms          rms(c)
DAV:   1    -0.154029696715E+03    0.81443E-05   -0.72582E-02  1824   0.944E-01    0.653E-02
RMM:   2    -0.154029821479E+03   -0.12476E-03   -0.22355E-03  1796   0.190E-01    0.132E-02
RMM:   3    -0.154029832405E+03   -0.10926E-04   -0.12995E-04  1559   0.461E-02    0.760E-03
RMM:   4    -0.154029834425E+03   -0.20199E-05   -0.14085E-05  1081   0.159E-02
  77 F= -.15402983E+03 E0= -.15397903E+03  d E =-.121172E-03
       N       E                     dE             d eps       ncg     rms          rms(c)
DAV:   1    -0.154030085046E+03   -0.25264E-03   -0.98296E-03  1832   0.373E-01    0.215E-02
RMM:   2    -0.154030090600E+03   -0.55546E-05   -0.23596E-04  1757   0.638E-02    0.543E-03
RMM:   3    -0.154030095283E+03   -0.46828E-05   -0.24871E-05  1137   0.207E-02    0.793E-03
RMM:   4    -0.154030094875E+03    0.40835E-06   -0.54990E-06  1009   0.113E-02
  78 F= -.15403009E+03 E0= -.15397921E+03  d E =-.260450E-03
       N       E                     dE             d eps       ncg     rms          rms(c)
DAV:   1    -0.154030485698E+03   -0.39042E-03   -0.16625E-01  1824   0.161E+00    0.678E-02
RMM:   2    -0.154030832706E+03   -0.34701E-03   -0.38587E-03  1832   0.269E-01    0.226E-02
RMM:   3    -0.154030838553E+03   -0.58467E-05   -0.27289E-04  1902   0.737E-02    0.915E-03
RMM:   4    -0.154030842361E+03   -0.38082E-05   -0.52137E-05  1402   0.236E-02
  79 F= -.15403084E+03 E0= -.15398006E+03  d E =-.747487E-03
       N       E                     dE             d eps       ncg     rms          rms(c)
DAV:   1    -0.154031177072E+03   -0.33852E-03   -0.59517E-02  1824   0.959E-01    0.479E-02
RMM:   2    -0.154031270605E+03   -0.93533E-04   -0.14739E-03  1835   0.164E-01    0.131E-02
RMM:   3    -0.154031279393E+03   -0.87881E-05   -0.15046E-04  1865   0.480E-02    0.676E-03
RMM:   4    -0.154031283536E+03   -0.41429E-05   -0.19359E-05  1130   0.164E-02
  80 F= -.15403128E+03 E0= -.15398049E+03  d E =-.441175E-03
