<?xml version="1.0" encoding="ISO-8859-1"?>
<modeling>
 <generator>
  <i name="program" type="string">vasp </i>
  <i name="version" type="string">5.4.4.18Apr17-6-g9f103f2a35  </i>
  <i name="subversion" type="string">(build Jun 30 2017 11:15:00) complex            parallel </i>
  <i name="platform" type="string">STALLO_VASP_5.4.4 </i>
  <i name="date" type="string">2019 11 25 </i>
  <i name="time" type="string">08:47:44 </i>
 </generator>
 <incar>
  <i type="string" name="PREC">normal    ! low/normal/accurate</i>
  <i type="string" name="ALGO"> Fast      ! Algorithm for electronic re</i>
  <i type="int" name="ISPIN">     1</i>
  <i type="int" name="MAXMIX">    80</i>
  <i type="int" name="NELMIN">     4</i>
  <i type="int" name="IBRION">     1</i>
  <i name="EDIFF">      0.00001000</i>
  <i name="EDIFFG">     -0.05000000</i>
  <i type="int" name="NSW">   200</i>
  <i type="int" name="ISIF">     2</i>
  <i name="ENCUT">    500.00000000</i>
  <i type="string" name="LREAL"> Auto      ! Projection in reciprocal sp</i>
  <i type="int" name="ISMEAR">     0</i>
  <i name="SIGMA">      0.20000000</i>
  <i type="logical" name="LWAVE"> F  </i>
  <v type="int" name="KPOINT_BSE">    -1     0     0     0</v>
 </incar>
 <structure name="primitive_cell" >
  <crystal>
   <varray name="basis" >
    <v>       5.58168362       0.00000000       0.00000000 </v>
    <v>       0.00000000       3.94684634       0.00000000 </v>
    <v>       0.00000000       0.00000000      21.76794634 </v>
   </varray>
   <i name="volume">    479.54889400 </i>
   <varray name="rec_basis" >
    <v>       0.17915741       0.00000000       0.00000000 </v>
    <v>       0.00000000       0.25336684       0.00000000 </v>
    <v>       0.00000000       0.00000000       0.04593911 </v>
   </varray>
  </crystal>
  <varray name="positions" >
   <v>      -0.50000000       0.00000000       0.27563464 </v>
   <v>      -0.50000000      -0.50000000       0.27563464 </v>
   <v>      -0.50000000       0.00000000       0.40384342 </v>
   <v>       0.25000000      -0.50000000       0.33973903 </v>
   <v>      -0.25000000      -0.50000000       0.33973903 </v>
   <v>       0.00000000       0.00000000       0.27563464 </v>
   <v>       0.00000000       0.00000000       0.40384342 </v>
   <v>       0.00000000      -0.50000000       0.40384342 </v>
   <v>      -0.25000000      -0.50000000       0.46794781 </v>
   <v>       0.25000000      -0.50000000       0.46794781 </v>
   <v>      -0.50000000       0.00000000      -0.46794781 </v>
   <v>      -0.50000000      -0.50000000      -0.46794781 </v>
   <v>       0.00000000       0.00000000      -0.46794781 </v>
   <v>       0.25000000      -0.50000000      -0.40384342 </v>
   <v>      -0.25000000      -0.50000000      -0.40384342 </v>
   <v>      -0.50000000       0.00000000      -0.33973903 </v>
   <v>       0.00000000       0.00000000      -0.33973903 </v>
   <v>       0.00000000      -0.50000000      -0.33973903 </v>
   <v>      -0.25000000      -0.50000000      -0.27563464 </v>
   <v>       0.25000000      -0.50000000      -0.27563464 </v>
  </varray>
 </structure>
 <varray name="primitive_index" >
  <v type="int" >        1 </v>
  <v type="int" >       17 </v>
  <v type="int" >       14 </v>
  <v type="int" >        2 </v>
  <v type="int" >        3 </v>
  <v type="int" >       13 </v>
  <v type="int" >        4 </v>
  <v type="int" >       18 </v>
  <v type="int" >        5 </v>
  <v type="int" >        6 </v>
  <v type="int" >        7 </v>
  <v type="int" >       19 </v>
  <v type="int" >       15 </v>
  <v type="int" >        8 </v>
  <v type="int" >        9 </v>
  <v type="int" >       16 </v>
  <v type="int" >       10 </v>
  <v type="int" >       20 </v>
  <v type="int" >       11 </v>
  <v type="int" >       12 </v>
 </varray>
 <kpoints>
  <generation param="Gamma">
   <v type="int" name="divisions">       5        7        1 </v>
   <v name="usershift">      0.00000000       0.00000000       0.00000000 </v>
   <v name="genvec1">      0.20000000       0.00000000       0.00000000 </v>
   <v name="genvec2">      0.00000000       0.14285714       0.00000000 </v>
   <v name="genvec3">      0.00000000       0.00000000       1.00000000 </v>
   <v name="shift">      0.00000000       0.00000000       0.00000000 </v>
  </generation>
  <varray name="kpointlist" >
   <v>       0.00000000       0.00000000       0.00000000 </v>
   <v>       0.20000000       0.00000000       0.00000000 </v>
   <v>       0.40000000       0.00000000       0.00000000 </v>
   <v>       0.00000000       0.14285714       0.00000000 </v>
   <v>       0.20000000       0.14285714       0.00000000 </v>
   <v>       0.40000000       0.14285714       0.00000000 </v>
   <v>       0.00000000       0.28571429       0.00000000 </v>
   <v>       0.20000000       0.28571429       0.00000000 </v>
   <v>       0.40000000       0.28571429       0.00000000 </v>
   <v>       0.00000000       0.42857143       0.00000000 </v>
   <v>       0.20000000       0.42857143       0.00000000 </v>
   <v>       0.40000000       0.42857143       0.00000000 </v>
  </varray>
  <varray name="weights" >
   <v>       0.02857143 </v>
   <v>       0.05714286 </v>
   <v>       0.05714286 </v>
   <v>       0.05714286 </v>
   <v>       0.11428571 </v>
   <v>       0.11428571 </v>
   <v>       0.05714286 </v>
   <v>       0.11428571 </v>
   <v>       0.11428571 </v>
   <v>       0.05714286 </v>
   <v>       0.11428571 </v>
   <v>       0.11428571 </v>
  </varray>
 </kpoints>
 <parameters>
  <separator name="general" >
   <i type="string" name="SYSTEM">unknown system</i>
   <i type="logical" name="LCOMPAT"> F  </i>
  </separator>
  <separator name="electronic" >
   <i type="string" name="PREC">normal</i>
   <i name="ENMAX">    500.00000000</i>
   <i name="ENAUG">    605.39200000</i>
   <i name="EDIFF">      0.00001000</i>
   <i type="int" name="IALGO">    68</i>
   <i type="int" name="IWAVPR">    11</i>
   <i type="int" name="NBANDS">    76</i>
   <i name="NELECT">    128.00000000</i>
   <i type="int" name="TURBO">     0</i>
   <i type="int" name="IRESTART">     0</i>
   <i type="int" name="NREBOOT">     0</i>
   <i type="int" name="NMIN">     0</i>
   <i name="EREF">      0.00000000</i>
   <separator name="electronic smearing" >
    <i type="int" name="ISMEAR">     0</i>
    <i name="SIGMA">      0.20000000</i>
    <i name="KSPACING">      0.50000000</i>
    <i type="logical" name="KGAMMA"> T  </i>
   </separator>
   <separator name="electronic projectors" >
    <i type="logical" name="LREAL"> T  </i>
    <v name="ROPT">     -0.00050000     -0.00050000     -0.00050000</v>
    <i type="int" name="LMAXPAW">  -100</i>
    <i type="int" name="LMAXMIX">     2</i>
    <i type="logical" name="NLSPLINE"> F  </i>
   </separator>
   <separator name="electronic startup" >
    <i type="int" name="ISTART">     0</i>
    <i type="int" name="ICHARG">     2</i>
    <i type="int" name="INIWAV">     1</i>
   </separator>
   <separator name="electronic spin" >
    <i type="int" name="ISPIN">     1</i>
    <i type="logical" name="LNONCOLLINEAR"> F  </i>
    <v name="MAGMOM">      1.00000000      1.00000000      1.00000000      1.00000000      1.00000000      1.00000000      1.00000000      1.00000000      1.00000000      1.00000000      1.00000000      1.00000000      1.00000000      1.00000000      1.00000000      1.00000000      1.00000000      1.00000000      1.00000000      1.00000000
</v>
    <i name="NUPDOWN">     -1.00000000</i>
    <i type="logical" name="LSORBIT"> F  </i>
    <v name="SAXIS">      0.00000000      0.00000000      1.00000000</v>
    <i type="logical" name="LSPIRAL"> F  </i>
    <v name="QSPIRAL">      0.00000000      0.00000000      0.00000000</v>
    <i type="logical" name="LZEROZ"> F  </i>
   </separator>
   <separator name="electronic exchange-correlation" >
    <i type="logical" name="LASPH"> F  </i>
    <i type="logical" name="LMETAGGA"> F  </i>
   </separator>
   <separator name="electronic convergence" >
    <i type="int" name="NELM">    60</i>
    <i type="int" name="NELMDL">    -5</i>
    <i type="int" name="NELMIN">     4</i>
    <i name="ENINI">    500.00000000</i>
    <separator name="electronic convergence detail" >
     <i type="logical" name="LDIAG"> T  </i>
     <i type="logical" name="LSUBROT"> F  </i>
     <i name="WEIMIN">      0.00100000</i>
     <i name="EBREAK">      0.00000003</i>
     <i name="DEPER">      0.30000000</i>
     <i type="int" name="NRMM">     4</i>
     <i name="TIME">      0.40000000</i>
    </separator>
   </separator>
   <separator name="electronic mixer" >
    <i name="AMIX">      0.40000000</i>
    <i name="BMIX">      1.00000000</i>
    <i name="AMIN">      0.10000000</i>
    <i name="AMIX_MAG">      1.60000000</i>
    <i name="BMIX_MAG">      1.00000000</i>
    <separator name="electronic mixer details" >
     <i type="int" name="IMIX">     4</i>
     <i type="logical" name="MIXFIRST"> F  </i>
     <i type="int" name="MAXMIX">    80</i>
     <i name="WC">    100.00000000</i>
     <i type="int" name="INIMIX">     1</i>
     <i type="int" name="MIXPRE">     1</i>
     <i type="int" name="MREMOVE">     5</i>
    </separator>
   </separator>
   <separator name="electronic dipolcorrection" >
    <i type="logical" name="LDIPOL"> F  </i>
    <i type="logical" name="LMONO"> F  </i>
    <i type="int" name="IDIPOL">     0</i>
    <i name="EPSILON">      1.00000000</i>
    <v name="DIPOL">   -100.00000000   -100.00000000   -100.00000000</v>
    <i name="EFIELD">      0.00000000</i>
   </separator>
  </separator>
  <separator name="grids" >
   <i type="int" name="NGX">    32</i>
   <i type="int" name="NGY">    24</i>
   <i type="int" name="NGZ">   120</i>
   <i type="int" name="NGXF">    64</i>
   <i type="int" name="NGYF">    48</i>
   <i type="int" name="NGZF">   240</i>
   <i type="logical" name="ADDGRID"> F  </i>
  </separator>
  <separator name="ionic" >
   <i type="int" name="NSW">   200</i>
   <i type="int" name="IBRION">     1</i>
   <i type="int" name="MDALGO">     0</i>
   <i type="int" name="ISIF">     2</i>
   <i name="PSTRESS">      0.00000000</i>
   <i name="EDIFFG">     -0.05000000</i>
   <i type="int" name="NFREE">     0</i>
   <i name="POTIM">      0.50000000</i>
   <i name="SMASS">     -3.00000000</i>
   <i name="SCALEE">      1.00000000</i>
  </separator>
  <separator name="ionic md" >
   <i name="TEBEG">      0.00010000</i>
   <i name="TEEND">      0.00010000</i>
   <i type="int" name="NBLOCK">     1</i>
   <i type="int" name="KBLOCK">   200</i>
   <i type="int" name="NPACO">   256</i>
   <i name="APACO">     16.00000000</i>
  </separator>
  <separator name="symmetry" >
   <i type="int" name="ISYM">     2</i>
   <i name="SYMPREC">      0.00001000</i>
  </separator>
  <separator name="dos" >
   <i type="int" name="LORBIT">     0</i>
   <v name="RWIGS">     -1.00000000     -1.00000000     -1.00000000</v>
   <i type="int" name="NEDOS">   301</i>
   <i name="EMIN">     10.00000000</i>
   <i name="EMAX">    -10.00000000</i>
   <i name="EFERMI">      0.00000000</i>
  </separator>
  <separator name="writing" >
   <i type="int" name="NWRITE">     2</i>
   <i type="logical" name="LWAVE"> F  </i>
   <i type="logical" name="LDOWNSAMPLE"> F  </i>
   <i type="logical" name="LCHARG"> T  </i>
   <i type="logical" name="LPARD"> F  </i>
   <i type="logical" name="LVTOT"> F  </i>
   <i type="logical" name="LVHAR"> F  </i>
   <i type="logical" name="LELF"> F  </i>
   <i type="logical" name="LOPTICS"> F  </i>
   <v name="STM">      0.00000000      0.00000000      0.00000000      0.00000000      0.00000000      0.00000000      0.00000000</v>
  </separator>
  <separator name="performance" >
   <i type="int" name="NPAR">     4</i>
   <i type="int" name="NSIM">     4</i>
   <i type="int" name="NBLK">    -1</i>
   <i type="logical" name="LPLANE"> T  </i>
   <i type="logical" name="LSCALAPACK"> T  </i>
   <i type="logical" name="LSCAAWARE"> F  </i>
   <i type="logical" name="LSCALU"> F  </i>
   <i type="logical" name="LASYNC"> F  </i>
   <i type="logical" name="LORBITALREAL"> F  </i>
  </separator>
  <separator name="miscellaneous" >
   <i type="int" name="IDIOT">     3</i>
   <i type="int" name="ISPECIAL">     0</i>
   <i type="logical" name="LMUSIC"> F  </i>
   <v name="POMASS">     16.00000000     87.62000000     47.88000000</v>
   <v name="DARWINR">      0.00000000      0.00000000      0.00000000</v>
   <v name="DARWINV">      1.00000000      1.00000000      1.00000000</v>
   <i type="logical" name="LCORR"> T  </i>
  </separator>
  <i type="logical" name="GGA_COMPAT"> T  </i>
  <i type="logical" name="LBERRY"> F  </i>
  <i type="int" name="ICORELEVEL">     0</i>
  <i type="logical" name="LDAU"> F  </i>
  <i type="int" name="I_CONSTRAINED_M">     0</i>
  <separator name="electronic exchange-correlation" >
   <i type="string" name="GGA">--</i>
   <i type="int" name="VOSKOWN">     0</i>
   <i type="logical" name="LHFCALC"> F  </i>
   <i type="string" name="PRECFOCK"></i>
   <i type="logical" name="LSYMGRAD"> F  </i>
   <i type="logical" name="LHFONE"> F  </i>
   <i type="logical" name="LRHFCALC"> F  </i>
   <i type="logical" name="LTHOMAS"> F  </i>
   <i type="logical" name="LMODELHF"> F  </i>
   <i name="ENCUT4O">     -1.00000000</i>
   <i type="int" name="EXXOEP">     0</i>
   <i type="int" name="FOURORBIT">     0</i>
   <i name="AEXX">      0.00000000</i>
   <i name="HFALPHA">      0.00000000</i>
   <i name="MCALPHA">      0.00000000</i>
   <i name="ALDAX">      1.00000000</i>
   <i name="AGGAX">      1.00000000</i>
   <i name="ALDAC">      1.00000000</i>
   <i name="AGGAC">      1.00000000</i>
   <i type="int" name="NKREDX">     1</i>
   <i type="int" name="NKREDY">     1</i>
   <i type="int" name="NKREDZ">     1</i>
   <i type="logical" name="SHIFTRED"> F  </i>
   <i type="logical" name="ODDONLY"> F  </i>
   <i type="logical" name="EVENONLY"> F  </i>
   <i type="int" name="LMAXFOCK">     0</i>
   <i type="int" name="NMAXFOCKAE">     0</i>
   <i type="logical" name="LFOCKAEDFT"> F  </i>
   <i name="HFSCREEN">      0.00000000</i>
   <i name="HFSCREENC">      0.00000000</i>
   <i type="int" name="NBANDSGWLOW">     0</i>
  </separator>
  <separator name="vdW DFT" >
   <i type="logical" name="LUSE_VDW"> F  </i>
   <i name="Zab_VDW">     -0.84910000</i>
   <i name="PARAM1">      0.12340000</i>
   <i name="PARAM2">      1.00000000</i>
   <i name="PARAM3">      0.00000000</i>
  </separator>
  <separator name="model GW" >
   <i type="int" name="MODEL_GW">     0</i>
   <i name="MODEL_EPS0">     14.38646682</i>
   <i name="MODEL_ALPHA">      1.00000000</i>
  </separator>
  <separator name="linear response parameters" >
   <i type="logical" name="LEPSILON"> F  </i>
   <i type="logical" name="LRPA"> F  </i>
   <i type="logical" name="LNABLA"> F  </i>
   <i type="logical" name="LVEL"> F  </i>
   <i type="int" name="KINTER">     0</i>
   <i name="CSHIFT">      0.10000000</i>
   <i name="OMEGAMAX">     -1.00000000</i>
   <i name="DEG_THRESHOLD">      0.00200000</i>
   <i name="RTIME">     -0.10000000</i>
   <i name="WPLASMAI">      0.00000000</i>
   <v name="DFIELD">      0.00000000      0.00000000      0.00000000</v>
   <v name="WPLASMA">      0.00000000      0.00000000      0.00000000      0.00000000      0.00000000      0.00000000      0.00000000      0.00000000      0.00000000</v>
  </separator>
  <separator name="orbital magnetization" >
   <i type="logical" name="NUCIND"> F  </i>
   <v name="MAGPOS">      0.00000000      0.00000000      0.00000000</v>
   <i type="logical" name="LNICSALL"> T  </i>
   <i type="logical" name="ORBITALMAG"> F  </i>
   <i type="logical" name="LMAGBLOCH"> F  </i>
   <i type="logical" name="LCHIMAG"> F  </i>
   <i type="logical" name="LGAUGE"> T  </i>
   <i type="int" name="MAGATOM">     0</i>
   <v name="MAGDIPOL">      0.00000000      0.00000000      0.00000000</v>
   <v name="AVECCONST">      0.00000000      0.00000000      0.00000000</v>
  </separator>
  <separator name="response functions" >
   <i type="logical" name="LADDER"> F  </i>
   <i type="logical" name="LRPAFORCE"> F  </i>
   <i type="logical" name="LFXC"> F  </i>
   <i type="logical" name="LHARTREE"> T  </i>
   <i type="int" name="IBSE">     0</i>
   <v type="int" name="KPOINT">    -1     0     0     0</v>
   <i type="logical" name="LTCTE"> F  </i>
   <i type="logical" name="LTETE"> F  </i>
   <i type="logical" name="LTRIPLET"> F  </i>
   <i type="logical" name="LFXCEPS"> F  </i>
   <i type="logical" name="LFXHEG"> F  </i>
   <i type="int" name="NATURALO">     2</i>
   <i type="logical" name="L2ORDER"> F  </i>
   <i type="logical" name="LMP2LT"> F  </i>
   <i type="logical" name="LUSEW"> F  </i>
   <i name="ENCUTGW">     -2.00000000</i>
   <i name="ENCUTGWSOFT">     -2.00000000</i>
   <i name="ENCUTLF">     -1.00000000</i>
   <i type="int" name="LMAXMP2">    -1</i>
   <i name="SCISSOR">      0.00000000</i>
   <i type="int" name="NOMEGA">     0</i>
   <i type="int" name="NOMEGAR">     0</i>
   <i type="int" name="NBANDSGW">    -1</i>
   <i type="int" name="NBANDSO">    -1</i>
   <i type="int" name="NBANDSV">    -1</i>
   <i type="int" name="NELM">     1</i>
   <i type="int" name="NELMHF">     1</i>
   <i type="int" name="DIM">     3</i>
   <i type="int" name="ANTIRES">     0</i>
   <i name="OMEGAMAX">    -30.00000000</i>
   <i name="OMEGAMIN">    -30.00000000</i>
   <i name="OMEGATL">   -200.00000000</i>
   <i type="int" name="OMEGAGRID">   140</i>
   <i name="CSHIFT">     -0.10000000</i>
   <i type="logical" name="SELFENERGY"> F  </i>
   <i type="logical" name="LSPECTRAL"> F  </i>
   <i type="logical" name="LSPECTRALGW"> F  </i>
   <i type="logical" name="LSINGLES"> F  </i>
   <i type="logical" name="LFERMIGW"> F  </i>
   <i type="logical" name="ODDONLYGW"> F  </i>
   <i type="logical" name="EVENONLYGW"> F  </i>
   <i type="int" name="NKREDLFX">     1</i>
   <i type="int" name="NKREDLFY">     1</i>
   <i type="int" name="NKREDLFZ">     1</i>
   <i type="int" name="MAXMEM">  2800</i>
   <i type="int" name="TELESCOPE">     0</i>
   <i type="int" name="TAUPAR">     1</i>
   <i type="int" name="OMEGAPAR">    -1</i>
   <i name="LAMBDA">      1.00000000</i>
  </separator>
  <separator name="External order field" >
   <i name="OFIELD_KAPPA">      0.00000000</i>
   <v name="OFIELD_K">      0.00000000      0.00000000      0.00000000</v>
   <i name="OFIELD_Q6_NEAR">      0.00000000</i>
   <i name="OFIELD_Q6_FAR">      0.00000000</i>
   <i name="OFIELD_A">      0.00000000</i>
  </separator>
 </parameters>
 <atominfo>
  <atoms>      20 </atoms>
  <types>       3 </types>
  <array name="atoms" >
   <dimension dim="1">ion</dimension>
   <field type="string">element</field>
   <field type="int">atomtype</field>
   <set>
    <rc><c>O </c><c>   1</c></rc>
    <rc><c>O </c><c>   1</c></rc>
    <rc><c>O </c><c>   1</c></rc>
    <rc><c>O </c><c>   1</c></rc>
    <rc><c>O </c><c>   1</c></rc>
    <rc><c>O </c><c>   1</c></rc>
    <rc><c>O </c><c>   1</c></rc>
    <rc><c>O </c><c>   1</c></rc>
    <rc><c>O </c><c>   1</c></rc>
    <rc><c>O </c><c>   1</c></rc>
    <rc><c>O </c><c>   1</c></rc>
    <rc><c>O </c><c>   1</c></rc>
    <rc><c>Sr</c><c>   2</c></rc>
    <rc><c>Sr</c><c>   2</c></rc>
    <rc><c>Sr</c><c>   2</c></rc>
    <rc><c>Sr</c><c>   2</c></rc>
    <rc><c>Ti</c><c>   3</c></rc>
    <rc><c>Ti</c><c>   3</c></rc>
    <rc><c>Ti</c><c>   3</c></rc>
    <rc><c>Ti</c><c>   3</c></rc>
   </set>
  </array>
  <array name="atomtypes" >
   <dimension dim="1">type</dimension>
   <field type="int">atomspertype</field>
   <field type="string">element</field>
   <field>mass</field>
   <field>valence</field>
   <field type="string">pseudopotential</field>
   <set>
    <rc><c>  12</c><c>O </c><c>     16.00000000</c><c>      6.00000000</c><c> PAW_PBE O 08Apr2002                    </c></rc>
    <rc><c>   4</c><c>Sr</c><c>     87.62000000</c><c>     10.00000000</c><c> PAW_PBE Sr_sv 07Sep2000                </c></rc>
    <rc><c>   4</c><c>Ti</c><c>     47.88000000</c><c>      4.00000000</c><c> PAW_PBE Ti 08Apr2002                   </c></rc>
   </set>
  </array>
 </atominfo>
 <structure name="initialpos" >
  <crystal>
   <varray name="basis" >
    <v>       5.58168362       0.00000000       0.00000000 </v>
    <v>       0.00000000       3.94684634       0.00000000 </v>
    <v>       0.00000000       0.00000000      21.76794634 </v>
   </varray>
   <i name="volume">    479.54889400 </i>
   <varray name="rec_basis" >
    <v>       0.17915741       0.00000000       0.00000000 </v>
    <v>       0.00000000       0.25336684       0.00000000 </v>
    <v>       0.00000000       0.00000000       0.04593911 </v>
   </varray>
  </crystal>
  <varray name="positions" >
   <v>       0.50000000       0.00000000       0.27563464 </v>
   <v>       0.25000000       0.50000000       0.33973903 </v>
   <v>       0.75000000       0.50000000       0.33973903 </v>
   <v>       0.00000000       0.00000000       0.40384342 </v>
   <v>       0.75000000       0.50000000       0.46794781 </v>
   <v>       0.25000000       0.50000000       0.46794781 </v>
   <v>       0.50000000       0.00000000       0.53205219 </v>
   <v>       0.25000000       0.50000000       0.59615658 </v>
   <v>       0.75000000       0.50000000       0.59615658 </v>
   <v>       0.00000000       0.00000000       0.66026097 </v>
   <v>       0.75000000       0.50000000       0.72436536 </v>
   <v>       0.25000000       0.50000000       0.72436536 </v>
   <v>       0.00000000       0.00000000       0.27563464 </v>
   <v>       0.50000000       0.00000000       0.40384342 </v>
   <v>       0.00000000       0.00000000       0.53205219 </v>
   <v>       0.50000000       0.00000000       0.66026097 </v>
   <v>       0.50000000       0.50000000       0.27563464 </v>
   <v>       0.00000000       0.50000000       0.40384342 </v>
   <v>       0.50000000       0.50000000       0.53205219 </v>
   <v>       0.00000000       0.50000000       0.66026097 </v>
  </varray>
 </structure>
 <calculation>
  <scstep>
   <time name="dav">    1.39    1.82</time>
   <time name="total">    1.42    1.91</time>
   <energy>
    <i name="alphaZ">    368.42493316 </i>
    <i name="ewald">  21959.24411346 </i>
    <i name="hartreedc"> -30188.56637138 </i>
    <i name="XCdc">    324.30581111 </i>
    <i name="pawpsdc">   5334.45189010 </i>
    <i name="pawaedc">  -5139.13784255 </i>
    <i name="eentropy">     -0.16509939 </i>
    <i name="bandstr">    -30.41096013 </i>
    <i name="atom">   8937.26825017 </i>
    <i name="e_fr_energy">   1565.41472455 </i>
    <i name="e_wo_entrp">   1565.57982393 </i>
    <i name="e_0_energy">   1565.49727424 </i>
   </energy>
  </scstep>
  <scstep>
   <time name="dav">    1.61    1.62</time>
   <time name="total">    1.61    1.62</time>
   <energy>
    <i name="e_fr_energy">    177.90613521 </i>
    <i name="e_wo_entrp">    178.02978781 </i>
    <i name="e_0_energy">    177.96796151 </i>
   </energy>
  </scstep>
  <scstep>
   <time name="dav">    1.79    1.80</time>
   <time name="total">    1.79    1.80</time>
   <energy>
    <i name="e_fr_energy">   -173.59401095 </i>
    <i name="e_wo_entrp">   -173.59401095 </i>
    <i name="e_0_energy">   -173.59401095 </i>
   </energy>
  </scstep>
  <scstep>
   <time name="dav">    1.69    1.70</time>
   <time name="total">    1.69    1.70</time>
   <energy>
    <i name="e_fr_energy">   -197.96163218 </i>
    <i name="e_wo_entrp">   -197.96163218 </i>
    <i name="e_0_energy">   -197.96163218 </i>
   </energy>
  </scstep>
  <scstep>
   <time name="dav">    2.14    2.15</time>
   <time name="total">    2.21    2.22</time>
   <energy>
    <i name="e_fr_energy">   -199.28987469 </i>
    <i name="e_wo_entrp">   -199.28987469 </i>
    <i name="e_0_energy">   -199.28987469 </i>
   </energy>
  </scstep>
  <scstep>
   <time name="diag">    0.21    0.21</time>
   <time name="diis">    0.93    0.93</time>
   <time name="orth">    0.03    0.03</time>
   <time name="total">    1.28    1.29</time>
   <energy>
    <i name="e_fr_energy">   -208.13147482 </i>
    <i name="e_wo_entrp">   -207.91175503 </i>
    <i name="e_0_energy">   -208.02161492 </i>
   </energy>
  </scstep>
  <scstep>
   <time name="diag">    0.21    0.21</time>
   <time name="diis">    0.87    0.87</time>
   <time name="orth">    0.03    0.03</time>
   <time name="total">    1.22    1.23</time>
   <energy>
    <i name="e_fr_energy">   -174.30473219 </i>
    <i name="e_wo_entrp">   -174.15836165 </i>
    <i name="e_0_energy">   -174.23154692 </i>
   </energy>
  </scstep>
  <scstep>
   <time name="diag">    0.21    0.21</time>
   <time name="diis">    0.87    0.87</time>
   <time name="orth">    0.03    0.03</time>
   <time name="total">    1.21    1.25</time>
   <energy>
    <i name="e_fr_energy">   -161.36122693 </i>
    <i name="e_wo_entrp">   -161.36122693 </i>
    <i name="e_0_energy">   -161.36122693 </i>
   </energy>
  </scstep>
  <scstep>
   <time name="diag">    0.21    0.21</time>
   <time name="diis">    0.91    0.91</time>
   <time name="orth">    0.03    0.03</time>
   <time name="total">    1.25    1.26</time>
   <energy>
    <i name="e_fr_energy">   -156.95530458 </i>
    <i name="e_wo_entrp">   -156.95530458 </i>
    <i name="e_0_energy">   -156.95530458 </i>
   </energy>
  </scstep>
  <scstep>
   <time name="diag">    0.21    0.21</time>
   <time name="diis">    0.85    0.84</time>
   <time name="orth">    0.03    0.03</time>
   <time name="total">    1.19    1.20</time>
   <energy>
    <i name="e_fr_energy">   -156.23379576 </i>
    <i name="e_wo_entrp">   -156.01988110 </i>
    <i name="e_0_energy">   -156.12683843 </i>
   </energy>
  </scstep>
  <scstep>
   <time name="diag">    0.21    0.21</time>
   <time name="diis">    1.10    1.10</time>
   <time name="orth">    0.03    0.03</time>
   <time name="total">    1.45    1.45</time>
   <energy>
    <i name="e_fr_energy">   -155.95813899 </i>
    <i name="e_wo_entrp">   -155.70931639 </i>
    <i name="e_0_energy">   -155.83372769 </i>
   </energy>
  </scstep>
  <scstep>
   <time name="diag">    0.21    0.21</time>
   <time name="diis">    1.08    1.08</time>
   <time name="orth">    0.03    0.03</time>
   <time name="total">    1.42    1.43</time>
   <energy>
    <i name="e_fr_energy">   -158.50712441 </i>
    <i name="e_wo_entrp">   -158.29423736 </i>
    <i name="e_0_energy">   -158.40068088 </i>
   </energy>
  </scstep>
  <scstep>
   <time name="diag">    0.21    0.21</time>
   <time name="diis">    1.15    1.15</time>
   <time name="orth">    0.03    0.03</time>
   <time name="total">    1.50    1.51</time>
   <energy>
    <i name="e_fr_energy">   -158.29243921 </i>
    <i name="e_wo_entrp">   -158.07187215 </i>
    <i name="e_0_energy">   -158.18215568 </i>
   </energy>
  </scstep>
  <scstep>
   <time name="diag">    0.21    0.21</time>
   <time name="diis">    1.32    1.32</time>
   <time name="orth">    0.03    0.03</time>
   <time name="total">    1.66    1.67</time>
   <energy>
    <i name="e_fr_energy">   -158.37411502 </i>
    <i name="e_wo_entrp">   -158.15461141 </i>
    <i name="e_0_energy">   -158.26436322 </i>
   </energy>
  </scstep>
  <scstep>
   <time name="diag">    0.21    0.21</time>
   <time name="diis">    1.26    1.26</time>
   <time name="orth">    0.03    0.03</time>
   <time name="total">    1.61    1.62</time>
   <energy>
    <i name="e_fr_energy">   -158.40929299 </i>
    <i name="e_wo_entrp">   -158.19072011 </i>
    <i name="e_0_energy">   -158.30000655 </i>
   </energy>
  </scstep>
  <scstep>
   <time name="diag">    0.21    0.21</time>
   <time name="diis">    0.87    0.87</time>
   <time name="orth">    0.03    0.03</time>
   <time name="total">    1.22    1.28</time>
   <energy>
    <i name="e_fr_energy">   -158.94318975 </i>
    <i name="e_wo_entrp">   -158.72718251 </i>
    <i name="e_0_energy">   -158.83518613 </i>
   </energy>
  </scstep>
  <scstep>
   <time name="diag">    0.21    0.21</time>
   <time name="diis">    0.88    0.89</time>
   <time name="orth">    0.03    0.03</time>
   <time name="total">    1.23    1.24</time>
   <energy>
    <i name="e_fr_energy">   -161.47644599 </i>
    <i name="e_wo_entrp">   -161.24848816 </i>
    <i name="e_0_energy">   -161.36246707 </i>
   </energy>
  </scstep>
  <scstep>
   <time name="diag">    0.21    0.21</time>
   <time name="diis">    0.96    0.96</time>
   <time name="orth">    0.03    0.03</time>
   <time name="total">    1.31    1.32</time>
   <energy>
    <i name="e_fr_energy">   -162.93469453 </i>
    <i name="e_wo_entrp">   -162.70546810 </i>
    <i name="e_0_energy">   -162.82008131 </i>
   </energy>
  </scstep>
  <scstep>
   <time name="diag">    0.21    0.21</time>
   <time name="diis">    1.01    1.01</time>
   <time name="orth">    0.03    0.03</time>
   <time name="total">    1.36    1.37</time>
   <energy>
    <i name="e_fr_energy">   -163.84759376 </i>
    <i name="e_wo_entrp">   -163.61498948 </i>
    <i name="e_0_energy">   -163.73129162 </i>
   </energy>
  </scstep>
  <scstep>
   <time name="diag">    0.21    0.21</time>
   <time name="diis">    0.88    0.88</time>
   <time name="orth">    0.03    0.03</time>
   <time name="total">    1.23    1.24</time>
   <energy>
    <i name="e_fr_energy">   -166.36612556 </i>
    <i name="e_wo_entrp">   -166.12382016 </i>
    <i name="e_0_energy">   -166.24497286 </i>
   </energy>
  </scstep>
  <scstep>
   <time name="diag">    0.21    0.21</time>
   <time name="diis">    0.91    0.91</time>
   <time name="orth">    0.03    0.03</time>
   <time name="total">    1.26    1.27</time>
   <energy>
    <i name="e_fr_energy">   -169.42897985 </i>
    <i name="e_wo_entrp">   -169.19062393 </i>
    <i name="e_0_energy">   -169.30980189 </i>
   </energy>
  </scstep>
  <scstep>
   <time name="diag">    0.21    0.21</time>
   <time name="diis">    0.92    0.92</time>
   <time name="orth">    0.03    0.03</time>
   <time name="total">    1.27    1.28</time>
   <energy>
    <i name="e_fr_energy">   -168.18719022 </i>
    <i name="e_wo_entrp">   -167.95489886 </i>
    <i name="e_0_energy">   -168.07104454 </i>
   </energy>
  </scstep>
  <scstep>
   <time name="diag">    0.21    0.21</time>
   <time name="diis">    0.81    0.81</time>
   <time name="orth">    0.03    0.03</time>
   <time name="total">    1.16    1.17</time>
   <energy>
    <i name="e_fr_energy">   -158.07793871 </i>
    <i name="e_wo_entrp">   -157.79326661 </i>
    <i name="e_0_energy">   -157.93560266 </i>
   </energy>
  </scstep>
  <scstep>
   <time name="diag">    0.21    0.21</time>
   <time name="diis">    0.84    0.84</time>
   <time name="orth">    0.03    0.03</time>
   <time name="total">    1.19    1.20</time>
   <energy>
    <i name="e_fr_energy">   -151.45940013 </i>
    <i name="e_wo_entrp">   -151.24151415 </i>
    <i name="e_0_energy">   -151.35045714 </i>
   </energy>
  </scstep>
  <scstep>
   <time name="diag">    0.21    0.21</time>
   <time name="diis">    1.00    1.00</time>
   <time name="orth">    0.03    0.03</time>
   <time name="total">    1.35    1.36</time>
   <energy>
    <i name="e_fr_energy">   -151.74304293 </i>
    <i name="e_wo_entrp">   -151.49146343 </i>
    <i name="e_0_energy">   -151.61725318 </i>
   </energy>
  </scstep>
  <scstep>
   <time name="diag">    0.21    0.21</time>
   <time name="diis">    0.94    0.94</time>
   <time name="orth">    0.03    0.03</time>
   <time name="total">    1.29    1.30</time>
   <energy>
    <i name="e_fr_energy">   -151.35986583 </i>
    <i name="e_wo_entrp">   -151.16596972 </i>
    <i name="e_0_energy">   -151.26291777 </i>
   </energy>
  </scstep>
  <scstep>
   <time name="diag">    0.21    0.21</time>
   <time name="diis">    0.92    0.92</time>
   <time name="orth">    0.03    0.03</time>
   <time name="total">    1.27    1.28</time>
   <energy>
    <i name="e_fr_energy">   -151.35795666 </i>
    <i name="e_wo_entrp">   -151.15990171 </i>
    <i name="e_0_energy">   -151.25892919 </i>
   </energy>
  </scstep>
  <scstep>
   <time name="diag">    0.21    0.21</time>
   <time name="diis">    0.87    0.87</time>
   <time name="orth">    0.03    0.03</time>
   <time name="total">    1.22    1.23</time>
   <energy>
    <i name="e_fr_energy">   -151.16438164 </i>
    <i name="e_wo_entrp">   -151.00002214 </i>
    <i name="e_0_energy">   -151.08220189 </i>
   </energy>
  </scstep>
  <scstep>
   <time name="diag">    0.21    0.21</time>
   <time name="diis">    0.84    0.84</time>
   <time name="orth">    0.03    0.03</time>
   <time name="total">    1.19    1.19</time>
   <energy>
    <i name="e_fr_energy">   -151.26438472 </i>
    <i name="e_wo_entrp">   -151.11373363 </i>
    <i name="e_0_energy">   -151.18905918 </i>
   </energy>
  </scstep>
  <scstep>
   <time name="diag">    0.21    0.21</time>
   <time name="diis">    0.85    0.85</time>
   <time name="orth">    0.03    0.03</time>
   <time name="total">    1.20    1.21</time>
   <energy>
    <i name="e_fr_energy">   -151.23286963 </i>
    <i name="e_wo_entrp">   -151.05671480 </i>
    <i name="e_0_energy">   -151.14479222 </i>
   </energy>
  </scstep>
  <scstep>
   <time name="diag">    0.21    0.21</time>
   <time name="diis">    0.86    0.86</time>
   <time name="orth">    0.03    0.03</time>
   <time name="total">    1.21    1.22</time>
   <energy>
    <i name="e_fr_energy">   -153.62097065 </i>
    <i name="e_wo_entrp">   -153.30487895 </i>
    <i name="e_0_energy">   -153.46292480 </i>
   </energy>
  </scstep>
  <scstep>
   <time name="diag">    0.21    0.21</time>
   <time name="diis">    0.83    0.83</time>
   <time name="orth">    0.03    0.03</time>
   <time name="total">    1.18    1.19</time>
   <energy>
    <i name="e_fr_energy">   -152.39137288 </i>
    <i name="e_wo_entrp">   -152.28375123 </i>
    <i name="e_0_energy">   -152.33756206 </i>
   </energy>
  </scstep>
  <scstep>
   <time name="diag">    0.21    0.21</time>
   <time name="diis">    0.80    0.80</time>
   <time name="orth">    0.03    0.03</time>
   <time name="total">    1.16    1.17</time>
   <energy>
    <i name="e_fr_energy">   -150.46163959 </i>
    <i name="e_wo_entrp">   -150.29194969 </i>
    <i name="e_0_energy">   -150.37679464 </i>
   </energy>
  </scstep>
  <scstep>
   <time name="diag">    0.21    0.21</time>
   <time name="diis">    0.88    0.88</time>
   <time name="orth">    0.03    0.03</time>
   <time name="total">    1.23    1.24</time>
   <energy>
    <i name="e_fr_energy">   -149.74961295 </i>
    <i name="e_wo_entrp">   -149.58011879 </i>
    <i name="e_0_energy">   -149.66486587 </i>
   </energy>
  </scstep>
  <scstep>
   <time name="diag">    0.21    0.21</time>
   <time name="diis">    0.95    0.95</time>
   <time name="orth">    0.03    0.03</time>
   <time name="total">    1.30    1.31</time>
   <energy>
    <i name="e_fr_energy">   -149.58592440 </i>
    <i name="e_wo_entrp">   -149.39272663 </i>
    <i name="e_0_energy">   -149.48932551 </i>
   </energy>
  </scstep>
  <scstep>
   <time name="diag">    0.21    0.21</time>
   <time name="diis">    0.85    0.85</time>
   <time name="orth">    0.03    0.03</time>
   <time name="total">    1.20    1.21</time>
   <energy>
    <i name="e_fr_energy">   -149.37073316 </i>
    <i name="e_wo_entrp">   -149.18709528 </i>
    <i name="e_0_energy">   -149.27891422 </i>
   </energy>
  </scstep>
  <scstep>
   <time name="diag">    0.21    0.21</time>
   <time name="diis">    0.90    0.90</time>
   <time name="orth">    0.03    0.03</time>
   <time name="total">    1.25    1.26</time>
   <energy>
    <i name="e_fr_energy">   -149.21169801 </i>
    <i name="e_wo_entrp">   -149.00024258 </i>
    <i name="e_0_energy">   -149.10597030 </i>
   </energy>
  </scstep>
  <scstep>
   <time name="diag">    0.21    0.21</time>
   <time name="diis">    1.05    1.05</time>
   <time name="orth">    0.03    0.03</time>
   <time name="total">    1.40    1.41</time>
   <energy>
    <i name="e_fr_energy">   -149.26473326 </i>
    <i name="e_wo_entrp">   -149.06369338 </i>
    <i name="e_0_energy">   -149.16421332 </i>
   </energy>
  </scstep>
  <scstep>
   <time name="diag">    0.21    0.21</time>
   <time name="diis">    0.87    0.87</time>
   <time name="orth">    0.03    0.03</time>
   <time name="total">    1.22    1.23</time>
   <energy>
    <i name="e_fr_energy">   -149.23893929 </i>
    <i name="e_wo_entrp">   -149.03817530 </i>
    <i name="e_0_energy">   -149.13855730 </i>
   </energy>
  </scstep>
  <scstep>
   <time name="diag">    0.21    0.21</time>
   <time name="diis">    0.87    0.87</time>
   <time name="orth">    0.03    0.03</time>
   <time name="total">    1.23    1.24</time>
   <energy>
    <i name="e_fr_energy">   -149.23971967 </i>
    <i name="e_wo_entrp">   -149.03785255 </i>
    <i name="e_0_energy">   -149.13878611 </i>
   </energy>
  </scstep>
  <scstep>
   <time name="diag">    0.21    0.21</time>
   <time name="diis">    0.88    0.88</time>
   <time name="orth">    0.03    0.03</time>
   <time name="total">    1.23    1.24</time>
   <energy>
    <i name="e_fr_energy">   -149.12922588 </i>
    <i name="e_wo_entrp">   -148.86035304 </i>
    <i name="e_0_energy">   -148.99478946 </i>
   </energy>
  </scstep>
  <scstep>
   <time name="diag">    0.21    0.21</time>
   <time name="diis">    0.97    0.97</time>
   <time name="orth">    0.03    0.03</time>
   <time name="total">    1.32    1.33</time>
   <energy>
    <i name="e_fr_energy">   -149.25583363 </i>
    <i name="e_wo_entrp">   -149.02534011 </i>
    <i name="e_0_energy">   -149.14058687 </i>
   </energy>
  </scstep>
  <scstep>
   <time name="diag">    0.21    0.21</time>
   <time name="diis">    1.12    1.12</time>
   <time name="orth">    0.03    0.03</time>
   <time name="total">    1.47    1.48</time>
   <energy>
    <i name="e_fr_energy">   -149.27516511 </i>
    <i name="e_wo_entrp">   -149.04596004 </i>
    <i name="e_0_energy">   -149.16056258 </i>
   </energy>
  </scstep>
  <scstep>
   <time name="diag">    0.21    0.21</time>
   <time name="diis">    0.89    0.89</time>
   <time name="orth">    0.03    0.03</time>
   <time name="total">    1.24    1.25</time>
   <energy>
    <i name="e_fr_energy">   -149.22982337 </i>
    <i name="e_wo_entrp">   -148.99120796 </i>
    <i name="e_0_energy">   -149.11051566 </i>
   </energy>
  </scstep>
  <scstep>
   <time name="diag">    0.21    0.21</time>
   <time name="diis">    0.84    0.84</time>
   <time name="orth">    0.03    0.03</time>
   <time name="total">    1.19    1.20</time>
   <energy>
    <i name="e_fr_energy">   -149.25754996 </i>
    <i name="e_wo_entrp">   -149.01842787 </i>
    <i name="e_0_energy">   -149.13798891 </i>
   </energy>
  </scstep>
  <scstep>
   <time name="diag">    0.21    0.21</time>
   <time name="diis">    0.87    0.87</time>
   <time name="orth">    0.03    0.03</time>
   <time name="total">    1.23    1.24</time>
   <energy>
    <i name="e_fr_energy">   -149.38441360 </i>
    <i name="e_wo_entrp">   -149.16067718 </i>
    <i name="e_0_energy">   -149.27254539 </i>
   </energy>
  </scstep>
  <scstep>
   <time name="diag">    0.21    0.21</time>
   <time name="diis">    1.11    1.11</time>
   <time name="orth">    0.03    0.03</time>
   <time name="total">    1.47    1.48</time>
   <energy>
    <i name="e_fr_energy">   -149.38200487 </i>
    <i name="e_wo_entrp">   -149.15932935 </i>
    <i name="e_0_energy">   -149.27066711 </i>
   </energy>
  </scstep>
  <scstep>
   <time name="diag">    0.21    0.21</time>
   <time name="diis">    0.81    0.81</time>
   <time name="orth">    0.03    0.03</time>
   <time name="total">    1.17    1.18</time>
   <energy>
    <i name="e_fr_energy">   -149.25131325 </i>
    <i name="e_wo_entrp">   -149.00723782 </i>
    <i name="e_0_energy">   -149.12927554 </i>
   </energy>
  </scstep>
  <scstep>
   <time name="diag">    0.21    0.21</time>
   <time name="diis">    0.88    0.88</time>
   <time name="orth">    0.03    0.03</time>
   <time name="total">    1.24    1.25</time>
   <energy>
    <i name="e_fr_energy">   -149.16741040 </i>
    <i name="e_wo_entrp">   -148.90277052 </i>
    <i name="e_0_energy">   -149.03509046 </i>
   </energy>
  </scstep>
  <scstep>
   <time name="diag">    0.21    0.21</time>
   <time name="diis">    0.91    0.91</time>
   <time name="orth">    0.03    0.03</time>
   <time name="total">    1.26    1.27</time>
   <energy>
    <i name="e_fr_energy">   -149.08104297 </i>
    <i name="e_wo_entrp">   -148.80478462 </i>
    <i name="e_0_energy">   -148.94291380 </i>
   </energy>
  </scstep>
  <scstep>
   <time name="diag">    0.21    0.21</time>
   <time name="diis">    0.86    0.86</time>
   <time name="orth">    0.03    0.03</time>
   <time name="total">    1.22    1.23</time>
   <energy>
    <i name="e_fr_energy">   -149.03305278 </i>
    <i name="e_wo_entrp">   -148.74663718 </i>
    <i name="e_0_energy">   -148.88984498 </i>
   </energy>
  </scstep>
  <scstep>
   <time name="diag">    0.21    0.21</time>
   <time name="diis">    0.86    0.86</time>
   <time name="orth">    0.03    0.03</time>
   <time name="total">    1.21    1.22</time>
   <energy>
    <i name="e_fr_energy">   -149.00330854 </i>
    <i name="e_wo_entrp">   -148.72068176 </i>
    <i name="e_0_energy">   -148.86199515 </i>
   </energy>
  </scstep>
  <scstep>
   <time name="diag">    0.21    0.21</time>
   <time name="diis">    0.82    0.82</time>
   <time name="orth">    0.03    0.03</time>
   <time name="total">    1.18    1.18</time>
   <energy>
    <i name="e_fr_energy">   -148.95725632 </i>
    <i name="e_wo_entrp">   -148.65495553 </i>
    <i name="e_0_energy">   -148.80610593 </i>
   </energy>
  </scstep>
  <scstep>
   <time name="diag">    0.21    0.21</time>
   <time name="diis">    1.05    1.05</time>
   <time name="orth">    0.03    0.03</time>
   <time name="total">    1.41    1.41</time>
   <energy>
    <i name="e_fr_energy">   -148.95455497 </i>
    <i name="e_wo_entrp">   -148.65286374 </i>
    <i name="e_0_energy">   -148.80370935 </i>
   </energy>
  </scstep>
  <scstep>
   <time name="diag">    0.21    0.21</time>
   <time name="diis">    0.91    0.91</time>
   <time name="orth">    0.03    0.03</time>
   <time name="total">    1.27    1.28</time>
   <energy>
    <i name="e_fr_energy">   -148.94968935 </i>
    <i name="e_wo_entrp">   -148.64642940 </i>
    <i name="e_0_energy">   -148.79805938 </i>
   </energy>
  </scstep>
  <scstep>
   <time name="diag">    0.21    0.21</time>
   <time name="diis">    0.83    0.83</time>
   <time name="orth">    0.03    0.03</time>
   <time name="total">    1.19    1.19</time>
   <energy>
    <i name="e_fr_energy">   -148.94406618 </i>
    <i name="e_wo_entrp">   -148.64423096 </i>
    <i name="e_0_energy">   -148.79414857 </i>
   </energy>
  </scstep>
  <scstep>
   <time name="diag">    0.21    0.21</time>
   <time name="diis">    0.87    0.87</time>
   <time name="orth">    0.03    0.03</time>
   <time name="total">    1.22    1.23</time>
   <energy>
    <i name="e_fr_energy">   -148.93999512 </i>
    <i name="e_wo_entrp">   -148.63763658 </i>
    <i name="e_0_energy">   -148.78881585 </i>
   </energy>
  </scstep>
  <scstep>
   <time name="diag">    0.21    0.21</time>
   <time name="diis">    0.85    0.85</time>
   <time name="orth">    0.03    0.03</time>
   <time name="total">    1.21    1.21</time>
   <energy>
    <i name="e_fr_energy">   -148.93857051 </i>
    <i name="e_wo_entrp">   -148.62635898 </i>
    <i name="e_0_energy">   -148.78246474 </i>
   </energy>
  </scstep>
  <scstep>
   <time name="diag">    0.21    0.21</time>
   <time name="diis">    1.00    1.00</time>
   <time name="orth">    0.03    0.03</time>
   <time name="total">    1.36    1.37</time>
   <energy>
    <i name="e_fr_energy">   -148.93768255 </i>
    <i name="e_wo_entrp">   -148.63349011 </i>
    <i name="e_0_energy">   -148.78558633 </i>
   </energy>
  </scstep>
  <scstep>
   <time name="diag">    0.21    0.21</time>
   <time name="diis">    0.94    0.94</time>
   <time name="orth">    0.03    0.03</time>
   <time name="total">    1.21    1.22</time>
   <energy>
    <i name="alphaZ">    368.42493316 </i>
    <i name="ewald">  21959.24411346 </i>
    <i name="hartreedc"> -30504.20801194 </i>
    <i name="XCdc">    338.85115142 </i>
    <i name="pawpsdc">   6106.82826549 </i>
    <i name="pawaedc">  -5936.12986341 </i>
    <i name="eentropy">     -0.30578209 </i>
    <i name="bandstr">  -1418.91060427 </i>
    <i name="atom">   8937.26825017 </i>
    <i name="e_fr_energy">   -148.93754802 </i>
    <i name="e_wo_entrp">   -148.63176593 </i>
    <i name="e_0_energy">   -148.78465697 </i>
   </energy>
  </scstep>
  <structure>
   <crystal>
    <varray name="basis" >
     <v>       5.58168362       0.00000000       0.00000000 </v>
     <v>       0.00000000       3.94684634       0.00000000 </v>
     <v>       0.00000000       0.00000000      21.76794634 </v>
    </varray>
    <i name="volume">    479.54889400 </i>
    <varray name="rec_basis" >
     <v>       0.17915741       0.00000000       0.00000000 </v>
     <v>       0.00000000       0.25336684       0.00000000 </v>
     <v>       0.00000000       0.00000000       0.04593911 </v>
    </varray>
   </crystal>
   <varray name="positions" >
    <v>       0.50000000       0.00000000       0.27563464 </v>
    <v>       0.25000000       0.50000000       0.33973903 </v>
    <v>       0.75000000       0.50000000       0.33973903 </v>
    <v>       0.00000000       0.00000000       0.40384342 </v>
    <v>       0.75000000       0.50000000       0.46794781 </v>
    <v>       0.25000000       0.50000000       0.46794781 </v>
    <v>       0.50000000       0.00000000       0.53205219 </v>
    <v>       0.25000000       0.50000000       0.59615658 </v>
    <v>       0.75000000       0.50000000       0.59615658 </v>
    <v>       0.00000000       0.00000000       0.66026097 </v>
    <v>       0.75000000       0.50000000       0.72436536 </v>
    <v>       0.25000000       0.50000000       0.72436536 </v>
    <v>       0.00000000       0.00000000       0.27563464 </v>
    <v>       0.50000000       0.00000000       0.40384342 </v>
    <v>       0.00000000       0.00000000       0.53205219 </v>
    <v>       0.50000000       0.00000000       0.66026097 </v>
    <v>       0.50000000       0.50000000       0.27563464 </v>
    <v>       0.00000000       0.50000000       0.40384342 </v>
    <v>       0.50000000       0.50000000       0.53205219 </v>
    <v>       0.00000000       0.50000000       0.66026097 </v>
   </varray>
  </structure>
  <varray name="forces" >
   <v>       0.00000000       0.00000000      -1.46865338 </v>
   <v>       0.63441081       0.00000000      -1.98600887 </v>
   <v>      -0.63441081       0.00000000      -1.98600887 </v>
   <v>       0.00000000       0.00000000      -0.76694910 </v>
   <v>       0.52148554       0.00000000      -1.18562575 </v>
   <v>      -0.52148554       0.00000000      -1.18562575 </v>
   <v>       0.00000000       0.00000000      -0.55024683 </v>
   <v>       0.76598055      -0.00000000      -1.36444784 </v>
   <v>      -0.76598055       0.00000000      -1.36444784 </v>
   <v>       0.00000000       0.00000000      -1.03518813 </v>
   <v>       0.47696697      -0.00000000      -1.35727434 </v>
   <v>      -0.47696697       0.00000000      -1.35727434 </v>
   <v>       0.00000000       0.00000000       1.23904290 </v>
   <v>       0.00000000       0.00000000       0.89671374 </v>
   <v>       0.00000000       0.00000000       0.67963034 </v>
   <v>       0.00000000       0.00000000       1.47694437 </v>
   <v>       0.00000000       0.00000000       2.72362060 </v>
   <v>       0.00000000       0.00000000       2.46189467 </v>
   <v>       0.00000000       0.00000000       2.19143409 </v>
   <v>       0.00000000       0.00000000       3.93847030 </v>
  </varray>
  <varray name="stress" >
   <v>      -9.12555181       0.00000000       0.00000000 </v>
   <v>       0.00000000       1.14549857       0.00000000 </v>
   <v>       0.00000000       0.00000000     -15.16390786 </v>
  </varray>
  <energy>
   <i name="e_fr_energy">   -148.93754802 </i>
   <i name="e_wo_entrp">   -148.78465697 </i>
   <i name="e_0_energy">     -0.30578209 </i>
  </energy>
  <time name="totalsc">   81.06   82.24</time>
 </calculation>
 <calculation>
  <scstep>
   <time name="dav">    1.37    1.37</time>
   <time name="total">    1.47    1.47</time>
   <energy>
    <i name="alphaZ">    368.42493316 </i>
    <i name="ewald">  22014.25195829 </i>
    <i name="hartreedc"> -30545.57521887 </i>
    <i name="XCdc">    338.98659119 </i>
    <i name="pawpsdc">   6107.03697723 </i>
    <i name="pawaedc">  -5936.34953218 </i>
    <i name="eentropy">     -0.02021359 </i>
    <i name="bandstr">  -1434.66372273 </i>
    <i name="atom">   8937.26825017 </i>
    <i name="e_fr_energy">   -150.63997732 </i>
    <i name="e_wo_entrp">   -150.61976373 </i>
    <i name="e_0_energy">   -150.62987053 </i>
   </energy>
  </scstep>
  <scstep>
   <time name="diag">    0.22    0.22</time>
   <time name="diis">    0.82    0.82</time>
   <time name="orth">    0.03    0.03</time>
   <time name="total">    1.18    1.19</time>
   <energy>
    <i name="e_fr_energy">   -155.36601767 </i>
    <i name="e_wo_entrp">   -155.36422957 </i>
    <i name="e_0_energy">   -155.36512362 </i>
   </energy>
  </scstep>
  <scstep>
   <time name="diag">    0.21    0.21</time>
   <time name="diis">    0.86    0.86</time>
   <time name="orth">    0.03    0.03</time>
   <time name="total">    1.21    1.22</time>
   <energy>
    <i name="e_fr_energy">   -153.57587685 </i>
    <i name="e_wo_entrp">   -153.56820664 </i>
    <i name="e_0_energy">   -153.57204175 </i>
   </energy>
  </scstep>
  <scstep>
   <time name="diag">    0.21    0.21</time>
   <time name="diis">    0.82    0.82</time>
   <time name="orth">    0.03    0.03</time>
   <time name="total">    1.18    1.18</time>
   <energy>
    <i name="e_fr_energy">   -155.94983243 </i>
    <i name="e_wo_entrp">   -155.74810674 </i>
    <i name="e_0_energy">   -155.84896959 </i>
   </energy>
  </scstep>
  <scstep>
   <time name="diag">    0.21    0.21</time>
   <time name="diis">    0.81    0.81</time>
   <time name="orth">    0.03    0.03</time>
   <time name="total">    1.16    1.17</time>
   <energy>
    <i name="e_fr_energy">   -152.03320896 </i>
    <i name="e_wo_entrp">   -151.95863735 </i>
    <i name="e_0_energy">   -151.99592316 </i>
   </energy>
  </scstep>
  <scstep>
   <time name="diag">    0.21    0.21</time>
   <time name="diis">    0.84    0.84</time>
   <time name="orth">    0.03    0.03</time>
   <time name="total">    1.19    1.20</time>
   <energy>
    <i name="e_fr_energy">   -153.45611986 </i>
    <i name="e_wo_entrp">   -153.22992788 </i>
    <i name="e_0_energy">   -153.34302387 </i>
   </energy>
  </scstep>
  <scstep>
   <time name="diag">    0.21    0.21</time>
   <time name="diis">    1.08    1.08</time>
   <time name="orth">    0.03    0.03</time>
   <time name="total">    1.44    1.45</time>
   <energy>
    <i name="e_fr_energy">   -153.22169297 </i>
    <i name="e_wo_entrp">   -153.01338472 </i>
    <i name="e_0_energy">   -153.11753885 </i>
   </energy>
  </scstep>
  <scstep>
   <time name="diag">    0.21    0.21</time>
   <time name="diis">    0.83    0.83</time>
   <time name="orth">    0.03    0.03</time>
   <time name="total">    1.19    1.20</time>
   <energy>
    <i name="e_fr_energy">   -152.74055872 </i>
    <i name="e_wo_entrp">   -152.50639668 </i>
    <i name="e_0_energy">   -152.62347770 </i>
   </energy>
  </scstep>
  <scstep>
   <time name="diag">    0.21    0.21</time>
   <time name="diis">    0.86    0.86</time>
   <time name="orth">    0.03    0.03</time>
   <time name="total">    1.22    1.23</time>
   <energy>
    <i name="e_fr_energy">   -152.19846558 </i>
    <i name="e_wo_entrp">   -151.92423628 </i>
    <i name="e_0_energy">   -152.06135093 </i>
   </energy>
  </scstep>
  <scstep>
   <time name="diag">    0.21    0.21</time>
   <time name="diis">    0.88    0.88</time>
   <time name="orth">    0.03    0.03</time>
   <time name="total">    1.24    1.25</time>
   <energy>
    <i name="e_fr_energy">   -151.71915264 </i>
    <i name="e_wo_entrp">   -151.50860988 </i>
    <i name="e_0_energy">   -151.61388126 </i>
   </energy>
  </scstep>
  <scstep>
   <time name="diag">    0.21    0.21</time>
   <time name="diis">    0.98    0.98</time>
   <time name="orth">    0.03    0.03</time>
   <time name="total">    1.34    1.34</time>
   <energy>
    <i name="e_fr_energy">   -151.60133408 </i>
    <i name="e_wo_entrp">   -151.37799980 </i>
    <i name="e_0_energy">   -151.48966694 </i>
   </energy>
  </scstep>
  <scstep>
   <time name="diag">    0.21    0.21</time>
   <time name="diis">    0.91    0.91</time>
   <time name="orth">    0.03    0.03</time>
   <time name="total">    1.27    1.28</time>
   <energy>
    <i name="e_fr_energy">   -151.49527749 </i>
    <i name="e_wo_entrp">   -151.31309883 </i>
    <i name="e_0_energy">   -151.40418816 </i>
   </energy>
  </scstep>
  <scstep>
   <time name="diag">    0.21    0.21</time>
   <time name="diis">    0.90    0.90</time>
   <time name="orth">    0.03    0.03</time>
   <time name="total">    1.26    1.26</time>
   <energy>
    <i name="e_fr_energy">   -151.35079781 </i>
    <i name="e_wo_entrp">   -151.08022038 </i>
    <i name="e_0_energy">   -151.21550910 </i>
   </energy>
  </scstep>
  <scstep>
   <time name="diag">    0.21    0.21</time>
   <time name="diis">    1.16    1.16</time>
   <time name="orth">    0.03    0.03</time>
   <time name="total">    1.52    1.53</time>
   <energy>
    <i name="e_fr_energy">   -151.34874504 </i>
    <i name="e_wo_entrp">   -151.07817142 </i>
    <i name="e_0_energy">   -151.21345823 </i>
   </energy>
  </scstep>
  <scstep>
   <time name="diag">    0.21    0.21</time>
   <time name="diis">    1.09    1.09</time>
   <time name="orth">    0.03    0.03</time>
   <time name="total">    1.45    1.46</time>
   <energy>
    <i name="e_fr_energy">   -151.34061121 </i>
    <i name="e_wo_entrp">   -151.05693232 </i>
    <i name="e_0_energy">   -151.19877176 </i>
   </energy>
  </scstep>
  <scstep>
   <time name="diag">    0.21    0.21</time>
   <time name="diis">    0.94    0.94</time>
   <time name="orth">    0.03    0.03</time>
   <time name="total">    1.30    1.31</time>
   <energy>
    <i name="e_fr_energy">   -151.36324412 </i>
    <i name="e_wo_entrp">   -151.04648782 </i>
    <i name="e_0_energy">   -151.20486597 </i>
   </energy>
  </scstep>
  <scstep>
   <time name="diag">    0.21    0.21</time>
   <time name="diis">    0.92    0.92</time>
   <time name="orth">    0.03    0.03</time>
   <time name="total">    1.28    1.29</time>
   <energy>
    <i name="e_fr_energy">   -151.33241750 </i>
    <i name="e_wo_entrp">   -151.02128032 </i>
    <i name="e_0_energy">   -151.17684891 </i>
   </energy>
  </scstep>
  <scstep>
   <time name="diag">    0.21    0.21</time>
   <time name="diis">    1.07    1.07</time>
   <time name="orth">    0.03    0.03</time>
   <time name="total">    1.43    1.44</time>
   <energy>
    <i name="e_fr_energy">   -151.33881477 </i>
    <i name="e_wo_entrp">   -151.02387136 </i>
    <i name="e_0_energy">   -151.18134306 </i>
   </energy>
  </scstep>
  <scstep>
   <time name="diag">    0.21    0.21</time>
   <time name="diis">    0.83    0.83</time>
   <time name="orth">    0.03    0.03</time>
   <time name="total">    1.20    1.20</time>
   <energy>
    <i name="e_fr_energy">   -151.31871098 </i>
    <i name="e_wo_entrp">   -151.00903622 </i>
    <i name="e_0_energy">   -151.16387360 </i>
   </energy>
  </scstep>
  <scstep>
   <time name="diag">    0.21    0.21</time>
   <time name="diis">    0.89    0.89</time>
   <time name="orth">    0.03    0.03</time>
   <time name="total">    1.26    1.26</time>
   <energy>
    <i name="e_fr_energy">   -151.35435284 </i>
    <i name="e_wo_entrp">   -151.03373416 </i>
    <i name="e_0_energy">   -151.19404350 </i>
   </energy>
  </scstep>
  <scstep>
   <time name="diag">    0.21    0.21</time>
   <time name="diis">    0.92    0.92</time>
   <time name="orth">    0.03    0.03</time>
   <time name="total">    1.28    1.29</time>
   <energy>
    <i name="e_fr_energy">   -151.32887470 </i>
    <i name="e_wo_entrp">   -151.01591035 </i>
    <i name="e_0_energy">   -151.17239252 </i>
   </energy>
  </scstep>
  <scstep>
   <time name="diag">    0.21    0.21</time>
   <time name="diis">    0.85    0.85</time>
   <time name="orth">    0.03    0.03</time>
   <time name="total">    1.21    1.22</time>
   <energy>
    <i name="e_fr_energy">   -151.30245350 </i>
    <i name="e_wo_entrp">   -150.99864234 </i>
    <i name="e_0_energy">   -151.15054792 </i>
   </energy>
  </scstep>
  <scstep>
   <time name="diag">    0.21    0.21</time>
   <time name="diis">    0.93    0.93</time>
   <time name="orth">    0.03    0.03</time>
   <time name="total">    1.30    1.31</time>
   <energy>
    <i name="e_fr_energy">   -151.28071161 </i>
    <i name="e_wo_entrp">   -150.98510152 </i>
    <i name="e_0_energy">   -151.13290656 </i>
   </energy>
  </scstep>
  <scstep>
   <time name="diag">    0.21    0.21</time>
   <time name="diis">    0.86    0.86</time>
   <time name="orth">    0.03    0.03</time>
   <time name="total">    1.22    1.23</time>
   <energy>
    <i name="e_fr_energy">   -151.25903952 </i>
    <i name="e_wo_entrp">   -150.96898963 </i>
    <i name="e_0_energy">   -151.11401458 </i>
   </energy>
  </scstep>
  <scstep>
   <time name="diag">    0.21    0.21</time>
   <time name="diis">    0.89    0.89</time>
   <time name="orth">    0.03    0.03</time>
   <time name="total">    1.25    1.26</time>
   <energy>
    <i name="e_fr_energy">   -151.22951631 </i>
    <i name="e_wo_entrp">   -150.96185366 </i>
    <i name="e_0_energy">   -151.09568498 </i>
   </energy>
  </scstep>
  <scstep>
   <time name="diag">    0.21    0.21</time>
   <time name="diis">    0.98    0.98</time>
   <time name="orth">    0.03    0.03</time>
   <time name="total">    1.35    1.36</time>
   <energy>
    <i name="e_fr_energy">   -151.22422603 </i>
    <i name="e_wo_entrp">   -150.96618415 </i>
    <i name="e_0_energy">   -151.09520509 </i>
   </energy>
  </scstep>
  <scstep>
   <time name="diag">    0.21    0.21</time>
   <time name="diis">    1.07    1.07</time>
   <time name="orth">    0.03    0.03</time>
   <time name="total">    1.43    1.44</time>
   <energy>
    <i name="e_fr_energy">   -151.22450226 </i>
    <i name="e_wo_entrp">   -150.96632061 </i>
    <i name="e_0_energy">   -151.09541143 </i>
   </energy>
  </scstep>
  <scstep>
   <time name="diag">    0.21    0.21</time>
   <time name="diis">    1.04    1.04</time>
   <time name="orth">    0.03    0.03</time>
   <time name="total">    1.40    1.41</time>
   <energy>
    <i name="e_fr_energy">   -151.22143700 </i>
    <i name="e_wo_entrp">   -150.96572242 </i>
    <i name="e_0_energy">   -151.09357971 </i>
   </energy>
  </scstep>
  <scstep>
   <time name="diag">    0.21    0.21</time>
   <time name="diis">    0.90    0.90</time>
   <time name="orth">    0.03    0.03</time>
   <time name="total">    1.26    1.27</time>
   <energy>
    <i name="e_fr_energy">   -151.21634765 </i>
    <i name="e_wo_entrp">   -150.96834026 </i>
    <i name="e_0_energy">   -151.09234396 </i>
   </energy>
  </scstep>
  <scstep>
   <time name="diag">    0.21    0.21</time>
   <time name="diis">    1.01    1.01</time>
   <time name="orth">    0.03    0.03</time>
   <time name="total">    1.37    1.38</time>
   <energy>
    <i name="e_fr_energy">   -151.21545696 </i>
    <i name="e_wo_entrp">   -150.96991831 </i>
    <i name="e_0_energy">   -151.09268764 </i>
   </energy>
  </scstep>
  <scstep>
   <time name="diag">    0.21    0.21</time>
   <time name="diis">    1.09    1.09</time>
   <time name="orth">    0.03    0.03</time>
   <time name="total">    1.45    1.46</time>
   <energy>
    <i name="e_fr_energy">   -151.21507064 </i>
    <i name="e_wo_entrp">   -150.96991167 </i>
    <i name="e_0_energy">   -151.09249115 </i>
   </energy>
  </scstep>
  <scstep>
   <time name="diag">    0.21    0.21</time>
   <time name="diis">    0.93    0.93</time>
   <time name="orth">    0.03    0.03</time>
   <time name="total">    1.29    1.30</time>
   <energy>
    <i name="e_fr_energy">   -151.21481827 </i>
    <i name="e_wo_entrp">   -150.96888898 </i>
    <i name="e_0_energy">   -151.09185362 </i>
   </energy>
  </scstep>
  <scstep>
   <time name="diag">    0.21    0.21</time>
   <time name="diis">    0.97    0.97</time>
   <time name="orth">    0.03    0.03</time>
   <time name="total">    1.33    1.34</time>
   <energy>
    <i name="e_fr_energy">   -151.21500961 </i>
    <i name="e_wo_entrp">   -150.97219896 </i>
    <i name="e_0_energy">   -151.09360429 </i>
   </energy>
  </scstep>
  <scstep>
   <time name="diag">    0.21    0.21</time>
   <time name="diis">    0.90    0.90</time>
   <time name="orth">    0.03    0.03</time>
   <time name="total">    1.26    1.28</time>
   <energy>
    <i name="e_fr_energy">   -151.21495174 </i>
    <i name="e_wo_entrp">   -150.97215281 </i>
    <i name="e_0_energy">   -151.09355227 </i>
   </energy>
  </scstep>
  <scstep>
   <time name="diag">    0.21    0.21</time>
   <time name="diis">    0.92    0.92</time>
   <time name="orth">    0.03    0.03</time>
   <time name="total">    1.28    1.29</time>
   <energy>
    <i name="e_fr_energy">   -151.21485279 </i>
    <i name="e_wo_entrp">   -150.97189826 </i>
    <i name="e_0_energy">   -151.09337552 </i>
   </energy>
  </scstep>
  <scstep>
   <time name="diag">    0.21    0.21</time>
   <time name="diis">    0.80    0.80</time>
   <time name="orth">    0.03    0.03</time>
   <time name="total">    1.16    1.17</time>
   <energy>
    <i name="e_fr_energy">   -151.21504717 </i>
    <i name="e_wo_entrp">   -150.97323617 </i>
    <i name="e_0_energy">   -151.09414167 </i>
   </energy>
  </scstep>
  <scstep>
   <time name="diag">    0.21    0.21</time>
   <time name="diis">    0.78    0.78</time>
   <time name="orth">    0.03    0.03</time>
   <time name="total">    1.14    1.15</time>
   <energy>
    <i name="e_fr_energy">   -151.21466635 </i>
    <i name="e_wo_entrp">   -150.96998041 </i>
    <i name="e_0_energy">   -151.09232338 </i>
   </energy>
  </scstep>
  <scstep>
   <time name="diag">    0.21    0.21</time>
   <time name="diis">    0.67    0.67</time>
   <time name="orth">    0.03    0.03</time>
   <time name="total">    1.04    1.05</time>
   <energy>
    <i name="e_fr_energy">   -151.21468112 </i>
    <i name="e_wo_entrp">   -150.96953503 </i>
    <i name="e_0_energy">   -151.09210808 </i>
   </energy>
  </scstep>
  <scstep>
   <time name="diag">    0.21    0.21</time>
   <time name="diis">    0.54    0.54</time>
   <time name="orth">    0.03    0.03</time>
   <time name="total">    0.90    0.91</time>
   <energy>
    <i name="e_fr_energy">   -151.21462922 </i>
    <i name="e_wo_entrp">   -150.96915247 </i>
    <i name="e_0_energy">   -151.09189084 </i>
   </energy>
  </scstep>
  <scstep>
   <time name="diag">    0.21    0.21</time>
   <time name="diis">    0.58    0.58</time>
   <time name="orth">    0.03    0.03</time>
   <time name="total">    0.95    0.95</time>
   <energy>
    <i name="e_fr_energy">   -151.21458812 </i>
    <i name="e_wo_entrp">   -150.96906313 </i>
    <i name="e_0_energy">   -151.09182563 </i>
   </energy>
  </scstep>
  <scstep>
   <time name="diag">    0.21    0.21</time>
   <time name="diis">    0.68    0.68</time>
   <time name="orth">    0.03    0.03</time>
   <time name="total">    1.04    1.05</time>
   <energy>
    <i name="e_fr_energy">   -151.21453755 </i>
    <i name="e_wo_entrp">   -150.96903918 </i>
    <i name="e_0_energy">   -151.09178836 </i>
   </energy>
  </scstep>
  <scstep>
   <time name="diag">    0.21    0.21</time>
   <time name="diis">    0.70    0.70</time>
   <time name="orth">    0.03    0.03</time>
   <time name="total">    1.06    1.07</time>
   <energy>
    <i name="e_fr_energy">   -151.21451777 </i>
    <i name="e_wo_entrp">   -150.96835613 </i>
    <i name="e_0_energy">   -151.09143695 </i>
   </energy>
  </scstep>
  <scstep>
   <time name="diag">    0.21    0.21</time>
   <time name="diis">    0.50    0.50</time>
   <time name="orth">    0.03    0.03</time>
   <time name="total">    0.77    0.78</time>
   <energy>
    <i name="alphaZ">    368.42493316 </i>
    <i name="ewald">  22014.25195829 </i>
    <i name="hartreedc"> -30556.11432402 </i>
    <i name="XCdc">    339.67935878 </i>
    <i name="pawpsdc">   6202.90583362 </i>
    <i name="pawaedc">  -6032.92736832 </i>
    <i name="eentropy">     -0.24614915 </i>
    <i name="bandstr">  -1424.45700585 </i>
    <i name="atom">   8937.26825017 </i>
    <i name="e_fr_energy">   -151.21451332 </i>
    <i name="e_wo_entrp">   -150.96836417 </i>
    <i name="e_0_energy">   -151.09143874 </i>
   </energy>
  </scstep>
  <structure>
   <crystal>
    <varray name="basis" >
     <v>       5.58168362       0.00000000       0.00000000 </v>
     <v>       0.00000000       3.94684634       0.00000000 </v>
     <v>       0.00000000       0.00000000      21.76794634 </v>
    </varray>
    <i name="volume">    479.54889400 </i>
    <varray name="rec_basis" >
     <v>       0.17915741       0.00000000       0.00000000 </v>
     <v>       0.00000000       0.25336684       0.00000000 </v>
     <v>       0.00000000       0.00000000       0.04593911 </v>
    </varray>
   </crystal>
   <varray name="positions" >
    <v>       0.50000000       0.00000000       0.27237977 </v>
    <v>       0.25548323       0.50000000       0.33533759 </v>
    <v>       0.74451677       0.50000000       0.33533759 </v>
    <v>       0.00000000       0.00000000       0.40214368 </v>
    <v>       0.75450721       0.50000000       0.46532019 </v>
    <v>       0.24549279       0.50000000       0.46532019 </v>
    <v>       0.50000000       0.00000000       0.53083272 </v>
    <v>       0.25662039       0.50000000       0.59313266 </v>
    <v>       0.74337961       0.50000000       0.59313266 </v>
    <v>       0.00000000       0.00000000       0.65796676 </v>
    <v>       0.75412244       0.50000000       0.72135734 </v>
    <v>       0.24587756       0.50000000       0.72135734 </v>
    <v>       0.00000000       0.00000000       0.27838063 </v>
    <v>       0.50000000       0.00000000       0.40583073 </v>
    <v>       0.00000000       0.00000000       0.53355841 </v>
    <v>       0.50000000       0.00000000       0.66353421 </v>
    <v>       0.50000000       0.50000000       0.28167079 </v>
    <v>       0.00000000       0.50000000       0.40929953 </v>
    <v>       0.50000000       0.50000000       0.53690890 </v>
    <v>       0.00000000       0.50000000       0.66898951 </v>
   </varray>
  </structure>
  <varray name="forces" >
   <v>      -0.00000000       0.00000000      -0.99176653 </v>
   <v>      -1.28743277       0.00000000      -0.25322221 </v>
   <v>       1.28743277      -0.00000000      -0.25322221 </v>
   <v>      -0.00000000       0.00000000      -1.06357741 </v>
   <v>      -0.14252745       0.00000000      -0.92203198 </v>
   <v>       0.14252745       0.00000000      -0.92203198 </v>
   <v>      -0.00000000       0.00000000      -1.17835607 </v>
   <v>      -0.42428464       0.00000000      -0.47980114 </v>
   <v>       0.42428464       0.00000000      -0.47980114 </v>
   <v>      -0.00000000       0.00000000      -1.14764110 </v>
   <v>      -1.05754048       0.00000000       0.07926944 </v>
   <v>       1.05754048       0.00000000       0.07926944 </v>
   <v>      -0.00000000       0.00000000       0.94649447 </v>
   <v>      -0.00000000       0.00000000       1.22455802 </v>
   <v>      -0.00000000       0.00000000       1.38540493 </v>
   <v>      -0.00000000       0.00000000       1.42365991 </v>
   <v>      -0.00000000       0.00000000      -0.42609196 </v>
   <v>      -0.00000000       0.00000000       1.03522560 </v>
   <v>      -0.00000000       0.00000000       1.55939483 </v>
   <v>      -0.00000000       0.00000000       0.38426709 </v>
  </varray>
  <varray name="stress" >
   <v>      33.47809150       0.00000000       0.00000000 </v>
   <v>       0.00000000       6.65580264       0.00000000 </v>
   <v>       0.00000000       0.00000000      17.38372120 </v>
  </varray>
  <energy>
   <i name="e_fr_energy">   -151.21451332 </i>
   <i name="e_wo_entrp">   -151.09143874 </i>
   <i name="e_0_energy">     -0.24614915 </i>
  </energy>
  <time name="totalsc">   55.10   55.45</time>
 </calculation>
 <calculation>
  <scstep>
   <time name="dav">    1.38    1.38</time>
   <time name="total">    1.49    1.49</time>
   <energy>
    <i name="alphaZ">    368.42493316 </i>
    <i name="ewald">  21954.06844449 </i>
    <i name="hartreedc"> -30496.49184404 </i>
    <i name="XCdc">    339.55136441 </i>
    <i name="pawpsdc">   6202.90145329 </i>
    <i name="pawaedc">  -6032.92336577 </i>
    <i name="eentropy">     -0.18845833 </i>
    <i name="bandstr">  -1424.18798239 </i>
    <i name="atom">   8937.26825017 </i>
    <i name="e_fr_energy">   -151.57720500 </i>
    <i name="e_wo_entrp">   -151.38874668 </i>
    <i name="e_0_energy">   -151.48297584 </i>
   </energy>
  </scstep>
  <scstep>
   <time name="diag">    0.21    0.21</time>
   <time name="diis">    0.81    0.81</time>
   <time name="orth">    0.03    0.03</time>
   <time name="total">    1.17    1.18</time>
   <energy>
    <i name="e_fr_energy">   -152.59501995 </i>
    <i name="e_wo_entrp">   -152.26557782 </i>
    <i name="e_0_energy">   -152.43029888 </i>
   </energy>
  </scstep>
  <scstep>
   <time name="diag">    0.21    0.21</time>
   <time name="diis">    0.84    0.84</time>
   <time name="orth">    0.03    0.03</time>
   <time name="total">    1.20    1.21</time>
   <energy>
    <i name="e_fr_energy">   -152.91822258 </i>
    <i name="e_wo_entrp">   -152.58925805 </i>
    <i name="e_0_energy">   -152.75374032 </i>
   </energy>
  </scstep>
  <scstep>
   <time name="diag">    0.21    0.21</time>
   <time name="diis">    0.84    0.84</time>
   <time name="orth">    0.03    0.03</time>
   <time name="total">    1.20    1.21</time>
   <energy>
    <i name="e_fr_energy">   -152.08781065 </i>
    <i name="e_wo_entrp">   -151.77198547 </i>
    <i name="e_0_energy">   -151.92989806 </i>
   </energy>
  </scstep>
  <scstep>
   <time name="diag">    0.21    0.21</time>
   <time name="diis">    0.97    0.97</time>
   <time name="orth">    0.03    0.03</time>
   <time name="total">    1.33    1.34</time>
   <energy>
    <i name="e_fr_energy">   -152.25254131 </i>
    <i name="e_wo_entrp">   -151.97655513 </i>
    <i name="e_0_energy">   -152.11454822 </i>
   </energy>
  </scstep>
  <scstep>
   <time name="diag">    0.21    0.21</time>
   <time name="diis">    0.86    0.86</time>
   <time name="orth">    0.03    0.04</time>
   <time name="total">    1.22    1.23</time>
   <energy>
    <i name="e_fr_energy">   -152.04437131 </i>
    <i name="e_wo_entrp">   -151.76243347 </i>
    <i name="e_0_energy">   -151.90340239 </i>
   </energy>
  </scstep>
  <scstep>
   <time name="diag">    0.21    0.21</time>
   <time name="diis">    0.98    0.98</time>
   <time name="orth">    0.03    0.03</time>
   <time name="total">    1.34    1.35</time>
   <energy>
    <i name="e_fr_energy">   -151.99522972 </i>
    <i name="e_wo_entrp">   -151.78399482 </i>
    <i name="e_0_energy">   -151.88961227 </i>
   </energy>
  </scstep>
  <scstep>
   <time name="diag">    0.22    0.22</time>
   <time name="diis">    0.94    0.94</time>
   <time name="orth">    0.03    0.03</time>
   <time name="total">    1.30    1.32</time>
   <energy>
    <i name="e_fr_energy">   -151.95065513 </i>
    <i name="e_wo_entrp">   -151.76925827 </i>
    <i name="e_0_energy">   -151.85995670 </i>
   </energy>
  </scstep>
  <scstep>
   <time name="diag">    0.21    0.21</time>
   <time name="diis">    0.92    0.92</time>
   <time name="orth">    0.03    0.03</time>
   <time name="total">    1.28    1.29</time>
   <energy>
    <i name="e_fr_energy">   -151.92298924 </i>
    <i name="e_wo_entrp">   -151.73309220 </i>
    <i name="e_0_energy">   -151.82804072 </i>
   </energy>
  </scstep>
  <scstep>
   <time name="diag">    0.21    0.21</time>
   <time name="diis">    0.94    0.94</time>
   <time name="orth">    0.03    0.03</time>
   <time name="total">    1.30    1.31</time>
   <energy>
    <i name="e_fr_energy">   -151.91902269 </i>
    <i name="e_wo_entrp">   -151.71114019 </i>
    <i name="e_0_energy">   -151.81508144 </i>
   </energy>
  </scstep>
  <scstep>
   <time name="diag">    0.21    0.21</time>
   <time name="diis">    0.90    0.90</time>
   <time name="orth">    0.03    0.04</time>
   <time name="total">    1.27    1.28</time>
   <energy>
    <i name="e_fr_energy">   -151.90618584 </i>
    <i name="e_wo_entrp">   -151.70081852 </i>
    <i name="e_0_energy">   -151.80350218 </i>
   </energy>
  </scstep>
  <scstep>
   <time name="diag">    0.21    0.21</time>
   <time name="diis">    0.92    0.92</time>
   <time name="orth">    0.03    0.03</time>
   <time name="total">    1.28    1.29</time>
   <energy>
    <i name="e_fr_energy">   -151.89764688 </i>
    <i name="e_wo_entrp">   -151.68563687 </i>
    <i name="e_0_energy">   -151.79164187 </i>
   </energy>
  </scstep>
  <scstep>
   <time name="diag">    0.21    0.21</time>
   <time name="diis">    0.96    0.96</time>
   <time name="orth">    0.03    0.03</time>
   <time name="total">    1.32    1.33</time>
   <energy>
    <i name="e_fr_energy">   -151.89763979 </i>
    <i name="e_wo_entrp">   -151.67927735 </i>
    <i name="e_0_energy">   -151.78845857 </i>
   </energy>
  </scstep>
  <scstep>
   <time name="diag">    0.21    0.21</time>
   <time name="diis">    0.97    0.97</time>
   <time name="orth">    0.03    0.03</time>
   <time name="total">    1.33    1.34</time>
   <energy>
    <i name="e_fr_energy">   -151.89603311 </i>
    <i name="e_wo_entrp">   -151.67108332 </i>
    <i name="e_0_energy">   -151.78355822 </i>
   </energy>
  </scstep>
  <scstep>
   <time name="diag">    0.21    0.21</time>
   <time name="diis">    0.86    0.86</time>
   <time name="orth">    0.03    0.03</time>
   <time name="total">    1.22    1.23</time>
   <energy>
    <i name="e_fr_energy">   -151.89509320 </i>
    <i name="e_wo_entrp">   -151.67244993 </i>
    <i name="e_0_energy">   -151.78377156 </i>
   </energy>
  </scstep>
  <scstep>
   <time name="diag">    0.21    0.21</time>
   <time name="diis">    0.93    0.93</time>
   <time name="orth">    0.03    0.03</time>
   <time name="total">    1.30    1.30</time>
   <energy>
    <i name="e_fr_energy">   -151.89450673 </i>
    <i name="e_wo_entrp">   -151.66726046 </i>
    <i name="e_0_energy">   -151.78088359 </i>
   </energy>
  </scstep>
  <scstep>
   <time name="diag">    0.21    0.21</time>
   <time name="diis">    0.94    0.94</time>
   <time name="orth">    0.03    0.03</time>
   <time name="total">    1.30    1.31</time>
   <energy>
    <i name="e_fr_energy">   -151.89426799 </i>
    <i name="e_wo_entrp">   -151.66431808 </i>
    <i name="e_0_energy">   -151.77929303 </i>
   </energy>
  </scstep>
  <scstep>
   <time name="diag">    0.21    0.21</time>
   <time name="diis">    0.88    0.88</time>
   <time name="orth">    0.03    0.03</time>
   <time name="total">    1.25    1.26</time>
   <energy>
    <i name="e_fr_energy">   -151.89423390 </i>
    <i name="e_wo_entrp">   -151.66335932 </i>
    <i name="e_0_energy">   -151.77879661 </i>
   </energy>
  </scstep>
  <scstep>
   <time name="diag">    0.21    0.21</time>
   <time name="diis">    0.73    0.73</time>
   <time name="orth">    0.03    0.03</time>
   <time name="total">    1.10    1.11</time>
   <energy>
    <i name="e_fr_energy">   -151.89413475 </i>
    <i name="e_wo_entrp">   -151.66339296 </i>
    <i name="e_0_energy">   -151.77876386 </i>
   </energy>
  </scstep>
  <scstep>
   <time name="diag">    0.21    0.21</time>
   <time name="diis">    0.71    0.71</time>
   <time name="orth">    0.03    0.03</time>
   <time name="total">    1.07    1.08</time>
   <energy>
    <i name="e_fr_energy">   -151.89406807 </i>
    <i name="e_wo_entrp">   -151.66414792 </i>
    <i name="e_0_energy">   -151.77910799 </i>
   </energy>
  </scstep>
  <scstep>
   <time name="diag">    0.21    0.21</time>
   <time name="diis">    0.52    0.52</time>
   <time name="orth">    0.03    0.03</time>
   <time name="total">    0.88    0.89</time>
   <energy>
    <i name="e_fr_energy">   -151.89404018 </i>
    <i name="e_wo_entrp">   -151.66447212 </i>
    <i name="e_0_energy">   -151.77925615 </i>
   </energy>
  </scstep>
  <scstep>
   <time name="diag">    0.21    0.21</time>
   <time name="diis">    0.50    0.50</time>
   <time name="orth">    0.03    0.04</time>
   <time name="total">    0.87    0.87</time>
   <energy>
    <i name="e_fr_energy">   -151.89400854 </i>
    <i name="e_wo_entrp">   -151.66473062 </i>
    <i name="e_0_energy">   -151.77936958 </i>
   </energy>
  </scstep>
  <scstep>
   <time name="diag">    0.21    0.21</time>
   <time name="diis">    0.51    0.51</time>
   <time name="orth">    0.03    0.03</time>
   <time name="total">    0.87    0.88</time>
   <energy>
    <i name="e_fr_energy">   -151.89398357 </i>
    <i name="e_wo_entrp">   -151.66479826 </i>
    <i name="e_0_energy">   -151.77939091 </i>
   </energy>
  </scstep>
  <scstep>
   <time name="diag">    0.21    0.22</time>
   <time name="diis">    0.48    0.48</time>
   <time name="orth">    0.03    0.03</time>
   <time name="total">    0.85    0.85</time>
   <energy>
    <i name="e_fr_energy">   -151.89396125 </i>
    <i name="e_wo_entrp">   -151.66521384 </i>
    <i name="e_0_energy">   -151.77958754 </i>
   </energy>
  </scstep>
  <scstep>
   <time name="diag">    0.21    0.21</time>
   <time name="diis">    0.54    0.54</time>
   <time name="orth">    0.03    0.03</time>
   <time name="total">    0.91    0.91</time>
   <energy>
    <i name="e_fr_energy">   -151.89392656 </i>
    <i name="e_wo_entrp">   -151.66573199 </i>
    <i name="e_0_energy">   -151.77982928 </i>
   </energy>
  </scstep>
  <scstep>
   <time name="diag">    0.21    0.21</time>
   <time name="diis">    0.63    0.63</time>
   <time name="orth">    0.03    0.03</time>
   <time name="total">    1.00    1.00</time>
   <energy>
    <i name="e_fr_energy">   -151.89389167 </i>
    <i name="e_wo_entrp">   -151.66624854 </i>
    <i name="e_0_energy">   -151.78007010 </i>
   </energy>
  </scstep>
  <scstep>
   <time name="diag">    0.21    0.21</time>
   <time name="diis">    0.54    0.54</time>
   <time name="orth">    0.03    0.03</time>
   <time name="total">    0.90    0.91</time>
   <energy>
    <i name="e_fr_energy">   -151.89388092 </i>
    <i name="e_wo_entrp">   -151.66637610 </i>
    <i name="e_0_energy">   -151.78012851 </i>
   </energy>
  </scstep>
  <scstep>
   <time name="diag">    0.21    0.22</time>
   <time name="diis">    0.47    0.47</time>
   <time name="orth">    0.03    0.03</time>
   <time name="total">    0.75    0.75</time>
   <energy>
    <i name="alphaZ">    368.42493316 </i>
    <i name="ewald">  21954.06844449 </i>
    <i name="hartreedc"> -30511.09596710 </i>
    <i name="XCdc">    339.75966758 </i>
    <i name="pawpsdc">   6203.72419465 </i>
    <i name="pawaedc">  -6033.67889772 </i>
    <i name="eentropy">     -0.22752629 </i>
    <i name="bandstr">  -1410.13697627 </i>
    <i name="atom">   8937.26825017 </i>
    <i name="e_fr_energy">   -151.89387733 </i>
    <i name="e_wo_entrp">   -151.66635104 </i>
    <i name="e_0_energy">   -151.78011419 </i>
   </energy>
  </scstep>
  <structure>
   <crystal>
    <varray name="basis" >
     <v>       5.58168362       0.00000000       0.00000000 </v>
     <v>       0.00000000       3.94684634       0.00000000 </v>
     <v>       0.00000000       0.00000000      21.76794634 </v>
    </varray>
    <i name="volume">    479.54889400 </i>
    <varray name="rec_basis" >
[...]
       <r>   -3.8245    1.0000 </r>
       <r>   -3.6917    1.0000 </r>
       <r>   -3.6187    1.0000 </r>
       <r>   -3.3693    1.0000 </r>
       <r>   -3.2566    1.0000 </r>
       <r>   -3.1150    1.0000 </r>
       <r>   -3.0411    1.0000 </r>
       <r>   -2.8824    1.0000 </r>
       <r>   -2.6860    1.0000 </r>
       <r>   -2.4342    1.0000 </r>
       <r>   -2.3004    1.0000 </r>
       <r>   -2.1800    1.0000 </r>
       <r>   -2.0754    1.0000 </r>
       <r>   -1.8802    1.0000 </r>
       <r>   -1.8062    1.0000 </r>
       <r>   -1.6957    1.0000 </r>
       <r>   -1.6184    1.0000 </r>
       <r>   -1.0645    1.0000 </r>
       <r>   -0.8405    1.0000 </r>
       <r>   -0.7195    1.0000 </r>
       <r>   -0.6412    0.9999 </r>
       <r>    0.0902    0.0914 </r>
       <r>    0.4938    0.0000 </r>
       <r>    0.7022    0.0000 </r>
       <r>    0.9109    0.0000 </r>
       <r>    1.3038    0.0000 </r>
       <r>    1.4460    0.0000 </r>
       <r>    1.6188    0.0000 </r>
       <r>    1.9451    0.0000 </r>
       <r>    2.3390    0.0000 </r>
       <r>    2.6036    0.0000 </r>
       <r>    2.6860    0.0000 </r>
       <r>    2.7751    0.0000 </r>
      </set>
      <set comment="kpoint 7">
       <r>  -35.5584    1.0000 </r>
       <r>  -34.3819    1.0000 </r>
       <r>  -33.1197    1.0000 </r>
       <r>  -32.5385    1.0000 </r>
       <r>  -20.1159    1.0000 </r>
       <r>  -19.3843    1.0000 </r>
       <r>  -19.0528    1.0000 </r>
       <r>  -18.8711    1.0000 </r>
       <r>  -18.7877    1.0000 </r>
       <r>  -18.1414    1.0000 </r>
       <r>  -17.6823    1.0000 </r>
       <r>  -17.5195    1.0000 </r>
       <r>  -17.4966    1.0000 </r>
       <r>  -17.2879    1.0000 </r>
       <r>  -17.0622    1.0000 </r>
       <r>  -16.8248    1.0000 </r>
       <r>  -16.5145    1.0000 </r>
       <r>  -16.4077    1.0000 </r>
       <r>  -16.3787    1.0000 </r>
       <r>  -16.1156    1.0000 </r>
       <r>  -15.8608    1.0000 </r>
       <r>  -15.8397    1.0000 </r>
       <r>  -15.1050    1.0000 </r>
       <r>  -14.8754    1.0000 </r>
       <r>  -14.8445    1.0000 </r>
       <r>  -14.6193    1.0000 </r>
       <r>  -14.2536    1.0000 </r>
       <r>  -13.7733    1.0000 </r>
       <r>   -6.5055    1.0000 </r>
       <r>   -6.0272    1.0000 </r>
       <r>   -5.9554    1.0000 </r>
       <r>   -5.6468    1.0000 </r>
       <r>   -5.6279    1.0000 </r>
       <r>   -5.4981    1.0000 </r>
       <r>   -5.1543    1.0000 </r>
       <r>   -5.1038    1.0000 </r>
       <r>   -4.8374    1.0000 </r>
       <r>   -4.7013    1.0000 </r>
       <r>   -4.5521    1.0000 </r>
       <r>   -4.5334    1.0000 </r>
       <r>   -4.3400    1.0000 </r>
       <r>   -4.0369    1.0000 </r>
       <r>   -3.9047    1.0000 </r>
       <r>   -3.8768    1.0000 </r>
       <r>   -3.8157    1.0000 </r>
       <r>   -3.4766    1.0000 </r>
       <r>   -3.3790    1.0000 </r>
       <r>   -3.2352    1.0000 </r>
       <r>   -3.1344    1.0000 </r>
       <r>   -3.0532    1.0000 </r>
       <r>   -2.9713    1.0000 </r>
       <r>   -2.7710    1.0000 </r>
       <r>   -2.7641    1.0000 </r>
       <r>   -2.2846    1.0000 </r>
       <r>   -2.1393    1.0000 </r>
       <r>   -2.0233    1.0000 </r>
       <r>   -1.8649    1.0000 </r>
       <r>   -1.8183    1.0000 </r>
       <r>   -1.6653    1.0000 </r>
       <r>   -1.4844    1.0000 </r>
       <r>   -1.3132    1.0000 </r>
       <r>   -0.7512    1.0000 </r>
       <r>   -0.5211    0.9986 </r>
       <r>   -0.1106    0.5350 </r>
       <r>    0.0327    0.1775 </r>
       <r>    0.4113    0.0002 </r>
       <r>    0.7201    0.0000 </r>
       <r>    1.0381    0.0000 </r>
       <r>    1.2893    0.0000 </r>
       <r>    1.6242    0.0000 </r>
       <r>    1.6826    0.0000 </r>
       <r>    1.7986    0.0000 </r>
       <r>    2.4750    0.0000 </r>
       <r>    2.5365    0.0000 </r>
       <r>    2.9620    0.0000 </r>
       <r>    3.0798    0.0000 </r>
      </set>
      <set comment="kpoint 8">
       <r>  -35.5582    1.0000 </r>
       <r>  -34.3818    1.0000 </r>
       <r>  -33.1196    1.0000 </r>
       <r>  -32.5385    1.0000 </r>
       <r>  -20.0811    1.0000 </r>
       <r>  -19.4669    1.0000 </r>
       <r>  -19.0395    1.0000 </r>
       <r>  -18.8926    1.0000 </r>
       <r>  -18.7587    1.0000 </r>
       <r>  -18.1759    1.0000 </r>
       <r>  -17.7002    1.0000 </r>
       <r>  -17.4763    1.0000 </r>
       <r>  -17.4648    1.0000 </r>
       <r>  -17.2920    1.0000 </r>
       <r>  -17.0725    1.0000 </r>
       <r>  -16.8608    1.0000 </r>
       <r>  -16.4996    1.0000 </r>
       <r>  -16.4152    1.0000 </r>
       <r>  -16.3273    1.0000 </r>
       <r>  -16.1141    1.0000 </r>
       <r>  -15.8791    1.0000 </r>
       <r>  -15.8539    1.0000 </r>
       <r>  -15.0538    1.0000 </r>
       <r>  -14.8736    1.0000 </r>
       <r>  -14.8406    1.0000 </r>
       <r>  -14.6352    1.0000 </r>
       <r>  -14.2300    1.0000 </r>
       <r>  -13.7603    1.0000 </r>
       <r>   -6.4751    1.0000 </r>
       <r>   -6.1055    1.0000 </r>
       <r>   -6.0199    1.0000 </r>
       <r>   -5.7805    1.0000 </r>
       <r>   -5.5690    1.0000 </r>
       <r>   -5.4460    1.0000 </r>
       <r>   -5.2396    1.0000 </r>
       <r>   -5.0559    1.0000 </r>
       <r>   -4.8181    1.0000 </r>
       <r>   -4.7813    1.0000 </r>
       <r>   -4.5713    1.0000 </r>
       <r>   -4.4210    1.0000 </r>
       <r>   -4.2363    1.0000 </r>
       <r>   -4.0593    1.0000 </r>
       <r>   -3.9271    1.0000 </r>
       <r>   -3.8777    1.0000 </r>
       <r>   -3.7949    1.0000 </r>
       <r>   -3.5216    1.0000 </r>
       <r>   -3.4910    1.0000 </r>
       <r>   -3.2741    1.0000 </r>
       <r>   -3.0841    1.0000 </r>
       <r>   -2.9552    1.0000 </r>
       <r>   -2.8758    1.0000 </r>
       <r>   -2.8329    1.0000 </r>
       <r>   -2.7678    1.0000 </r>
       <r>   -2.3323    1.0000 </r>
       <r>   -2.0858    1.0000 </r>
       <r>   -2.0606    1.0000 </r>
       <r>   -2.0117    1.0000 </r>
       <r>   -1.6934    1.0000 </r>
       <r>   -1.6337    1.0000 </r>
       <r>   -1.4964    1.0000 </r>
       <r>   -1.2085    1.0000 </r>
       <r>   -0.7519    1.0000 </r>
       <r>   -0.4876    0.9971 </r>
       <r>   -0.2438    0.8484 </r>
       <r>    0.0875    0.0947 </r>
       <r>    0.3623    0.0006 </r>
       <r>    0.6146    0.0000 </r>
       <r>    1.1221    0.0000 </r>
       <r>    1.2470    0.0000 </r>
       <r>    1.4662    0.0000 </r>
       <r>    1.7329    0.0000 </r>
       <r>    1.9450    0.0000 </r>
       <r>    2.4910    0.0000 </r>
       <r>    2.5492    0.0000 </r>
       <r>    2.8598    0.0000 </r>
       <r>    3.0213    0.0000 </r>
      </set>
      <set comment="kpoint 9">
       <r>  -35.5580    1.0000 </r>
       <r>  -34.3816    1.0000 </r>
       <r>  -33.1194    1.0000 </r>
       <r>  -32.5383    1.0000 </r>
       <r>  -20.0100    1.0000 </r>
       <r>  -19.5941    1.0000 </r>
       <r>  -19.0410    1.0000 </r>
       <r>  -18.9273    1.0000 </r>
       <r>  -18.6976    1.0000 </r>
       <r>  -18.2426    1.0000 </r>
       <r>  -17.7287    1.0000 </r>
       <r>  -17.4046    1.0000 </r>
       <r>  -17.4027    1.0000 </r>
       <r>  -17.3019    1.0000 </r>
       <r>  -17.0858    1.0000 </r>
       <r>  -16.9290    1.0000 </r>
       <r>  -16.4937    1.0000 </r>
       <r>  -16.4030    1.0000 </r>
       <r>  -16.2452    1.0000 </r>
       <r>  -16.1143    1.0000 </r>
       <r>  -15.9004    1.0000 </r>
       <r>  -15.8893    1.0000 </r>
       <r>  -14.9702    1.0000 </r>
       <r>  -14.8736    1.0000 </r>
       <r>  -14.8355    1.0000 </r>
       <r>  -14.6594    1.0000 </r>
       <r>  -14.1896    1.0000 </r>
       <r>  -13.7421    1.0000 </r>
       <r>   -6.4417    1.0000 </r>
       <r>   -6.2047    1.0000 </r>
       <r>   -6.1009    1.0000 </r>
       <r>   -5.9519    1.0000 </r>
       <r>   -5.5076    1.0000 </r>
       <r>   -5.3239    1.0000 </r>
       <r>   -5.2869    1.0000 </r>
       <r>   -5.0964    1.0000 </r>
       <r>   -4.9433    1.0000 </r>
       <r>   -4.7122    1.0000 </r>
       <r>   -4.5194    1.0000 </r>
       <r>   -4.4556    1.0000 </r>
       <r>   -4.1031    1.0000 </r>
       <r>   -4.0543    1.0000 </r>
       <r>   -3.9555    1.0000 </r>
       <r>   -3.8286    1.0000 </r>
       <r>   -3.8238    1.0000 </r>
       <r>   -3.7282    1.0000 </r>
       <r>   -3.4158    1.0000 </r>
       <r>   -3.1953    1.0000 </r>
       <r>   -3.1005    1.0000 </r>
       <r>   -3.0233    1.0000 </r>
       <r>   -2.8806    1.0000 </r>
       <r>   -2.7892    1.0000 </r>
       <r>   -2.6197    1.0000 </r>
       <r>   -2.3401    1.0000 </r>
       <r>   -2.2779    1.0000 </r>
       <r>   -2.0360    1.0000 </r>
       <r>   -1.9461    1.0000 </r>
       <r>   -1.6583    1.0000 </r>
       <r>   -1.6201    1.0000 </r>
       <r>   -1.5706    1.0000 </r>
       <r>   -0.9556    1.0000 </r>
       <r>   -0.7085    1.0000 </r>
       <r>   -0.4919    0.9973 </r>
       <r>   -0.4462    0.9931 </r>
       <r>    0.0907    0.0909 </r>
       <r>    0.1745    0.0269 </r>
       <r>    0.6435    0.0000 </r>
       <r>    1.0691    0.0000 </r>
       <r>    1.3091    0.0000 </r>
       <r>    1.4944    0.0000 </r>
       <r>    1.7691    0.0000 </r>
       <r>    1.9435    0.0000 </r>
       <r>    2.5130    0.0000 </r>
       <r>    2.6118    0.0000 </r>
       <r>    2.8598    0.0000 </r>
       <r>    2.9094    0.0000 </r>
      </set>
      <set comment="kpoint 10">
       <r>  -35.5502    1.0000 </r>
       <r>  -34.3744    1.0000 </r>
       <r>  -33.1122    1.0000 </r>
       <r>  -32.5305    1.0000 </r>
       <r>  -20.2655    1.0000 </r>
       <r>  -19.2212    1.0000 </r>
       <r>  -18.9853    1.0000 </r>
       <r>  -18.9250    1.0000 </r>
       <r>  -18.7886    1.0000 </r>
       <r>  -17.9889    1.0000 </r>
       <r>  -17.7369    1.0000 </r>
       <r>  -17.6570    1.0000 </r>
       <r>  -17.6223    1.0000 </r>
       <r>  -17.1142    1.0000 </r>
       <r>  -17.0063    1.0000 </r>
       <r>  -16.7268    1.0000 </r>
       <r>  -16.6724    1.0000 </r>
       <r>  -16.5763    1.0000 </r>
       <r>  -16.3986    1.0000 </r>
       <r>  -15.9360    1.0000 </r>
       <r>  -15.8414    1.0000 </r>
       <r>  -15.5590    1.0000 </r>
       <r>  -15.3022    1.0000 </r>
       <r>  -14.8486    1.0000 </r>
       <r>  -14.6807    1.0000 </r>
       <r>  -14.6100    1.0000 </r>
       <r>  -14.6029    1.0000 </r>
       <r>  -13.5187    1.0000 </r>
       <r>   -6.6595    1.0000 </r>
       <r>   -6.2244    1.0000 </r>
       <r>   -5.8803    1.0000 </r>
       <r>   -5.7484    1.0000 </r>
       <r>   -5.6833    1.0000 </r>
       <r>   -5.4661    1.0000 </r>
       <r>   -5.4508    1.0000 </r>
       <r>   -5.1606    1.0000 </r>
       <r>   -4.9247    1.0000 </r>
       <r>   -4.8929    1.0000 </r>
       <r>   -4.6086    1.0000 </r>
       <r>   -4.5427    1.0000 </r>
       <r>   -4.2470    1.0000 </r>
       <r>   -4.1423    1.0000 </r>
       <r>   -4.0075    1.0000 </r>
       <r>   -3.8820    1.0000 </r>
       <r>   -3.7758    1.0000 </r>
       <r>   -3.5570    1.0000 </r>
       <r>   -3.5513    1.0000 </r>
       <r>   -3.1928    1.0000 </r>
       <r>   -3.1145    1.0000 </r>
       <r>   -3.0263    1.0000 </r>
       <r>   -2.9904    1.0000 </r>
       <r>   -2.9059    1.0000 </r>
       <r>   -2.8303    1.0000 </r>
       <r>   -2.5180    1.0000 </r>
       <r>   -2.3662    1.0000 </r>
       <r>   -1.9421    1.0000 </r>
       <r>   -1.7918    1.0000 </r>
       <r>   -1.7513    1.0000 </r>
       <r>   -1.6504    1.0000 </r>
       <r>   -1.4349    1.0000 </r>
       <r>   -1.3250    1.0000 </r>
       <r>   -0.5164    0.9984 </r>
       <r>   -0.4826    0.9967 </r>
       <r>   -0.2268    0.8186 </r>
       <r>   -0.0663    0.4108 </r>
       <r>    0.4799    0.0000 </r>
       <r>    1.0695    0.0000 </r>
       <r>    1.1979    0.0000 </r>
       <r>    1.4235    0.0000 </r>
       <r>    1.4389    0.0000 </r>
       <r>    1.6551    0.0000 </r>
       <r>    2.0974    0.0000 </r>
       <r>    2.6270    0.0000 </r>
       <r>    2.7012    0.0000 </r>
       <r>    2.9313    0.0000 </r>
       <r>    3.1033    0.0000 </r>
      </set>
      <set comment="kpoint 11">
       <r>  -35.5501    1.0000 </r>
       <r>  -34.3743    1.0000 </r>
       <r>  -33.1122    1.0000 </r>
       <r>  -32.5305    1.0000 </r>
       <r>  -20.2270    1.0000 </r>
       <r>  -19.2799    1.0000 </r>
       <r>  -18.9909    1.0000 </r>
       <r>  -18.8886    1.0000 </r>
       <r>  -18.8418    1.0000 </r>
       <r>  -18.0384    1.0000 </r>
       <r>  -17.6764    1.0000 </r>
       <r>  -17.6611    1.0000 </r>
       <r>  -17.5891    1.0000 </r>
       <r>  -17.1546    1.0000 </r>
       <r>  -17.0056    1.0000 </r>
       <r>  -16.7232    1.0000 </r>
       <r>  -16.6956    1.0000 </r>
       <r>  -16.4937    1.0000 </r>
       <r>  -16.4117    1.0000 </r>
       <r>  -15.9438    1.0000 </r>
       <r>  -15.8721    1.0000 </r>
       <r>  -15.6022    1.0000 </r>
       <r>  -15.2193    1.0000 </r>
       <r>  -14.8479    1.0000 </r>
       <r>  -14.7563    1.0000 </r>
       <r>  -14.6300    1.0000 </r>
       <r>  -14.4835    1.0000 </r>
       <r>  -13.5034    1.0000 </r>
       <r>   -6.6240    1.0000 </r>
       <r>   -6.2310    1.0000 </r>
       <r>   -6.0523    1.0000 </r>
       <r>   -5.8661    1.0000 </r>
       <r>   -5.6846    1.0000 </r>
       <r>   -5.5090    1.0000 </r>
       <r>   -5.4431    1.0000 </r>
       <r>   -5.1294    1.0000 </r>
       <r>   -4.9711    1.0000 </r>
       <r>   -4.8071    1.0000 </r>
       <r>   -4.6463    1.0000 </r>
       <r>   -4.4767    1.0000 </r>
       <r>   -4.2452    1.0000 </r>
       <r>   -4.1220    1.0000 </r>
       <r>   -3.9886    1.0000 </r>
       <r>   -3.8812    1.0000 </r>
       <r>   -3.7629    1.0000 </r>
       <r>   -3.6313    1.0000 </r>
       <r>   -3.5042    1.0000 </r>
       <r>   -3.3519    1.0000 </r>
       <r>   -3.1017    1.0000 </r>
       <r>   -2.9789    1.0000 </r>
       <r>   -2.9354    1.0000 </r>
       <r>   -2.8139    1.0000 </r>
       <r>   -2.7839    1.0000 </r>
       <r>   -2.5881    1.0000 </r>
       <r>   -2.2681    1.0000 </r>
       <r>   -2.0617    1.0000 </r>
       <r>   -1.8205    1.0000 </r>
       <r>   -1.6291    1.0000 </r>
       <r>   -1.6078    1.0000 </r>
       <r>   -1.4620    1.0000 </r>
       <r>   -1.2205    1.0000 </r>
       <r>   -0.5208    0.9986 </r>
       <r>   -0.4552    0.9942 </r>
       <r>   -0.2774    0.8975 </r>
       <r>    0.0032    0.2367 </r>
       <r>    0.5092    0.0000 </r>
       <r>    0.7064    0.0000 </r>
       <r>    1.1617    0.0000 </r>
       <r>    1.3366    0.0000 </r>
       <r>    1.5019    0.0000 </r>
       <r>    1.9117    0.0000 </r>
       <r>    2.0638    0.0000 </r>
       <r>    2.5915    0.0000 </r>
       <r>    2.7553    0.0000 </r>
       <r>    2.8445    0.0000 </r>
       <r>    3.2465    0.0000 </r>
      </set>
      <set comment="kpoint 12">
       <r>  -35.5501    1.0000 </r>
       <r>  -34.3742    1.0000 </r>
       <r>  -33.1121    1.0000 </r>
       <r>  -32.5304    1.0000 </r>
       <r>  -20.1548    1.0000 </r>
       <r>  -19.3805    1.0000 </r>
       <r>  -18.9945    1.0000 </r>
       <r>  -18.9283    1.0000 </r>
       <r>  -18.8177    1.0000 </r>
       <r>  -18.1283    1.0000 </r>
       <r>  -17.6966    1.0000 </r>
       <r>  -17.5621    1.0000 </r>
       <r>  -17.5196    1.0000 </r>
       <r>  -17.2101    1.0000 </r>
       <r>  -16.9977    1.0000 </r>
       <r>  -16.8099    1.0000 </r>
       <r>  -16.6449    1.0000 </r>
       <r>  -16.4372    1.0000 </r>
       <r>  -16.3738    1.0000 </r>
       <r>  -15.9792    1.0000 </r>
       <r>  -15.8826    1.0000 </r>
       <r>  -15.6760    1.0000 </r>
       <r>  -15.1022    1.0000 </r>
       <r>  -14.8474    1.0000 </r>
       <r>  -14.8220    1.0000 </r>
       <r>  -14.6199    1.0000 </r>
       <r>  -14.3902    1.0000 </r>
       <r>  -13.4798    1.0000 </r>
       <r>   -6.5579    1.0000 </r>
       <r>   -6.2664    1.0000 </r>
       <r>   -6.2271    1.0000 </r>
       <r>   -6.0437    1.0000 </r>
       <r>   -5.7690    1.0000 </r>
       <r>   -5.5210    1.0000 </r>
       <r>   -5.3846    1.0000 </r>
       <r>   -5.1014    1.0000 </r>
       <r>   -5.0093    1.0000 </r>
       <r>   -4.8014    1.0000 </r>
       <r>   -4.7824    1.0000 </r>
       <r>   -4.3395    1.0000 </r>
       <r>   -4.1467    1.0000 </r>
       <r>   -4.1238    1.0000 </r>
       <r>   -4.0179    1.0000 </r>
       <r>   -3.8782    1.0000 </r>
       <r>   -3.7161    1.0000 </r>
       <r>   -3.6396    1.0000 </r>
       <r>   -3.5491    1.0000 </r>
       <r>   -3.4961    1.0000 </r>
       <r>   -3.0534    1.0000 </r>
       <r>   -2.9465    1.0000 </r>
       <r>   -2.8720    1.0000 </r>
       <r>   -2.7843    1.0000 </r>
       <r>   -2.6652    1.0000 </r>
       <r>   -2.5157    1.0000 </r>
       <r>   -2.2676    1.0000 </r>
       <r>   -2.1112    1.0000 </r>
       <r>   -1.9451    1.0000 </r>
       <r>   -1.5384    1.0000 </r>
       <r>   -1.5183    1.0000 </r>
       <r>   -1.4927    1.0000 </r>
       <r>   -0.9928    1.0000 </r>
       <r>   -0.5806    0.9997 </r>
       <r>   -0.3925    0.9813 </r>
       <r>   -0.3346    0.9527 </r>
       <r>    0.1108    0.0697 </r>
       <r>    0.2005    0.0174 </r>
       <r>    0.5969    0.0000 </r>
       <r>    1.1026    0.0000 </r>
       <r>    1.4827    0.0000 </r>
       <r>    1.5366    0.0000 </r>
       <r>    1.8329    0.0000 </r>
       <r>    2.0365    0.0000 </r>
       <r>    2.5954    0.0000 </r>
       <r>    2.7926    0.0000 </r>
       <r>    3.0476    0.0000 </r>
       <r>    3.2464    0.0000 </r>
      </set>
     </set>
    </set>
   </array>
  </eigenvalues>
  <separator name="orbital magnetization" >
   <v name="MAGDIPOLOUT">      0.00000000      0.00000000      0.00000000</v>
  </separator>
 </calculation>
 <structure name="finalpos" >
  <crystal>
   <varray name="basis" >
    <v>       5.58168362       0.00000000       0.00000000 </v>
    <v>       0.00000000       3.94684634       0.00000000 </v>
    <v>       0.00000000       0.00000000      21.76794634 </v>
   </varray>
   <i name="volume">    479.54889400 </i>
   <varray name="rec_basis" >
    <v>       0.17915741       0.00000000       0.00000000 </v>
    <v>       0.00000000       0.25336684       0.00000000 </v>
    <v>       0.00000000       0.00000000       0.04593911 </v>
   </varray>
  </crystal>
  <varray name="positions" >
   <v>       0.50000000      -0.00000000       0.23394657 </v>
   <v>       0.24188443       0.50000000       0.30763320 </v>
   <v>       0.75811557       0.50000000       0.30763320 </v>
   <v>       0.00000000      -0.00000000       0.38292780 </v>
   <v>       0.74699241       0.50000000       0.45291573 </v>
   <v>       0.25300759       0.50000000       0.45291573 </v>
   <v>       0.50000000      -0.00000000       0.52577737 </v>
   <v>       0.24557363       0.50000000       0.59649731 </v>
   <v>       0.75442637       0.50000000       0.59649731 </v>
   <v>       0.00000000      -0.00000000       0.66942300 </v>
   <v>       0.74756969       0.50000000       0.73914121 </v>
   <v>       0.25243031       0.50000000       0.73914121 </v>
   <v>       0.00000000      -0.00000000       0.27478477 </v>
   <v>       0.50000000      -0.00000000       0.41746383 </v>
   <v>       0.00000000      -0.00000000       0.56012210 </v>
   <v>       0.50000000      -0.00000000       0.71798099 </v>
   <v>       0.50000000       0.50000000       0.25863797 </v>
   <v>       0.00000000       0.50000000       0.40284732 </v>
   <v>       0.50000000       0.50000000       0.54692444 </v>
   <v>       0.00000000       0.50000000       0.68858017 </v>
  </varray>
 </structure>
</modeling>
