unknown system                          
           1
     5.581684    0.000000    0.000000
     0.000000    3.946846    0.000000
     0.000000    0.000000   21.767946
   O    Sr   Ti
  12   4   4
Direct configuration=     1
   0.50000000  0.00000000  0.27563464
   0.25000000  0.50000000  0.33973903
   0.75000000  0.50000000  0.33973903
   0.00000000  0.00000000  0.40384342
   0.75000000  0.50000000  0.46794781
   0.25000000  0.50000000  0.46794781
   0.50000000  0.00000000  0.53205219
   0.25000000  0.50000000  0.59615658
   0.75000000  0.50000000  0.59615658
   0.00000000  0.00000000  0.66026097
   0.75000000  0.50000000  0.72436536
   0.25000000  0.50000000  0.72436536
   0.00000000  0.00000000  0.27563464
   0.50000000  0.00000000  0.40384342
   0.00000000  0.00000000  0.53205219
   0.50000000  0.00000000  0.66026097
   0.50000000  0.50000000  0.27563464
   0.00000000  0.50000000  0.40384342
   0.50000000  0.50000000  0.53205219
   0.00000000  0.50000000  0.66026097
Direct configuration=     2
   0.50000000  0.00000000  0.27237977
   0.25548323  0.50000000  0.33533759
   0.74451677  0.50000000  0.33533759
   0.00000000  0.00000000  0.40214368
   0.75450721  0.50000000  0.46532019
   0.24549279  0.50000000  0.46532019
   0.50000000  0.00000000  0.53083272
   0.25662039  0.50000000  0.59313266
   0.74337961  0.50000000  0.59313266
   0.00000000  0.00000000  0.65796676
   0.75412244  0.50000000  0.72135734
   0.24587756  0.50000000  0.72135734
   0.00000000  0.00000000  0.27838063
   0.50000000  0.00000000  0.40583073
   0.00000000  0.00000000  0.53355841
   0.50000000  0.00000000  0.66353421
   0.50000000  0.50000000  0.28167079
   0.00000000  0.50000000  0.40929953
   0.50000000  0.50000000  0.53690890
   0.00000000  0.50000000  0.66898951
Direct configuration=     3
   0.50000000  0.00000000  0.27045264
   0.24572706  0.50000000  0.33484554
   0.75427294  0.50000000  0.33484554
  -0.00000000  0.00000000  0.40007701
   0.75342714  0.50000000  0.46352856
   0.24657286  0.50000000  0.46352856
   0.50000000  0.00000000  0.52854302
   0.25340516  0.50000000  0.59220034
   0.74659484  0.50000000  0.59220034
  -0.00000000  0.00000000  0.65573674
   0.74610840  0.50000000  0.72151137
   0.25389160  0.50000000  0.72151137
  -0.00000000  0.00000000  0.28021980
   0.50000000  0.00000000  0.40821021
  -0.00000000  0.00000000  0.53625043
   0.50000000  0.00000000  0.66630057
   0.50000000  0.50000000  0.28084284
  -0.00000000  0.50000000  0.41131111
   0.50000000  0.50000000  0.53993902
  -0.00000000  0.50000000  0.66973619
Direct configuration=     4
   0.50000000  0.00000000  0.26905944
   0.24571216  0.50000000  0.33298909
   0.75428784  0.50000000  0.33298909
  -0.00000000  0.00000000  0.39891602
   0.74853237  0.50000000  0.46364139
   0.25146763  0.50000000  0.46364139
   0.50000000  0.00000000  0.52737142
   0.24919005  0.50000000  0.59238693
   0.75080995  0.50000000  0.59238693
  -0.00000000  0.00000000  0.65434859
   0.74418248  0.50000000  0.72099494
   0.25581752  0.50000000  0.72099494
  -0.00000000  0.00000000  0.28193259
   0.50000000  0.00000000  0.40973438
  -0.00000000  0.00000000  0.53788499
   0.50000000  0.00000000  0.66855501
   0.50000000  0.50000000  0.28250365
  -0.00000000  0.50000000  0.41067909
   0.50000000  0.50000000  0.53948893
  -0.00000000  0.50000000  0.67129242
Direct configuration=     5
   0.50000000  0.00000000  0.26518828
   0.23516327  0.50000000  0.32974893
   0.76483673  0.50000000  0.32974893
   0.00000000  0.00000000  0.39538208
   0.74419641  0.50000000  0.46135428
   0.25580359  0.50000000  0.46135428
   0.50000000  0.00000000  0.52405180
   0.24540780  0.50000000  0.59118242
   0.75459220  0.50000000  0.59118242
   0.00000000  0.00000000  0.65118798
   0.73578621  0.50000000  0.72011292
   0.26421379  0.50000000  0.72011292
   0.00000000  0.00000000  0.28673751
   0.50000000  0.00000000  0.41533179
   0.00000000  0.00000000  0.54388190
   0.50000000  0.00000000  0.67613682
   0.50000000  0.50000000  0.28215516
   0.00000000  0.50000000  0.41179692
   0.50000000  0.50000000  0.54134421
   0.00000000  0.50000000  0.67379968
Direct configuration=     6
   0.50000000  0.00000000  0.26439711
   0.23672980  0.50000000  0.32917938
   0.76327020  0.50000000  0.32917938
  -0.00000000  0.00000000  0.39583561
   0.74502728  0.50000000  0.46114872
   0.25497272  0.50000000  0.46114872
   0.50000000  0.00000000  0.52468118
   0.24553747  0.50000000  0.59137325
   0.75446253  0.50000000  0.59137325
  -0.00000000  0.00000000  0.65270068
   0.73637142  0.50000000  0.72052968
   0.26362858  0.50000000  0.72052968
  -0.00000000  0.00000000  0.28660858
   0.50000000  0.00000000  0.41550288
  -0.00000000  0.00000000  0.54415125
   0.50000000  0.00000000  0.67760723
   0.50000000  0.50000000  0.28163669
  -0.00000000  0.50000000  0.41088229
   0.50000000  0.50000000  0.54088409
  -0.00000000  0.50000000  0.67244158
Direct configuration=     7
   0.50000000  0.00000000  0.26318406
   0.23552480  0.50000000  0.32839648
   0.76447520  0.50000000  0.32839648
   0.00000000  0.00000000  0.39544613
   0.74457975  0.50000000  0.46071955
   0.25542025  0.50000000  0.46071955
   0.50000000  0.00000000  0.52439573
   0.24524476  0.50000000  0.59114987
   0.75475524  0.50000000  0.59114987
   0.00000000  0.00000000  0.65288184
   0.73770152  0.50000000  0.72023341
   0.26229848  0.50000000  0.72023341
   0.00000000  0.00000000  0.28716842
   0.50000000  0.00000000  0.41643136
   0.00000000  0.00000000  0.54531026
   0.50000000  0.00000000  0.67994859
   0.50000000  0.50000000  0.28093179
   0.00000000  0.50000000  0.41064693
   0.50000000  0.50000000  0.54118969
   0.00000000  0.50000000  0.67325779
Direct configuration=     8
   0.50000000  0.00000000  0.26146442
   0.23577511  0.50000000  0.32721146
   0.76422489  0.50000000  0.32721146
   0.00000000  0.00000000  0.39536997
   0.74511711  0.50000000  0.46006448
   0.25488289  0.50000000  0.46006448
   0.50000000  0.00000000  0.52466098
   0.24520801  0.50000000  0.59112752
   0.75479199  0.50000000  0.59112752
   0.00000000  0.00000000  0.65421908
   0.73835572  0.50000000  0.72084890
   0.26164428  0.50000000  0.72084890
   0.00000000  0.00000000  0.28700170
   0.50000000  0.00000000  0.41693476
   0.00000000  0.00000000  0.54619467
   0.50000000  0.00000000  0.68310647
   0.50000000  0.50000000  0.27962923
   0.00000000  0.50000000  0.41051375
   0.50000000  0.50000000  0.54138701
   0.00000000  0.50000000  0.67280444
Direct configuration=     9
   0.50000000  0.00000000  0.25968163
   0.23582916  0.50000000  0.32602086
   0.76417084  0.50000000  0.32602086
   0.00000000  0.00000000  0.39510681
   0.74400929  0.50000000  0.45978701
   0.25599071  0.50000000  0.45978701
   0.50000000  0.00000000  0.52478879
   0.24441231  0.50000000  0.59115919
   0.75558769  0.50000000  0.59115919
   0.00000000  0.00000000  0.65509553
   0.73936998  0.50000000  0.72129751
   0.26063002  0.50000000  0.72129751
   0.00000000  0.00000000  0.28694415
   0.50000000  0.00000000  0.41736768
   0.00000000  0.00000000  0.54714814
   0.50000000  0.00000000  0.68618805
   0.50000000  0.50000000  0.27856583
   0.00000000  0.50000000  0.40982131
   0.50000000  0.50000000  0.54147303
   0.00000000  0.50000000  0.67308113
Direct configuration=    10
   0.50000000  0.00000000  0.25831405
   0.23544939  0.50000000  0.32538953
   0.76455061  0.50000000  0.32538953
   0.00000000  0.00000000  0.39475021
   0.74423110  0.50000000  0.45935337
   0.25576890  0.50000000  0.45935337
   0.50000000  0.00000000  0.52498032
   0.24397388  0.50000000  0.59117660
   0.75602612  0.50000000  0.59117660
   0.00000000  0.00000000  0.65561852
   0.74039210  0.50000000  0.72189003
   0.25960790  0.50000000  0.72189003
   0.00000000  0.00000000  0.28647657
   0.50000000  0.00000000  0.41735180
   0.00000000  0.00000000  0.54761000
   0.50000000  0.00000000  0.68829987
   0.50000000  0.50000000  0.27758091
   0.00000000  0.50000000  0.40978943
   0.50000000  0.50000000  0.54171536
   0.00000000  0.50000000  0.67368515
Direct configuration=    11
   0.50000000 -0.00000000  0.25476431
   0.23622970  0.50000000  0.32321123
   0.76377030  0.50000000  0.32321123
   0.00000000 -0.00000000  0.39402647
   0.74339040  0.50000000  0.45849916
   0.25660960  0.50000000  0.45849916
   0.50000000 -0.00000000  0.52528375
   0.24308432  0.50000000  0.59125971
   0.75691568  0.50000000  0.59125971
   0.00000000 -0.00000000  0.65723683
   0.74167170  0.50000000  0.72342758
   0.25832830  0.50000000  0.72342758
   0.00000000 -0.00000000  0.28577614
   0.50000000 -0.00000000  0.41775650
   0.00000000 -0.00000000  0.54910951
   0.50000000 -0.00000000  0.69393936
   0.50000000  0.50000000  0.27560733
   0.00000000  0.50000000  0.40901793
   0.50000000  0.50000000  0.54228227
   0.00000000  0.50000000  0.67419545
Direct configuration=    12
   0.50000000 -0.00000000  0.25227943
   0.23702657  0.50000000  0.32189459
   0.76297343  0.50000000  0.32189459
   0.00000000 -0.00000000  0.39322348
   0.74325900  0.50000000  0.45796199
   0.25674100  0.50000000  0.45796199
   0.50000000 -0.00000000  0.52537631
   0.24205409  0.50000000  0.59157324
   0.75794591  0.50000000  0.59157324
   0.00000000 -0.00000000  0.65824625
   0.74268654  0.50000000  0.72486762
   0.25731346  0.50000000  0.72486762
   0.00000000 -0.00000000  0.28486207
   0.50000000 -0.00000000  0.41777315
   0.00000000 -0.00000000  0.54988354
   0.50000000 -0.00000000  0.69756688
   0.50000000  0.50000000  0.27381136
   0.00000000  0.50000000  0.40856380
   0.50000000  0.50000000  0.54252007
   0.00000000  0.50000000  0.67509000
Direct configuration=    13
   0.50000000 -0.00000000  0.25041979
   0.23786910  0.50000000  0.32077762
   0.76213090  0.50000000  0.32077762
   0.00000000 -0.00000000  0.39260214
   0.74329294  0.50000000  0.45760781
   0.25670706  0.50000000  0.45760781
   0.50000000 -0.00000000  0.52544952
   0.24219829  0.50000000  0.59162729
   0.75780171  0.50000000  0.59162729
   0.00000000 -0.00000000  0.65905160
   0.74390171  0.50000000  0.72584649
   0.25609829  0.50000000  0.72584649
   0.00000000 -0.00000000  0.28422284
   0.50000000 -0.00000000  0.41777809
   0.00000000 -0.00000000  0.55055087
   0.50000000 -0.00000000  0.70033108
   0.50000000  0.50000000  0.27258121
   0.00000000  0.50000000  0.40815720
   0.50000000  0.50000000  0.54307331
   0.00000000  0.50000000  0.67585514
Direct configuration=    14
   0.50000000 -0.00000000  0.24740694
   0.23973856  0.50000000  0.31896623
   0.76026144  0.50000000  0.31896623
   0.00000000 -0.00000000  0.39104070
   0.74420831  0.50000000  0.45706918
   0.25579169  0.50000000  0.45706918
   0.50000000 -0.00000000  0.52541222
   0.24163431  0.50000000  0.59215396
   0.75836569  0.50000000  0.59215396
   0.00000000 -0.00000000  0.66019520
   0.74557230  0.50000000  0.72774843
   0.25442770  0.50000000  0.72774843
   0.00000000 -0.00000000  0.28294448
   0.50000000 -0.00000000  0.41769278
   0.00000000 -0.00000000  0.55153629
   0.50000000 -0.00000000  0.70457811
   0.50000000  0.50000000  0.27044495
   0.00000000  0.50000000  0.40769605
   0.50000000  0.50000000  0.54366519
   0.00000000  0.50000000  0.67730273
Direct configuration=    15
   0.50000000 -0.00000000  0.24386790
   0.24083671  0.50000000  0.31686868
   0.75916329  0.50000000  0.31686868
   0.00000000 -0.00000000  0.38929192
   0.74483997  0.50000000  0.45652061
   0.25516003  0.50000000  0.45652061
   0.50000000 -0.00000000  0.52538444
   0.24153633  0.50000000  0.59268223
   0.75846367  0.50000000  0.59268223
   0.00000000 -0.00000000  0.66160463
   0.74740420  0.50000000  0.73007437
   0.25259580  0.50000000  0.73007437
   0.00000000 -0.00000000  0.28143609
   0.50000000 -0.00000000  0.41762304
   0.00000000 -0.00000000  0.55280007
   0.50000000 -0.00000000  0.70946349
   0.50000000  0.50000000  0.26772936
   0.00000000  0.50000000  0.40691224
   0.50000000  0.50000000  0.54449005
   0.00000000  0.50000000  0.67889620
Direct configuration=    16
   0.50000000 -0.00000000  0.24351953
   0.24090909  0.50000000  0.31645716
   0.75909091  0.50000000  0.31645716
   0.00000000 -0.00000000  0.38897333
   0.74529658  0.50000000  0.45641617
   0.25470342  0.50000000  0.45641617
   0.50000000 -0.00000000  0.52535898
   0.24197090  0.50000000  0.59297478
   0.75802910  0.50000000  0.59297478
   0.00000000 -0.00000000  0.66191309
   0.74780901  0.50000000  0.73059623
   0.25219099  0.50000000  0.73059623
   0.00000000 -0.00000000  0.28104899
   0.50000000 -0.00000000  0.41756909
   0.00000000 -0.00000000  0.55299318
   0.50000000 -0.00000000  0.70982681
   0.50000000  0.50000000  0.26727142
   0.00000000  0.50000000  0.40658840
   0.50000000  0.50000000  0.54439483
   0.00000000  0.50000000  0.67944489
Direct configuration=    17
   0.50000000 -0.00000000  0.24253285
   0.24141446  0.50000000  0.31572676
   0.75858554  0.50000000  0.31572676
   0.00000000 -0.00000000  0.38840874
   0.74597154  0.50000000  0.45612034
   0.25402846  0.50000000  0.45612034
   0.50000000 -0.00000000  0.52531267
   0.24246547  0.50000000  0.59319043
   0.75753453  0.50000000  0.59319043
   0.00000000 -0.00000000  0.66250880
   0.74772203  0.50000000  0.73146391
   0.25227797  0.50000000  0.73146391
   0.00000000 -0.00000000  0.28046288
   0.50000000 -0.00000000  0.41753187
   0.00000000 -0.00000000  0.55347499
   0.50000000 -0.00000000  0.71096319
   0.50000000  0.50000000  0.26648669
   0.00000000  0.50000000  0.40631634
   0.50000000  0.50000000  0.54476499
   0.00000000  0.50000000  0.68002433
Direct configuration=    18
   0.50000000 -0.00000000  0.24068135
   0.24208558  0.50000000  0.31440775
   0.75791442  0.50000000  0.31440775
   0.00000000 -0.00000000  0.38737362
   0.74652017  0.50000000  0.45568028
   0.25347983  0.50000000  0.45568028
   0.50000000 -0.00000000  0.52524601
   0.24281992  0.50000000  0.59374684
   0.75718008  0.50000000  0.59374684
   0.00000000 -0.00000000  0.66359642
   0.74851735  0.50000000  0.73285230
   0.25148265  0.50000000  0.73285230
   0.00000000 -0.00000000  0.27937979
   0.50000000 -0.00000000  0.41745716
   0.00000000 -0.00000000  0.55438483
   0.50000000 -0.00000000  0.71307850
   0.50000000  0.50000000  0.26496620
   0.00000000  0.50000000  0.40561807
   0.50000000  0.50000000  0.54512173
   0.00000000  0.50000000  0.68151322
Direct configuration=    19
   0.50000000 -0.00000000  0.23927213
   0.24241271  0.50000000  0.31316042
   0.75758729  0.50000000  0.31316042
   0.00000000 -0.00000000  0.38637528
   0.74702062  0.50000000  0.45524971
   0.25297938  0.50000000  0.45524971
   0.50000000 -0.00000000  0.52517695
   0.24354553  0.50000000  0.59433034
   0.75645447  0.50000000  0.59433034
   0.00000000 -0.00000000  0.66462959
   0.74855824  0.50000000  0.73417738
   0.25144176  0.50000000  0.73417738
   0.00000000 -0.00000000  0.27840119
   0.50000000 -0.00000000  0.41738681
   0.00000000 -0.00000000  0.55528704
   0.50000000 -0.00000000  0.71456373
   0.50000000  0.50000000  0.26368640
   0.00000000  0.50000000  0.40503497
   0.50000000  0.50000000  0.54538838
   0.00000000  0.50000000  0.68275307
Direct configuration=    20
   0.50000000 -0.00000000  0.23923330
   0.24241831  0.50000000  0.31312835
   0.75758169  0.50000000  0.31312835
   0.00000000 -0.00000000  0.38635230
   0.74702855  0.50000000  0.45523975
   0.25297145  0.50000000  0.45523975
   0.50000000 -0.00000000  0.52517631
   0.24356241  0.50000000  0.59434196
   0.75643759  0.50000000  0.59434196
   0.00000000 -0.00000000  0.66465499
   0.74856626  0.50000000  0.73420861
   0.25143374  0.50000000  0.73420861
   0.00000000 -0.00000000  0.27837821
   0.50000000 -0.00000000  0.41738523
   0.00000000 -0.00000000  0.55530982
   0.50000000 -0.00000000  0.71460459
   0.50000000  0.50000000  0.26365554
   0.00000000  0.50000000  0.40502195
   0.50000000  0.50000000  0.54539732
   0.00000000  0.50000000  0.68278434
Direct configuration=    21
   0.50000000 -0.00000000  0.23980509
   0.24218536  0.50000000  0.31340823
   0.75781464  0.50000000  0.31340823
   0.00000000 -0.00000000  0.38656335
   0.74689347  0.50000000  0.45533278
   0.25310653  0.50000000  0.45533278
   0.50000000 -0.00000000  0.52517958
   0.24351986  0.50000000  0.59424565
   0.75648014  0.50000000  0.59424565
   0.00000000 -0.00000000  0.66436543
   0.74840061  0.50000000  0.73391654
   0.25159939  0.50000000  0.73391654
   0.00000000 -0.00000000  0.27861807
   0.50000000 -0.00000000  0.41739779
   0.00000000 -0.00000000  0.55510871
   0.50000000 -0.00000000  0.71393909
   0.50000000  0.50000000  0.26395708
   0.00000000  0.50000000  0.40513552
   0.50000000  0.50000000  0.54533787
   0.00000000  0.50000000  0.68257721
Direct configuration=    22
   0.50000000 -0.00000000  0.23866549
   0.24222510  0.50000000  0.31242300
   0.75777490  0.50000000  0.31242300
   0.00000000 -0.00000000  0.38590978
   0.74698033  0.50000000  0.45505322
   0.25301967  0.50000000  0.45505322
   0.50000000 -0.00000000  0.52518607
   0.24403885  0.50000000  0.59458438
   0.75596115  0.50000000  0.59458438
   0.00000000 -0.00000000  0.66513011
   0.74862492  0.50000000  0.73479207
   0.25137508  0.50000000  0.73479207
   0.00000000 -0.00000000  0.27797683
   0.50000000 -0.00000000  0.41735583
   0.00000000 -0.00000000  0.55581016
   0.50000000 -0.00000000  0.71508833
   0.50000000  0.50000000  0.26313639
   0.00000000  0.50000000  0.40479672
   0.50000000  0.50000000  0.54555366
   0.00000000  0.50000000  0.68347651
Direct configuration=    23
   0.50000000 -0.00000000  0.23718690
   0.24205987  0.50000000  0.31096012
   0.75794013  0.50000000  0.31096012
   0.00000000 -0.00000000  0.38498101
   0.74760334  0.50000000  0.45455240
   0.25239666  0.50000000  0.45455240
   0.50000000 -0.00000000  0.52516156
   0.24450522  0.50000000  0.59519406
   0.75549478  0.50000000  0.59519406
   0.00000000 -0.00000000  0.66620502
   0.74879841  0.50000000  0.73623479
   0.25120159  0.50000000  0.73623479
   0.00000000 -0.00000000  0.27689823
   0.50000000 -0.00000000  0.41729805
   0.00000000 -0.00000000  0.55692606
   0.50000000 -0.00000000  0.71651395
   0.50000000  0.50000000  0.26168774
   0.00000000  0.50000000  0.40426975
   0.50000000  0.50000000  0.54589801
   0.00000000  0.50000000  0.68488221
Direct configuration=    24
   0.50000000 -0.00000000  0.23723721
   0.24190126  0.50000000  0.31068723
   0.75809874  0.50000000  0.31068723
   0.00000000 -0.00000000  0.38503131
   0.74739937  0.50000000  0.45445047
   0.25260063  0.50000000  0.45445047
   0.50000000 -0.00000000  0.52524354
   0.24458844  0.50000000  0.59520371
   0.75541156  0.50000000  0.59520371
   0.00000000 -0.00000000  0.66631457
   0.74865374  0.50000000  0.73639809
   0.25134626  0.50000000  0.73639809
   0.00000000 -0.00000000  0.27681791
   0.50000000 -0.00000000  0.41732420
   0.00000000 -0.00000000  0.55719481
   0.50000000 -0.00000000  0.71627262
   0.50000000  0.50000000  0.26160168
   0.00000000  0.50000000  0.40418786
   0.50000000  0.50000000  0.54601123
   0.00000000  0.50000000  0.68507529
Direct configuration=    25
   0.50000000 -0.00000000  0.23535493
   0.24181947  0.50000000  0.30873817
   0.75818053  0.50000000  0.30873817
   0.00000000 -0.00000000  0.38382078
   0.74771050  0.50000000  0.45374612
   0.25228950  0.50000000  0.45374612
   0.50000000 -0.00000000  0.52538818
   0.24528620  0.50000000  0.59588431
   0.75471380  0.50000000  0.59588431
   0.00000000 -0.00000000  0.66775607
   0.74874432  0.50000000  0.73822711
   0.25125568  0.50000000  0.73822711
   0.00000000 -0.00000000  0.27556145
   0.50000000 -0.00000000  0.41734011
   0.00000000 -0.00000000  0.55868872
   0.50000000 -0.00000000  0.71795688
   0.50000000  0.50000000  0.25981004
   0.00000000  0.50000000  0.40353269
   0.50000000  0.50000000  0.54641692
   0.00000000  0.50000000  0.68697303
Direct configuration=    26
   0.50000000 -0.00000000  0.23516126
   0.24153864  0.50000000  0.30839682
   0.75846136  0.50000000  0.30839682
   0.00000000 -0.00000000  0.38368051
   0.74760628  0.50000000  0.45359921
   0.25239372  0.50000000  0.45359921
   0.50000000 -0.00000000  0.52547279
   0.24534286  0.50000000  0.59600561
   0.75465714  0.50000000  0.59600561
   0.00000000 -0.00000000  0.66802411
   0.74871273  0.50000000  0.73851780
   0.25128727  0.50000000  0.73851780
   0.00000000 -0.00000000  0.27536807
   0.50000000 -0.00000000  0.41736080
   0.00000000 -0.00000000  0.55897617
   0.50000000 -0.00000000  0.71792975
   0.50000000  0.50000000  0.25958024
   0.00000000  0.50000000  0.40341426
   0.50000000  0.50000000  0.54648527
   0.00000000  0.50000000  0.68729913
Direct configuration=    27
   0.50000000 -0.00000000  0.23668224
   0.24164061  0.50000000  0.31019694
   0.75835939  0.50000000  0.31019694
   0.00000000 -0.00000000  0.38471016
   0.74724102  0.50000000  0.45420373
   0.25275898  0.50000000  0.45420373
   0.50000000 -0.00000000  0.52537858
   0.24473596  0.50000000  0.59536519
   0.75526404  0.50000000  0.59536519
   0.00000000 -0.00000000  0.66681693
   0.74855246  0.50000000  0.73682364
   0.25144754  0.50000000  0.73682364
   0.00000000 -0.00000000  0.27652280
   0.50000000 -0.00000000  0.41737876
   0.00000000 -0.00000000  0.55763305
   0.50000000 -0.00000000  0.71654220
   0.50000000  0.50000000  0.26114051
   0.00000000  0.50000000  0.40403370
   0.50000000  0.50000000  0.54610326
   0.00000000  0.50000000  0.68567005
Direct configuration=    28
   0.50000000 -0.00000000  0.23564153
   0.24131487  0.50000000  0.30899478
   0.75868513  0.50000000  0.30899478
   0.00000000 -0.00000000  0.38407242
   0.74710133  0.50000000  0.45370049
   0.25289867  0.50000000  0.45370049
   0.50000000 -0.00000000  0.52565743
   0.24488841  0.50000000  0.59577472
   0.75511159  0.50000000  0.59577472
   0.00000000 -0.00000000  0.66788762
   0.74849635  0.50000000  0.73776447
   0.25150365  0.50000000  0.73776447
   0.00000000 -0.00000000  0.27583881
   0.50000000 -0.00000000  0.41745093
   0.00000000 -0.00000000  0.55860310
   0.50000000 -0.00000000  0.71710084
   0.50000000  0.50000000  0.26015987
   0.00000000  0.50000000  0.40363798
   0.50000000  0.50000000  0.54637960
   0.00000000  0.50000000  0.68689221
Direct configuration=    29
   0.50000000 -0.00000000  0.23593599
   0.24154899  0.50000000  0.30933059
   0.75845101  0.50000000  0.30933059
   0.00000000 -0.00000000  0.38424334
   0.74710163  0.50000000  0.45384085
   0.25289837  0.50000000  0.45384085
   0.50000000 -0.00000000  0.52556590
   0.24494828  0.50000000  0.59563483
   0.75505172  0.50000000  0.59563483
   0.00000000 -0.00000000  0.66761550
   0.74828603  0.50000000  0.73751481
   0.25171397  0.50000000  0.73751481
   0.00000000 -0.00000000  0.27603441
   0.50000000 -0.00000000  0.41744161
   0.00000000 -0.00000000  0.55836096
   0.50000000 -0.00000000  0.71688855
   0.50000000  0.50000000  0.26047369
   0.00000000  0.50000000  0.40371202
   0.50000000  0.50000000  0.54635883
   0.00000000  0.50000000  0.68651828
Direct configuration=    30
   0.50000000 -0.00000000  0.23595211
   0.24154105  0.50000000  0.30931101
   0.75845895  0.50000000  0.30931101
   0.00000000 -0.00000000  0.38418111
   0.74718919  0.50000000  0.45378975
   0.25281081  0.50000000  0.45378975
   0.50000000 -0.00000000  0.52560161
   0.24484905  0.50000000  0.59566685
   0.75515095  0.50000000  0.59566685
   0.00000000 -0.00000000  0.66763927
   0.74820414  0.50000000  0.73754856
   0.25179586  0.50000000  0.73754856
   0.00000000 -0.00000000  0.27600993
   0.50000000 -0.00000000  0.41746909
   0.00000000 -0.00000000  0.55843004
   0.50000000 -0.00000000  0.71682061
   0.50000000  0.50000000  0.26040967
   0.00000000  0.50000000  0.40369690
   0.50000000  0.50000000  0.54635345
   0.00000000  0.50000000  0.68659508
Direct configuration=    31
   0.50000000 -0.00000000  0.23590218
   0.24166859  0.50000000  0.30920609
   0.75833141  0.50000000  0.30920609
   0.00000000 -0.00000000  0.38405337
   0.74716337  0.50000000  0.45374662
   0.25283663  0.50000000  0.45374662
   0.50000000 -0.00000000  0.52566167
   0.24491117  0.50000000  0.59569151
   0.75508883  0.50000000  0.59569151
   0.00000000 -0.00000000  0.66769179
   0.74824877  0.50000000  0.73767198
   0.25175123  0.50000000  0.73767198
   0.00000000 -0.00000000  0.27593802
   0.50000000 -0.00000000  0.41748644
   0.00000000 -0.00000000  0.55854333
   0.50000000 -0.00000000  0.71689444
   0.50000000  0.50000000  0.26029687
   0.00000000  0.50000000  0.40360912
   0.50000000  0.50000000  0.54637923
   0.00000000  0.50000000  0.68670238
Direct configuration=    32
   0.50000000 -0.00000000  0.23590089
   0.24163729  0.50000000  0.30918500
   0.75836271  0.50000000  0.30918500
   0.00000000 -0.00000000  0.38397987
   0.74721470  0.50000000  0.45369236
   0.25278530  0.50000000  0.45369236
   0.50000000 -0.00000000  0.52565333
   0.24497509  0.50000000  0.59570059
   0.75502491  0.50000000  0.59570059
   0.00000000 -0.00000000  0.66773244
   0.74822425  0.50000000  0.73772764
   0.25177575  0.50000000  0.73772764
   0.00000000 -0.00000000  0.27589715
   0.50000000 -0.00000000  0.41750476
   0.00000000 -0.00000000  0.55860722
   0.50000000 -0.00000000  0.71688164
   0.50000000  0.50000000  0.26025840
   0.00000000  0.50000000  0.40357453
   0.50000000  0.50000000  0.54639969
   0.00000000  0.50000000  0.68679010
Direct configuration=    33
   0.50000000 -0.00000000  0.23583218
   0.24163688  0.50000000  0.30908985
   0.75836312  0.50000000  0.30908985
   0.00000000 -0.00000000  0.38395723
   0.74710682  0.50000000  0.45364464
   0.25289318  0.50000000  0.45364464
   0.50000000 -0.00000000  0.52565046
   0.24490742  0.50000000  0.59575006
   0.75509258  0.50000000  0.59575006
   0.00000000 -0.00000000  0.66782879
   0.74824362  0.50000000  0.73782196
   0.25175638  0.50000000  0.73782196
   0.00000000 -0.00000000  0.27583823
   0.50000000 -0.00000000  0.41751128
   0.00000000 -0.00000000  0.55868242
   0.50000000 -0.00000000  0.71691378
   0.50000000  0.50000000  0.26021619
   0.00000000  0.50000000  0.40351775
   0.50000000  0.50000000  0.54636998
   0.00000000  0.50000000  0.68685994
Direct configuration=    34
   0.50000000 -0.00000000  0.23578087
   0.24157970  0.50000000  0.30904324
   0.75842030  0.50000000  0.30904324
   0.00000000 -0.00000000  0.38399522
   0.74706682  0.50000000  0.45360223
   0.25293318  0.50000000  0.45360223
   0.50000000 -0.00000000  0.52565274
   0.24496134  0.50000000  0.59576736
   0.75503866  0.50000000  0.59576736
   0.00000000 -0.00000000  0.66788007
   0.74834515  0.50000000  0.73786124
   0.25165485  0.50000000  0.73786124
   0.00000000 -0.00000000  0.27579672
   0.50000000 -0.00000000  0.41750304
   0.00000000 -0.00000000  0.55872404
   0.50000000 -0.00000000  0.71694303
   0.50000000  0.50000000  0.26016587
   0.00000000  0.50000000  0.40350480
   0.50000000  0.50000000  0.54638810
   0.00000000  0.50000000  0.68690860
Direct configuration=    35
   0.50000000 -0.00000000  0.23577823
   0.24160375  0.50000000  0.30902517
   0.75839625  0.50000000  0.30902517
   0.00000000 -0.00000000  0.38394691
   0.74704985  0.50000000  0.45359710
   0.25295015  0.50000000  0.45359710
   0.50000000 -0.00000000  0.52565319
   0.24501728  0.50000000  0.59576171
   0.75498272  0.50000000  0.59576171
   0.00000000 -0.00000000  0.66789769
   0.74826292  0.50000000  0.73789242
   0.25173708  0.50000000  0.73789242
   0.00000000 -0.00000000  0.27578372
   0.50000000 -0.00000000  0.41751156
   0.00000000 -0.00000000  0.55875405
   0.50000000 -0.00000000  0.71693595
   0.50000000  0.50000000  0.26015994
   0.00000000  0.50000000  0.40347481
   0.50000000  0.50000000  0.54641034
   0.00000000  0.50000000  0.68693202
Direct configuration=    36
   0.50000000 -0.00000000  0.23577982
   0.24160410  0.50000000  0.30902715
   0.75839590  0.50000000  0.30902715
   0.00000000 -0.00000000  0.38394982
   0.74704933  0.50000000  0.45359882
   0.25295067  0.50000000  0.45359882
   0.50000000 -0.00000000  0.52565426
   0.24501614  0.50000000  0.59576057
   0.75498386  0.50000000  0.59576057
   0.00000000 -0.00000000  0.66789537
   0.74826352  0.50000000  0.73788950
   0.25173648  0.50000000  0.73788950
   0.00000000 -0.00000000  0.27578544
   0.50000000 -0.00000000  0.41751096
   0.00000000 -0.00000000  0.55875171
   0.50000000 -0.00000000  0.71693429
   0.50000000  0.50000000  0.26016210
   0.00000000  0.50000000  0.40347556
   0.50000000  0.50000000  0.54640971
   0.00000000  0.50000000  0.68693012
Direct configuration=    37
   0.50000000 -0.00000000  0.23586292
   0.24170857  0.50000000  0.30912987
   0.75829143  0.50000000  0.30912987
   0.00000000 -0.00000000  0.38397435
   0.74715484  0.50000000  0.45368310
   0.25284516  0.50000000  0.45368310
   0.50000000 -0.00000000  0.52574431
   0.24494194  0.50000000  0.59571317
   0.75505806  0.50000000  0.59571317
   0.00000000 -0.00000000  0.66776508
   0.74822081  0.50000000  0.73776121
   0.25177919  0.50000000  0.73776121
   0.00000000 -0.00000000  0.27585724
   0.50000000 -0.00000000  0.41749743
   0.00000000 -0.00000000  0.55862510
   0.50000000 -0.00000000  0.71692006
   0.50000000  0.50000000  0.26022868
   0.00000000  0.50000000  0.40352670
   0.50000000  0.50000000  0.54639272
   0.00000000  0.50000000  0.68682193
Direct configuration=    38
   0.50000000 -0.00000000  0.23604011
   0.24222849  0.50000000  0.30937640
   0.75777151  0.50000000  0.30937640
  -0.00000000 -0.00000000  0.38392363
   0.74740649  0.50000000  0.45384937
   0.25259351  0.50000000  0.45384937
   0.50000000 -0.00000000  0.52608648
   0.24479499  0.50000000  0.59560783
   0.75520501  0.50000000  0.59560783
  -0.00000000 -0.00000000  0.66741234
   0.74797500  0.50000000  0.73753869
   0.25202500  0.50000000  0.73753869
  -0.00000000 -0.00000000  0.27595877
   0.50000000 -0.00000000  0.41753705
  -0.00000000 -0.00000000  0.55830372
   0.50000000 -0.00000000  0.71693155