 vasp.5.4.4.18Apr17-6-g9f103f2a35 (build Jun 30 2017 11:15:00) complex          
  
 executed on    STALLO_VASP_5.4.4 date 2019.11.04  17:07:41
 running on   16 total cores
 distrk:  each k-point on   16 cores,    1 groups
 distr:  one band on NCORES_PER_BAND=   4 cores,    4 groups


--------------------------------------------------------------------------------------------------------


 INCAR:
 POTCAR:   PAW_PBE O 08Apr2002                    
 POTCAR:   PAW_PBE Sr_sv 07Sep2000                
 POTCAR:   PAW_PBE Ti 08Apr2002                   
 POTCAR:   PAW_PBE O 08Apr2002                    
   VRHFIN =O: s2p4                                                              
   LEXCH  = PE                                                                  
   EATOM  =   432.3788 eV,   31.7789 Ry                                         
                                                                                
   TITEL  = PAW_PBE O 08Apr2002                                                 
   LULTRA =        F    use ultrasoft PP ?                                      
   IUNSCR =        0    unscreen: 0-lin 1-nonlin 2-no                           
   RPACOR =     .000    partial core radius                                     
   POMASS =   16.000; ZVAL   =    6.000    mass and valenz                      
   RCORE  =    1.520    outmost cutoff radius                                   
   RWIGS  =    1.550; RWIGS  =     .820    wigner-seitz radius (au A)           
   ENMAX  =  400.000; ENMIN  =  300.000 eV                                      
   ICORE  =        2    local potential                                         
   LCOR   =        T    correct aug charges                                     
   LPAW   =        T    paw PP                                                  
   EAUG   =  605.392                                                            
   DEXC   =     .000                                                            
   RMAX   =    2.264    core radius for proj-oper                               
   RAUG   =    1.300    factor for augmentation sphere                          
   RDEP   =    1.550    radius for radial grids                                 
   QCUT   =   -5.520; QGAM   =   11.041    optimization parameters              
                                                                                
   Description                                                                  
     l     E      TYP  RCUT    TYP  RCUT                                        
     0   .000     23  1.200                                                     
     0  -.700     23  1.200                                                     
     1   .000     23  1.520                                                     
     1   .600     23  1.520                                                     
     2   .000      7  1.500                                                     
  local pseudopotential read in
  atomic valenz-charges read in
  non local Contribution for L=           0  read in
    real space projection operators read in
  non local Contribution for L=           0  read in
    real space projection operators read in
  non local Contribution for L=           1  read in
    real space projection operators read in
  non local Contribution for L=           1  read in
    real space projection operators read in
    PAW grid and wavefunctions read in
 
   number of l-projection  operators is LMAX  =           4
   number of lm-projection operators is LMMAX =           8
 
 POTCAR:   PAW_PBE Sr_sv 07Sep2000                
   VRHFIN =Sr: 4s4p5s                                                           
   LEXCH  = PE                                                                  
   EATOM  =   842.4562 eV,   61.9188 Ry                                         
                                                                                
   TITEL  = PAW_PBE Sr_sv 07Sep2000                                             
   LULTRA =        F    use ultrasoft PP ?                                      
   IUNSCR =        1    unscreen: 0-lin 1-nonlin 2-no                           
   RPACOR =    2.200    partial core radius                                     
   POMASS =   87.620; ZVAL   =   10.000    mass and valenz                      
   RCORE  =    2.500    outmost cutoff radius                                   
   RWIGS  =    4.040; RWIGS  =    2.138    wigner-seitz radius (au A)           
   ENMAX  =  229.282; ENMIN  =  171.961 eV                                      
   RCLOC  =    2.201    cutoff for local pot                                    
   LCOR   =        T    correct aug charges                                     
   LPAW   =        T    paw PP                                                  
   EAUG   =  366.804                                                            
   DEXC   =     .000                                                            
   RMAX   =    3.045    core radius for proj-oper                               
   RAUG   =    1.300    factor for augmentation sphere                          
   RDEP   =    2.562    radius for radial grids                                 
   QCUT   =   -4.105; QGAM   =    8.210    optimization parameters              
                                                                                
   Description                                                                  
     l     E      TYP  RCUT    TYP  RCUT                                        
     0   .000     23  2.480                                                     
     0   .000     23  2.480                                                     
     1   .000     23  2.500                                                     
     1   .000     23  2.500                                                     
     2   .000     23  2.500                                                     
     2   .000     23  2.500                                                     
  local pseudopotential read in
  partial core-charges read in
  atomic valenz-charges read in
  non local Contribution for L=           0  read in
    real space projection operators read in
  non local Contribution for L=           0  read in
    real space projection operators read in
  non local Contribution for L=           1  read in
    real space projection operators read in
  non local Contribution for L=           1  read in
    real space projection operators read in
  non local Contribution for L=           2  read in
    real space projection operators read in
  non local Contribution for L=           2  read in
    real space projection operators read in
    PAW grid and wavefunctions read in
 
   number of l-projection  operators is LMAX  =           6
   number of lm-projection operators is LMMAX =          18
 
 POTCAR:   PAW_PBE Ti 08Apr2002                   
   VRHFIN =Ti: d3 s1                                                            
   LEXCH  = PE                                                                  
   EATOM  =    94.7929 eV,    6.9671 Ry                                         
                                                                                
   TITEL  = PAW_PBE Ti 08Apr2002                                                
   LULTRA =        F    use ultrasoft PP ?                                      
   IUNSCR =        1    unscreen: 0-lin 1-nonlin 2-no                           
   RPACOR =    2.200    partial core radius                                     
   POMASS =   47.880; ZVAL   =    4.000    mass and valenz                      
   RCORE  =    2.800    outmost cutoff radius                                   
   RWIGS  =    2.500; RWIGS  =    1.323    wigner-seitz radius (au A)           
   ENMAX  =  178.330; ENMIN  =  133.747 eV                                      
   RCLOC  =    2.215    cutoff for local pot                                    
   LCOR   =        T    correct aug charges                                     
   LPAW   =        T    paw PP                                                  
   EAUG   =  328.883                                                            
   DEXC   =    -.043                                                            
   RMAX   =    3.453    core radius for proj-oper                               
   RAUG   =    1.300    factor for augmentation sphere                          
   RDEP   =    2.885    radius for radial grids                                 
   QCUT   =   -3.620; QGAM   =    7.241    optimization parameters              
                                                                                
   Description                                                                  
     l     E      TYP  RCUT    TYP  RCUT                                        
     2   .000     23  2.800                                                     
     2   .000     23  2.800                                                     
     0   .000     23  2.800                                                     
     0  1.500     23  2.800                                                     
     1  -.400     23  2.800                                                     
     3   .000      7   .000                                                     
  local pseudopotential read in
  partial core-charges read in
  atomic valenz-charges read in
  non local Contribution for L=           2  read in
    real space projection operators read in
  non local Contribution for L=           2  read in
    real space projection operators read in
  non local Contribution for L=           0  read in
    real space projection operators read in
  non local Contribution for L=           0  read in
    real space projection operators read in
  non local Contribution for L=           1  read in
    real space projection operators read in
    PAW grid and wavefunctions read in
 
   number of l-projection  operators is LMAX  =           5
   number of lm-projection operators is LMMAX =          15
 
 Optimization of the real space projectors (new method)

 maximal supplied QI-value         = 24.76
 optimisation between [QCUT,QGAM] = [ 11.39, 22.77] = [ 36.31,145.25] Ry 
 Optimized for a Real-space Cutoff    1.00 Angstroem

   l    n(q)    QCUT    max X(q) W(low)/X(q) W(high)/X(q)  e(spline) 
   0      7    11.387     4.192    0.89E-04    0.26E-03    0.19E-07
   0      7    11.387     8.473    0.42E-03    0.14E-02    0.17E-06
   1      6    11.387     2.474    0.11E-03    0.26E-03    0.18E-07
   1      6    11.387     3.912    0.39E-03    0.87E-03    0.15E-06
 Optimization of the real space projectors (new method)

 maximal supplied QI-value         = 15.12
 optimisation between [QCUT,QGAM] = [ 11.34, 22.83] = [ 36.00,145.93] Ry 
 Optimized for a Real-space Cutoff    1.56 Angstroem

   l    n(q)    QCUT    max X(q) W(low)/X(q) W(high)/X(q)  e(spline) 
   0     11    11.338     6.584    0.15E-04    0.24E-05    0.13E-07
   0     11    11.338    11.383    0.41E-04    0.15E-04    0.15E-06
   1     10    11.338     3.802    0.90E-05    0.33E-06    0.26E-07
   1     10    11.338    39.081    0.19E-03    0.53E-04    0.42E-06
   2     10    11.338     4.950    0.16E-04    0.40E-04    0.77E-07
   2     10    11.338    88.754    0.21E-03    0.41E-03    0.42E-06
 Optimization of the real space projectors (new method)

 maximal supplied QI-value         = 13.42
 optimisation between [QCUT,QGAM] = [ 11.40, 22.81] = [ 36.42,145.68] Ry 
 Optimized for a Real-space Cutoff    1.56 Angstroem

   l    n(q)    QCUT    max X(q) W(low)/X(q) W(high)/X(q)  e(spline) 
   2     10    11.404     5.474    0.19E-04    0.47E-04    0.83E-07
   2     10    11.404    20.898    0.26E-03    0.65E-03    0.73E-06
   0     11    11.404    23.292    0.21E-04    0.14E-04    0.20E-07
   0     11    11.404    27.738    0.14E-03    0.16E-03    0.29E-06
   1     10    11.404     9.492    0.33E-04    0.56E-04    0.16E-06
 PAW_PBE O 08Apr2002                    :
 energy of atom  1       EATOM= -432.3788
 kinetic energy error for atom=    0.0224 (will be added to EATOM!!)
 PAW_PBE Sr_sv 07Sep2000                :
 energy of atom  2       EATOM= -842.4562
 kinetic energy error for atom=    0.0012 (will be added to EATOM!!)
 PAW_PBE Ti 08Apr2002                   :
 energy of atom  3       EATOM=  -94.7929
 kinetic energy error for atom=    0.0002 (will be added to EATOM!!)
 
 
 POSCAR:  O Sr Ti                                
  positions in direct lattice
  No initial velocities read in
 exchange correlation table for  LEXCH =        8
   RHO(1)=    0.500       N(1)  =     2000
   RHO(2)=  100.500       N(2)  =     4000
 


--------------------------------------------------------------------------------------------------------


 ion  position               nearest neighbor table
   1  0.500  0.500  0.232-  17 1.97  13 2.79  13 2.79  13 2.79  13 2.79
   2  0.500  0.000  0.309-  17 1.97  17 1.97  14 2.79  14 2.79  13 2.79  13 2.79
   3  0.000  0.500  0.309-  17 1.97  17 1.97  14 2.79  14 2.79  13 2.79  13 2.79
   4  0.500  0.500  0.385-  17 1.97  18 1.97  14 2.79  14 2.79  14 2.79  14 2.79
   5  0.500  0.000  0.462-  18 1.97  18 1.97  14 2.79  15 2.79  14 2.79  15 2.79
   6  0.000  0.500  0.462-  18 1.97  18 1.97  14 2.79  14 2.79  15 2.79  15 2.79
   7  0.500  0.500  0.538-  18 1.97  19 1.97  15 2.79  15 2.79  15 2.79  15 2.79
   8  0.500  0.000  0.615-  19 1.97  19 1.97  16 2.79  16 2.79  15 2.79  15 2.79
   9  0.000  0.500  0.615-  19 1.97  19 1.97  16 2.79  16 2.79  15 2.79  15 2.79
  10  0.500  0.500  0.691-  19 1.97  20 1.97  16 2.79  16 2.79  16 2.79  16 2.79
  11  0.500  0.000  0.768-  20 1.97  20 1.97  16 2.79  16 2.79
  12  0.000  0.500  0.768-  20 1.97  20 1.97  16 2.79  16 2.79
  13  0.000  0.000  0.232-   1 2.79   1 2.79   1 2.79   1 2.79   3 2.79   3 2.79   2 2.79   2 2.79
                            17 3.42  17 3.42  17 3.42  17 3.42  14 3.95
  14  0.000  0.000  0.385-   2 2.79   3 2.79   3 2.79   2 2.79   4 2.79   4 2.79   4 2.79   4 2.79
                             5 2.79   6 2.79   5 2.79   6 2.79  17 3.42  17 3.42  17 3.42  17 3.42
  15  0.000  0.000  0.538-   7 2.79   7 2.79   7 2.79   7 2.79   9 2.79   6 2.79   6 2.79   9 2.79
                             5 2.79   5 2.79   8 2.79   8 2.79  19 3.42  18 3.42  18 3.42  18 3.42
  16  0.000  0.000  0.691-   8 2.79   9 2.79   9 2.79   8 2.79  10 2.79  10 2.79  10 2.79  10 2.79
                            11 2.79  12 2.79  11 2.79  12 2.79  19 3.42  19 3.42  19 3.42  19 3.42
  17  0.500  0.500  0.309-   4 1.97   3 1.97   2 1.97   2 1.97   3 1.97   1 1.97  14 3.42  14 3.42
                            14 3.42  14 3.42  13 3.42  13 3.42  13 3.42  13 3.42
  18  0.500  0.500  0.462-   5 1.97   6 1.97   5 1.97   6 1.97   4 1.97   7 1.97  14 3.42  14 3.42
                            15 3.42  15 3.42  14 3.42  15 3.42  14 3.42  15 3.42
  19  0.500  0.500  0.615-  10 1.97   9 1.97   8 1.97   8 1.97   9 1.97   7 1.97  16 3.42  16 3.42
                            16 3.42  16 3.42  15 3.42  15 3.42  15 3.42  15 3.42
  20  0.500  0.500  0.768-  11 1.97  12 1.97  11 1.97  12 1.97  10 1.97  16 3.42  16 3.42  16 3.42
                            16 3.42
 
  LATTYP: Found a simple tetragonal cell.
 ALAT       =     3.9468463416
 C/A-ratio  =     6.5404021240
  
  Lattice vectors:
  
 A1 = (   3.9468463416,   0.0000000000,   0.0000000000)
 A2 = (   0.0000000000,   3.9468463416,   0.0000000000)
 A3 = (   0.0000000000,   0.0000000000,  25.8139621957)


Analysis of symmetry for initial positions (statically):
=====================================================================
 Subroutine PRICEL returns:
 Original cell was already a primitive cell.
 

 Routine SETGRP: Setting up the symmetry group for a 
 simple tetragonal supercell.


 Subroutine GETGRP returns: Found  8 space group operations
 (whereof  8 operations were pure point group operations)
 out of a pool of 16 trial point group operations.


The static configuration has the point symmetry C_4v.


Analysis of symmetry for dynamics (positions and initial velocities):
=====================================================================
 Subroutine PRICEL returns:
 Original cell was already a primitive cell.
 

 Routine SETGRP: Setting up the symmetry group for a 
 simple tetragonal supercell.


 Subroutine GETGRP returns: Found  8 space group operations
 (whereof  8 operations were pure point group operations)
 out of a pool of 16 trial point group operations.


The dynamic configuration has the point symmetry C_4v.


 Subroutine INISYM returns: Found  8 space group operations
 (whereof  8 operations are pure point group operations),
 and found     1 'primitive' translations

 
 
 KPOINTS: k-density: 4.0                          

Automatic generation of k-mesh.
Space group operators:
 irot       det(A)        alpha          n_x          n_y          n_z        tau_x        tau_y        tau_z
    1     1.000000     0.000001     1.000000     0.000000     0.000000     0.000000     0.000000     0.000000
    2     1.000000    90.000000     0.000000     0.000000    -1.000000     0.000000     0.000000     0.000000
    3     1.000000   180.000000     0.000000     0.000000     1.000000     0.000000     0.000000     0.000000
    4     1.000000    90.000000     0.000000     0.000000     1.000000     0.000000     0.000000     0.000000
    5    -1.000000   180.000000     0.000000     1.000000     0.000000     0.000000     0.000000     0.000000
    6    -1.000000   180.000000     0.707107     0.707107     0.000000     0.000000     0.000000     0.000000
    7    -1.000000   180.000000     1.000000     0.000000     0.000000     0.000000     0.000000     0.000000
    8    -1.000000   180.000000     0.707107    -0.707107     0.000000     0.000000     0.000000     0.000000
 
 Subroutine IBZKPT returns following result:
 ===========================================
 
 Found     10 irreducible k-points:
 
 Following reciprocal coordinates:
            Coordinates               Weight
  0.000000  0.000000  0.000000      1.000000
  0.142857  0.000000  0.000000      4.000000
  0.285714  0.000000  0.000000      4.000000
  0.428571  0.000000  0.000000      4.000000
  0.142857  0.142857  0.000000      4.000000
  0.285714  0.142857  0.000000      8.000000
  0.428571  0.142857  0.000000      8.000000
  0.285714  0.285714  0.000000      4.000000
  0.428571  0.285714  0.000000      8.000000
  0.428571  0.428571  0.000000      4.000000
 
 Following cartesian coordinates:
            Coordinates               Weight
  0.000000  0.000000  0.000000      1.000000
  0.036195  0.000000  0.000000      4.000000
  0.072391  0.000000  0.000000      4.000000
  0.108586  0.000000  0.000000      4.000000
  0.036195  0.036195  0.000000      4.000000
  0.072391  0.036195  0.000000      8.000000
  0.108586  0.036195  0.000000      8.000000
  0.072391  0.072391  0.000000      4.000000
  0.108586  0.072391  0.000000      8.000000
  0.108586  0.108586  0.000000      4.000000
 


--------------------------------------------------------------------------------------------------------




 Dimension of arrays:
   k-points           NKPTS =     10   k-points in BZ     NKDIM =     10   number of bands    NBANDS=     76
   number of dos      NEDOS =    301   number of ions     NIONS =     20
   non local maximal  LDIM  =      6   non local SUM 2l+1 LMDIM =     18
   total plane-waves  NPLWV =  82944
   max r-space proj   IRMAX =   3356   max aug-charges    IRDMAX=  14444
   dimension x,y,z NGX =    24 NGY =   24 NGZ =  144
   dimension x,y,z NGXF=    48 NGYF=   48 NGZF=  288
   support grid    NGXF=    48 NGYF=   48 NGZF=  288
   ions per type =              12   4   4
   NGX,Y,Z   is equivalent  to a cutoff of  10.11, 10.11,  9.27 a.u.
   NGXF,Y,Z  is equivalent  to a cutoff of  20.22, 20.22, 18.55 a.u.

 SYSTEM =  unknown system                          
 POSCAR =   O Sr Ti                                

 Startparameter for this run:
   NWRITE =      2    write-flag & timer
   PREC   = normal    normal or accurate (medium, high low for compatibility)
   ISTART =      0    job   : 0-new  1-cont  2-samecut
   ICHARG =      2    charge: 1-file 2-atom 10-const
   ISPIN  =      1    spin polarized calculation?
   LNONCOLLINEAR =      F non collinear calculations
   LSORBIT =      F    spin-orbit coupling
   INIWAV =      1    electr: 0-lowe 1-rand  2-diag
   LASPH  =      F    aspherical Exc in radial PAW
   METAGGA=      F    non-selfconsistent MetaGGA calc.

 Electronic Relaxation 1
   ENCUT  =  500.0 eV  36.75 Ry    6.06 a.u.   7.20  7.20 47.06*2*pi/ulx,y,z
   ENINI  =  500.0     initial cutoff
   ENAUG  =  605.4 eV  augmentation charge cutoff
   NELM   =     60;   NELMIN=  4; NELMDL=  0     # of ELM steps 
   EDIFF  = 0.1E-04   stopping-criterion for ELM
   LREAL  =      T    real-space projection
   NLSPLINE    = F    spline interpolate recip. space projectors
   LCOMPAT=      F    compatible to vasp.4.4
   GGA_COMPAT  = T    GGA compatible to vasp.4.4-vasp.4.6
   LMAXPAW     = -100 max onsite density
   LMAXMIX     =    2 max onsite mixed and CHGCAR
   VOSKOWN=      0    Vosko Wilk Nusair interpolation
   ROPT   =   -0.00050  -0.00050  -0.00050
 Ionic relaxation
   EDIFFG = -.5E-01   stopping-criterion for IOM
   NSW    =     50    number of steps for IOM
   NBLOCK =      1;   KBLOCK =     50    inner block; outer block 
   IBRION =      1    ionic relax: 0-MD 1-quasi-New 2-CG
   NFREE  =      0    steps in history (QN), initial steepest desc. (CG)
   ISIF   =      2    stress and relaxation
   IWAVPR =     11    prediction:  0-non 1-charg 2-wave 3-comb
   ISYM   =      2    0-nonsym 1-usesym 2-fastsym
   LCORR  =      T    Harris-Foulkes like correction to forces

   POTIM  = 0.5000    time-step for ionic-motion
   TEIN   =    0.0    initial temperature
   TEBEG  =    0.0;   TEEND  =   0.0 temperature during run
   SMASS  =  -3.00    Nose mass-parameter (am)
   estimated Nose-frequenzy (Omega)   =  0.10E-29 period in steps =****** mass=  -0.356E-27a.u.
   SCALEE = 1.0000    scale energy and forces
   NPACO  =    256;   APACO  = 16.0  distance and # of slots for P.C.
   PSTRESS=    0.0 pullay stress

  Mass of Ions in am
   POMASS =  16.00 87.62 47.88
  Ionic Valenz
   ZVAL   =   6.00 10.00  4.00
  Atomic Wigner-Seitz radii
   RWIGS  =  -1.00 -1.00 -1.00
  virtual crystal weights 
   VCA    =   1.00  1.00  1.00
   NELECT =     128.0000    total number of electrons
   NUPDOWN=      -1.0000    fix difference up-down

 DOS related values:
   EMIN   =  10.00;   EMAX   =-10.00  energy-range for DOS
   EFERMI =   0.00
   ISMEAR =     0;   SIGMA  =   0.20  broadening in eV -4-tet -1-fermi 0-gaus

 Electronic relaxation 2 (details)
   IALGO  =     68    algorithm
   LDIAG  =      T    sub-space diagonalisation (order eigenvalues)
   LSUBROT=      F    optimize rotation matrix (better conditioning)
   TURBO    =      0    0=normal 1=particle mesh
   IRESTART =      0    0=no restart 2=restart with 2 vectors
   NREBOOT  =      0    no. of reboots
   NMIN     =      0    reboot dimension
   EREF     =   0.00    reference energy to select bands
   IMIX   =      4    mixing-type and parameters
     AMIX     =   0.40;   BMIX     =  1.00
     AMIX_MAG =   1.60;   BMIX_MAG =  1.00
     AMIN     =   0.10
     WC   =   100.;   INIMIX=   1;  MIXPRE=   1;  MAXMIX=  80

 Intra band minimization:
   WEIMIN = 0.0010     energy-eigenvalue tresh-hold
   EBREAK =  0.33E-07  absolut break condition
   DEPER  =   0.30     relativ break condition  

   TIME   =   0.40     timestep for ELM

  volume/ion in A,a.u.               =      20.11       135.68
  Fermi-wavevector in a.u.,A,eV,Ry     =   1.117789  2.112315 16.999826  1.249452
  Thomas-Fermi vector in A             =   2.254415
 
 Write flags
   LWAVE        =      F    write WAVECAR
   LDOWNSAMPLE  =      F    k-point downsampling of WAVECAR
   LCHARG       =      T    write CHGCAR
   LVTOT        =      F    write LOCPOT, total local potential
   LVHAR        =      F    write LOCPOT, Hartree potential only
   LELF         =      F    write electronic localiz. function (ELF)
   LORBIT       =      0    0 simple, 1 ext, 2 COOP (PROOUT), +10 PAW based schemes


 Dipole corrections
   LMONO  =      F    monopole corrections only (constant potential shift)
   LDIPOL =      F    correct potential (dipole corrections)
   IDIPOL =      0    1-x, 2-y, 3-z, 4-all directions 
   EPSILON=  1.0000000 bulk dielectric constant

 Exchange correlation treatment:
   GGA     =    --    GGA type
   LEXCH   =     8    internal setting for exchange type
   VOSKOWN=      0    Vosko Wilk Nusair interpolation
   LHFCALC =     F    Hartree Fock is set to
   LHFONE  =     F    Hartree Fock one center treatment
   AEXX    =    0.0000 exact exchange contribution

 Linear response parameters
   LEPSILON=     F    determine dielectric tensor
   LRPA    =     F    only Hartree local field effects (RPA)
   LNABLA  =     F    use nabla operator in PAW spheres
   LVEL    =     F    velocity operator in full k-point grid
   LINTERFAST=   F  fast interpolation
   KINTER  =     0    interpolate to denser k-point grid
   CSHIFT  =0.1000    complex shift for real part using Kramers Kronig
   OMEGAMAX=  -1.0    maximum frequency
   DEG_THRESHOLD= 0.2000000E-02 threshold for treating states as degnerate
   RTIME   =   -0.100 relaxation time in fs
  (WPLASMAI=    0.000 imaginary part of plasma frequency in eV, 0.658/RTIME)
   DFIELD  = 0.0000000 0.0000000 0.0000000 field for delta impulse in time
 
 Orbital magnetization related:
   ORBITALMAG=     F  switch on orbital magnetization
   LCHIMAG   =     F  perturbation theory with respect to B field
   DQ        =  0.001000  dq finite difference perturbation B field
   LLRAUG    =     F  two centre corrections for induced B field



--------------------------------------------------------------------------------------------------------


 quasi-Newton-method for relaxation of ions
 charge density and potential will be updated during run
 non-spin polarized calculation
 RMM-DIIS sequential band-by-band and
  variant of blocked Davidson during initial phase
 perform sub-space diagonalisation
    before iterative eigenvector-optimisation
 modified Broyden-mixing scheme, WC =      100.0
 initial mixing is a Kerker type mixing with AMIX =  0.4000 and BMIX =      1.0000
 Hartree-type preconditioning will be used
 using additional bands           12
 real space projection scheme for non local part
 use partial core corrections
 calculate Harris-corrections to forces 
   (improved forces if not selfconsistent)
 use gradient corrections 
 use of overlap-Matrix (Vanderbilt PP)
 Gauss-broadening in eV      SIGMA  =   0.20


--------------------------------------------------------------------------------------------------------


  energy-cutoff  :      500.00
  volume of cell :      402.12
      direct lattice vectors                 reciprocal lattice vectors
     3.946846342  0.000000000  0.000000000     0.253366844  0.000000000  0.000000000
     0.000000000  3.946846342  0.000000000     0.000000000  0.253366844  0.000000000
     0.000000000  0.000000000 25.813962196     0.000000000  0.000000000  0.038738726

  length of vectors
     3.946846342  3.946846342 25.813962196     0.253366844  0.253366844  0.038738726


 
 k-points in units of 2pi/SCALE and weight: k-density: 4.0                          
   0.00000000  0.00000000  0.00000000       0.020
   0.03619526  0.00000000  0.00000000       0.082
   0.07239053  0.00000000  0.00000000       0.082
   0.10858579  0.00000000  0.00000000       0.082
   0.03619526  0.03619526  0.00000000       0.082
   0.07239053  0.03619526  0.00000000       0.163
   0.10858579  0.03619526  0.00000000       0.163
   0.07239053  0.07239053  0.00000000       0.082
   0.10858579  0.07239053  0.00000000       0.163
   0.10858579  0.10858579  0.00000000       0.082
 
 k-points in reciprocal lattice and weights: k-density: 4.0                          
   0.00000000  0.00000000  0.00000000       0.020
   0.14285714  0.00000000  0.00000000       0.082
   0.28571429  0.00000000  0.00000000       0.082
   0.42857143  0.00000000  0.00000000       0.082
   0.14285714  0.14285714  0.00000000       0.082
   0.28571429  0.14285714  0.00000000       0.163
   0.42857143  0.14285714  0.00000000       0.163
   0.28571429  0.28571429  0.00000000       0.082
   0.42857143  0.28571429  0.00000000       0.163
   0.42857143  0.42857143  0.00000000       0.082
 
 position of ions in fractional coordinates (direct lattice) 
   0.50000000  0.50000000  0.23243235
   0.50000000  0.00000000  0.30888025
   0.00000000  0.50000000  0.30888025
   0.50000000  0.50000000  0.38532815
   0.50000000  0.00000000  0.46177605
   0.00000000  0.50000000  0.46177605
   0.50000000  0.50000000  0.53822395
   0.50000000  0.00000000  0.61467185
   0.00000000  0.50000000  0.61467185
   0.50000000  0.50000000  0.69111975
   0.50000000  0.00000000  0.76756765
   0.00000000  0.50000000  0.76756765
   0.00000000  0.00000000  0.23243235
   0.00000000  0.00000000  0.38532815
   0.00000000  0.00000000  0.53822395
   0.00000000  0.00000000  0.69111975
   0.50000000  0.50000000  0.30888025
   0.50000000  0.50000000  0.46177605
   0.50000000  0.50000000  0.61467185
   0.50000000  0.50000000  0.76756765
 
 position of ions in cartesian coordinates  (Angst):
   1.97342317  1.97342317  6.00000000
   1.97342317  0.00000000  7.97342317
   0.00000000  1.97342317  7.97342317
   1.97342317  1.97342317  9.94684634
   1.97342317  0.00000000 11.92026951
   0.00000000  1.97342317 11.92026951
   1.97342317  1.97342317 13.89369268
   1.97342317  0.00000000 15.86711585
   0.00000000  1.97342317 15.86711585
   1.97342317  1.97342317 17.84053902
   1.97342317  0.00000000 19.81396220
   0.00000000  1.97342317 19.81396220
   0.00000000  0.00000000  6.00000000
   0.00000000  0.00000000  9.94684634
   0.00000000  0.00000000 13.89369268
   0.00000000  0.00000000 17.84053902
   1.97342317  1.97342317  7.97342317
   1.97342317  1.97342317 11.92026951
   1.97342317  1.97342317 15.86711585
   1.97342317  1.97342317 19.81396220
 


--------------------------------------------------------------------------------------------------------


 k-point  1 :   0.0000 0.0000 0.0000  plane waves:   10159
 k-point  2 :   0.1429 0.0000 0.0000  plane waves:   10189
 k-point  3 :   0.2857 0.0000 0.0000  plane waves:   10192
 k-point  4 :   0.4286 0.0000 0.0000  plane waves:   10226
 k-point  5 :   0.1429 0.1429 0.0000  plane waves:   10184
 k-point  6 :   0.2857 0.1429 0.0000  plane waves:   10197
 k-point  7 :   0.4286 0.1429 0.0000  plane waves:   10221
 k-point  8 :   0.2857 0.2857 0.0000  plane waves:   10204
 k-point  9 :   0.4286 0.2857 0.0000  plane waves:   10202
 k-point 10 :   0.4286 0.4286 0.0000  plane waves:   10202

 maximum and minimum number of plane-waves per node :      2581     2518

 maximum number of plane-waves:     10226
 maximum index in each direction: 
   IXMAX=    7   IYMAX=    7   IZMAX=   47
   IXMIN=   -7   IYMIN=   -7   IZMIN=  -47


 real space projection operators:
  total allocation   :       3950.81 KBytes
  max/ min on nodes  :       1019.81        965.44


 parallel 3D FFT for wavefunctions:
    minimum data exchange during FFTs selected (reduces bandwidth)
 parallel 3D FFT for charge:
    minimum data exchange during FFTs selected (reduces bandwidth)


 total amount of memory used by VASP MPI-rank0    46041. kBytes
=======================================================================

   base      :      30000. kBytes
   nonlr-proj:       2388. kBytes
   fftplans  :       2040. kBytes
   grid      :       3499. kBytes
   one-center:         77. kBytes
   wavefun   :       8037. kBytes
 
     INWAV:  cpu time    0.0000: real time    0.0000
 Broyden mixing: mesh for mixing (old mesh)
   NGX = 15   NGY = 15   NGZ = 95
  (NGX  = 48   NGY  = 48   NGZ  =288)
  gives a total of  21375 points

 initial charge density was supplied:
 charge density of overlapping atoms calculated
 number of electron     128.0000000 magnetization 
 keeping initial charge density in first step


--------------------------------------------------------------------------------------------------------


 Maximum index for non-local projection operator          826
 Maximum index for augmentation-charges          984 (set IRDMAX)


--------------------------------------------------------------------------------------------------------


 First call to EWALD:  gamma=   0.240
 Maximum number of real-space cells 5x 5x 1
 Maximum number of reciprocal cells 2x 2x 8

    FEWALD:  cpu time    0.0010: real time    0.0017


--------------------------------------- Iteration      1(   1)  ---------------------------------------


    POTLOK:  cpu time    0.0290: real time    0.0838
    SETDIJ:  cpu time    0.0060: real time    0.0059
     EDDAV:  cpu time    1.3128: real time    1.3161
       DOS:  cpu time    0.0010: real time    0.0012
    --------------------------------------------
      LOOP:  cpu time    1.3488: real time    1.4070

 eigenvalue-minimisations  :  1528
 total energy-change (2. order) : 0.1598707E+04  (-0.5563957E+04)
 number of electron     128.0000000 magnetization 
 augmentation part      128.0000000 magnetization 

 Free energy of the ion-electron system (eV)
  ---------------------------------------------------
  alpha Z        PSCENC =       439.36635759
  Ewald energy   TEWEN  =     24009.29738432
  -Hartree energ DENC   =    -32447.97142679
  -exchange      EXHF   =         0.00000000
  -V(xc)+E(xc)   XCENC  =       325.52666266
  PAW double counting   =      5334.45189010    -5139.13784255
  entropy T*S    EENTRO =        -0.14236258
  eigenvalues    EBANDS =       140.04785874
  atomic energy  EATOM  =      8937.26825017
  Solvation  Ediel_sol  =         0.00000000
  ---------------------------------------------------
  free energy    TOTEN  =      1598.70677167 eV

  energy without entropy =     1598.84913425  energy(sigma->0) =     1598.77795296


--------------------------------------------------------------------------------------------------------




--------------------------------------- Iteration      1(   2)  ---------------------------------------


     EDDAV:  cpu time    1.4768: real time    1.4861
       DOS:  cpu time    0.0010: real time    0.0008
    --------------------------------------------
      LOOP:  cpu time    1.4778: real time    1.4868

 eigenvalue-minimisations  :  1784
 total energy-change (2. order) :-0.1417452E+04  (-0.1358470E+04)
 number of electron     128.0000000 magnetization 
 augmentation part      128.0000000 magnetization 

 Free energy of the ion-electron system (eV)
  ---------------------------------------------------
  alpha Z        PSCENC =       439.36635759
  Ewald energy   TEWEN  =     24009.29738432
  -Hartree energ DENC   =    -32447.97142679
  -exchange      EXHF   =         0.00000000
  -V(xc)+E(xc)   XCENC  =       325.52666266
  PAW double counting   =      5334.45189010    -5139.13784255
  entropy T*S    EENTRO =        -0.11757925
  eigenvalues    EBANDS =     -1277.42933661
  atomic energy  EATOM  =      8937.26825017
  Solvation  Ediel_sol  =         0.00000000
  ---------------------------------------------------
  free energy    TOTEN  =       181.25435964 eV

  energy without entropy =      181.37193889  energy(sigma->0) =      181.31314927


--------------------------------------------------------------------------------------------------------




--------------------------------------- Iteration      1(   3)  ---------------------------------------


     EDDAV:  cpu time    1.7057: real time    1.7185
       DOS:  cpu time    0.0010: real time    0.0005
    --------------------------------------------
      LOOP:  cpu time    1.7067: real time    1.7190

 eigenvalue-minimisations  :  2092
 total energy-change (2. order) :-0.3560869E+03  (-0.3451034E+03)
 number of electron     128.0000000 magnetization 
 augmentation part      128.0000000 magnetization 

 Free energy of the ion-electron system (eV)
  ---------------------------------------------------
  alpha Z        PSCENC =       439.36635759
  Ewald energy   TEWEN  =     24009.29738432
  -Hartree energ DENC   =    -32447.97142679
  -exchange      EXHF   =         0.00000000
  -V(xc)+E(xc)   XCENC  =       325.52666266
  PAW double counting   =      5334.45189010    -5139.13784255
  entropy T*S    EENTRO =        -0.00000000
  eigenvalues    EBANDS =     -1633.63380659
  atomic energy  EATOM  =      8937.26825017
  Solvation  Ediel_sol  =         0.00000000
  ---------------------------------------------------
  free energy    TOTEN  =      -174.83253109 eV

  energy without entropy =     -174.83253109  energy(sigma->0) =     -174.83253109


--------------------------------------------------------------------------------------------------------




--------------------------------------- Iteration      1(   4)  ---------------------------------------


     EDDAV:  cpu time    1.5758: real time    1.5828
       DOS:  cpu time    0.0010: real time    0.0005
    --------------------------------------------
      LOOP:  cpu time    1.5768: real time    1.5833

 eigenvalue-minimisations  :  1936
 total energy-change (2. order) :-0.2587700E+02  (-0.2576989E+02)
 number of electron     128.0000000 magnetization 
 augmentation part      128.0000000 magnetization 

 Free energy of the ion-electron system (eV)
  ---------------------------------------------------
  alpha Z        PSCENC =       439.36635759
  Ewald energy   TEWEN  =     24009.29738432
  -Hartree energ DENC   =    -32447.97142679
  -exchange      EXHF   =         0.00000000
  -V(xc)+E(xc)   XCENC  =       325.52666266
  PAW double counting   =      5334.45189010    -5139.13784255
  entropy T*S    EENTRO =        -0.00000000
  eigenvalues    EBANDS =     -1659.51080617
  atomic energy  EATOM  =      8937.26825017
  Solvation  Ediel_sol  =         0.00000000
  ---------------------------------------------------
  free energy    TOTEN  =      -200.70953066 eV

  energy without entropy =     -200.70953066  energy(sigma->0) =     -200.70953066


--------------------------------------------------------------------------------------------------------




--------------------------------------- Iteration      1(   5)  ---------------------------------------


     EDDAV:  cpu time    2.0147: real time    2.0202
       DOS:  cpu time    0.0000: real time    0.0005
    CHARGE:  cpu time    0.0580: real time    0.0572
    MIXING:  cpu time    0.0010: real time    0.0014
    --------------------------------------------
      LOOP:  cpu time    2.0737: real time    2.0793

 eigenvalue-minimisations  :  2600
 total energy-change (2. order) :-0.1581898E+01  (-0.1580976E+01)
 number of electron     127.9999719 magnetization 
 augmentation part       13.5988309 magnetization 

 Broyden mixing:
  rms(total) = 0.37071E+01    rms(broyden)= 0.37065E+01
  rms(prec ) = 0.39586E+01
  weight for this iteration     100.00

 Free energy of the ion-electron system (eV)
  ---------------------------------------------------
  alpha Z        PSCENC =       439.36635759
  Ewald energy   TEWEN  =     24009.29738432
  -Hartree energ DENC   =    -32447.97142679
  -exchange      EXHF   =         0.00000000
  -V(xc)+E(xc)   XCENC  =       325.52666266
  PAW double counting   =      5334.45189010    -5139.13784255
  entropy T*S    EENTRO =        -0.00000000
  eigenvalues    EBANDS =     -1661.09270443
  atomic energy  EATOM  =      8937.26825017
  Solvation  Ediel_sol  =         0.00000000
  ---------------------------------------------------
  free energy    TOTEN  =      -202.29142892 eV

  energy without entropy =     -202.29142892  energy(sigma->0) =     -202.29142892


--------------------------------------------------------------------------------------------------------




--------------------------------------- Iteration      1(   6)  ---------------------------------------


    POTLOK:  cpu time    0.0260: real time    0.0327
    SETDIJ:  cpu time    0.0040: real time    0.0045
    EDDIAG:  cpu time    0.2030: real time    0.2026
  RMM-DIIS:  cpu time    0.6899: real time    0.6898
    ORTHCH:  cpu time    0.0370: real time    0.0379
       DOS:  cpu time    0.0010: real time    0.0008
    CHARGE:  cpu time    0.0610: real time    0.0606
    MIXING:  cpu time    0.0010: real time    0.0011
    --------------------------------------------
      LOOP:  cpu time    1.0228: real time    1.0301

 eigenvalue-minimisations  :  1579
 total energy-change (2. order) : 0.4045952E+02  (-0.2958017E+02)
 number of electron     127.9999814 magnetization 
 augmentation part       14.3380486 magnetization 

 Broyden mixing:
  rms(total) = 0.14886E+01    rms(broyden)= 0.14874E+01
  rms(prec ) = 0.15726E+01
  weight for this iteration     100.00

 eigenvalues of (default mixing * dielectric matrix)
  average eigenvalue GAMMA=   0.7467
  0.7467

 Free energy of the ion-electron system (eV)
  ---------------------------------------------------
  alpha Z        PSCENC =       439.36635759
  Ewald energy   TEWEN  =     24009.29738432
  -Hartree energ DENC   =    -32730.26846142
  -exchange      EXHF   =         0.00000000
  -V(xc)+E(xc)   XCENC  =       345.41091648
  PAW double counting   =      5936.86381910    -5754.42168295
  entropy T*S    EENTRO =        -0.05519564
  eigenvalues    EBANDS =     -1345.29329533
  atomic energy  EATOM  =      8937.26825017
  Solvation  Ediel_sol  =         0.00000000
  ---------------------------------------------------
  free energy    TOTEN  =      -161.83190768 eV

  energy without entropy =     -161.77671204  energy(sigma->0) =     -161.80430986


--------------------------------------------------------------------------------------------------------




--------------------------------------- Iteration      1(   7)  ---------------------------------------


    POTLOK:  cpu time    0.0250: real time    0.0312
    SETDIJ:  cpu time    0.0050: real time    0.0045
    EDDIAG:  cpu time    0.2020: real time    0.2017
  RMM-DIIS:  cpu time    0.7119: real time    0.7120
    ORTHCH:  cpu time    0.0380: real time    0.0380
       DOS:  cpu time    0.0010: real time    0.0006
    CHARGE:  cpu time    0.0580: real time    0.0588
    MIXING:  cpu time    0.0010: real time    0.0009
    --------------------------------------------
      LOOP:  cpu time    1.0418: real time    1.0477

 eigenvalue-minimisations  :  1620
 total energy-change (2. order) : 0.4017418E+01  (-0.1591434E+01)
 number of electron     127.9999796 magnetization 
 augmentation part       13.4395217 magnetization 

 Broyden mixing:
  rms(total) = 0.73362E+00    rms(broyden)= 0.73352E+00
  rms(prec ) = 0.76653E+00
  weight for this iteration     100.00

 eigenvalues of (default mixing * dielectric matrix)
  average eigenvalue GAMMA=   0.8834
  0.8834  0.8834

 Free energy of the ion-electron system (eV)
  ---------------------------------------------------
  alpha Z        PSCENC =       439.36635759
  Ewald energy   TEWEN  =     24009.29738432
  -Hartree energ DENC   =    -32737.36074122
  -exchange      EXHF   =         0.00000000
  -V(xc)+E(xc)   XCENC  =       341.23195691
  PAW double counting   =      5938.69889347    -5761.00483922
  entropy T*S    EENTRO =        -0.00000001
  eigenvalues    EBANDS =     -1325.31175152
  atomic energy  EATOM  =      8937.26825017
  Solvation  Ediel_sol  =         0.00000000
  ---------------------------------------------------
  free energy    TOTEN  =      -157.81448951 eV

  energy without entropy =     -157.81448950  energy(sigma->0) =     -157.81448950


--------------------------------------------------------------------------------------------------------




--------------------------------------- Iteration      1(   8)  ---------------------------------------


    POTLOK:  cpu time    0.0270: real time    0.0408
    SETDIJ:  cpu time    0.0050: real time    0.0045
    EDDIAG:  cpu time    0.2010: real time    0.2018
  RMM-DIIS:  cpu time    0.8179: real time    0.8173
    ORTHCH:  cpu time    0.0370: real time    0.0379
       DOS:  cpu time    0.0020: real time    0.0007
    CHARGE:  cpu time    0.0580: real time    0.0588
    MIXING:  cpu time    0.0010: real time    0.0010
    --------------------------------------------
      LOOP:  cpu time    1.1488: real time    1.1629

 eigenvalue-minimisations  :  1849
 total energy-change (2. order) : 0.7708533E+00  (-0.2857719E+00)
 number of electron     127.9999797 magnetization 
 augmentation part       13.6609647 magnetization 

 Broyden mixing:
  rms(total) = 0.39899E+00    rms(broyden)= 0.39896E+00
  rms(prec ) = 0.41891E+00
  weight for this iteration     100.00

 eigenvalues of (default mixing * dielectric matrix)
  average eigenvalue GAMMA=   1.2410
  2.0937  0.9560  0.6733

 Free energy of the ion-electron system (eV)
  ---------------------------------------------------
  alpha Z        PSCENC =       439.36635759
  Ewald energy   TEWEN  =     24009.29738432
  -Hartree energ DENC   =    -32749.43551378
  -exchange      EXHF   =         0.00000000
  -V(xc)+E(xc)   XCENC  =       341.23027121
  PAW double counting   =      6007.96866098    -5833.47546057
  entropy T*S    EENTRO =        -0.00000303
  eigenvalues    EBANDS =     -1309.26358306
  atomic energy  EATOM  =      8937.26825017
  Solvation  Ediel_sol  =         0.00000000
  ---------------------------------------------------
  free energy    TOTEN  =      -157.04363617 eV

  energy without entropy =     -157.04363313  energy(sigma->0) =     -157.04363465


--------------------------------------------------------------------------------------------------------




--------------------------------------- Iteration      1(   9)  ---------------------------------------


    POTLOK:  cpu time    0.0270: real time    0.0380
    SETDIJ:  cpu time    0.0040: real time    0.0045
    EDDIAG:  cpu time    0.2010: real time    0.2022
  RMM-DIIS:  cpu time    0.7849: real time    0.7831
    ORTHCH:  cpu time    0.0370: real time    0.0379
       DOS:  cpu time    0.0010: real time    0.0007
    CHARGE:  cpu time    0.0590: real time    0.0591
    MIXING:  cpu time    0.0010: real time    0.0018
    --------------------------------------------
      LOOP:  cpu time    1.1148: real time    1.1273

 eigenvalue-minimisations  :  1758
 total energy-change (2. order) : 0.2887152E+00  (-0.1669921E+00)
 number of electron     127.9999794 magnetization 
 augmentation part       13.7493600 magnetization 

 Broyden mixing:
  rms(total) = 0.10777E+00    rms(broyden)= 0.10769E+00
  rms(prec ) = 0.13005E+00
  weight for this iteration     100.00

 eigenvalues of (default mixing * dielectric matrix)
  average eigenvalue GAMMA=   1.1751
  2.2752  0.8510  0.8510  0.7231

 Free energy of the ion-electron system (eV)
  ---------------------------------------------------
  alpha Z        PSCENC =       439.36635759
  Ewald energy   TEWEN  =     24009.29738432
  -Hartree energ DENC   =    -32767.73463182
  -exchange      EXHF   =         0.00000000
  -V(xc)+E(xc)   XCENC  =       340.82559572
  PAW double counting   =      6106.09840423    -5935.79281089
  entropy T*S    EENTRO =        -0.00009687
  eigenvalues    EBANDS =     -1286.08337346
  atomic energy  EATOM  =      8937.26825017
  Solvation  Ediel_sol  =         0.00000000
  ---------------------------------------------------
  free energy    TOTEN  =      -156.75492101 eV

  energy without entropy =     -156.75482414  energy(sigma->0) =     -156.75487258


--------------------------------------------------------------------------------------------------------




--------------------------------------- Iteration      1(  10)  ---------------------------------------


    POTLOK:  cpu time    0.0270: real time    0.0334
    SETDIJ:  cpu time    0.0050: real time    0.0046
    EDDIAG:  cpu time    0.2010: real time    0.2018
  RMM-DIIS:  cpu time    0.9259: real time    0.9250
    ORTHCH:  cpu time    0.0380: real time    0.0379
       DOS:  cpu time    0.0000: real time    0.0007
    CHARGE:  cpu time    0.0590: real time    0.0591
    MIXING:  cpu time    0.0010: real time    0.0011
    --------------------------------------------
      LOOP:  cpu time    1.2578: real time    1.2635

 eigenvalue-minimisations  :  2093
 total energy-change (2. order) : 0.5382774E-01  (-0.2873962E-01)
 number of electron     127.9999794 magnetization 
 augmentation part       13.7223269 magnetization 

 Broyden mixing:
  rms(total) = 0.79212E-01    rms(broyden)= 0.79199E-01
  rms(prec ) = 0.93472E-01
  weight for this iteration     100.00

 eigenvalues of (default mixing * dielectric matrix)
  average eigenvalue GAMMA=   1.1702
  2.3259  1.0989  1.0989  0.7199  0.6076

 Free energy of the ion-electron system (eV)
  ---------------------------------------------------
  alpha Z        PSCENC =       439.36635759
  Ewald energy   TEWEN  =     24009.29738432
  -Hartree energ DENC   =    -32788.70294011
  -exchange      EXHF   =         0.00000000
  -V(xc)+E(xc)   XCENC  =       341.09216108
  PAW double counting   =      6134.28738647    -5964.84236479
  entropy T*S    EENTRO =        -0.00002572
  eigenvalues    EBANDS =     -1264.46730230
  atomic energy  EATOM  =      8937.26825017
  Solvation  Ediel_sol  =         0.00000000
  ---------------------------------------------------
  free energy    TOTEN  =      -156.70109328 eV

  energy without entropy =     -156.70106756  energy(sigma->0) =     -156.70108042


--------------------------------------------------------------------------------------------------------




--------------------------------------- Iteration      1(  11)  ---------------------------------------


    POTLOK:  cpu time    0.0270: real time    0.0378
    SETDIJ:  cpu time    0.0050: real time    0.0045
    EDDIAG:  cpu time    0.2010: real time    0.2019
  RMM-DIIS:  cpu time    0.8939: real time    0.8948
    ORTHCH:  cpu time    0.0380: real time    0.0378
       DOS:  cpu time    0.0020: real time    0.0007
    CHARGE:  cpu time    0.0590: real time    0.0592
    MIXING:  cpu time    0.0010: real time    0.0011
    --------------------------------------------
      LOOP:  cpu time    1.2258: real time    1.2377

 eigenvalue-minimisations  :  2064
 total energy-change (2. order) : 0.2638585E-01  (-0.1605402E-01)
 number of electron     127.9999794 magnetization 
 augmentation part       13.6504040 magnetization 

 Broyden mixing:
  rms(total) = 0.39119E-01    rms(broyden)= 0.39102E-01
  rms(prec ) = 0.52259E-01
  weight for this iteration     100.00

 eigenvalues of (default mixing * dielectric matrix)
  average eigenvalue GAMMA=   1.1906
  2.0335  2.0335  0.8581  0.8581  0.7656  0.5949

 Free energy of the ion-electron system (eV)
  ---------------------------------------------------
  alpha Z        PSCENC =       439.36635759
  Ewald energy   TEWEN  =     24009.29738432
  -Hartree energ DENC   =    -32805.98884680
  -exchange      EXHF   =         0.00000000
  -V(xc)+E(xc)   XCENC  =       341.36120938
  PAW double counting   =      6147.34619805    -5978.07877219
  entropy T*S    EENTRO =        -0.00000262
  eigenvalues    EBANDS =     -1247.24648532
  atomic energy  EATOM  =      8937.26825017
  Solvation  Ediel_sol  =         0.00000000
  ---------------------------------------------------
  free energy    TOTEN  =      -156.67470743 eV

  energy without entropy =     -156.67470480  energy(sigma->0) =     -156.67470611


--------------------------------------------------------------------------------------------------------




--------------------------------------- Iteration      1(  12)  ---------------------------------------


    POTLOK:  cpu time    0.0260: real time    0.0340
    SETDIJ:  cpu time    0.0050: real time    0.0045
    EDDIAG:  cpu time    0.2010: real time    0.2016
  RMM-DIIS:  cpu time    0.9499: real time    0.9489
    ORTHCH:  cpu time    0.0370: real time    0.0378
       DOS:  cpu time    0.0010: real time    0.0007
    CHARGE:  cpu time    0.0590: real time    0.0592
    MIXING:  cpu time    0.0010: real time    0.0012
    --------------------------------------------
      LOOP:  cpu time    1.2798: real time    1.2878

 eigenvalue-minimisations  :  2147
 total energy-change (2. order) : 0.7584793E-02  (-0.5701852E-02)
 number of electron     127.9999794 magnetization 
 augmentation part       13.5986451 magnetization 

 Broyden mixing:
  rms(total) = 0.33309E-01    rms(broyden)= 0.33305E-01
  rms(prec ) = 0.43730E-01
  weight for this iteration     100.00

 eigenvalues of (default mixing * dielectric matrix)
  average eigenvalue GAMMA=   1.1990
  2.2582  2.2582  0.9206  0.9206  0.8078  0.6250  0.6027

 Free energy of the ion-electron system (eV)
  ---------------------------------------------------
  alpha Z        PSCENC =       439.36635759
  Ewald energy   TEWEN  =     24009.29738432
  -Hartree energ DENC   =    -32817.05499697
  -exchange      EXHF   =         0.00000000
  -V(xc)+E(xc)   XCENC  =       341.47993734
  PAW double counting   =      6147.87129886    -5978.32343684
  entropy T*S    EENTRO =        -0.00000310
  eigenvalues    EBANDS =     -1236.57191400
  atomic energy  EATOM  =      8937.26825017
  Solvation  Ediel_sol  =         0.00000000
  ---------------------------------------------------
  free energy    TOTEN  =      -156.66712263 eV

  energy without entropy =     -156.66711953  energy(sigma->0) =     -156.66712108


--------------------------------------------------------------------------------------------------------




--------------------------------------- Iteration      1(  13)  ---------------------------------------


    POTLOK:  cpu time    0.0270: real time    0.0386
    SETDIJ:  cpu time    0.0050: real time    0.0045
    EDDIAG:  cpu time    0.2010: real time    0.2020
  RMM-DIIS:  cpu time    1.0478: real time    1.0469
    ORTHCH:  cpu time    0.0370: real time    0.0377
       DOS:  cpu time    0.0010: real time    0.0007
    CHARGE:  cpu time    0.0590: real time    0.0594
    MIXING:  cpu time    0.0010: real time    0.0012
    --------------------------------------------
      LOOP:  cpu time    1.3788: real time    1.3910

 eigenvalue-minimisations  :  2410
 total energy-change (2. order) : 0.9252884E-02  (-0.2272831E-02)
 number of electron     127.9999794 magnetization 
 augmentation part       13.6010696 magnetization 

 Broyden mixing:
  rms(total) = 0.22885E-01    rms(broyden)= 0.22881E-01
  rms(prec ) = 0.30955E-01
  weight for this iteration     100.00

 eigenvalues of (default mixing * dielectric matrix)
  average eigenvalue GAMMA=   1.3192
  2.5972  2.5972  1.1596  1.1596  0.8883  0.8883  0.6726  0.5906

 Free energy of the ion-electron system (eV)
  ---------------------------------------------------
  alpha Z        PSCENC =       439.36635759
  Ewald energy   TEWEN  =     24009.29738432
  -Hartree energ DENC   =    -32826.11554771
  -exchange      EXHF   =         0.00000000
  -V(xc)+E(xc)   XCENC  =       341.55970262
  PAW double counting   =      6150.98858684    -5981.32115135
  entropy T*S    EENTRO =        -0.00000900
  eigenvalues    EBANDS =     -1227.70144322
  atomic energy  EATOM  =      8937.26825017
  Solvation  Ediel_sol  =         0.00000000
  ---------------------------------------------------
  free energy    TOTEN  =      -156.65786975 eV

  energy without entropy =     -156.65786074  energy(sigma->0) =     -156.65786525


--------------------------------------------------------------------------------------------------------




--------------------------------------- Iteration      1(  14)  ---------------------------------------


    POTLOK:  cpu time    0.0270: real time    0.0342
    SETDIJ:  cpu time    0.0050: real time    0.0045
    EDDIAG:  cpu time    0.2020: real time    0.2018
  RMM-DIIS:  cpu time    0.9159: real time    0.9161
    ORTHCH:  cpu time    0.0370: real time    0.0378
       DOS:  cpu time    0.0020: real time    0.0007
    CHARGE:  cpu time    0.0590: real time    0.0594
    MIXING:  cpu time    0.0010: real time    0.0013
    --------------------------------------------
      LOOP:  cpu time    1.2488: real time    1.2558

 eigenvalue-minimisations  :  2090
 total energy-change (2. order) : 0.6498827E-02  (-0.2049383E-02)
 number of electron     127.9999794 magnetization 
 augmentation part       13.6062336 magnetization 

 Broyden mixing:
  rms(total) = 0.11325E-01    rms(broyden)= 0.11317E-01
  rms(prec ) = 0.17337E-01
  weight for this iteration     100.00

 eigenvalues of (default mixing * dielectric matrix)
  average eigenvalue GAMMA=   1.3829
  3.3403  2.6198  1.4295  1.0091  1.0091  0.9054  0.9054  0.6462  0.5817

 Free energy of the ion-electron system (eV)
  ---------------------------------------------------
  alpha Z        PSCENC =       439.36635759
  Ewald energy   TEWEN  =     24009.29738432
  -Hartree energ DENC   =    -32835.78353341
  -exchange      EXHF   =         0.00000000
  -V(xc)+E(xc)   XCENC  =       341.51627254
  PAW double counting   =      6147.55895352    -5977.60176491
  entropy T*S    EENTRO =        -0.00002001
  eigenvalues    EBANDS =     -1218.27327073
  atomic energy  EATOM  =      8937.26825017
  Solvation  Ediel_sol  =         0.00000000
  ---------------------------------------------------
  free energy    TOTEN  =      -156.65137092 eV

  energy without entropy =     -156.65135091  energy(sigma->0) =     -156.65136091


--------------------------------------------------------------------------------------------------------




--------------------------------------- Iteration      1(  15)  ---------------------------------------


    POTLOK:  cpu time    0.0270: real time    0.0397
    SETDIJ:  cpu time    0.0040: real time    0.0045
    EDDIAG:  cpu time    0.2020: real time    0.2016
  RMM-DIIS:  cpu time    0.9639: real time    0.9642
    ORTHCH:  cpu time    0.0380: real time    0.0377
       DOS:  cpu time    0.0000: real time    0.0006
    CHARGE:  cpu time    0.0600: real time    0.0594
    MIXING:  cpu time    0.0010: real time    0.0013
    --------------------------------------------
      LOOP:  cpu time    1.2958: real time    1.3091

 eigenvalue-minimisations  :  2206
 total energy-change (2. order) : 0.1643927E-02  (-0.7934873E-03)
 number of electron     127.9999794 magnetization 
 augmentation part       13.6150502 magnetization 

 Broyden mixing:
  rms(total) = 0.91826E-02    rms(broyden)= 0.91787E-02
  rms(prec ) = 0.12760E-01
  weight for this iteration     100.00

 eigenvalues of (default mixing * dielectric matrix)
  average eigenvalue GAMMA=   1.3951
  3.7836  2.4330  1.5046  1.1920  1.1920  0.9247  0.9247  0.7816  0.5906  0.6239

 Free energy of the ion-electron system (eV)
  ---------------------------------------------------
  alpha Z        PSCENC =       439.36635759
  Ewald energy   TEWEN  =     24009.29738432
  -Hartree energ DENC   =    -32843.66080684
  -exchange      EXHF   =         0.00000000
  -V(xc)+E(xc)   XCENC  =       341.54858771
  PAW double counting   =      6146.07306111    -5975.99077946
  entropy T*S    EENTRO =        -0.00002423
  eigenvalues    EBANDS =     -1210.55175737
  atomic energy  EATOM  =      8937.26825017
  Solvation  Ediel_sol  =         0.00000000
  ---------------------------------------------------
  free energy    TOTEN  =      -156.64972700 eV

  energy without entropy =     -156.64970277  energy(sigma->0) =     -156.64971488


--------------------------------------------------------------------------------------------------------




--------------------------------------- Iteration      1(  16)  ---------------------------------------


    POTLOK:  cpu time    0.0260: real time    0.0403
    SETDIJ:  cpu time    0.0050: real time    0.0045
    EDDIAG:  cpu time    0.2010: real time    0.2017
  RMM-DIIS:  cpu time    0.9379: real time    0.9364
    ORTHCH:  cpu time    0.0370: real time    0.0379
       DOS:  cpu time    0.0010: real time    0.0007
    CHARGE:  cpu time    0.0600: real time    0.0601
    MIXING:  cpu time    0.0010: real time    0.0014
    --------------------------------------------
      LOOP:  cpu time    1.2688: real time    1.2829

 eigenvalue-minimisations  :  2119
 total energy-change (2. order) :-0.5670985E-03  (-0.5472978E-03)
 number of electron     127.9999794 magnetization 
 augmentation part       13.6058811 magnetization 

 Broyden mixing:
  rms(total) = 0.78699E-02    rms(broyden)= 0.78673E-02
  rms(prec ) = 0.99426E-02
  weight for this iteration     100.00

 eigenvalues of (default mixing * dielectric matrix)
  average eigenvalue GAMMA=   1.5072
  4.2857  2.9130  1.9596  1.3629  1.1545  1.1545  0.8882  0.8882  0.7580  0.6073
  0.6073

 Free energy of the ion-electron system (eV)
  ---------------------------------------------------
  alpha Z        PSCENC =       439.36635759
  Ewald energy   TEWEN  =     24009.29738432
  -Hartree energ DENC   =    -32849.39536567
  -exchange      EXHF   =         0.00000000
  -V(xc)+E(xc)   XCENC  =       341.56785530
  PAW double counting   =      6146.88886636    -5976.89010810
  entropy T*S    EENTRO =        -0.00001499
  eigenvalues    EBANDS =     -1204.75351909
  atomic energy  EATOM  =      8937.26825017
  Solvation  Ediel_sol  =         0.00000000
  ---------------------------------------------------
  free energy    TOTEN  =      -156.65029409 eV

  energy without entropy =     -156.65027910  energy(sigma->0) =     -156.65028660


--------------------------------------------------------------------------------------------------------




--------------------------------------- Iteration      1(  17)  ---------------------------------------


    POTLOK:  cpu time    0.0260: real time    0.0394
    SETDIJ:  cpu time    0.0050: real time    0.0045
    EDDIAG:  cpu time    0.2010: real time    0.2015
  RMM-DIIS:  cpu time    0.9009: real time    0.8999
    ORTHCH:  cpu time    0.0370: real time    0.0379
       DOS:  cpu time    0.0010: real time    0.0007
    CHARGE:  cpu time    0.0600: real time    0.0596
    MIXING:  cpu time    0.0010: real time    0.0015
    --------------------------------------------
      LOOP:  cpu time    1.2318: real time    1.2449

 eigenvalue-minimisations  :  2055
 total energy-change (2. order) :-0.9182543E-03  (-0.2434175E-03)
 number of electron     127.9999794 magnetization 
 augmentation part       13.6011877 magnetization 

 Broyden mixing:
  rms(total) = 0.49191E-02    rms(broyden)= 0.49174E-02
  rms(prec ) = 0.59606E-02
  weight for this iteration     100.00

 eigenvalues of (default mixing * dielectric matrix)
  average eigenvalue GAMMA=   1.5793
  5.8060  2.8023  2.4219  1.1050  1.1050  1.1183  1.1183  0.7973  0.7973  0.5961
  0.6296  0.6543

 Free energy of the ion-electron system (eV)
  ---------------------------------------------------
  alpha Z        PSCENC =       439.36635759
  Ewald energy   TEWEN  =     24009.29738432
  -Hartree energ DENC   =    -32852.63302838
  -exchange      EXHF   =         0.00000000
  -V(xc)+E(xc)   XCENC  =       341.53387068
  PAW double counting   =      6144.89472403    -5974.87621814
  entropy T*S    EENTRO =        -0.00001688
  eigenvalues    EBANDS =     -1201.50253574
  atomic energy  EATOM  =      8937.26825017
  Solvation  Ediel_sol  =         0.00000000
  ---------------------------------------------------
  free energy    TOTEN  =      -156.65121235 eV

  energy without entropy =     -156.65119547  energy(sigma->0) =     -156.65120391


--------------------------------------------------------------------------------------------------------




--------------------------------------- Iteration      1(  18)  ---------------------------------------


    POTLOK:  cpu time    0.0250: real time    0.0346
    SETDIJ:  cpu time    0.0060: real time    0.0045
    EDDIAG:  cpu time    0.2000: real time    0.2014
  RMM-DIIS:  cpu time    0.8679: real time    0.8667
    ORTHCH:  cpu time    0.0370: real time    0.0378
       DOS:  cpu time    0.0010: real time    0.0007
    CHARGE:  cpu time    0.0600: real time    0.0595
    MIXING:  cpu time    0.0000: real time    0.0015
    --------------------------------------------
      LOOP:  cpu time    1.1968: real time    1.2067

 eigenvalue-minimisations  :  1975
 total energy-change (2. order) :-0.1908864E-03  (-0.9411194E-04)
 number of electron     127.9999794 magnetization 
 augmentation part       13.6034136 magnetization 

 Broyden mixing:
  rms(total) = 0.19925E-02    rms(broyden)= 0.19913E-02
  rms(prec ) = 0.28739E-02
  weight for this iteration     100.00

 eigenvalues of (default mixing * dielectric matrix)
  average eigenvalue GAMMA=   1.6406
  6.4587  3.0127  1.9921  1.9921  1.1568  1.1568  1.0307  1.0307  0.8221  0.8221
  0.5910  0.6311  0.6311

 Free energy of the ion-electron system (eV)
  ---------------------------------------------------
  alpha Z        PSCENC =       439.36635759
  Ewald energy   TEWEN  =     24009.29738432
  -Hartree energ DENC   =    -32854.65023341
  -exchange      EXHF   =         0.00000000
  -V(xc)+E(xc)   XCENC  =       341.54816925
  PAW double counting   =      6145.32566966    -5975.31640149
  entropy T*S    EENTRO =        -0.00001827
  eigenvalues    EBANDS =     -1199.49058105
  atomic energy  EATOM  =      8937.26825017
  Solvation  Ediel_sol  =         0.00000000
  ---------------------------------------------------
  free energy    TOTEN  =      -156.65140323 eV

  energy without entropy =     -156.65138496  energy(sigma->0) =     -156.65139410


--------------------------------------------------------------------------------------------------------




--------------------------------------- Iteration      1(  19)  ---------------------------------------


    POTLOK:  cpu time    0.0270: real time    0.0335
    SETDIJ:  cpu time    0.0050: real time    0.0045
    EDDIAG:  cpu time    0.2000: real time    0.2013
  RMM-DIIS:  cpu time    0.8109: real time    0.8105
    ORTHCH:  cpu time    0.0380: real time    0.0378
       DOS:  cpu time    0.0010: real time    0.0007
    CHARGE:  cpu time    0.0590: real time    0.0595
    MIXING:  cpu time    0.0020: real time    0.0016
    --------------------------------------------
      LOOP:  cpu time    1.1428: real time    1.1494

 eigenvalue-minimisations  :  1829
 total energy-change (2. order) :-0.1364466E-02  (-0.5047974E-04)
 number of electron     127.9999794 magnetization 
 augmentation part       13.6019903 magnetization 

 Broyden mixing:
  rms(total) = 0.14822E-02    rms(broyden)= 0.14818E-02
  rms(prec ) = 0.18217E-02
  weight for this iteration     100.00

 eigenvalues of (default mixing * dielectric matrix)
  average eigenvalue GAMMA=   1.7833
  7.4180  3.7311  2.3704  2.3704  1.3763  1.1126  1.1126  0.9562  0.9562  0.8629
  0.8629  0.5849  0.6258  0.6258

 Free energy of the ion-electron system (eV)
  ---------------------------------------------------
  alpha Z        PSCENC =       439.36635759
  Ewald energy   TEWEN  =     24009.29738432
  -Hartree energ DENC   =    -32855.20202080
  -exchange      EXHF   =         0.00000000
  -V(xc)+E(xc)   XCENC  =       341.54941348
  PAW double counting   =      6145.28415029    -5975.24171323
  entropy T*S    EENTRO =        -0.00001877
  eigenvalues    EBANDS =     -1198.97457076
  atomic energy  EATOM  =      8937.26825017
  Solvation  Ediel_sol  =         0.00000000
  ---------------------------------------------------
  free energy    TOTEN  =      -156.65276770 eV

  energy without entropy =     -156.65274893  energy(sigma->0) =     -156.65275832


--------------------------------------------------------------------------------------------------------




--------------------------------------- Iteration      1(  20)  ---------------------------------------


    POTLOK:  cpu time    0.0250: real time    0.0405
    SETDIJ:  cpu time    0.0050: real time    0.0045
    EDDIAG:  cpu time    0.2010: real time    0.2012
  RMM-DIIS:  cpu time    0.7819: real time    0.7812
    ORTHCH:  cpu time    0.0370: real time    0.0378
       DOS:  cpu time    0.0010: real time    0.0007
    CHARGE:  cpu time    0.0600: real time    0.0595
    MIXING:  cpu time    0.0010: real time    0.0017
    --------------------------------------------
      LOOP:  cpu time    1.1118: real time    1.1272

 eigenvalue-minimisations  :  1743
 total energy-change (2. order) :-0.9316118E-03  (-0.3652762E-04)
 number of electron     127.9999794 magnetization 
 augmentation part       13.6027633 magnetization 

 Broyden mixing:
  rms(total) = 0.65224E-03    rms(broyden)= 0.65192E-03
  rms(prec ) = 0.76630E-03
  weight for this iteration     100.00

 eigenvalues of (default mixing * dielectric matrix)
  average eigenvalue GAMMA=   1.8365
  7.9951  4.1010  2.4364  2.4364  1.4914  1.4914  1.1240  1.1240  0.9171  0.9171
  0.8369  0.8369  0.5853  0.6276  0.6276

 Free energy of the ion-electron system (eV)
  ---------------------------------------------------
  alpha Z        PSCENC =       439.36635759
  Ewald energy   TEWEN  =     24009.29738432
  -Hartree energ DENC   =    -32855.20296549
  -exchange      EXHF   =         0.00000000
  -V(xc)+E(xc)   XCENC  =       341.54646531
  PAW double counting   =      6145.52707156    -5975.47934998
  entropy T*S    EENTRO =        -0.00001949
  eigenvalues    EBANDS =     -1198.97689332
  atomic energy  EATOM  =      8937.26825017
  Solvation  Ediel_sol  =         0.00000000
  ---------------------------------------------------
  free energy    TOTEN  =      -156.65369931 eV

  energy without entropy =     -156.65367982  energy(sigma->0) =     -156.65368957


--------------------------------------------------------------------------------------------------------




--------------------------------------- Iteration      1(  21)  ---------------------------------------


    POTLOK:  cpu time    0.0270: real time    0.0352
    SETDIJ:  cpu time    0.0050: real time    0.0045
    EDDIAG:  cpu time    0.2010: real time    0.2014
  RMM-DIIS:  cpu time    0.6809: real time    0.6808
    ORTHCH:  cpu time    0.0380: real time    0.0378
       DOS:  cpu time    0.0010: real time    0.0007
    CHARGE:  cpu time    0.0590: real time    0.0595
    MIXING:  cpu time    0.0020: real time    0.0017
    --------------------------------------------
      LOOP:  cpu time    1.0138: real time    1.0217

 eigenvalue-minimisations  :  1529
 total energy-change (2. order) :-0.2079161E-03  (-0.1247204E-04)
 number of electron     127.9999794 magnetization 
 augmentation part       13.6013003 magnetization 

 Broyden mixing:
  rms(total) = 0.81796E-03    rms(broyden)= 0.81787E-03
  rms(prec ) = 0.89899E-03
  weight for this iteration     100.00

 eigenvalues of (default mixing * dielectric matrix)
  average eigenvalue GAMMA=   1.8670
  8.4232  4.5415  2.5893  2.5893  2.1564  1.1225  1.1225  1.1862  0.9451  0.9451
  0.8463  0.8463  0.7334  0.5832  0.6207  0.6207

 Free energy of the ion-electron system (eV)
  ---------------------------------------------------
  alpha Z        PSCENC =       439.36635759
  Ewald energy   TEWEN  =     24009.29738432
  -Hartree energ DENC   =    -32855.15535653
  -exchange      EXHF   =         0.00000000
  -V(xc)+E(xc)   XCENC  =       341.54449343
  PAW double counting   =      6145.54973728    -5975.50006720
  entropy T*S    EENTRO =        -0.00001924
  eigenvalues    EBANDS =     -1199.02468705
  atomic energy  EATOM  =      8937.26825017
  Solvation  Ediel_sol  =         0.00000000
  ---------------------------------------------------
  free energy    TOTEN  =      -156.65390723 eV

  energy without entropy =     -156.65388799  energy(sigma->0) =     -156.65389761


--------------------------------------------------------------------------------------------------------




--------------------------------------- Iteration      1(  22)  ---------------------------------------


    POTLOK:  cpu time    0.0260: real time    0.0353
    SETDIJ:  cpu time    0.0050: real time    0.0045
    EDDIAG:  cpu time    0.2000: real time    0.2012
  RMM-DIIS:  cpu time    0.5619: real time    0.5616
    ORTHCH:  cpu time    0.0380: real time    0.0378
       DOS:  cpu time    0.0010: real time    0.0007
    CHARGE:  cpu time    0.0600: real time    0.0595
    MIXING:  cpu time    0.0010: real time    0.0018
    --------------------------------------------
      LOOP:  cpu time    0.8929: real time    0.9025

 eigenvalue-minimisations  :  1215
 total energy-change (2. order) :-0.8843447E-04  (-0.5468768E-05)
 number of electron     127.9999794 magnetization 
 augmentation part       13.6018770 magnetization 

 Broyden mixing:
  rms(total) = 0.28500E-03    rms(broyden)= 0.28490E-03
  rms(prec ) = 0.31821E-03
  weight for this iteration     100.00

 eigenvalues of (default mixing * dielectric matrix)
  average eigenvalue GAMMA=   1.8689
  8.3802  4.9903  2.7879  2.7879  2.0755  1.2584  1.2584  1.1153  1.1153  0.9288
  0.9288  0.8461  0.8461  0.6486  0.6123  0.6123  0.5790

 Free energy of the ion-electron system (eV)
  ---------------------------------------------------
  alpha Z        PSCENC =       439.36635759
  Ewald energy   TEWEN  =     24009.29738432
  -Hartree energ DENC   =    -32855.14234553
  -exchange      EXHF   =         0.00000000
  -V(xc)+E(xc)   XCENC  =       341.54620977
  PAW double counting   =      6145.60998800    -5975.55611605
  entropy T*S    EENTRO =        -0.00001933
  eigenvalues    EBANDS =     -1199.04370460
  atomic energy  EATOM  =      8937.26825017
  Solvation  Ediel_sol  =         0.00000000
  ---------------------------------------------------
  free energy    TOTEN  =      -156.65399566 eV

  energy without entropy =     -156.65397633  energy(sigma->0) =     -156.65398600


--------------------------------------------------------------------------------------------------------




--------------------------------------- Iteration      1(  23)  ---------------------------------------


    POTLOK:  cpu time    0.0250: real time    0.0276
    SETDIJ:  cpu time    0.0050: real time    0.0045
    EDDIAG:  cpu time    0.2010: real time    0.2013
  RMM-DIIS:  cpu time    0.4739: real time    0.4746
    ORTHCH:  cpu time    0.0380: real time    0.0379
       DOS:  cpu time    0.0010: real time    0.0007
    CHARGE:  cpu time    0.0600: real time    0.0595
    MIXING:  cpu time    0.0010: real time    0.0019
    --------------------------------------------
      LOOP:  cpu time    0.8049: real time    0.8081

 eigenvalue-minimisations  :  1016
 total energy-change (2. order) :-0.2779511E-04  (-0.2428100E-05)
 number of electron     127.9999794 magnetization 
 augmentation part       13.6016588 magnetization 

 Broyden mixing:
  rms(total) = 0.15913E-03    rms(broyden)= 0.15905E-03
  rms(prec ) = 0.18282E-03
  weight for this iteration     100.00

 eigenvalues of (default mixing * dielectric matrix)
  average eigenvalue GAMMA=   1.8464
  8.3932  5.2725  3.0936  2.5814  2.2044  1.4138  1.1213  1.1213  1.1048  1.1048
  0.8469  0.8469  0.8736  0.8736  0.6257  0.6257  0.5872  0.5452

 Free energy of the ion-electron system (eV)
  ---------------------------------------------------
  alpha Z        PSCENC =       439.36635759
  Ewald energy   TEWEN  =     24009.29738432
  -Hartree energ DENC   =    -32855.14554733
  -exchange      EXHF   =         0.00000000
  -V(xc)+E(xc)   XCENC  =       341.54711981
  PAW double counting   =      6145.61987953    -5975.56279865
  entropy T*S    EENTRO =        -0.00001927
  eigenvalues    EBANDS =     -1199.04464963
  atomic energy  EATOM  =      8937.26825017
  Solvation  Ediel_sol  =         0.00000000
  ---------------------------------------------------
  free energy    TOTEN  =      -156.65402346 eV

  energy without entropy =     -156.65400419  energy(sigma->0) =     -156.65401382


--------------------------------------------------------------------------------------------------------




--------------------------------------- Iteration      1(  24)  ---------------------------------------


    POTLOK:  cpu time    0.0270: real time    0.0346
    SETDIJ:  cpu time    0.0050: real time    0.0045
    EDDIAG:  cpu time    0.2000: real time    0.2015
  RMM-DIIS:  cpu time    0.4459: real time    0.4451
    ORTHCH:  cpu time    0.0380: real time    0.0378
       DOS:  cpu time    0.0010: real time    0.0007
    --------------------------------------------
      LOOP:  cpu time    0.7169: real time    0.7243

 eigenvalue-minimisations  :   920
 total energy-change (2. order) :-0.9689631E-05  (-0.1205119E-05)
 number of electron     127.9999794 magnetization 
 augmentation part       13.6016588 magnetization 

 Free energy of the ion-electron system (eV)
  ---------------------------------------------------
  alpha Z        PSCENC =       439.36635759
  Ewald energy   TEWEN  =     24009.29738432
  -Hartree energ DENC   =    -32855.14070739
  -exchange      EXHF   =         0.00000000
  -V(xc)+E(xc)   XCENC  =       341.54688608
  PAW double counting   =      6145.62494293    -5975.56760733
  entropy T*S    EENTRO =        -0.00001920
  eigenvalues    EBANDS =     -1199.04952032
  atomic energy  EATOM  =      8937.26825017
  Solvation  Ediel_sol  =         0.00000000
  ---------------------------------------------------
  free energy    TOTEN  =      -156.65403315 eV

  energy without entropy =     -156.65401394  energy(sigma->0) =     -156.65402354


--------------------------------------------------------------------------------------------------------




 average (electrostatic) potential at core
  the test charge radii are     0.7215  1.1929  1.2598
  (the norm of the test charge is              1.0000)
       1 -73.2749       2 -73.7818       3 -73.7818       4 -73.7439       5 -73.8287
       6 -73.8287       7 -73.9083       8 -73.9329       9 -73.9329      10 -74.1589
      11 -73.5632      12 -73.5632      13 -40.1402      14 -39.0024      15 -39.0931
      16 -38.9677      17 -29.5307      18 -29.7123      19 -29.8628      20 -29.9060
 
 
 
 E-fermi :   0.9439     XC(G=0):  -7.2972     alpha+bet : -7.4859


 k-point     1 :       0.0000    0.0000    0.0000
  band No.  band energies     occupation 
      1     -34.0141      2.00000
      2     -33.0087      2.00000
      3     -32.9172      2.00000
      4     -32.8806      2.00000
      5     -17.6919      2.00000
      6     -17.6147      2.00000
      7     -17.5137      2.00000
      8     -17.0656      2.00000
      9     -16.5929      2.00000
     10     -16.5532      2.00000
     11     -16.5316      2.00000
     12     -16.4891      2.00000
     13     -16.4412      2.00000
     14     -16.4262      2.00000
     15     -16.0028      2.00000
     16     -15.9416      2.00000
     17     -15.9274      2.00000
     18     -15.9274      2.00000
     19     -15.6748      2.00000
     20     -15.0529      2.00000
     21     -15.0529      2.00000
     22     -14.9558      2.00000
     23     -14.9558      2.00000
     24     -14.9403      2.00000
     25     -14.9403      2.00000
     26     -14.9049      2.00000
     27     -14.6269      2.00000
     28     -14.5010      2.00000
     29      -4.2830      2.00000
     30      -3.7615      2.00000
     31      -3.2475      2.00000
     32      -3.0756      2.00000
     33      -3.0756      2.00000
     34      -2.9706      2.00000
     35      -2.9706      2.00000
     36      -2.9042      2.00000
     37      -2.9042      2.00000
     38      -2.5999      2.00000
     39      -2.5999      2.00000
     40      -2.5794      2.00000
     41      -2.3291      2.00000
     42      -2.2119      2.00000
     43      -2.2119      2.00000
     44      -1.9704      2.00000
     45      -1.9062      2.00000
[...]
     59      -1.3654      2.00000
     60      -1.2876      2.00000
     61      -1.1587      2.00000
     62      -0.9079      2.00000
     63      -0.6863      2.00000
     64      -0.5264      2.00000
     65       1.8489      0.00000
     66       2.2014      0.00000
     67       2.6262      0.00000
     68       2.6923      0.00000
     69       2.8481      0.00000
     70       2.9491      0.00000
     71       3.0070      0.00000
     72       3.0371      0.00000
     73       3.1039      0.00000
     74       3.2384      0.00000
     75       3.5126      0.00000
     76       3.5988      0.00000

 k-point     8 :       0.2857    0.2857    0.0000
  band No.  band energies     occupation 
      1     -34.1206      2.00000
      2     -33.3953      2.00000
      3     -33.1865      2.00000
      4     -32.8595      2.00000
      5     -17.9175      2.00000
      6     -17.5930      2.00000
      7     -17.4190      2.00000
      8     -17.3947      2.00000
      9     -17.0668      2.00000
     10     -16.9122      2.00000
     11     -16.8386      2.00000
     12     -16.7672      2.00000
     13     -16.7298      2.00000
     14     -16.6297      2.00000
     15     -16.3216      2.00000
     16     -16.1046      2.00000
     17     -16.0679      2.00000
     18     -15.9971      2.00000
     19     -15.5923      2.00000
     20     -15.4231      2.00000
     21     -15.3648      2.00000
     22     -15.2382      2.00000
     23     -15.1693      2.00000
     24     -15.0815      2.00000
     25     -15.0047      2.00000
     26     -14.8020      2.00000
     27     -14.7933      2.00000
     28     -14.5963      2.00000
     29      -4.6856      2.00000
     30      -4.6046      2.00000
     31      -4.4201      2.00000
     32      -4.2437      2.00000
     33      -4.1704      2.00000
     34      -4.1491      2.00000
     35      -4.0179      2.00000
     36      -3.9578      2.00000
     37      -3.9491      2.00000
     38      -3.8013      2.00000
     39      -3.7826      2.00000
     40      -3.6951      2.00000
     41      -3.6571      2.00000
     42      -3.5686      2.00000
     43      -3.5413      2.00000
     44      -3.3946      2.00000
     45      -3.3095      2.00000
     46      -3.2105      2.00000
     47      -3.1309      2.00000
     48      -3.0484      2.00000
     49      -2.6222      2.00000
     50      -2.5198      2.00000
     51      -2.4763      2.00000
     52      -2.2367      2.00000
     53      -1.6724      2.00000
     54      -1.6647      2.00000
     55      -1.6382      2.00000
     56      -1.3556      2.00000
     57      -1.3299      2.00000
     58      -1.2322      2.00000
     59      -1.1766      2.00000
     60      -1.0384      2.00000
     61      -1.0211      2.00000
     62      -0.8363      2.00000
     63      -0.7315      2.00000
     64      -0.1323      2.00000
     65       2.3804      0.00000
     66       2.4793      0.00000
     67       2.5372      0.00000
     68       2.5710      0.00000
     69       2.6915      0.00000
     70       2.8028      0.00000
     71       2.8695      0.00000
     72       2.9724      0.00000
     73       2.9767      0.00000
     74       3.1912      0.00000
     75       3.2925      0.00000
     76       3.4641      0.00000

 k-point     9 :       0.4286    0.2857    0.0000
  band No.  band energies     occupation 
      1     -34.1150      2.00000
      2     -33.3896      2.00000
      3     -33.1807      2.00000
      4     -32.8534      2.00000
      5     -17.7915      2.00000
      6     -17.5120      2.00000
      7     -17.4487      2.00000
      8     -17.3033      2.00000
      9     -16.9756      2.00000
     10     -16.9276      2.00000
     11     -16.7648      2.00000
     12     -16.6740      2.00000
     13     -16.6351      2.00000
     14     -16.6080      2.00000
     15     -16.2796      2.00000
     16     -16.1994      2.00000
     17     -16.0892      2.00000
     18     -15.9472      2.00000
     19     -15.6213      2.00000
     20     -15.4442      2.00000
     21     -15.4228      2.00000
     22     -15.2601      2.00000
     23     -15.1723      2.00000
     24     -15.1349      2.00000
     25     -15.0149      2.00000
     26     -14.8716      2.00000
     27     -14.7034      2.00000
     28     -14.6353      2.00000
     29      -5.0290      2.00000
     30      -4.7542      2.00000
     31      -4.5939      2.00000
     32      -4.5912      2.00000
     33      -4.3890      2.00000
     34      -4.3248      2.00000
     35      -4.2922      2.00000
     36      -4.2444      2.00000
     37      -4.0981      2.00000
     38      -3.9938      2.00000
     39      -3.9271      2.00000
     40      -3.8995      2.00000
     41      -3.8451      2.00000
     42      -3.8048      2.00000
     43      -3.7647      2.00000
     44      -3.5786      2.00000
     45      -3.5195      2.00000
     46      -3.4050      2.00000
     47      -3.1877      2.00000
     48      -3.0465      2.00000
     49      -2.9202      2.00000
     50      -2.7787      2.00000
     51      -2.4816      2.00000
     52      -2.1254      2.00000
     53      -1.8679      2.00000
     54      -1.6654      2.00000
     55      -1.4935      2.00000
     56      -1.3972      2.00000
     57      -1.3866      2.00000
     58      -1.1838      2.00000
     59      -1.0384      2.00000
     60      -0.9257      2.00000
     61      -0.8968      2.00000
     62      -0.6887      2.00000
     63      -0.5994      2.00000
     64       0.0284      2.00000
     65       2.4703      0.00000
     66       2.6690      0.00000
     67       2.8772      0.00000
     68       2.9107      0.00000
     69       2.9632      0.00000
     70       3.0760      0.00000
     71       3.1518      0.00000
     72       3.2641      0.00000
     73       3.3030      0.00000
     74       3.3182      0.00000
     75       3.5878      0.00000
     76       3.8088      0.00000

 k-point    10 :       0.4286    0.4286    0.0000
  band No.  band energies     occupation 
      1     -34.1096      2.00000
      2     -33.3840      2.00000
      3     -33.1750      2.00000
      4     -32.8476      2.00000
      5     -17.5677      2.00000
      6     -17.4757      2.00000
      7     -17.2803      2.00000
      8     -17.1022      2.00000
      9     -16.9567      2.00000
     10     -16.8304      2.00000
     11     -16.7865      2.00000
     12     -16.6386      2.00000
     13     -16.6279      2.00000
     14     -16.4561      2.00000
     15     -16.3165      2.00000
     16     -16.1254      2.00000
     17     -16.1023      2.00000
     18     -15.9640      2.00000
     19     -15.8501      2.00000
     20     -15.5414      2.00000
     21     -15.4142      2.00000
     22     -15.3988      2.00000
     23     -15.2612      2.00000
     24     -15.1037      2.00000
     25     -15.0967      2.00000
     26     -14.9164      2.00000
     27     -14.7111      2.00000
     28     -14.6797      2.00000
     29      -5.1762      2.00000
     30      -4.9286      2.00000
     31      -4.8561      2.00000
     32      -4.7856      2.00000
     33      -4.6867      2.00000
     34      -4.5290      2.00000
     35      -4.4929      2.00000
     36      -4.3766      2.00000
     37      -4.3131      2.00000
     38      -4.1843      2.00000
     39      -4.1077      2.00000
     40      -4.0445      2.00000
     41      -4.0344      2.00000
     42      -3.9150      2.00000
     43      -3.8410      2.00000
     44      -3.7591      2.00000
     45      -3.7374      2.00000
     46      -3.5558      2.00000
     47      -3.5046      2.00000
     48      -3.3336      2.00000
     49      -2.9678      2.00000
     50      -2.7762      2.00000
     51      -2.7250      2.00000
     52      -2.0109      2.00000
     53      -1.7962      2.00000
     54      -1.7735      2.00000
     55      -1.4070      2.00000
     56      -1.3877      2.00000
     57      -1.1355      2.00000
     58      -0.9804      2.00000
     59      -0.9374      2.00000
     60      -0.6544      2.00000
     61      -0.6239      2.00000
     62      -0.5648      2.00000
     63      -0.3658      2.00000
     64       0.3576      1.98392
     65       2.9251      0.00000
     66       2.9430      0.00000
     67       3.0939      0.00000
     68       3.1219      0.00000
     69       3.1313      0.00000
     70       3.3243      0.00000
     71       3.3606      0.00000
     72       3.3955      0.00000
     73       3.5562      0.00000
     74       3.5782      0.00000
     75       3.6599      0.00000
     76       3.8895      0.00000


--------------------------------------------------------------------------------------------------------


 soft charge-density along one line, spin component           1
         0         1         2         3         4         5         6         7         8         9
 total charge-density along one line
 
 pseudopotential strength for first ion, spin component:           1
 12.774  -0.362   0.000  -0.030   0.000  -0.000   0.002  -0.000
 -0.362   0.087  -0.000   0.003  -0.000   0.000  -0.001   0.000
  0.000  -0.000  -9.105  -0.000  -0.000  -0.053   0.000   0.000
 -0.030   0.003  -0.000  -9.122  -0.000   0.000  -0.050   0.000
  0.000  -0.000  -0.000  -0.000  -9.105   0.000   0.000  -0.053
 -0.000   0.000  -0.053   0.000   0.000   0.235  -0.000  -0.000
  0.002  -0.001   0.000  -0.050   0.000  -0.000   0.234  -0.000
 -0.000   0.000   0.000   0.000  -0.053  -0.000  -0.000   0.235
 total augmentation occupancy for first ion, spin component:           1
  1.870   0.123   0.000  -0.026  -0.000   0.000   0.014   0.000
  0.123   0.012   0.000   0.038  -0.000   0.000   0.006  -0.000
  0.000   0.000   1.507   0.000   0.000   0.121   0.000   0.000
 -0.026   0.038   0.000   1.535   0.000  -0.000   0.132  -0.000
  0.000   0.000   0.000   0.000   1.507   0.000  -0.000   0.121
 -0.000   0.000   0.121  -0.000   0.000   0.011   0.000   0.000
  0.014   0.006   0.000   0.132  -0.000   0.000   0.012   0.000
  0.000  -0.000   0.000  -0.000   0.121   0.000   0.000   0.011


------------------------ aborting loop because EDIFF is reached ----------------------------------------


    CHARGE:  cpu time    0.0580: real time    0.0593
    FORLOC:  cpu time    0.0070: real time    0.0056
    FORNL :  cpu time    0.2680: real time    0.2688
    STRESS:  cpu time    0.8119: real time    0.8123
    FORCOR:  cpu time    0.0280: real time    0.0277
    FORHAR:  cpu time    0.0100: real time    0.0096
    MIXING:  cpu time    0.0130: real time    0.0135
    OFIELD:  cpu time    0.0000: real time    0.0000

  FORCE on cell =-STRESS in cart. coord.  units (eV):
  Direction    XX          YY          ZZ          XY          YZ          ZX
  --------------------------------------------------------------------------------------
  Alpha Z   439.36636   439.36636   439.36636
  Ewald   29256.16766 29256.16766-34331.60305    -0.00000     0.00000     0.00000
  Hartree 31772.41798 31772.41798-30553.20362    -0.00000    -0.00000    -0.00000
  E(xc)    -578.31890  -578.31890  -578.38355    -0.00000     0.00000     0.00000
  Local  -62758.17067-62758.17067 63159.88077     0.00000     0.00000     0.00000
  n-local  -489.13310  -467.75598  -481.11968    -1.51555     0.00000     0.00000
  augment   115.80581   115.80581   115.38852    -0.00000    -0.00000     0.00000
  Kinetic  2206.92353  2248.20284  2228.93591    -9.32529    -0.00002     0.00000
  Fock        0.00000     0.00000     0.00000     0.00000     0.00000     0.00000
  -------------------------------------------------------------------------------------
  Total      -3.61312    -3.61312    -0.73834     0.00000     0.00000     0.00000
  in kB     -14.39587   -14.39587    -2.94180     0.00000     0.00000     0.00000
  external pressure =      -10.58 kB  Pullay stress =        0.00 kB


 VOLUME and BASIS-vectors are now :
 -----------------------------------------------------------------------------
  energy-cutoff  :      500.00
  volume of cell :      402.12
      direct lattice vectors                 reciprocal lattice vectors
     3.946846342  0.000000000  0.000000000     0.253366844  0.000000000  0.000000000
     0.000000000  3.946846342  0.000000000     0.000000000  0.253366844  0.000000000
     0.000000000  0.000000000 25.813962196     0.000000000  0.000000000  0.038738726

  length of vectors
     3.946846342  3.946846342 25.813962196     0.253366844  0.253366844  0.038738726


 FORCES acting on ions
    electron-ion (+dipol)            ewald-force                    non-local-force                 convergence-correction
 -----------------------------------------------------------------------------------------------
   0.172E-12 0.125E-11 0.156E+04   -.270E-14 0.435E-14 -.157E+04   -.199E-22 0.000E+00 0.121E+02   0.222E-13 0.341E-13 -.494E-02
   0.135E-12 0.936E-13 0.107E+04   -.888E-14 -.228E-14 -.107E+04   -.662E-23 0.000E+00 -.220E+01   0.338E-13 -.289E-13 0.853E-04
   -.175E-13 0.101E-12 0.107E+04   0.515E-14 -.154E-13 -.107E+04   0.331E-23 0.000E+00 -.220E+01   0.202E-13 -.304E-13 0.853E-04
   0.157E-12 0.335E-12 0.657E+03   -.221E-13 0.158E-14 -.659E+03   -.132E-22 0.000E+00 0.257E+01   0.399E-13 -.553E-13 0.201E-02
   0.157E-12 -.252E-13 0.210E+03   -.120E-13 -.390E-14 -.209E+03   -.662E-23 0.000E+00 -.728E+00   -.127E-13 -.126E-12 0.503E-02
   -.617E-14 -.144E-12 0.210E+03   0.126E-13 -.163E-14 -.209E+03   0.000E+00 0.000E+00 -.728E+00   -.513E-13 -.924E-13 0.503E-02
   0.164E-12 0.742E-12 -.213E+03   -.680E-15 0.191E-14 0.212E+03   0.000E+00 0.000E+00 0.168E+01   0.699E-13 0.586E-13 0.983E-02
   0.161E-12 0.942E-13 -.655E+03   -.158E-14 -.802E-14 0.656E+03   0.000E+00 -.662E-23 -.120E+01   0.403E-14 0.103E-12 0.555E-02
   -.705E-14 0.101E-12 -.655E+03   -.606E-14 0.871E-15 0.656E+03   0.331E-23 0.000E+00 -.120E+01   -.491E-13 0.329E-14 0.555E-02
   0.151E-12 -.144E-13 -.105E+04   -.686E-14 -.823E-14 0.104E+04   0.000E+00 0.000E+00 0.568E+01   0.390E-13 -.315E-13 -.141E-02
   0.175E-12 -.174E-12 -.151E+04   -.907E-14 0.197E-14 0.151E+04   0.000E+00 0.000E+00 -.504E+01   -.103E-13 -.120E-12 -.305E-02
   -.120E-13 0.846E-13 -.151E+04   0.527E-14 0.123E-14 0.151E+04   0.000E+00 0.000E+00 -.504E+01   -.311E-13 -.634E-13 -.305E-02
   0.282E-15 -.137E-12 0.249E+04   0.128E-13 0.920E-14 -.249E+04   -.827E-24 0.000E+00 -.474E+01   0.409E-13 0.101E-12 0.194E-02
   0.206E-15 -.464E-13 0.107E+04   0.370E-13 0.882E-14 -.107E+04   -.662E-23 0.132E-22 -.915E+00   -.323E-13 -.237E-13 0.246E-02
   -.599E-15 -.900E-13 -.370E+03   0.869E-14 -.229E-14 0.370E+03   0.000E+00 0.000E+00 -.497E+00   -.803E-15 0.143E-12 0.110E-01
   0.129E-14 -.115E-12 -.180E+04   0.214E-13 0.372E-14 0.180E+04   0.000E+00 0.529E-22 -.211E+01   0.977E-14 0.319E-13 -.732E-02
   0.192E-14 0.477E-13 0.721E+03   0.577E-14 -.254E-14 -.721E+03   0.000E+00 0.000E+00 -.357E+00   0.274E-13 0.885E-14 0.338E-03
   0.487E-14 -.154E-12 0.143E+03   -.729E-14 0.216E-14 -.143E+03   0.662E-23 0.000E+00 -.111E+00   0.320E-13 0.309E-13 0.203E-02
   0.973E-14 0.283E-12 -.432E+03   0.592E-14 0.113E-13 0.432E+03   0.000E+00 0.000E+00 -.865E-01   0.718E-14 -.359E-13 0.498E-02
   0.370E-14 -.103E-12 -.102E+04   -.852E-14 -.286E-14 0.101E+04   0.000E+00 -.265E-22 0.115E+01   -.763E-14 0.345E-13 -.265E-02
 -----------------------------------------------------------------------------------------------
   0.125E-11 0.212E-11 0.388E+01   0.288E-13 -.634E-16 0.796E-12   -.405E-22 0.331E-22 -.399E+01   0.151E-12 -.586E-13 0.335E-01
 
 
 POSITION                                       TOTAL-FORCE (eV/Angst)
 -----------------------------------------------------------------------------------
      1.97342      1.97342      5.96263        -0.000000     -0.000000      0.040508
      1.97342      0.00000      7.93437        -0.000000     -0.000000      0.021021
     -0.00000      1.97342      7.93437        -0.000000     -0.000000      0.021021
      1.97342      1.97342      9.94091        -0.000000      0.000000     -0.023191
      1.97342      0.00000     11.91815        -0.000000     -0.000000     -0.030214
      0.00000      1.97342     11.91815        -0.000000     -0.000000     -0.030214
      1.97342      1.97342     13.89328         0.000000      0.000000      0.001394
      1.97342     -0.00000     15.86437        -0.000000     -0.000000     -0.016891
     -0.00000      1.97342     15.86437        -0.000000     -0.000000     -0.016891
      1.97342      1.97342     17.84709        -0.000000      0.000000     -0.030978
      1.97342     -0.00000     19.80457        -0.000000     -0.000000      0.016998
     -0.00000      1.97342     19.80457        -0.000000     -0.000000      0.016998
     -0.00000      0.00000      6.18551         0.000000     -0.000000     -0.029337
     -0.00000     -0.00000      9.99051        -0.000000     -0.000000      0.038436
     -0.00000     -0.00000     13.92102        -0.000000     -0.000000      0.045398
      0.00000      0.00000     17.98568        -0.000000     -0.000000      0.016006
      1.97342      1.97342      7.88480        -0.000000     -0.000000     -0.049786
      1.97342      1.97342     11.89422        -0.000000     -0.000000     -0.011329
      1.97342      1.97342     15.83246        -0.000000     -0.000000      0.018553
      1.97342      1.97342     19.70544        -0.000000     -0.000000      0.002499
 -----------------------------------------------------------------------------------
    total drift:                                0.000000      0.000000     -0.079234


--------------------------------------------------------------------------------------------------------



  FREE ENERGIE OF THE ION-ELECTRON SYSTEM (eV)
  ---------------------------------------------------
  free  energy   TOTEN  =      -157.02338695 eV

  energy  without entropy=     -157.02246099  energy(sigma->0) =     -157.02292397
 
 d Force = 0.5201981E-03[ 0.993E-04, 0.941E-03]  d Energy = 0.4954312E-03 0.248E-04
 d Force = 0.7906334E+01[ 0.790E+01, 0.791E+01]  d Ewald  = 0.7906336E+01-0.172E-05


--------------------------------------------------------------------------------------------------------


    POTLOK:  cpu time    0.0300: real time    0.0298


--------------------------------------------------------------------------------------------------------


 Quasi-Newton relaxation of ions (Broydens 2nd method)
  g(Force)  = 0.705E-03   g(Stress)= 0.000E+00

 retain information from N=  6 steps
 eigenvalues of (default step * inverse Hessian matrix)
  average eigenvalue of G=   1.5970
 eigenvalue spectrum of G is  3.2186  3.2186  0.8642  0.8642  0.4594  0.9570


--------------------------------------------------------------------------------------------------------


  
 reached required accuracy - stopping structural energy minimisation
     LOOP+:  cpu time    7.4249: real time    7.4988
    4ORBIT:  cpu time    0.0000: real time    0.0000

 total amount of memory used by VASP MPI-rank0    46041. kBytes
=======================================================================

   base      :      30000. kBytes
   nonlr-proj:       2388. kBytes
   fftplans  :       2040. kBytes
   grid      :       3499. kBytes
   one-center:         77. kBytes
   wavefun   :       8037. kBytes
 
  
  
 General timing and accounting informations for this job:
 ========================================================
  
                  Total CPU time used (sec):      113.950
                            User time (sec):      113.151
                          System time (sec):        0.799
                         Elapsed time (sec):      119.074
  
                   Maximum memory used (kb):       63156.
                   Average memory used (kb):           0.
  
                          Minor page faults:        25185
                          Major page faults:           99
                 Voluntary context switches:         5610
