unknown system                          
           1
     3.946846    0.000000    0.000000
     0.000000    3.946846    0.000000
     0.000000    0.000000   25.813962
   O    Sr   Ti
  12   4   4
Direct configuration=     1
   0.50000000  0.50000000  0.23243235
   0.50000000  0.00000000  0.30888025
   0.00000000  0.50000000  0.30888025
   0.50000000  0.50000000  0.38532815
   0.50000000  0.00000000  0.46177605
   0.00000000  0.50000000  0.46177605
   0.50000000  0.50000000  0.53822395
   0.50000000  0.00000000  0.61467185
   0.00000000  0.50000000  0.61467185
   0.50000000  0.50000000  0.69111975
   0.50000000  0.00000000  0.76756765
   0.00000000  0.50000000  0.76756765
   0.00000000  0.00000000  0.23243235
   0.00000000  0.00000000  0.38532815
   0.00000000  0.00000000  0.53822395
   0.00000000  0.00000000  0.69111975
   0.50000000  0.50000000  0.30888025
   0.50000000  0.50000000  0.46177605
   0.50000000  0.50000000  0.61467185
   0.50000000  0.50000000  0.76756765
Direct configuration=     2
   0.50000000  0.50000000  0.23116833
   0.50000000  0.00000000  0.30886951
   0.00000000  0.50000000  0.30886951
   0.50000000  0.50000000  0.38600015
   0.50000000  0.00000000  0.46188929
   0.00000000  0.50000000  0.46188929
   0.50000000  0.50000000  0.53879710
   0.50000000  0.00000000  0.61474000
   0.00000000  0.50000000  0.61474000
   0.50000000  0.50000000  0.69299266
   0.50000000  0.00000000  0.76829063
   0.00000000  0.50000000  0.76829063
   0.00000000  0.00000000  0.23494749
   0.00000000  0.00000000  0.38531275
   0.00000000  0.00000000  0.53810894
   0.00000000  0.00000000  0.69229823
   0.50000000  0.50000000  0.30699678
   0.50000000  0.50000000  0.46118216
   0.50000000  0.50000000  0.61400280
   0.50000000  0.50000000  0.76350957
Direct configuration=     3
   0.50000000  0.50000000  0.23093600
   0.50000000  0.00000000  0.30867523
   0.00000000  0.50000000  0.30867523
   0.50000000  0.50000000  0.38562454
   0.50000000  0.00000000  0.46198762
   0.00000000  0.50000000  0.46198762
   0.50000000  0.50000000  0.53880487
   0.50000000  0.00000000  0.61484153
   0.00000000  0.50000000  0.61484153
   0.50000000  0.50000000  0.69109860
   0.50000000 -0.00000000  0.76807880
  -0.00000000  0.50000000  0.76807880
   0.00000000  0.00000000  0.23585693
   0.00000000  0.00000000  0.38551826
   0.00000000  0.00000000  0.53815118
   0.00000000  0.00000000  0.69327433
   0.50000000  0.50000000  0.30668853
   0.50000000  0.50000000  0.46108700
   0.50000000  0.50000000  0.61387452
   0.50000000  0.50000000  0.76481467
Direct configuration=     4
   0.50000000  0.50000000  0.23074984
   0.50000000  0.00000000  0.30838656
  -0.00000000  0.50000000  0.30838656
   0.50000000  0.50000000  0.38503971
   0.50000000 -0.00000000  0.46194025
  -0.00000000  0.50000000  0.46194025
   0.50000000  0.50000000  0.53818424
   0.50000000 -0.00000000  0.61478205
  -0.00000000  0.50000000  0.61478205
   0.50000000  0.50000000  0.69145378
   0.50000000 -0.00000000  0.76801164
  -0.00000000  0.50000000  0.76801164
  -0.00000000  0.00000000  0.23718609
  -0.00000000 -0.00000000  0.38591794
  -0.00000000 -0.00000000  0.53843468
   0.00000000  0.00000000  0.69424747
   0.50000000  0.50000000  0.30631621
   0.50000000  0.50000000  0.46137019
   0.50000000  0.50000000  0.61382527
   0.50000000  0.50000000  0.76392936
Direct configuration=     5
   0.50000000  0.50000000  0.23078908
   0.50000000 -0.00000000  0.30800935
  -0.00000000  0.50000000  0.30800935
   0.50000000  0.50000000  0.38513628
   0.50000000 -0.00000000  0.46191526
   0.00000000  0.50000000  0.46191526
   0.50000000  0.50000000  0.53823667
   0.50000000 -0.00000000  0.61470566
  -0.00000000  0.50000000  0.61470566
   0.50000000  0.50000000  0.69132982
   0.50000000 -0.00000000  0.76774049
  -0.00000000  0.50000000  0.76774049
  -0.00000000  0.00000000  0.23843384
  -0.00000000 -0.00000000  0.38623600
  -0.00000000 -0.00000000  0.53862188
   0.00000000  0.00000000  0.69540659
   0.50000000  0.50000000  0.30581748
   0.50000000  0.50000000  0.46088894
   0.50000000  0.50000000  0.61370586
   0.50000000  0.50000000  0.76355186
Direct configuration=     6
   0.50000000  0.50000000  0.23095036
   0.50000000  0.00000000  0.30765770
  -0.00000000  0.50000000  0.30765770
   0.50000000  0.50000000  0.38495905
   0.50000000 -0.00000000  0.46181704
   0.00000000  0.50000000  0.46181704
   0.50000000  0.50000000  0.53831882
   0.50000000 -0.00000000  0.61467125
  -0.00000000  0.50000000  0.61467125
   0.50000000  0.50000000  0.69135570
   0.50000000 -0.00000000  0.76735874
  -0.00000000  0.50000000  0.76735874
  -0.00000000  0.00000000  0.23921717
  -0.00000000 -0.00000000  0.38665618
  -0.00000000 -0.00000000  0.53890056
   0.00000000  0.00000000  0.69620467
   0.50000000  0.50000000  0.30555304
   0.50000000  0.50000000  0.46094276
   0.50000000  0.50000000  0.61332320
   0.50000000  0.50000000  0.76350483
Direct configuration=     7
   0.50000000  0.50000000  0.23107477
   0.50000000  0.00000000  0.30732081
  -0.00000000  0.50000000  0.30732081
   0.50000000  0.50000000  0.38505179
   0.50000000  0.00000000  0.46173537
   0.00000000  0.50000000  0.46173537
   0.50000000  0.50000000  0.53816655
   0.50000000 -0.00000000  0.61458945
  -0.00000000  0.50000000  0.61458945
   0.50000000  0.50000000  0.69130729
   0.50000000 -0.00000000  0.76715199
  -0.00000000  0.50000000  0.76715199
  -0.00000000  0.00000000  0.23974627
  -0.00000000 -0.00000000  0.38697009
  -0.00000000 -0.00000000  0.53922963
   0.00000000  0.00000000  0.69680943
   0.50000000  0.50000000  0.30537748
   0.50000000  0.50000000  0.46081665
   0.50000000  0.50000000  0.61335318
   0.50000000  0.50000000  0.76339743
Direct configuration=     8
   0.50000000  0.50000000  0.23098480
   0.50000000  0.00000000  0.30736757
  -0.00000000  0.50000000  0.30736757
   0.50000000  0.50000000  0.38509819
   0.50000000  0.00000000  0.46169411
   0.00000000  0.50000000  0.46169411
   0.50000000  0.50000000  0.53820805
   0.50000000 -0.00000000  0.61456534
  -0.00000000  0.50000000  0.61456534
   0.50000000  0.50000000  0.69137348
   0.50000000 -0.00000000  0.76720366
  -0.00000000  0.50000000  0.76720366
  -0.00000000  0.00000000  0.23961871
  -0.00000000 -0.00000000  0.38701953
  -0.00000000 -0.00000000  0.53928244
   0.00000000  0.00000000  0.69674246
   0.50000000  0.50000000  0.30544725
   0.50000000  0.50000000  0.46076674
   0.50000000  0.50000000  0.61332916
   0.50000000  0.50000000  0.76336363
