   9   9   0   0
  0.1255774E+02  0.4913700E-09  0.4913700E-09  0.5405130E-09  0.5000000E-15
  1.000000000000000E-004
  CAR 
 unknown system                          
     13.76621893    -20.45166052  301      1.24817803      1.00000000
    -20.452  0.0000E+00  0.0000E+00
    -20.338  0.0000E+00  0.0000E+00
    -20.224  0.0000E+00  0.0000E+00
    -20.109  0.0000E+00  0.0000E+00
    -19.995  0.0000E+00  0.0000E+00
    -19.881  0.0000E+00  0.0000E+00
    -19.767  0.0000E+00  0.0000E+00
    -19.653  0.0000E+00  0.0000E+00
    -19.539  0.0000E+00  0.0000E+00
    -19.425  0.0000E+00  0.0000E+00
    -19.311  0.0000E+00  0.0000E+00
    -19.197  0.0000E+00  0.0000E+00
    -19.083  0.0000E+00  0.0000E+00
    -18.969  0.0000E+00  0.0000E+00
    -18.855  0.0000E+00  0.0000E+00
    -18.741  0.0000E+00  0.0000E+00
    -18.627  0.0000E+00  0.0000E+00
    -18.513  0.0000E+00  0.0000E+00
    -18.399  0.4588E+00  0.8116E-02
    -18.285  0.1778E+01  0.1529E+00
    -18.170  0.4020E+01  0.4441E+00
    -18.056  0.7692E+01  0.1102E+01
    -17.942  0.3439E+01  0.1913E+01
    -17.828  0.0000E+00  0.2000E+01
    -17.714  0.1470E+01  0.2061E+01
    -17.600  0.3242E+01  0.2303E+01
    -17.486  0.6125E+01  0.2812E+01
    -17.372  0.7885E+01  0.3544E+01
    -17.258  0.1019E+01  0.3953E+01
    -17.144  0.0000E+00  0.4000E+01
    -17.030  0.4605E+00  0.4008E+01
    -16.916  0.2448E+01  0.4163E+01
    -16.802  0.7420E+01  0.4810E+01
    -16.688  0.3879E+01  0.5498E+01
    -16.574  0.2632E+01  0.5855E+01
    -16.460  0.6563E+01  0.6195E+01
    -16.346  0.6926E+01  0.7179E+01
    -16.231  0.4660E+01  0.7801E+01
    -16.117  0.1285E+02  0.9204E+01
    -16.003  0.0000E+00  0.1000E+02
    -15.889  0.2975E+02  0.1107E+02
    -15.775  0.0000E+00  0.1200E+02
    -15.661  0.0000E+00  0.1200E+02
    -15.547  0.0000E+00  0.1200E+02
    -15.433  0.0000E+00  0.1200E+02
    -15.319  0.0000E+00  0.1200E+02
    -15.205  0.0000E+00  0.1200E+02
    -15.091  0.0000E+00  0.1200E+02
    -14.977  0.0000E+00  0.1200E+02
    -14.863  0.0000E+00  0.1200E+02
    -14.749  0.0000E+00  0.1200E+02
    -14.635  0.0000E+00  0.1200E+02
    -14.521  0.0000E+00  0.1200E+02
    -14.407  0.0000E+00  0.1200E+02
    -14.292  0.0000E+00  0.1200E+02
    -14.178  0.0000E+00  0.1200E+02
    -14.064  0.0000E+00  0.1200E+02
    -13.950  0.0000E+00  0.1200E+02
    -13.836  0.0000E+00  0.1200E+02
    -13.722  0.0000E+00  0.1200E+02
    -13.608  0.0000E+00  0.1200E+02
    -13.494  0.0000E+00  0.1200E+02
    -13.380  0.0000E+00  0.1200E+02
    -13.266  0.0000E+00  0.1200E+02
    -13.152  0.0000E+00  0.1200E+02
    -13.038  0.0000E+00  0.1200E+02
    -12.924  0.0000E+00  0.1200E+02
    -12.810  0.0000E+00  0.1200E+02
    -12.696  0.0000E+00  0.1200E+02
    -12.582  0.0000E+00  0.1200E+02
    -12.467  0.0000E+00  0.1200E+02
    -12.353  0.0000E+00  0.1200E+02
    -12.239  0.0000E+00  0.1200E+02
    -12.125  0.0000E+00  0.1200E+02
    -12.011  0.0000E+00  0.1200E+02
    -11.897  0.0000E+00  0.1200E+02
    -11.783  0.0000E+00  0.1200E+02
    -11.669  0.0000E+00  0.1200E+02
    -11.555  0.0000E+00  0.1200E+02
    -11.441  0.0000E+00  0.1200E+02
    -11.327  0.0000E+00  0.1200E+02
    -11.213  0.0000E+00  0.1200E+02
    -11.099  0.0000E+00  0.1200E+02
    -10.985  0.0000E+00  0.1200E+02
    -10.871  0.0000E+00  0.1200E+02
    -10.757  0.0000E+00  0.1200E+02
    -10.643  0.0000E+00  0.1200E+02
    -10.528  0.0000E+00  0.1200E+02
    -10.414  0.0000E+00  0.1200E+02
    -10.300  0.0000E+00  0.1200E+02
    -10.186  0.0000E+00  0.1200E+02
    -10.072  0.0000E+00  0.1200E+02
     -9.958  0.0000E+00  0.1200E+02
     -9.844  0.0000E+00  0.1200E+02
     -9.730  0.0000E+00  0.1200E+02
     -9.616  0.0000E+00  0.1200E+02
     -9.502  0.0000E+00  0.1200E+02
     -9.388  0.0000E+00  0.1200E+02
     -9.274  0.0000E+00  0.1200E+02
     -9.160  0.0000E+00  0.1200E+02
     -9.046  0.0000E+00  0.1200E+02
     -8.932  0.0000E+00  0.1200E+02
     -8.818  0.0000E+00  0.1200E+02
     -8.704  0.0000E+00  0.1200E+02
     -8.589  0.0000E+00  0.1200E+02
     -8.475  0.0000E+00  0.1200E+02
     -8.361  0.0000E+00  0.1200E+02
     -8.247  0.0000E+00  0.1200E+02
     -8.133  0.2386E+00  0.1201E+02
     -8.019  0.4220E+00  0.1206E+02
     -7.905  0.6320E+00  0.1212E+02
     -7.791  0.8507E+00  0.1220E+02
     -7.677  0.1174E+01  0.1231E+02
     -7.563  0.1611E+01  0.1247E+02
     -7.449  0.2810E+01  0.1270E+02
     -7.335  0.7176E+01  0.1334E+02
     -7.221  0.1959E+01  0.1382E+02
     -7.107  0.5129E+00  0.1396E+02
     -6.993  0.2319E+00  0.1400E+02
     -6.879  0.1989E+00  0.1402E+02
     -6.765  0.3282E+00  0.1405E+02
     -6.650  0.5431E+00  0.1410E+02
     -6.536  0.1053E+01  0.1419E+02
     -6.422  0.1854E+01  0.1434E+02
     -6.308  0.3211E+01  0.1463E+02
     -6.194  0.5061E+01  0.1510E+02
     -6.080  0.2233E+01  0.1554E+02
     -5.966  0.1330E+01  0.1573E+02
     -5.852  0.8170E+00  0.1585E+02
     -5.738  0.6043E+00  0.1593E+02
     -5.624  0.3165E+00  0.1599E+02
     -5.510  0.1378E+00  0.1601E+02
     -5.396  0.1872E+01  0.1611E+02
     -5.282  0.3641E+01  0.1643E+02
     -5.168  0.3140E+01  0.1680E+02
     -5.054  0.2952E+01  0.1715E+02
     -4.940  0.2174E+01  0.1746E+02
     -4.825  0.1649E+01  0.1767E+02
     -4.711  0.1327E+01  0.1784E+02
     -4.597  0.7891E+00  0.1797E+02
     -4.483  0.2858E+01  0.1805E+02
     -4.369  0.1078E+02  0.1903E+02
     -4.255  0.4963E+01  0.1988E+02
     -4.141  0.8155E+01  0.2054E+02
     -4.027  0.7643E+01  0.2148E+02
     -3.913  0.2233E+01  0.2206E+02
     -3.799  0.6529E+01  0.2241E+02
     -3.685  0.7073E+01  0.2334E+02
     -3.571  0.2730E+01  0.2384E+02
     -3.457  0.1367E+00  0.2400E+02
     -3.343  0.0000E+00  0.2400E+02
     -3.229  0.0000E+00  0.2400E+02
     -3.115  0.0000E+00  0.2400E+02
     -3.001  0.0000E+00  0.2400E+02
     -2.886  0.0000E+00  0.2400E+02
     -2.772  0.0000E+00  0.2400E+02
     -2.658  0.0000E+00  0.2400E+02
     -2.544  0.0000E+00  0.2400E+02
     -2.430  0.0000E+00  0.2400E+02
     -2.316  0.0000E+00  0.2400E+02
     -2.202  0.7846E+01  0.2420E+02
     -2.088  0.1030E+02  0.2554E+02
     -1.974  0.7865E+01  0.2639E+02
     -1.860  0.5323E+01  0.2713E+02
     -1.746  0.3860E+01  0.2780E+02
     -1.632  0.4835E+01  0.2814E+02
     -1.518  0.1046E+02  0.2919E+02
     -1.404  0.3181E+01  0.2993E+02
     -1.290  0.4414E+01  0.3012E+02
     -1.176  0.1325E+02  0.3127E+02
     -1.062  0.8512E+00  0.3198E+02
     -0.947  0.2105E+02  0.3271E+02
     -0.833  0.1157E+01  0.3388E+02
     -0.719  0.5250E+01  0.3415E+02
     -0.605  0.8063E+01  0.3492E+02
     -0.491  0.8374E+01  0.3605E+02
     -0.377  0.1108E+02  0.3715E+02
     -0.263  0.4773E+01  0.3785E+02
     -0.149  0.9634E+01  0.3862E+02
     -0.035  0.6762E+01  0.3964E+02
      0.079  0.6404E+01  0.4025E+02
      0.193  0.1541E+02  0.4143E+02
      0.307  0.1185E+01  0.4201E+02
      0.421  0.1328E+02  0.4277E+02
      0.535  0.2494E+01  0.4377E+02
      0.649  0.4410E+01  0.4415E+02
      0.763  0.7698E+01  0.4477E+02
      0.877  0.6403E+01  0.4600E+02
      0.992  0.8358E+01  0.4668E+02
      1.106  0.4487E+01  0.4780E+02
      1.220  0.0000E+00  0.4800E+02
      1.334  0.0000E+00  0.4800E+02
      1.448  0.0000E+00  0.4800E+02
      1.562  0.0000E+00  0.4800E+02
      1.676  0.0000E+00  0.4800E+02
      1.790  0.0000E+00  0.4800E+02
      1.904  0.0000E+00  0.4800E+02
      2.018  0.0000E+00  0.4800E+02
      2.132  0.0000E+00  0.4800E+02
      2.246  0.0000E+00  0.4800E+02
      2.360  0.0000E+00  0.4800E+02
      2.474  0.0000E+00  0.4800E+02
      2.588  0.0000E+00  0.4800E+02
      2.702  0.0000E+00  0.4800E+02
      2.816  0.0000E+00  0.4800E+02
      2.931  0.0000E+00  0.4800E+02
      3.045  0.0000E+00  0.4800E+02
      3.159  0.0000E+00  0.4800E+02
      3.273  0.0000E+00  0.4800E+02
      3.387  0.0000E+00  0.4800E+02
      3.501  0.0000E+00  0.4800E+02
      3.615  0.0000E+00  0.4800E+02
      3.729  0.0000E+00  0.4800E+02
      3.843  0.0000E+00  0.4800E+02
      3.957  0.0000E+00  0.4800E+02
      4.071  0.0000E+00  0.4800E+02
      4.185  0.0000E+00  0.4800E+02
      4.299  0.0000E+00  0.4800E+02
      4.413  0.0000E+00  0.4800E+02
      4.527  0.0000E+00  0.4800E+02
      4.641  0.0000E+00  0.4800E+02
      4.756  0.0000E+00  0.4800E+02
      4.870  0.0000E+00  0.4800E+02
      4.984  0.0000E+00  0.4800E+02
      5.098  0.0000E+00  0.4800E+02
      5.212  0.0000E+00  0.4800E+02
      5.326  0.0000E+00  0.4800E+02
      5.440  0.0000E+00  0.4800E+02
      5.554  0.0000E+00  0.4800E+02
      5.668  0.0000E+00  0.4800E+02
      5.782  0.0000E+00  0.4800E+02
      5.896  0.0000E+00  0.4800E+02
      6.010  0.0000E+00  0.4800E+02
      6.124  0.0000E+00  0.4800E+02
      6.238  0.0000E+00  0.4800E+02
      6.352  0.0000E+00  0.4800E+02
      6.466  0.0000E+00  0.4800E+02
      6.580  0.0000E+00  0.4800E+02
      6.695  0.0000E+00  0.4800E+02
      6.809  0.0000E+00  0.4800E+02
      6.923  0.0000E+00  0.4800E+02
      7.037  0.0000E+00  0.4800E+02
      7.151  0.2823E-02  0.4800E+02
      7.265  0.2814E-01  0.4800E+02
      7.379  0.7974E-01  0.4801E+02
      7.493  0.1576E+00  0.4802E+02
      7.607  0.2289E+00  0.4804E+02
      7.721  0.2675E+00  0.4807E+02
      7.835  0.2882E+00  0.4810E+02
      7.949  0.3252E+00  0.4814E+02
      8.063  0.3724E+00  0.4818E+02
      8.177  0.4223E+00  0.4822E+02
      8.291  0.4747E+00  0.4827E+02
      8.405  0.5294E+00  0.4833E+02
      8.519  0.6306E+00  0.4840E+02
      8.634  0.7875E+00  0.4848E+02
      8.748  0.8112E+00  0.4857E+02
      8.862  0.8711E+00  0.4867E+02
      8.976  0.9345E+00  0.4877E+02
      9.090  0.1000E+01  0.4888E+02
      9.204  0.1068E+01  0.4900E+02
      9.318  0.1554E+01  0.4915E+02
      9.432  0.1493E+01  0.4933E+02
      9.546  0.1292E+01  0.4948E+02
      9.660  0.1329E+01  0.4963E+02
      9.774  0.1506E+01  0.4979E+02
      9.888  0.2006E+01  0.4999E+02
     10.002  0.1122E+01  0.5015E+02
     10.116  0.1272E+01  0.5027E+02
     10.230  0.3949E+01  0.5053E+02
     10.344  0.1038E+02  0.5140E+02
     10.458  0.4360E+01  0.5209E+02
     10.573  0.7082E+01  0.5268E+02
     10.687  0.7365E+01  0.5360E+02
     10.801  0.3676E+01  0.5424E+02
     10.915  0.2382E+01  0.5454E+02
     11.029  0.5194E+01  0.5493E+02
     11.143  0.6695E+01  0.5562E+02
     11.257  0.4390E+01  0.5618E+02
     11.371  0.5811E+01  0.5675E+02
     11.485  0.5556E+01  0.5745E+02
     11.599  0.1949E+01  0.5795E+02
     11.713  0.4150E-01  0.5800E+02
     11.827  0.0000E+00  0.5800E+02
     11.941  0.0000E+00  0.5800E+02
     12.055  0.0000E+00  0.5800E+02
     12.169  0.0000E+00  0.5800E+02
     12.283  0.0000E+00  0.5800E+02
     12.398  0.0000E+00  0.5800E+02
     12.512  0.0000E+00  0.5800E+02
     12.626  0.0000E+00  0.5800E+02
     12.740  0.0000E+00  0.5800E+02
     12.854  0.0000E+00  0.5800E+02
     12.968  0.0000E+00  0.5800E+02
     13.082  0.0000E+00  0.5800E+02
     13.196  0.0000E+00  0.5800E+02
     13.310  0.0000E+00  0.5800E+02
     13.424  0.0000E+00  0.5800E+02
     13.538  0.0000E+00  0.5800E+02
     13.652  0.0000E+00  0.5800E+02
     13.766  0.0000E+00  0.5800E+02
