unknown system                          
   1.00000000000000     
     2.573869    0.000000    0.000000
     1.286934    2.229036    0.000000
     0.000000    0.000000   30.304665
   Cu   H 
     4     1
Direct
  0.000000  0.000000  0.398815
  0.333333  0.333333  0.467250
  0.666667  0.666667  0.536042
  0.000000  0.000000  0.605684
  0.000000  0.000000  0.652327
 
   20   20  240
 -.41400E-01 -.39073E-01 -.30725E-01 -.19725E-01 -.10047E-01 -.32735E-02 0.56208E-03 0.12335E-02 -.69218E-03 -.28718E-02
 -.32636E-02 -.21284E-02 -.69261E-03 0.52723E-03 0.63075E-03 -.25171E-02 -.10047E-01 -.20206E-01 -.30086E-01 -.37727E-01
 -.39073E-01 -.33395E-01 -.23038E-01 -.12677E-01 -.53407E-02 -.12152E-02 -.20526E-03 -.23740E-02 -.58150E-02 -.73818E-02
 -.61729E-02 -.38940E-02 -.18625E-02 -.38881E-03 -.91530E-03 -.55702E-02 -.14121E-01 -.23831E-01 -.32325E-01 -.38141E-01
 -.30725E-01 -.23038E-01 -.13642E-01 -.66775E-02 -.31755E-02 -.26837E-02 -.54962E-02 -.10813E-01 -.15218E-01 -.15841E-01
 -.13343E-01 -.98212E-02 -.60279E-02 -.28037E-02 -.27121E-02 -.74502E-02 -.15321E-01 -.23305E-01 -.29683E-01 -.32910E-01
 -.19725E-01 -.12677E-01 -.66775E-02 -.39898E-02 -.44747E-02 -.83539E-02 -.15907E-01 -.24454E-01 -.29366E-01 -.28696E-01
 -.24060E-01 -.17287E-01 -.95583E-02 -.36000E-02 -.27584E-02 -.71430E-02 -.13534E-01 -.19224E-01 -.23148E-01 -.23785E-01
 -.10047E-01 -.53407E-02 -.31755E-02 -.44747E-02 -.94968E-02 -.19096E-01 -.31881E-01 -.42608E-01 -.46290E-01 -.42370E-01
 -.33223E-01 -.21234E-01 -.94992E-02 -.23667E-02 -.19575E-02 -.57885E-02 -.10052E-01 -.13303E-01 -.15151E-01 -.14192E-01
 -.32735E-02 -.12152E-02 -.26837E-02 -.83539E-02 -.19096E-01 -.34720E-01 -.50795E-01 -.60372E-01 -.59775E-01 -.50477E-01
 -.35951E-01 -.19939E-01 -.71528E-02 -.13333E-02 -.16741E-02 -.40436E-02 -.59380E-02 -.74932E-02 -.82261E-02 -.66178E-02
 0.56208E-03 -.20526E-03 -.54962E-02 -.15907E-01 -.31881E-01 -.50795E-01 -.65756E-01 -.70437E-01 -.64004E-01 -.49887E-01
 -.32288E-01 -.15754E-01 -.48896E-02 -.10978E-02 -.12621E-02 -.18806E-02 -.25571E-02 -.37090E-02 -.38125E-02 -.17110E-02
 0.12335E-02 -.23740E-02 -.10813E-01 -.24454E-01 -.42608E-01 -.60372E-01 -.70437E-01 -.69148E-01 -.58453E-01 -.42384E-01
 -.24897E-01 -.10512E-01 -.26677E-02 -.56556E-03 -.58448E-03 -.94821E-03 -.21076E-02 -.32062E-02 -.21665E-02 0.46257E-03
 -.69218E-03 -.58150E-02 -.15218E-01 -.29366E-01 -.46290E-01 -.59775E-01 -.64004E-01 -.58453E-01 -.46291E-01 -.30757E-01
 -.15418E-01 -.47165E-02 -.68731E-03 -.94189E-03 -.22597E-02 -.39548E-02 -.57728E-02 -.56950E-02 -.28283E-02 0.11400E-04
 -.28718E-02 -.73818E-02 -.15841E-01 -.28696E-01 -.42370E-01 -.50477E-01 -.49887E-01 -.42384E-01 -.30757E-01 -.17343E-01
 -.60323E-02 -.90662E-03 -.19024E-02 -.52735E-02 -.84698E-02 -.11166E-01 -.12128E-01 -.95521E-02 -.48103E-02 -.18906E-02
 -.32636E-02 -.61729E-02 -.13343E-01 -.24060E-01 -.33223E-01 -.35951E-01 -.32288E-01 -.24897E-01 -.15418E-01 -.60323E-02
 -.99147E-03 -.26375E-02 -.82373E-02 -.13680E-01 -.17687E-01 -.19928E-01 -.18554E-01 -.13067E-01 -.68009E-02 -.33808E-02
 -.21284E-02 -.38940E-02 -.98212E-02 -.17287E-01 -.21234E-01 -.19939E-01 -.15754E-01 -.10512E-01 -.47165E-02 -.90662E-03
 -.26375E-02 -.94644E-02 -.17144E-01 -.22973E-01 -.26862E-01 -.27628E-01 -.23242E-01 -.15136E-01 -.77735E-02 -.35742E-02
 -.69261E-03 -.18625E-02 -.60279E-02 -.95583E-02 -.94992E-02 -.71528E-02 -.48896E-02 -.26677E-02 -.68731E-03 -.19024E-02
 -.82373E-02 -.17144E-01 -.24999E-01 -.30905E-01 -.34322E-01 -.32669E-01 -.24998E-01 -.15074E-01 -.73981E-02 -.28154E-02
 0.52723E-03 -.38881E-03 -.28037E-02 -.36000E-02 -.23667E-02 -.13333E-02 -.10978E-02 -.56556E-03 -.94189E-03 -.52735E-02
 -.13680E-01 -.22973E-01 -.30905E-01 -.36780E-01 -.38372E-01 -.33121E-01 -.22800E-01 -.12709E-01 -.58388E-02 -.15343E-02
 0.63075E-03 -.91530E-03 -.27121E-02 -.27584E-02 -.19575E-02 -.16741E-02 -.12621E-02 -.58448E-03 -.22597E-02 -.84698E-02
 -.17687E-01 -.26862E-01 -.34322E-01 -.38372E-01 -.36280E-01 -.27782E-01 -.17143E-01 -.88848E-02 -.36427E-02 -.33178E-03
 -.25171E-02 -.55702E-02 -.74502E-02 -.71430E-02 -.57885E-02 -.40436E-02 -.18806E-02 -.94821E-03 -.39548E-02 -.11166E-01
 -.19928E-01 -.27628E-01 -.32669E-01 -.33121E-01 -.27782E-01 -.18849E-01 -.10620E-01 -.52348E-02 -.20965E-02 -.98287E-03
 -.10047E-01 -.14121E-01 -.15321E-01 -.13534E-01 -.10052E-01 -.59380E-02 -.25571E-02 -.21076E-02 -.57728E-02 -.12128E-01
 -.18554E-01 -.23242E-01 -.24998E-01 -.22800E-01 -.17143E-01 -.10620E-01 -.57706E-02 -.32737E-02 -.30670E-02 -.55172E-02
 -.20206E-01 -.23831E-01 -.23305E-01 -.19224E-01 -.13303E-01 -.74932E-02 -.37090E-02 -.32062E-02 -.56950E-02 -.95521E-02
 -.13067E-01 -.15136E-01 -.15074E-01 -.12709E-01 -.88848E-02 -.52348E-02 -.32737E-02 -.39660E-02 -.77284E-02 -.13894E-01
 -.30086E-01 -.32325E-01 -.29683E-01 -.23148E-01 -.15151E-01 -.82261E-02 -.38125E-02 -.21665E-02 -.28283E-02 -.48103E-02
 -.68009E-02 -.77735E-02 -.73981E-02 -.58388E-02 -.36427E-02 -.20965E-02 -.30670E-02 -.77284E-02 -.15390E-01 -.23745E-01
 -.37727E-01 -.38141E-01 -.32910E-01 -.23785E-01 -.14192E-01 -.66178E-02 -.17110E-02 0.46257E-03 0.11400E-04 -.18906E-02
 -.33808E-02 -.35742E-02 -.28154E-02 -.15343E-02 -.33178E-03 -.98287E-03 -.55172E-02 -.13894E-01 -.23745E-01 -.32362E-01
 -.33941E-01 -.31641E-01 -.24524E-01 -.15402E-01 -.74201E-02 -.20112E-02 0.82308E-03 0.14072E-02 0.49078E-03 -.52990E-03
 -.66047E-03 -.11974E-03 0.49133E-03 0.96919E-03 0.73308E-03 -.17118E-02 -.74212E-02 -.15604E-01 -.24172E-01 -.30957E-01
 -.31641E-01 -.26740E-01 -.18136E-01 -.96162E-02 -.36692E-02 -.42252E-03 0.63910E-03 -.50902E-04 -.12358E-02 -.13571E-02
 -.37713E-03 0.47104E-03 0.70664E-03 0.65033E-03 -.41279E-03 -.41134E-02 -.10756E-01 -.18727E-01 -.26063E-01 -.31041E-01
 -.24524E-01 -.18136E-01 -.10440E-01 -.47948E-02 -.17688E-02 -.41202E-03 -.45361E-03 -.15362E-02 -.21757E-02 -.14976E-02
 -.58804E-03 -.51262E-03 -.62003E-03 -.43862E-03 -.15127E-02 -.54779E-02 -.11685E-01 -.18213E-01 -.23627E-01 -.26376E-01
 -.15402E-01 -.96162E-02 -.47948E-02 -.23427E-02 -.11568E-02 -.67356E-03 -.14777E-02 -.29785E-02 -.35206E-02 -.30178E-02
 -.27702E-02 -.27051E-02 -.16494E-02 -.35322E-03 -.12894E-02 -.51691E-02 -.10204E-01 -.14761E-01 -.18091E-01 -.18740E-01
 -.74201E-02 -.36692E-02 -.17688E-02 -.11568E-02 -.73825E-03 -.13282E-02 -.35749E-02 -.57938E-02 -.62814E-02 -.56927E-02
 -.49961E-02 -.34219E-02 -.73939E-03 0.78764E-03 -.77593E-03 -.42407E-02 -.74254E-02 -.98869E-02 -.11492E-01 -.10810E-01
 -.20112E-02 -.42252E-03 -.41202E-03 -.67356E-03 -.13282E-02 -.37941E-02 -.72985E-02 -.91162E-02 -.84778E-02 -.69575E-02
 -.51086E-02 -.22409E-02 0.56182E-03 0.92706E-03 -.10698E-02 -.30099E-02 -.39839E-02 -.49958E-02 -.57257E-02 -.45707E-02
 0.82308E-03 0.63910E-03 -.45361E-03 -.14777E-02 -.35749E-02 -.72985E-02 -.10238E-01 -.10184E-01 -.82487E-02 -.63305E-02
 -.41421E-02 -.12991E-02 0.45542E-03 -.55306E-04 -.10789E-02 -.90840E-03 -.64496E-03 -.14671E-02 -.19166E-02 -.63749E-03
 0.14072E-02 -.50902E-04 -.15362E-02 -.29785E-02 -.57938E-02 -.91162E-02 -.10184E-01 -.86958E-02 -.69542E-02 -.56884E-02
 -.36157E-02 -.10699E-02 0.12073E-05 -.25639E-03 0.17580E-03 0.12552E-02 0.10705E-02 -.11972E-03 -.67822E-04 0.12233E-02
 0.49078E-03 -.12358E-02 -.21757E-02 -.35206E-02 -.62814E-02 -.84778E-02 -.82487E-02 -.69542E-02 -.62816E-02 -.51666E-02
 -.25191E-02 -.72283E-04 0.49590E-03 0.46882E-03 0.12694E-02 0.16477E-02 0.53718E-03 -.28477E-03 0.63825E-03 0.15206E-02
 -.52990E-03 -.13571E-02 -.14976E-02 -.30178E-02 -.56927E-02 -.69575E-02 -.63305E-02 -.56884E-02 -.51666E-02 -.30976E-02
 -.72017E-04 0.12677E-02 0.65741E-03 0.32823E-03 0.71926E-03 0.23368E-03 -.83978E-03 -.48700E-03 0.92534E-03 0.94862E-03
 -.66047E-03 -.37713E-03 -.58804E-03 -.27702E-02 -.49961E-02 -.51086E-02 -.41421E-02 -.36157E-02 -.25191E-02 -.72017E-04
 0.16107E-02 0.81514E-03 -.68077E-03 -.80680E-03 -.55285E-03 -.12294E-02 -.14990E-02 -.20107E-03 0.89851E-03 0.23654E-03
 -.11974E-03 0.47104E-03 -.51262E-03 -.27051E-02 -.34219E-02 -.22409E-02 -.12991E-02 -.10699E-02 -.72283E-04 0.12677E-02
 0.81514E-03 -.11011E-02 -.19155E-02 -.12987E-02 -.12878E-02 -.20153E-02 -.15505E-02 0.20147E-05 0.48892E-03 -.18516E-03
 0.49133E-03 0.70664E-03 -.62003E-03 -.16494E-02 -.73939E-03 0.56182E-03 0.45542E-03 0.12073E-05 0.49590E-03 0.65741E-03
 -.68077E-03 -.19155E-02 -.15990E-02 -.12001E-02 -.21109E-02 -.27616E-02 -.15981E-02 -.10281E-03 0.14408E-04 -.18875E-03
 0.96919E-03 0.65033E-03 -.43862E-03 -.35322E-03 0.78764E-03 0.92706E-03 -.55306E-04 -.25639E-03 0.46882E-03 0.32823E-03
 -.80680E-03 -.12987E-02 -.12001E-02 -.20890E-02 -.34800E-02 -.31717E-02 -.12444E-02 -.29176E-04 -.70256E-04 0.22280E-03
 0.73308E-03 -.41279E-03 -.15127E-02 -.12894E-02 -.77593E-03 -.10698E-02 -.10789E-02 0.17580E-03 0.12694E-02 0.71926E-03
 -.55285E-03 -.12878E-02 -.21109E-02 -.34800E-02 -.38280E-02 -.21458E-02 -.16795E-03 0.33061E-03 0.18996E-03 0.62517E-03
 -.17118E-02 -.41134E-02 -.54779E-02 -.51691E-02 -.42407E-02 -.30099E-02 -.90840E-03 0.12552E-02 0.16477E-02 0.23368E-03
 -.12294E-02 -.20153E-02 -.27616E-02 -.31717E-02 -.21458E-02 -.23536E-03 0.70873E-03 0.40262E-03 0.96702E-04 -.19928E-03
 -.74212E-02 -.10756E-01 -.11685E-01 -.10204E-01 -.74254E-02 -.39839E-02 -.64496E-03 0.10705E-02 0.53718E-03 -.83978E-03
 -.14990E-02 -.15505E-02 -.15981E-02 -.12444E-02 -.16795E-03 0.70873E-03 0.53935E-03 -.25732E-03 -.13780E-02 -.36864E-02
 -.15604E-01 -.18727E-01 -.18213E-01 -.14761E-01 -.98869E-02 -.49958E-02 -.14671E-02 -.11972E-03 -.28477E-03 -.48700E-03
 -.20107E-03 0.20147E-05 -.10281E-03 -.29176E-04 0.33061E-03 0.40262E-03 -.25732E-03 -.19006E-02 -.51398E-02 -.10210E-01
 -.24172E-01 -.26063E-01 -.23627E-01 -.18091E-01 -.11492E-01 -.57257E-02 -.19166E-02 -.67822E-04 0.63825E-03 0.92534E-03
 0.89851E-03 0.48892E-03 0.14408E-04 -.70256E-04 0.18996E-03 0.96702E-04 -.13780E-02 -.51398E-02 -.11300E-01 -.18498E-01
 -.30957E-01 -.31041E-01 -.26376E-01 -.18740E-01 -.10810E-01 -.45707E-02 -.63749E-03 0.12233E-02 0.15206E-02 0.94862E-03
 0.23654E-03 -.18516E-03 -.18875E-03 0.22280E-03 0.62517E-03 -.19928E-03 -.36864E-02 -.10210E-01 -.18498E-01 -.26220E-01
 0.41812E-01 0.38625E-01 0.30298E-01 0.19837E-01 0.10463E-01 0.41568E-02 0.11684E-02 0.54635E-03 0.10517E-02 0.17480E-02
 0.20890E-02 0.18251E-02 0.10525E-02 0.37510E-03 0.91872E-03 0.39995E-02 0.10461E-01 0.19916E-01 0.30363E-01 0.38648E-01
 0.38625E-01 0.32900E-01 0.23891E-01 0.14237E-01 0.64307E-02 0.20480E-02 0.10481E-02 0.22064E-02 0.42627E-02 0.62210E-02
 0.69726E-02 0.57567E-02 0.32120E-02 0.12570E-02 0.17702E-02 0.57717E-02 0.13398E-01 0.23500E-01 0.33183E-01 0.38895E-01
 0.30298E-01 0.23891E-01 0.15709E-01 0.77861E-02 0.27461E-02 0.22017E-02 0.53819E-02 0.10195E-01 0.14756E-01 0.17270E-01
 0.16057E-01 0.11252E-01 0.55813E-02 0.22701E-02 0.27973E-02 0.71929E-02 0.14894E-01 0.24002E-01 0.31050E-01 0.33212E-01
 0.19837E-01 0.14237E-01 0.77861E-02 0.29854E-02 0.30384E-02 0.85676E-02 0.16988E-01 0.25116E-01 0.30496E-01 0.30833E-01
 0.25139E-01 0.15911E-01 0.78176E-02 0.37707E-02 0.38616E-02 0.75035E-02 0.13918E-01 0.20620E-01 0.24256E-01 0.23595E-01
 0.10463E-01 0.64307E-02 0.27461E-02 0.30384E-02 0.98875E-02 0.21484E-01 0.33583E-01 0.42834E-01 0.46648E-01 0.42799E-01
 0.32082E-01 0.19432E-01 0.98867E-02 0.48189E-02 0.35123E-02 0.57351E-02 0.10460E-01 0.14541E-01 0.15424E-01 0.13579E-01
 0.41568E-02 0.20480E-02 0.22017E-02 0.85676E-02 0.21484E-01 0.36848E-01 0.50281E-01 0.58848E-01 0.59528E-01 0.50646E-01
 0.35450E-01 0.20501E-01 0.98389E-02 0.35305E-02 0.12108E-02 0.29284E-02 0.65410E-02 0.84774E-02 0.77492E-02 0.60458E-02
 0.11684E-02 0.10481E-02 0.53819E-02 0.16988E-01 0.33583E-01 0.50281E-01 0.63439E-01 0.69772E-01 0.65670E-01 0.51310E-01
 0.32854E-01 0.17192E-01 0.65976E-02 0.55474E-03 -.81338E-03 0.16302E-02 0.42930E-02 0.43977E-02 0.30076E-02 0.20065E-02
 0.54635E-03 0.22064E-02 0.10195E-01 0.25116E-01 0.42834E-01 0.58848E-01 0.69772E-01 0.71462E-01 0.61254E-01 0.42820E-01
 0.24284E-01 0.10827E-01 0.26063E-02 -.98228E-03 -.27532E-04 0.29921E-02 0.41800E-02 0.28978E-02 0.15648E-02 0.10223E-02
 0.10517E-02 0.42627E-02 0.14756E-01 0.30496E-01 0.46648E-01 0.59528E-01 0.65670E-01 0.61254E-01 0.46648E-01 0.28595E-01
 0.14269E-01 0.54905E-02 0.10541E-02 0.77508E-03 0.37789E-02 0.64569E-02 0.61560E-02 0.43272E-02 0.30823E-02 0.19274E-02
 0.17480E-02 0.62210E-02 0.17270E-01 0.30833E-01 0.42799E-01 0.50646E-01 0.51310E-01 0.42820E-01 0.28595E-01 0.15572E-01
 0.74434E-02 0.33779E-02 0.26313E-02 0.55132E-02 0.99099E-02 0.11944E-01 0.10756E-01 0.85762E-02 0.62446E-02 0.32044E-02
 0.20890E-02 0.69726E-02 0.16057E-01 0.25139E-01 0.32082E-01 0.35450E-01 0.32854E-01 0.24284E-01 0.14269E-01 0.74434E-02
 0.43626E-02 0.40413E-02 0.70876E-02 0.13131E-01 0.18434E-01 0.19638E-01 0.17408E-01 0.13730E-01 0.88106E-02 0.36256E-02
 0.18251E-02 0.57567E-02 0.11252E-01 0.15911E-01 0.19432E-01 0.20501E-01 0.17192E-01 0.10827E-01 0.54905E-02 0.33779E-02
 0.40413E-02 0.77082E-02 0.15027E-01 0.23468E-01 0.28278E-01 0.27589E-01 0.23235E-01 0.16854E-01 0.91962E-02 0.29758E-02
 0.10525E-02 0.32120E-02 0.55813E-02 0.78176E-02 0.98867E-02 0.98389E-02 0.65976E-02 0.26063E-02 0.10541E-02 0.26313E-02
 0.70876E-02 0.15027E-01 0.25358E-01 0.33606E-01 0.35806E-01 0.32247E-01 0.25359E-01 0.16583E-01 0.76395E-02 0.18536E-02
 0.37510E-03 0.12570E-02 0.22701E-02 0.37707E-02 0.48189E-02 0.35305E-02 0.55474E-03 -.98228E-03 0.77508E-03 0.55132E-02
 0.13131E-01 0.23468E-01 0.33606E-01 0.38964E-01 0.37773E-01 0.31878E-01 0.23406E-01 0.13717E-01 0.52822E-02 0.87436E-03
 0.91872E-03 0.17702E-02 0.27973E-02 0.38616E-02 0.35123E-02 0.12108E-02 -.81338E-03 -.27532E-04 0.37789E-02 0.99099E-02
 0.18434E-01 0.28278E-01 0.35806E-01 0.37773E-01 0.34328E-01 0.27481E-01 0.18659E-01 0.95471E-02 0.30006E-02 0.61618E-03
 0.39995E-02 0.57717E-02 0.71929E-02 0.75035E-02 0.57351E-02 0.29284E-02 0.16302E-02 0.29921E-02 0.64569E-02 0.11944E-01
 0.19638E-01 0.27589E-01 0.32247E-01 0.31878E-01 0.27481E-01 0.20545E-01 0.12345E-01 0.52452E-02 0.18239E-02 0.21524E-02
 0.10461E-01 0.13398E-01 0.14894E-01 0.13918E-01 0.10460E-01 0.65410E-02 0.42930E-02 0.41800E-02 0.61560E-02 0.10756E-01
 0.17408E-01 0.23235E-01 0.25359E-01 0.23406E-01 0.18659E-01 0.12345E-01 0.61586E-02 0.26920E-02 0.33386E-02 0.67150E-02
 0.19916E-01 0.23500E-01 0.24002E-01 0.20620E-01 0.14541E-01 0.84774E-02 0.43977E-02 0.28978E-02 0.43272E-02 0.85762E-02
 0.13730E-01 0.16854E-01 0.16583E-01 0.13717E-01 0.95471E-02 0.52452E-02 0.26920E-02 0.37869E-02 0.84222E-02 0.14483E-01
 0.30363E-01 0.33183E-01 0.31050E-01 0.24256E-01 0.15424E-01 0.77492E-02 0.30076E-02 0.15648E-02 0.30823E-02 0.62446E-02
 0.88106E-02 0.91962E-02 0.76395E-02 0.52822E-02 0.30006E-02 0.18239E-02 0.33386E-02 0.84222E-02 0.16047E-01 0.24041E-01
 0.38648E-01 0.38895E-01 0.33212E-01 0.23595E-01 0.13579E-01 0.60458E-02 0.20065E-02 0.10223E-02 0.19274E-02 0.32044E-02
 0.36256E-02 0.29758E-02 0.18536E-02 0.87436E-03 0.61618E-03 0.21524E-02 0.67150E-02 0.14483E-01 0.24041E-01 0.32977E-01
 0.35385E-01 0.32815E-01 0.25153E-01 0.15749E-01 0.81076E-02 0.34475E-02 0.10780E-02 0.10539E-03 -.10546E-03 -.20431E-03
 -.44468E-03 -.45943E-03 -.10544E-03 0.19770E-03 0.66585E-03 0.28331E-02 0.81058E-02 0.16110E-01 0.24932E-01 0.32179E-01
 0.32815E-01 0.27597E-01 0.19334E-01 0.11157E-01 0.51428E-02 0.16178E-02 -.34234E-04 -.44323E-03 -.85264E-04 0.56851E-03
 0.10926E-02 0.11970E-02 0.81032E-03 0.37170E-03 0.10523E-02 0.42689E-02 0.10618E-01 0.19143E-01 0.27488E-01 0.32755E-01
 0.25153E-01 0.19334E-01 0.12326E-01 0.59808E-02 0.17046E-02 -.57462E-04 0.46089E-04 0.10664E-02 0.23921E-02 0.34288E-02
 0.34090E-02 0.21575E-02 0.61167E-03 0.10733E-03 0.15528E-02 0.54774E-02 0.11939E-01 0.19632E-01 0.25760E-01 0.27768E-01
 0.15749E-01 0.11157E-01 0.59808E-02 0.16643E-02 -.28010E-04 0.94127E-03 0.28823E-02 0.45474E-02 0.57200E-02 0.58906E-02
 0.43860E-02 0.19540E-02 0.41729E-03 0.63531E-03 0.23651E-02 0.57882E-02 0.11105E-01 0.16674E-01 0.19688E-01 0.19013E-01
 0.81076E-02 0.51428E-02 0.17046E-02 -.28010E-04 0.13851E-02 0.42771E-02 0.63063E-02 0.73195E-02 0.78671E-02 0.71480E-02
 0.47239E-02 0.22652E-02 0.13848E-02 0.15896E-02 0.22427E-02 0.43209E-02 0.81094E-02 0.11342E-01 0.11883E-01 0.10337E-01
 0.34475E-02 0.16178E-02 -.57462E-04 0.94127E-03 0.42771E-02 0.69856E-02 0.80666E-02 0.89799E-02 0.97036E-02 0.84567E-02
 0.55001E-02 0.32214E-02 0.22489E-02 0.12618E-02 0.58913E-03 0.19888E-02 0.47780E-02 0.61379E-02 0.54093E-02 0.43717E-02
 0.10780E-02 -.34234E-04 0.46089E-04 0.28823E-02 0.63063E-02 0.80666E-02 0.93129E-02 0.11242E-01 0.11789E-01 0.91583E-02
 0.54118E-02 0.31108E-02 0.15710E-02 -.32457E-03 -.98448E-03 0.76327E-03 0.26322E-02 0.23843E-02 0.13324E-02 0.12457E-02
 0.10539E-03 -.44323E-03 0.10664E-02 0.45474E-02 0.73195E-02 0.89799E-02 0.11242E-01 0.13135E-01 0.11634E-01 0.71851E-02
 0.35184E-02 0.18662E-02 0.30659E-03 -.12887E-02 -.90663E-03 0.91743E-03 0.12509E-02 -.12397E-03 -.61449E-03 0.14704E-03
 -.10546E-03 -.85264E-04 0.23921E-02 0.57200E-02 0.78671E-02 0.97036E-02 0.11789E-01 0.11634E-01 0.78698E-02 0.35631E-02
 0.17620E-02 0.12075E-02 -.10740E-03 -.90763E-03 0.16988E-03 0.10944E-02 -.12100E-05 -.12345E-02 -.59211E-03 0.34788E-03
 -.20431E-03 0.56851E-03 0.34288E-02 0.58906E-02 0.71480E-02 0.84567E-02 0.91583E-02 0.71851E-02 0.35631E-02 0.16333E-02
 0.17293E-02 0.12575E-02 -.10442E-03 -.15477E-03 0.10190E-02 0.96166E-03 -.34141E-03 -.44276E-03 0.71232E-03 0.75266E-03
 -.44468E-03 0.10926E-02 0.34090E-02 0.43860E-02 0.47239E-02 0.55001E-02 0.54118E-02 0.35184E-02 0.17620E-02 0.17293E-02
 0.18323E-02 0.60640E-03 -.27876E-03 0.72557E-03 0.19149E-02 0.14985E-02 0.80903E-03 0.13173E-02 0.15873E-02 0.35256E-03
 -.45943E-03 0.11970E-02 0.21575E-02 0.19540E-02 0.22652E-02 0.32214E-02 0.31108E-02 0.18662E-02 0.12075E-02 0.12575E-02
 0.60640E-03 -.30589E-03 0.43343E-03 0.24477E-02 0.33357E-02 0.26857E-02 0.22324E-02 0.21683E-02 0.10777E-02 -.52466E-03
 -.10544E-03 0.81032E-03 0.61167E-03 0.41729E-03 0.13848E-02 0.22489E-02 0.15710E-02 0.30659E-03 -.10740E-03 -.10442E-03
 -.27876E-03 0.43343E-03 0.25951E-02 0.44211E-02 0.43221E-02 0.32666E-02 0.25964E-02 0.17309E-02 0.13033E-03 -.81099E-03
 0.19770E-03 0.37170E-03 0.10733E-03 0.63531E-03 0.15896E-02 0.12618E-02 -.32457E-03 -.12887E-02 -.90763E-03 -.15477E-03
 0.72557E-03 0.24477E-02 0.44211E-02 0.49634E-02 0.39749E-02 0.29409E-02 0.22689E-02 0.11218E-02 -.21580E-03 -.46203E-03
 0.66585E-03 0.10523E-02 0.15528E-02 0.23651E-02 0.22427E-02 0.58913E-03 -.98448E-03 -.90663E-03 0.16988E-03 0.10190E-02
 0.19149E-02 0.33357E-02 0.43221E-02 0.39749E-02 0.30859E-02 0.26009E-02 0.19794E-02 0.68223E-03 -.30583E-03 -.69285E-04
 0.28331E-02 0.42689E-02 0.54774E-02 0.57882E-02 0.43209E-02 0.19888E-02 0.76327E-03 0.91743E-03 0.10944E-02 0.96166E-03
 0.14985E-02 0.26857E-02 0.32666E-02 0.29409E-02 0.26009E-02 0.23149E-02 0.12851E-02 -.83908E-04 -.25850E-03 0.10991E-02
 0.81058E-02 0.10618E-01 0.11939E-01 0.11105E-01 0.81094E-02 0.47780E-02 0.26322E-02 0.12509E-02 -.12100E-05 -.34141E-03
 0.80903E-03 0.22324E-02 0.25964E-02 0.22689E-02 0.19794E-02 0.12851E-02 0.64392E-06 -.39516E-03 0.14574E-02 0.48271E-02
 0.16110E-01 0.19143E-01 0.19632E-01 0.16674E-01 0.11342E-01 0.61379E-02 0.23843E-02 -.12397E-03 -.12345E-02 -.44276E-03
 0.13173E-02 0.21683E-02 0.17309E-02 0.11218E-02 0.68223E-03 -.83908E-04 -.39516E-03 0.15964E-02 0.61682E-02 0.11547E-01
 0.24932E-01 0.27488E-01 0.25760E-01 0.19688E-01 0.11883E-01 0.54093E-02 0.13324E-02 -.61449E-03 -.59211E-03 0.71232E-03
 0.15873E-02 0.10777E-02 0.13033E-03 -.21580E-03 -.30583E-03 -.25850E-03 0.14574E-02 0.61682E-02 0.12934E-01 0.19665E-01
 0.32179E-01 0.32755E-01 0.27768E-01 0.19013E-01 0.10337E-01 0.43717E-02 0.12457E-02 0.14704E-03 0.34788E-03 0.75266E-03
 0.35256E-03 -.52466E-03 -.81099E-03 -.46203E-03 -.69285E-04 0.10991E-02 0.48271E-02 0.11547E-01 0.19665E-01 0.27143E-01
 -.41433E-01 -.37777E-01 -.30165E-01 -.20297E-01 -.10064E-01 -.23828E-02 0.86662E-03 0.69714E-03 -.69195E-03 -.22094E-02
 -.32694E-02 -.27964E-02 -.69248E-03 0.10524E-02 0.29082E-03 -.34552E-02 -.10066E-01 -.19654E-01 -.30671E-01 -.39073E-01
 -.37777E-01 -.32367E-01 -.23570E-01 -.13446E-01 -.49057E-02 -.59739E-03 -.74313E-03 -.31725E-02 -.56255E-02 -.69988E-02
 -.67019E-02 -.45543E-02 -.16716E-02 -.14244E-03 -.14531E-02 -.59955E-02 -.13684E-01 -.23559E-01 -.32868E-01 -.38167E-01
 -.30165E-01 -.23570E-01 -.14800E-01 -.69320E-02 -.26228E-02 -.28136E-02 -.64002E-02 -.11089E-01 -.14657E-01 -.15718E-01
 -.13924E-01 -.99636E-02 -.54683E-02 -.25528E-02 -.29781E-02 -.73455E-02 -.14757E-01 -.23084E-01 -.29703E-01 -.32406E-01
 -.20297E-01 -.13446E-01 -.69320E-02 -.35447E-02 -.41916E-02 -.87167E-02 -.16146E-01 -.23956E-01 -.28814E-01 -.28809E-01
 -.24303E-01 -.16925E-01 -.90128E-02 -.35953E-02 -.30186E-02 -.70349E-02 -.13232E-01 -.19231E-01 -.23397E-01 -.24085E-01
 -.10064E-01 -.49057E-02 -.26228E-02 -.41916E-02 -.95168E-02 -.19061E-01 -.31561E-01 -.42273E-01 -.46298E-01 -.42581E-01
 -.33225E-01 -.21033E-01 -.95150E-02 -.27354E-02 -.23126E-02 -.58551E-02 -.10060E-01 -.13612E-01 -.15731E-01 -.14659E-01
 -.23828E-02 -.59739E-03 -.28136E-02 -.87167E-02 -.19061E-01 -.34496E-01 -.50914E-01 -.60759E-01 -.59992E-01 -.50499E-01
 -.36069E-01 -.20190E-01 -.73732E-02 -.15043E-02 -.18179E-02 -.40722E-02 -.59115E-02 -.76222E-02 -.83512E-02 -.62291E-02
 0.86662E-03 -.74313E-03 -.64002E-02 -.16146E-01 -.31561E-01 -.50914E-01 -.66404E-01 -.70706E-01 -.63683E-01 -.49760E-01
 -.32621E-01 -.15895E-01 -.45675E-02 -.83116E-03 -.12760E-02 -.17913E-02 -.22616E-02 -.34930E-02 -.35774E-02 -.12045E-02
 0.69714E-03 -.31725E-02 -.11089E-01 -.23956E-01 -.42273E-01 -.60759E-01 -.70706E-01 -.68609E-01 -.57857E-01 -.42528E-01
 -.25182E-01 -.10122E-01 -.20725E-02 -.56180E-03 -.85625E-03 -.81276E-03 -.17949E-02 -.32630E-02 -.24504E-02 0.20022E-03
 -.69195E-03 -.56255E-02 -.14657E-01 -.28814E-01 -.46298E-01 -.59992E-01 -.63683E-01 -.57857E-01 -.46294E-01 -.31226E-01
 -.15429E-01 -.42666E-02 -.69729E-03 -.15444E-02 -.25866E-02 -.37505E-02 -.57887E-02 -.62775E-02 -.34130E-02 -.18572E-03
 -.22094E-02 -.69988E-02 -.15718E-01 -.28809E-01 -.42581E-01 -.50499E-01 -.49760E-01 -.42528E-01 -.31226E-01 -.17611E-01
 -.58997E-02 -.91565E-03 -.23815E-02 -.56916E-02 -.83446E-02 -.10920E-01 -.12338E-01 -.99324E-02 -.46875E-02 -.12401E-02
 -.32694E-02 -.67019E-02 -.13924E-01 -.24303E-01 -.33225E-01 -.36069E-01 -.32621E-01 -.25182E-01 -.15429E-01 -.58997E-02
 -.99030E-03 -.27777E-02 -.82523E-02 -.13427E-01 -.17372E-01 -.19814E-01 -.18557E-01 -.12842E-01 -.62432E-02 -.28689E-02
 -.27964E-02 -.45543E-02 -.99636E-02 -.16925E-01 -.21033E-01 -.20190E-01 -.15895E-01 -.10122E-01 -.42666E-02 -.91565E-03
 -.27777E-02 -.92036E-02 -.16690E-01 -.22846E-01 -.26999E-01 -.27610E-01 -.23044E-01 -.15049E-01 -.79254E-02 -.39737E-02
 -.69248E-03 -.16716E-02 -.54683E-02 -.90128E-02 -.95150E-02 -.73732E-02 -.45675E-02 -.20725E-02 -.69729E-03 -.23815E-02
 -.82523E-02 -.16690E-01 -.25003E-01 -.31505E-01 -.34645E-01 -.32456E-01 -.25003E-01 -.15652E-01 -.79865E-02 -.30167E-02
 0.10524E-02 -.14244E-03 -.25528E-02 -.35953E-02 -.27354E-02 -.15043E-02 -.83116E-03 -.56180E-03 -.15444E-02 -.56916E-02
 -.13427E-01 -.22846E-01 -.31505E-01 -.37320E-01 -.38106E-01 -.32737E-01 -.23141E-01 -.13221E-01 -.55814E-02 -.75162E-03
 0.29082E-03 -.14531E-02 -.29781E-02 -.30186E-02 -.23126E-02 -.18179E-02 -.12760E-02 -.85625E-03 -.25866E-02 -.83446E-02
 -.17372E-01 -.26999E-01 -.34645E-01 -.38106E-01 -.35637E-01 -.27670E-01 -.17469E-01 -.86544E-02 -.27575E-02 0.17548E-03
 -.34552E-02 -.59955E-02 -.73455E-02 -.70349E-02 -.58551E-02 -.40722E-02 -.17913E-02 -.81276E-03 -.37505E-02 -.10920E-01
 -.19814E-01 -.27610E-01 -.32456E-01 -.32737E-01 -.27670E-01 -.19089E-01 -.10676E-01 -.48951E-02 -.19953E-02 -.16418E-02
 -.10066E-01 -.13684E-01 -.14757E-01 -.13232E-01 -.10060E-01 -.59115E-02 -.22616E-02 -.17949E-02 -.57887E-02 -.12338E-01
 -.18557E-01 -.23044E-01 -.25003E-01 -.23141E-01 -.17469E-01 -.10676E-01 -.57894E-02 -.35998E-02 -.36570E-02 -.59868E-02
 -.19654E-01 -.23559E-01 -.23084E-01 -.19231E-01 -.13612E-01 -.76222E-02 -.34930E-02 -.32630E-02 -.62775E-02 -.99324E-02
 -.12842E-01 -.15049E-01 -.15652E-01 -.13221E-01 -.86544E-02 -.48951E-02 -.35998E-02 -.44582E-02 -.75070E-02 -.13145E-01
 -.30671E-01 -.32868E-01 -.29703E-01 -.23397E-01 -.15731E-01 -.83512E-02 -.35774E-02 -.24504E-02 -.34130E-02 -.46875E-02
 -.62432E-02 -.79254E-02 -.79865E-02 -.55814E-02 -.27575E-02 -.19953E-02 -.36570E-02 -.75070E-02 -.14253E-01 -.23230E-01
 -.39073E-01 -.38167E-01 -.32406E-01 -.24085E-01 -.14659E-01 -.62291E-02 -.12045E-02 0.20022E-03 -.18572E-03 -.12401E-02
 -.28689E-02 -.39737E-02 -.30167E-02 -.75162E-03 0.17548E-03 -.16418E-02 -.59868E-02 -.13145E-01 -.23230E-01 -.33422E-01
 -.36130E-01 -.32346E-01 -.25556E-01 -.17041E-01 -.80102E-02 -.13385E-02 0.10910E-02 0.86824E-03 0.43868E-03 0.16304E-04
 -.80921E-03 -.90305E-03 0.43859E-03 0.14887E-02 0.35263E-03 -.28692E-02 -.80112E-02 -.16115E-01 -.26349E-01 -.34305E-01
 -.32346E-01 -.27431E-01 -.19920E-01 -.11131E-01 -.35716E-02 0.88483E-04 0.39494E-04 -.99660E-03 -.13216E-02 -.13367E-02
 -.12668E-02 -.46085E-03 0.75252E-03 0.83423E-03 -.10597E-02 -.48781E-02 -.11067E-01 -.19707E-01 -.28325E-01 -.33068E-01
 -.25556E-01 -.19920E-01 -.12411E-01 -.54652E-02 -.13941E-02 -.69602E-03 -.16759E-02 -.23878E-02 -.24122E-02 -.22597E-02
 -.19654E-02 -.12276E-02 -.37701E-03 -.34013E-03 -.19557E-02 -.57902E-02 -.11937E-01 -.19244E-01 -.25238E-01 -.27592E-01
 -.17041E-01 -.11131E-01 -.54652E-02 -.21050E-02 -.10923E-02 -.15075E-02 -.26065E-02 -.37991E-02 -.45564E-02 -.47199E-02
 -.43331E-02 -.32353E-02 -.15745E-02 -.56336E-03 -.17545E-02 -.54780E-02 -.10650E-01 -.15833E-01 -.19597E-01 -.20298E-01
 -.80102E-02 -.35716E-02 -.13941E-02 -.10923E-02 -.12908E-02 -.23841E-02 -.49986E-02 -.77278E-02 -.87595E-02 -.81741E-02
 -.67451E-02 -.43148E-02 -.12867E-02 0.20338E-03 -.13092E-02 -.46468E-02 -.80052E-02 -.10958E-01 -.12908E-01 -.12042E-01
 -.13385E-02 0.88483E-04 -.69602E-03 -.15075E-02 -.23841E-02 -.54795E-02 -.10111E-01 -.12675E-01 -.11864E-01 -.96702E-02
 -.71375E-02 -.35859E-02 -.12916E-03 0.60304E-03 -.13225E-02 -.32585E-02 -.43204E-02 -.55801E-02 -.63079E-02 -.45466E-02
 0.10910E-02 0.39494E-04 -.16759E-02 -.26065E-02 -.49986E-02 -.10111E-01 -.14329E-01 -.14177E-01 -.11363E-01 -.88932E-02
 -.62219E-02 -.23315E-02 0.46143E-03 0.15060E-03 -.11319E-02 -.94161E-03 -.55956E-03 -.14971E-02 -.18926E-02 -.25205E-03
 0.86824E-03 -.99660E-03 -.23878E-02 -.37991E-02 -.77278E-02 -.12675E-01 -.14177E-01 -.11879E-01 -.95270E-02 -.81026E-02
 -.52207E-02 -.12536E-02 0.45176E-03 -.25613E-03 -.13081E-03 0.12693E-02 0.11981E-02 -.36362E-03 -.47543E-03 0.92726E-03
 0.43868E-03 -.13216E-02 -.24122E-02 -.45564E-02 -.87595E-02 -.11864E-01 -.11363E-01 -.95270E-02 -.87555E-02 -.72255E-02
 -.33270E-02 0.10477E-03 0.43254E-03 -.19201E-03 0.77664E-03 0.15781E-02 0.20140E-03 -.11456E-02 -.11386E-03 0.12679E-02
 0.16304E-04 -.13367E-02 -.22597E-02 -.47199E-02 -.81741E-02 -.96702E-02 -.88932E-02 -.81026E-02 -.72255E-02 -.42508E-02
 -.29979E-03 0.11431E-02 0.53546E-04 -.37310E-03 0.37464E-03 -.11058E-03 -.16412E-02 -.13381E-02 0.76758E-03 0.14774E-02
 -.80921E-03 -.12668E-02 -.19654E-02 -.43331E-02 -.67451E-02 -.71375E-02 -.62219E-02 -.52207E-02 -.33270E-02 -.29979E-03
 0.14707E-02 0.50277E-03 -.10875E-02 -.12357E-02 -.11561E-02 -.21238E-02 -.24204E-02 -.65687E-03 0.10662E-02 0.57566E-03
 -.90305E-03 -.46085E-03 -.12276E-02 -.32353E-02 -.43148E-02 -.35859E-02 -.23315E-02 -.12536E-02 0.10477E-03 0.11431E-02
 0.50277E-03 -.12740E-02 -.22760E-02 -.23542E-02 -.28315E-02 -.34045E-02 -.25352E-02 -.72732E-03 -.98623E-04 -.75824E-03
 0.43859E-03 0.75252E-03 -.37701E-03 -.15745E-02 -.12867E-02 -.12916E-03 0.46143E-03 0.45176E-03 0.43254E-03 0.53546E-04
 -.10875E-02 -.22760E-02 -.28859E-02 -.34487E-02 -.42213E-02 -.41972E-02 -.28875E-02 -.14976E-02 -.96581E-03 -.51387E-03
 0.14887E-02 0.83423E-03 -.34013E-03 -.56336E-03 0.20338E-03 0.60304E-03 0.15060E-03 -.25613E-03 -.19201E-03 -.37310E-03
 -.12357E-02 -.23542E-02 -.34487E-02 -.45587E-02 -.51431E-02 -.44356E-02 -.27670E-02 -.12212E-02 -.93560E-04 0.94752E-03
 0.35263E-03 -.10597E-02 -.19557E-02 -.17545E-02 -.13092E-02 -.13225E-02 -.11319E-02 -.13081E-03 0.77664E-03 0.37464E-03
 -.11561E-02 -.28315E-02 -.42213E-02 -.51431E-02 -.49713E-02 -.34396E-02 -.14121E-02 0.92349E-04 0.91085E-03 0.10973E-02
 -.28692E-02 -.48781E-02 -.57902E-02 -.54780E-02 -.46468E-02 -.32585E-02 -.94161E-03 0.12693E-02 0.15781E-02 -.11058E-03
 -.21238E-02 -.34045E-02 -.41972E-02 -.44356E-02 -.34396E-02 -.14859E-02 0.58354E-04 0.46696E-03 0.78255E-04 -.97888E-03
 -.80112E-02 -.11067E-01 -.11937E-01 -.10650E-01 -.80052E-02 -.43204E-02 -.55956E-03 0.11981E-02 0.20140E-03 -.16412E-02
 -.24204E-02 -.25352E-02 -.28875E-02 -.27670E-02 -.14121E-02 0.58354E-04 0.19787E-03 -.76914E-03 -.21774E-02 -.45183E-02
 -.16115E-01 -.19707E-01 -.19244E-01 -.15833E-01 -.10958E-01 -.55801E-02 -.14971E-02 -.36362E-03 -.11456E-02 -.13381E-02
 -.65687E-03 -.72732E-03 -.14976E-02 -.12212E-02 0.92349E-04 0.46696E-03 -.76914E-03 -.26407E-02 -.53770E-02 -.10224E-01
 -.26349E-01 -.28325E-01 -.25238E-01 -.19597E-01 -.12908E-01 -.63079E-02 -.18926E-02 -.47543E-03 -.11386E-03 0.76758E-03
 0.10662E-02 -.98623E-04 -.96581E-03 -.93560E-04 0.91085E-03 0.78255E-04 -.21774E-02 -.53770E-02 -.11001E-01 -.19240E-01
 -.34305E-01 -.33068E-01 -.27592E-01 -.20298E-01 -.12042E-01 -.45466E-02 -.25205E-03 0.92726E-03 0.12679E-02 0.14774E-02
 0.57566E-03 -.75824E-03 -.51387E-03 0.94752E-03 0.10973E-02 -.97888E-03 -.45183E-02 -.10224E-01 -.19240E-01 -.29001E-01
 0.41768E-01 0.39913E-01 0.30853E-01 0.19263E-01 0.10448E-01 0.50536E-02 0.14780E-02 0.10745E-04 0.10520E-02 0.24144E-02
 0.20901E-02 0.11619E-02 0.10527E-02 0.89782E-03 0.57773E-03 0.30643E-02 0.10447E-01 0.20471E-01 0.29773E-01 0.37291E-01
 0.39913E-01 0.33924E-01 0.23356E-01 0.13469E-01 0.68704E-02 0.26722E-02 0.51294E-03 0.14058E-02 0.44500E-02 0.66060E-02
 0.64491E-02 0.51010E-02 0.34044E-02 0.15024E-02 0.12315E-02 0.53477E-02 0.13837E-01 0.23772E-01 0.32635E-01 0.38860E-01