unknown system                          
   1.00000000000000     
     2.573869    0.000000    0.000000
     1.286934    2.229036    0.000000
     0.000000    0.000000   30.304665
   Cu   H 
     4     1
Direct
  0.000000  0.000000  0.398815
  0.333333  0.333333  0.467250
  0.666667  0.666667  0.536042
  0.000000  0.000000  0.605684
  0.000000  0.000000  0.652327
 
   20   20  240
 -.41400073089E-01 -.39072539599E-01 -.30724588526E-01 -.19724678079E-01 -.10047307248E-01
 -.32734536567E-02 0.56207980269E-03 0.12335430044E-02 -.69218240656E-03 -.28717710352E-02
 -.32636287734E-02 -.21284439789E-02 -.69260505252E-03 0.52722989616E-03 0.63074833825E-03
 -.25171069131E-02 -.10046938046E-01 -.20206109092E-01 -.30085560853E-01 -.37726726400E-01
 -.39072539599E-01 -.33395143077E-01 -.23037944300E-01 -.12677286405E-01 -.53406712576E-02
 -.12151873062E-02 -.20526310266E-03 -.23739618283E-02 -.58149990083E-02 -.73817759363E-02
 -.61729206269E-02 -.38939660552E-02 -.18624542372E-02 -.38880770288E-03 -.91530440649E-03
 -.55701659167E-02 -.14120571085E-01 -.23831184356E-01 -.32325496086E-01 -.38140685124E-01
 -.30724588527E-01 -.23037944300E-01 -.13641959660E-01 -.66774666145E-02 -.31754538874E-02
 -.26837175296E-02 -.54962151203E-02 -.10812785007E-01 -.15218184631E-01 -.15840677094E-01
 -.13342649334E-01 -.98212047028E-02 -.60279062539E-02 -.28037264283E-02 -.27121080595E-02
 -.74502149133E-02 -.15320501644E-01 -.23305321656E-01 -.29683185260E-01 -.32909694130E-01
 -.19724678079E-01 -.12677286404E-01 -.66774666145E-02 -.39898342669E-02 -.44746830132E-02
 -.83538912982E-02 -.15907011425E-01 -.24453510523E-01 -.29365581351E-01 -.28695541214E-01
 -.24060103844E-01 -.17286728605E-01 -.95583174751E-02 -.35999503746E-02 -.27583812074E-02
 -.71430295234E-02 -.13533804196E-01 -.19223580274E-01 -.23148369627E-01 -.23785044349E-01
 -.10047307248E-01 -.53406712574E-02 -.31754538875E-02 -.44746830132E-02 -.94967505955E-02
 -.19095801209E-01 -.31880641028E-01 -.42607616953E-01 -.46289894720E-01 -.42370005028E-01
 -.33223378986E-01 -.21233704912E-01 -.94991924365E-02 -.23666820749E-02 -.19574598742E-02
 -.57884580726E-02 -.10051700663E-01 -.13303166535E-01 -.15151044320E-01 -.14192034703E-01
 -.32734536570E-02 -.12151873063E-02 -.26837175298E-02 -.83538912983E-02 -.19095801209E-01
 -.34719733227E-01 -.50795099872E-01 -.60372409027E-01 -.59774870670E-01 -.50476708774E-01
 -.35950507894E-01 -.19938694633E-01 -.71528126478E-02 -.13333020590E-02 -.16740996483E-02
 -.40435771812E-02 -.59379994203E-02 -.74931552628E-02 -.82260548630E-02 -.66177586420E-02
 0.56207980248E-03 -.20526310281E-03 -.54962151206E-02 -.15907011425E-01 -.31880641028E-01
 -.50795099872E-01 -.65755739319E-01 -.70436852902E-01 -.64004369401E-01 -.49887390495E-01
 -.32287646113E-01 -.15753799978E-01 -.48896261417E-02 -.10977776806E-02 -.12620601691E-02
 -.18806266375E-02 -.25570624571E-02 -.37089568069E-02 -.38124770785E-02 -.17109781248E-02
 0.12335430042E-02 -.23739618284E-02 -.10812785008E-01 -.24453510523E-01 -.42607616954E-01
 -.60372409027E-01 -.70436852902E-01 -.69147528416E-01 -.58452733787E-01 -.42383691939E-01
 -.24897494748E-01 -.10511734257E-01 -.26676874877E-02 -.56556180900E-03 -.58447641063E-03
 -.94821135445E-03 -.21076403156E-02 -.32062369294E-02 -.21665302735E-02 0.46257120150E-03
 -.69218240683E-03 -.58149990085E-02 -.15218184631E-01 -.29365581351E-01 -.46289894720E-01
 -.59774870670E-01 -.64004369401E-01 -.58452733787E-01 -.46291094991E-01 -.30756999759E-01
 -.15418227675E-01 -.47164770042E-02 -.68730788524E-03 -.94189253477E-03 -.22596528698E-02
 -.39548499472E-02 -.57728217541E-02 -.56950289808E-02 -.28282967150E-02 0.11399994644E-04
 -.28717710357E-02 -.73817759365E-02 -.15840677095E-01 -.28695541214E-01 -.42370005028E-01
 -.50476708774E-01 -.49887390495E-01 -.42383691939E-01 -.30756999759E-01 -.17342514413E-01
 -.60323154778E-02 -.90662353912E-03 -.19023614870E-02 -.52734579560E-02 -.84697610631E-02
 -.11166260003E-01 -.12127684867E-01 -.95520520651E-02 -.48102830660E-02 -.18906235335E-02
 -.32636287737E-02 -.61729206270E-02 -.13342649334E-01 -.24060103844E-01 -.33223378986E-01
 -.35950507895E-01 -.32287646113E-01 -.24897494749E-01 -.15418227675E-01 -.60323154780E-02
 -.99147481047E-03 -.26374740184E-02 -.82372722679E-02 -.13679967591E-01 -.17687225352E-01
 -.19928093067E-01 -.18553800902E-01 -.13066600794E-01 -.68009417025E-02 -.33807678542E-02
 -.21284439795E-02 -.38939660554E-02 -.98212047031E-02 -.17286728605E-01 -.21233704912E-01
 -.19938694634E-01 -.15753799978E-01 -.10511734257E-01 -.47164770044E-02 -.90662353912E-03
 -.26374740184E-02 -.94643599616E-02 -.17143767088E-01 -.22972861811E-01 -.26861780472E-01
 -.27627505570E-01 -.23242222880E-01 -.15135620211E-01 -.77734669571E-02 -.35742473497E-02
 -.69260505277E-03 -.18624542374E-02 -.60279062543E-02 -.95583174754E-02 -.94991924367E-02
 -.71528126480E-02 -.48896261419E-02 -.26676874879E-02 -.68730788526E-03 -.19023614870E-02
 -.82372722679E-02 -.17143767088E-01 -.24999185057E-01 -.30905294517E-01 -.34321828167E-01
 -.32669178222E-01 -.24997868297E-01 -.15073560012E-01 -.73980841389E-02 -.28154425233E-02
 0.52722989580E-03 -.38880770296E-03 -.28037264285E-02 -.35999503748E-02 -.23666820750E-02
 -.13333020591E-02 -.10977776805E-02 -.56556180900E-03 -.94189253469E-03 -.52734579560E-02
 -.13679967591E-01 -.22972861811E-01 -.30905294517E-01 -.36780417992E-01 -.38372105081E-01
 -.33121340978E-01 -.22800070465E-01 -.12709109043E-01 -.58388242125E-02 -.15343009623E-02
 0.63074833801E-03 -.91530440659E-03 -.27121080597E-02 -.27583812075E-02 -.19574598745E-02
 -.16740996483E-02 -.12620601691E-02 -.58447641074E-03 -.22596528699E-02 -.84697610630E-02
 -.17687225351E-01 -.26861780472E-01 -.34321828166E-01 -.38372105081E-01 -.36279710049E-01
 -.27782109020E-01 -.17142584387E-01 -.88848011604E-02 -.36427191488E-02 -.33178126763E-03
 -.25171069131E-02 -.55701659169E-02 -.74502149135E-02 -.71430295234E-02 -.57884580725E-02
 -.40435771811E-02 -.18806266374E-02 -.94821135444E-03 -.39548499471E-02 -.11166260003E-01
 -.19928093067E-01 -.27627505569E-01 -.32669178222E-01 -.33121340978E-01 -.27782109020E-01
 -.18849226985E-01 -.10619841600E-01 -.52347992656E-02 -.20965034390E-02 -.98286505485E-03
 -.10046938046E-01 -.14120571085E-01 -.15320501644E-01 -.13533804196E-01 -.10051700663E-01
 -.59379994202E-02 -.25570624570E-02 -.21076403154E-02 -.57728217538E-02 -.12127684867E-01
 -.18553800902E-01 -.23242222880E-01 -.24997868297E-01 -.22800070464E-01 -.17142584387E-01
 -.10619841600E-01 -.57705572198E-02 -.32737286870E-02 -.30669722097E-02 -.55172440660E-02
 -.20206109092E-01 -.23831184356E-01 -.23305321656E-01 -.19223580274E-01 -.13303166535E-01
 -.74931552627E-02 -.37089568066E-02 -.32062369293E-02 -.56950289807E-02 -.95520520648E-02
 -.13066600793E-01 -.15135620211E-01 -.15073560012E-01 -.12709109043E-01 -.88848011602E-02
 -.52347992657E-02 -.32737286869E-02 -.39660083348E-02 -.77283810336E-02 -.13893909015E-01
 -.30085560853E-01 -.32325496086E-01 -.29683185259E-01 -.23148369627E-01 -.15151044320E-01
 -.82260548629E-02 -.38124770782E-02 -.21665302734E-02 -.28282967146E-02 -.48102830659E-02
 -.68009417024E-02 -.77734669569E-02 -.73980841384E-02 -.58388242122E-02 -.36427191486E-02
 -.20965034391E-02 -.30669722097E-02 -.77283810336E-02 -.15389959457E-01 -.23745331326E-01
 -.37726726400E-01 -.38140685124E-01 -.32909694130E-01 -.23785044349E-01 -.14192034703E-01
 -.66177586419E-02 -.17109781245E-02 0.46257120169E-03 0.11399994978E-04 -.18906235330E-02
 -.33807678540E-02 -.35742473493E-02 -.28154425228E-02 -.15343009619E-02 -.33178126731E-03
 -.98286505479E-03 -.55172440658E-02 -.13893909015E-01 -.23745331326E-01 -.32361737573E-01
 -.33941106078E-01 -.31641190375E-01 -.24523867411E-01 -.15402447847E-01 -.74200609110E-02
 -.20112415318E-02 0.82308361530E-03 0.14071711881E-02 0.49077808663E-03 -.52989904879E-03
 -.66047447147E-03 -.11973938645E-03 0.49132975314E-03 0.96919230950E-03 0.73307906716E-03
 -.17118328125E-02 -.74212251387E-02 -.15603968431E-01 -.24172259564E-01 -.30956767118E-01
 -.31641190375E-01 -.26739855492E-01 -.18136086974E-01 -.96162414254E-02 -.36692230829E-02
 -.42251632190E-03 0.63910227245E-03 -.50901599487E-04 -.12358133827E-02 -.13570898074E-02
 -.37712758929E-03 0.47103975318E-03 0.70664147010E-03 0.65032690192E-03 -.41278743358E-03
 -.41134152798E-02 -.10756083934E-01 -.18726713749E-01 -.26063319849E-01 -.31040521857E-01
 -.24523867412E-01 -.18136086974E-01 -.10439798005E-01 -.47948263619E-02 -.17688361309E-02
 -.41201767246E-03 -.45361145850E-03 -.15361895454E-02 -.21756591218E-02 -.14976087963E-02
 -.58803748391E-03 -.51262437400E-03 -.62002993506E-03 -.43861993212E-03 -.15126707575E-02
 -.54778993311E-02 -.11685404077E-01 -.18212717206E-01 -.23626707832E-01 -.26376032019E-01
 -.15402447847E-01 -.96162414254E-02 -.47948263619E-02 -.23427445136E-02 -.11568247219E-02
 -.67355967881E-03 -.14777012352E-02 -.29784756133E-02 -.35206430585E-02 -.30177548835E-02
 -.27702313466E-02 -.27050696151E-02 -.16494280202E-02 -.35321542926E-03 -.12894211833E-02
 -.51690619378E-02 -.10204204955E-01 -.14761257565E-01 -.18091190346E-01 -.18739538414E-01
 -.74200609109E-02 -.36692230829E-02 -.17688361309E-02 -.11568247219E-02 -.73825348817E-03
 -.13282267343E-02 -.35749353212E-02 -.57937946176E-02 -.62813733187E-02 -.56927141061E-02
 -.49960993876E-02 -.34219306702E-02 -.73939058888E-03 0.78764309254E-03 -.77592703238E-03
 -.42406545759E-02 -.74254127130E-02 -.98869203061E-02 -.11492147660E-01 -.10809790829E-01
 -.20112415321E-02 -.42251632198E-03 -.41201767264E-03 -.67355967887E-03 -.13282267345E-02
 -.37940531097E-02 -.72985269597E-02 -.91161654248E-02 -.84778131473E-02 -.69574568952E-02
 -.51085641439E-02 -.22409375754E-02 0.56181900092E-03 0.92705944856E-03 -.10698261934E-02
 -.30098690753E-02 -.39839387529E-02 -.49957708043E-02 -.57256513736E-02 -.45707180725E-02
 0.82308361507E-03 0.63910227236E-03 -.45361145889E-03 -.14777012354E-02 -.35749353213E-02
 -.72985269599E-02 -.10238031666E-01 -.10184310705E-01 -.82486521702E-02 -.63305135726E-02
 -.41420787530E-02 -.12991316236E-02 0.45542389883E-03 -.55306009763E-04 -.10789378030E-02
 -.90839791534E-03 -.64496375325E-03 -.14670536821E-02 -.19166251894E-02 -.63748917037E-03
 0.14071711879E-02 -.50901599561E-04 -.15361895456E-02 -.29784756134E-02 -.57937946179E-02
 -.91161654247E-02 -.10184310705E-01 -.86957708547E-02 -.69541602211E-02 -.56884408594E-02
 -.36156824458E-02 -.10699293398E-02 0.12072509961E-05 -.25639028001E-03 0.17579648756E-03
 0.12552215080E-02 0.10704803248E-02 -.11972354828E-03 -.67822278396E-04 0.12232714496E-02
 0.49077808637E-03 -.12358133829E-02 -.21756591222E-02 -.35206430587E-02 -.62813733188E-02
 -.84778131476E-02 -.82486521704E-02 -.69541602211E-02 -.62816229443E-02 -.51665931020E-02
 -.25191443314E-02 -.72282892788E-04 0.49590427419E-03 0.46881918701E-03 0.12694141083E-02
 0.16477413442E-02 0.53718199985E-03 -.28476567248E-03 0.63824526586E-03 0.15205827943E-02
 -.52989904923E-03 -.13570898075E-02 -.14976087967E-02 -.30177548837E-02 -.56927141063E-02
 -.69574568953E-02 -.63305135728E-02 -.56884408596E-02 -.51665931021E-02 -.30975733149E-02
 -.72017328705E-04 0.12676772511E-02 0.65741184901E-03 0.32822600925E-03 0.71926132252E-03
 0.23368201946E-03 -.83977626603E-03 -.48699770283E-03 0.92533923914E-03 0.94861837283E-03
 -.66047447184E-03 -.37712758947E-03 -.58803748397E-03 -.27702313466E-02 -.49960993877E-02
 -.51085641439E-02 -.41420787532E-02 -.36156824459E-02 -.25191443315E-02 -.72017328883E-04
 0.16106911720E-02 0.81513936525E-03 -.68076651077E-03 -.80679604855E-03 -.55284654310E-03
 -.12294066422E-02 -.14989782973E-02 -.20107404334E-03 0.89851202519E-03 0.23653764125E-03
 -.11973938698E-03 0.47103975290E-03 -.51262437430E-03 -.27050696154E-02 -.34219306704E-02
 -.22409375756E-02 -.12991316236E-02 -.10699293398E-02 -.72282892823E-04 0.12676772511E-02
 0.81513936531E-03 -.11010835619E-02 -.19154634620E-02 -.12987281862E-02 -.12877968930E-02
 -.20152719108E-02 -.15505418962E-02 0.20146531980E-05 0.48892118969E-03 -.18516211221E-03
 0.49132975283E-03 0.70664146992E-03 -.62002993551E-03 -.16494280204E-02 -.73939058910E-03
 0.56181900076E-03 0.45542389862E-03 0.12072508895E-05 0.49590427419E-03 0.65741184915E-03
 -.68076651073E-03 -.19154634620E-02 -.15989591334E-02 -.12001105019E-02 -.21109142815E-02
 -.27616061369E-02 -.15980944788E-02 -.10281070868E-03 0.14407678240E-04 -.18875006630E-03
 0.96919230907E-03 0.65032690181E-03 -.43861993240E-03 -.35321542937E-03 0.78764309247E-03
 0.92705944855E-03 -.55306009607E-04 -.25639027997E-03 0.46881918711E-03 0.32822600921E-03
 -.80679604823E-03 -.12987281861E-02 -.12001105019E-02 -.20890261721E-02 -.34799731086E-02
 -.31717164109E-02 -.12444347706E-02 -.29176373413E-04 -.70256303154E-04 0.22279840665E-03
 0.73307906688E-03 -.41278743367E-03 -.15126707577E-02 -.12894211833E-02 -.77592703261E-03
 -.10698261934E-02 -.10789378030E-02 0.17579648753E-03 0.12694141083E-02 0.71926132258E-03
 -.55284654296E-03 -.12877968928E-02 -.21109142815E-02 -.34799731084E-02 -.38280041855E-02
 -.21458340492E-02 -.16795005453E-03 0.33060754730E-03 0.18995782599E-03 0.62517384689E-03
 -.17118328127E-02 -.41134152800E-02 -.54778993314E-02 -.51690619380E-02 -.42406545759E-02
 -.30098690751E-02 -.90839791514E-03 0.12552215081E-02 0.16477413444E-02 0.23368201968E-03
 -.12294066419E-02 -.20152719104E-02 -.27616061367E-02 -.31717164108E-02 -.21458340490E-02
 -.23536166000E-03 0.70872941943E-03 0.40261807223E-03 0.96702299224E-04 -.19928372585E-03
 -.74212251385E-02 -.10756083934E-01 -.11685404077E-01 -.10204204955E-01 -.74254127133E-02
 -.39839387528E-02 -.64496375333E-03 0.10704803249E-02 0.53718200014E-03 -.83977626575E-03
 -.14989782970E-02 -.15505418960E-02 -.15980944786E-02 -.12444347704E-02 -.16795005434E-03
 0.70872941932E-03 0.53934996119E-03 -.25732080795E-03 -.13779618743E-02 -.36863667875E-02
 -.15603968430E-01 -.18726713749E-01 -.18212717206E-01 -.14761257565E-01 -.98869203064E-02
 -.49957708042E-02 -.14670536819E-02 -.11972354817E-03 -.28476567240E-03 -.48699770243E-03
 -.20107404314E-03 0.20146535853E-05 -.10281070824E-03 -.29176373076E-04 0.33060754766E-03
 0.40261807223E-03 -.25732080785E-03 -.19005910769E-02 -.51397839149E-02 -.10210209131E-01
 -.24172259565E-01 -.26063319849E-01 -.23626707831E-01 -.18091190346E-01 -.11492147660E-01
 -.57256513736E-02 -.19166251892E-02 -.67822278254E-04 0.63824526624E-03 0.92533923918E-03
 0.89851202540E-03 0.48892118981E-03 0.14407678613E-04 -.70256302855E-04 0.18995782627E-03
 0.96702299160E-04 -.13779618745E-02 -.51397839148E-02 -.11300083130E-01 -.18497601118E-01
 -.30956767118E-01 -.31040521858E-01 -.26376032020E-01 -.18739538413E-01 -.10809790829E-01
 -.45707180722E-02 -.63748917010E-03 0.12232714498E-02 0.15205827947E-02 0.94861837319E-03
 0.23653764136E-03 -.18516211188E-03 -.18875006579E-03 0.22279840699E-03 0.62517384725E-03
 -.19928372581E-03 -.36863667874E-02 -.10210209131E-01 -.18497601118E-01 -.26219757743E-01
 0.41811900974E-01 0.38624745553E-01 0.30298206046E-01 0.19836819225E-01 0.10462584874E-01
 0.41568086916E-02 0.11684259578E-02 0.54635108952E-03 0.10517185710E-02 0.17480136476E-02
 0.20889820851E-02 0.18251377948E-02 0.10524735952E-02 0.37509788050E-03 0.91871904844E-03
 0.39994931617E-02 0.10460565081E-01 0.19915726416E-01 0.30362962499E-01 0.38648345272E-01
 0.38624745553E-01 0.32900431487E-01 0.23890589745E-01 0.14237483145E-01 0.64306934796E-02
 0.20480383729E-02 0.10481144519E-02 0.22064376560E-02 0.42627219476E-02 0.62210253974E-02
 0.69725992885E-02 0.57566789634E-02 0.32120493921E-02 0.12570485894E-02 0.17701679136E-02
 0.57716536320E-02 0.13398221983E-01 0.23499999067E-01 0.33183480841E-01 0.38894588286E-01
 0.30298206046E-01 0.23890589745E-01 0.15709097902E-01 0.77861375064E-02 0.27461408551E-02
 0.22017395066E-02 0.53819496782E-02 0.10194953366E-01 0.14756017718E-01 0.17269538173E-01
 0.16057386224E-01 0.11251698591E-01 0.55813071551E-02 0.22700689262E-02 0.27972616574E-02
 0.71928738498E-02 0.14894096164E-01 0.24002344965E-01 0.31050223215E-01 0.33211741987E-01
 0.19836819226E-01 0.14237483145E-01 0.77861375065E-02 0.29853901547E-02 0.30384491770E-02
 0.85676265003E-02 0.16987989192E-01 0.25116011377E-01 0.30496476945E-01 0.30832886558E-01
 0.25139175170E-01 0.15910547483E-01 0.78176148957E-02 0.37706781604E-02 0.38616198266E-02
 0.75034590647E-02 0.13918365926E-01 0.20619644654E-01 0.24255711098E-01 0.23594631864E-01
 0.10462584874E-01 0.64306934797E-02 0.27461408551E-02 0.30384491771E-02 0.98875310433E-02
 0.21483746011E-01 0.33583045621E-01 0.42834350902E-01 0.46647523246E-01 0.42798987442E-01
 0.32081988040E-01 0.19431925044E-01 0.98866640644E-02 0.48189087144E-02 0.35123481358E-02
 0.57351204595E-02 0.10460041379E-01 0.14540776387E-01 0.15423964498E-01 0.13578874140E-01
 0.41568086913E-02 0.20480383728E-02 0.22017395064E-02 0.85676265002E-02 0.21483746011E-01
 0.36848497721E-01 0.50280825235E-01 0.58847666382E-01 0.59528032321E-01 0.50645947018E-01
 0.35449598229E-01 0.20500722467E-01 0.98388781512E-02 0.35305412350E-02 0.12108223937E-02
 0.29284162739E-02 0.65410017745E-02 0.84774301636E-02 0.77492351348E-02 0.60458013155E-02
 0.11684259576E-02 0.10481144518E-02 0.53819496778E-02 0.16987989192E-01 0.33583045621E-01
 0.50280825235E-01 0.63439083985E-01 0.69772460834E-01 0.65669852898E-01 0.51310309845E-01
 0.32853811791E-01 0.17192155015E-01 0.65975756185E-02 0.55474157536E-03 -.81337875568E-03
 0.16302081487E-02 0.42929875979E-02 0.43976868132E-02 0.30076165000E-02 0.20064797794E-02
 0.54635108945E-03 0.22064376559E-02 0.10194953365E-01 0.25116011377E-01 0.42834350901E-01
 0.58847666382E-01 0.69772460834E-01 0.71462086416E-01 0.61254319397E-01 0.42820104540E-01
 0.24283670532E-01 0.10827336109E-01 0.26062671524E-02 -.98227633045E-03 -.27532413242E-04
 0.29921354335E-02 0.41799612783E-02 0.28977974844E-02 0.15647769555E-02 0.10222800262E-02
 0.10517185708E-02 0.42627219475E-02 0.14756017718E-01 0.30496476945E-01 0.46647523246E-01
 0.59528032321E-01 0.65669852898E-01 0.61254319397E-01 0.46648298712E-01 0.28595122914E-01
 0.14268860891E-01 0.54904819606E-02 0.10541128459E-02 0.77507754657E-03 0.37789346844E-02
 0.64568953106E-02 0.61560285667E-02 0.43271650563E-02 0.30823204818E-02 0.19273752168E-02
 0.17480136472E-02 0.62210253972E-02 0.17269538172E-01 0.30832886558E-01 0.42798987442E-01
 0.50645947017E-01 0.51310309845E-01 0.42820104540E-01 0.28595122914E-01 0.15571634025E-01
 0.74434140495E-02 0.33778964823E-02 0.26313048743E-02 0.55132258530E-02 0.99098672689E-02
 0.11943605527E-01 0.10755746861E-01 0.85762211005E-02 0.62446159999E-02 0.32043745732E-02
 0.20889820848E-02 0.69725992884E-02 0.16057386224E-01 0.25139175170E-01 0.32081988040E-01
 0.35449598229E-01 0.32853811790E-01 0.24283670532E-01 0.14268860891E-01 0.74434140493E-02
 0.43626403895E-02 0.40413352103E-02 0.70876224065E-02 0.13130605750E-01 0.18433581827E-01
 0.19637665663E-01 0.17407648730E-01 0.13729527758E-01 0.88106302290E-02 0.36255609604E-02
 0.18251377943E-02 0.57566789632E-02 0.11251698591E-01 0.15910547482E-01 0.19431925044E-01
 0.20500722467E-01 0.17192155015E-01 0.10827336109E-01 0.54904819606E-02 0.33778964824E-02
 0.40413352104E-02 0.77081523499E-02 0.15026713041E-01 0.23468468035E-01 0.28277813064E-01
 0.27588944314E-01 0.23235150852E-01 0.16854081997E-01 0.91961711644E-02 0.29757535370E-02
 0.10524735950E-02 0.32120493920E-02 0.55813071547E-02 0.78176148956E-02 0.98866640643E-02
 0.98388781511E-02 0.65975756184E-02 0.26062671524E-02 0.10541128459E-02 0.26313048743E-02
 0.70876224066E-02 0.15026713041E-01 0.25357589576E-01 0.33605520248E-01 0.35805692315E-01
 0.32246729067E-01 0.25358767077E-01 0.16582629471E-01 0.76395424920E-02 0.18536408529E-02
 0.37509788010E-03 0.12570485893E-02 0.22700689259E-02 0.37706781603E-02 0.48189087143E-02
 0.35305412350E-02 0.55474157553E-03 -.98227633037E-03 0.77507754671E-03 0.55132258531E-02
 0.13130605751E-01 0.23468468035E-01 0.33605520248E-01 0.38964098897E-01 0.37773403317E-01
 0.31878152846E-01 0.23405827349E-01 0.13717163677E-01 0.52822051295E-02 0.87435547508E-03
 0.91871904812E-03 0.17701679135E-02 0.27972616572E-02 0.38616198265E-02 0.35123481356E-02
 0.12108223937E-02 -.81337875569E-03 -.27532413348E-04 0.37789346845E-02 0.99098672689E-02
 0.18433581827E-01 0.28277813064E-01 0.35805692315E-01 0.37773403317E-01 0.34327684992E-01
 0.27480968628E-01 0.18658988390E-01 0.95471446617E-02 0.30006243875E-02 0.61618202022E-03
 0.39994931616E-02 0.57716536320E-02 0.71928738497E-02 0.75034590650E-02 0.57351204594E-02
 0.29284162741E-02 0.16302081490E-02 0.29921354336E-02 0.64568953108E-02 0.11943605527E-01
 0.19637665663E-01 0.27588944314E-01 0.32246729068E-01 0.31878152846E-01 0.27480968628E-01
 0.20544746913E-01 0.12345002092E-01 0.52452469292E-02 0.18238509236E-02 0.21524463709E-02
 0.10460565081E-01 0.13398221983E-01 0.14894096164E-01 0.13918365925E-01 0.10460041379E-01
 0.65410017747E-02 0.42929875980E-02 0.41799612785E-02 0.61560285670E-02 0.10755746861E-01
 0.17407648730E-01 0.23235150853E-01 0.25358767078E-01 0.23405827350E-01 0.18658988390E-01
 0.12345002092E-01 0.61585697240E-02 0.26920445196E-02 0.33386183048E-02 0.67149883777E-02
 0.19915726416E-01 0.23499999067E-01 0.24002344965E-01 0.20619644654E-01 0.14540776387E-01
 0.84774301635E-02 0.43976868135E-02 0.28977974845E-02 0.43271650563E-02 0.85762211008E-02
 0.13729527759E-01 0.16854081997E-01 0.16582629471E-01 0.13717163677E-01 0.95471446620E-02
 0.52452469292E-02 0.26920445197E-02 0.37869055551E-02 0.84222016589E-02 0.14482757079E-01
 0.30362962498E-01 0.33183480841E-01 0.31050223215E-01 0.24255711098E-01 0.15423964498E-01
 0.77492351349E-02 0.30076165001E-02 0.15647769556E-02 0.30823204821E-02 0.62446160000E-02
 0.88106302291E-02 0.91961711647E-02 0.76395424923E-02 0.52822051299E-02 0.30006243879E-02
 0.18238509236E-02 0.33386183047E-02 0.84222016590E-02 0.16046927859E-01 0.24041181559E-01
 0.38648345272E-01 0.38894588285E-01 0.33211741986E-01 0.23594631865E-01 0.13578874140E-01
 0.60458013158E-02 0.20064797797E-02 0.10222800265E-02 0.19273752171E-02 0.32043745736E-02
 0.36255609606E-02 0.29757535373E-02 0.18536408534E-02 0.87435547536E-03 0.61618202050E-03
 0.21524463710E-02 0.67149883780E-02 0.14482757079E-01 0.24041181559E-01 0.32977381638E-01
 0.35385448793E-01 0.32815144996E-01 0.25153272700E-01 0.15749113091E-01 0.81076344845E-02
 0.34475414650E-02 0.10780041863E-02 0.10539499114E-03 -.10545721399E-03 -.20430554567E-03
 -.44468201317E-03 -.45943286531E-03 -.10544156121E-03 0.19770112399E-03 0.66584693200E-03
 0.28330669416E-02 0.81057575919E-02 0.16109591265E-01 0.24932378544E-01 0.32178946979E-01
 0.32815144996E-01 0.27597107829E-01 0.19333941301E-01 0.11157141997E-01 0.51428421676E-02
 0.16177786785E-02 -.34233729124E-04 -.44323426441E-03 -.85263535816E-04 0.56851477519E-03
 0.10925656876E-02 0.11970046352E-02 0.81031623071E-03 0.37170321119E-03 0.10522528569E-02
 0.42688599271E-02 0.10617600687E-01 0.19142958684E-01 0.27487550578E-01 0.32754881767E-01
 0.25153272700E-01 0.19333941300E-01 0.12325881000E-01 0.59807511230E-02 0.17045960683E-02
 -.57461702767E-04 0.46089422085E-04 0.10663635263E-02 0.23920631927E-02 0.34288291719E-02
 0.34089632054E-02 0.21575180712E-02 0.61166575208E-03 0.10733302064E-03 0.15528386668E-02
 0.54774062073E-02 0.11939370773E-01 0.19632444862E-01 0.25760005251E-01 0.27767620452E-01
 0.15749113091E-01 0.11157141997E-01 0.59807511230E-02 0.16642593528E-02 -.28010382337E-04
 0.94127285587E-03 0.28823057991E-02 0.45474072720E-02 0.57199598126E-02 0.58905879306E-02
 0.43860053814E-02 0.19539678239E-02 0.41728828790E-03 0.63530604269E-03 0.23650650862E-02
 0.57881594141E-02 0.11104917274E-01 0.16673899362E-01 0.19688042522E-01 0.19013435944E-01
 0.81076344844E-02 0.51428421676E-02 0.17045960683E-02 -.28010382294E-04 0.13851025840E-02
 0.42771287292E-02 0.63062643346E-02 0.73195137493E-02 0.78671099820E-02 0.71479976134E-02
 0.47238973003E-02 0.22652180080E-02 0.13848415510E-02 0.15896353068E-02 0.22426719741E-02
 0.43208729493E-02 0.81093836620E-02 0.11341969250E-01 0.11883025821E-01 0.10337360370E-01
 0.34475414649E-02 0.16177786786E-02 -.57461702909E-04 0.94127285585E-03 0.42771287292E-02
 0.69856283053E-02 0.80666313774E-02 0.89799313440E-02 0.97035954847E-02 0.84567418328E-02
 0.55000781476E-02 0.32213996124E-02 0.22489357860E-02 0.12618239256E-02 0.58912591415E-03
 0.19887549861E-02 0.47780265972E-02 0.61379172850E-02 0.54093349801E-02 0.43716879523E-02
 0.10780041861E-02 -.34233729167E-04 0.46089421744E-04 0.28823057988E-02 0.63062643347E-02
 0.80666313772E-02 0.93129242808E-02 0.11242283804E-01 0.11788549667E-01 0.91582637928E-02
 0.54117712683E-02 0.31108103914E-02 0.15709592223E-02 -.32456707554E-03 -.98447945537E-03
 0.76327329059E-03 0.26322112209E-02 0.23842652605E-02 0.13324100853E-02 0.12456713208E-02
 0.10539499115E-03 -.44323426447E-03 0.10663635262E-02 0.45474072719E-02 0.73195137490E-02
 0.89799313440E-02 0.11242283804E-01 0.13135207315E-01 0.11634205478E-01 0.71851102904E-02
 0.35183784420E-02 0.18662382702E-02 0.30659330115E-03 -.12886806290E-02 -.90662532671E-03
 0.91742831701E-03 0.12508617499E-02 -.12397142989E-03 -.61448929780E-03 0.14704393204E-03
 -.10545721412E-03 -.85263535915E-04 0.23920631925E-02 0.57199598124E-02 0.78671099818E-02
 0.97035954842E-02 0.11788549667E-01 0.11634205478E-01 0.78697559554E-02 0.35630515848E-02
 0.17619925027E-02 0.12075418268E-02 -.10740217222E-03 -.90762756956E-03 0.16987878731E-03
 0.10943546100E-02 -.12099957658E-05 -.12345274588E-02 -.59211176874E-03 0.34787870321E-03
 -.20430554597E-03 0.56851477508E-03 0.34288291716E-02 0.58905879304E-02 0.71479976131E-02
 0.84567418326E-02 0.91582637927E-02 0.71851102904E-02 0.35630515848E-02 0.16333217029E-02
 0.17292906283E-02 0.12575257354E-02 -.10442437653E-03 -.15476852477E-03 0.10189938829E-02
 0.96166085891E-03 -.34141416516E-03 -.44275634419E-03 0.71231660218E-03 0.75266093085E-03
 -.44468201343E-03 0.10925656875E-02 0.34089632055E-02 0.43860053813E-02 0.47238973003E-02
 0.55000781476E-02 0.54117712682E-02 0.35183784421E-02 0.17619925026E-02 0.17292906282E-02
 0.18322990781E-02 0.60639724125E-03 -.27876426842E-03 0.72557180974E-03 0.19148954418E-02
 0.14985327614E-02 0.80903132736E-03 0.13173169232E-02 0.15872962105E-02 0.35256302985E-03
 -.45943286575E-03 0.11970046349E-02 0.21575180709E-02 0.19539678238E-02 0.22652180077E-02
 0.32213996122E-02 0.31108103916E-02 0.18662382702E-02 0.12075418268E-02 0.12575257355E-02
 0.60639724134E-03 -.30588534956E-03 0.43343169022E-03 0.24476761684E-02 0.33356550817E-02
 0.26857301513E-02 0.22324477327E-02 0.21682580668E-02 0.10776707508E-02 -.52465718552E-03
 -.10544156144E-03 0.81031623060E-03 0.61166575178E-03 0.41728828792E-03 0.13848415509E-02
 0.22489357860E-02 0.15709592223E-02 0.30659330118E-03 -.10740217220E-03 -.10442437637E-03
 -.27876426832E-03 0.43343169026E-03 0.25950500625E-02 0.44210720742E-02 0.43220850122E-02
 0.32666060989E-02 0.25964351391E-02 0.17309341100E-02 0.13032951878E-03 -.81099494721E-03
 0.19770112362E-03 0.37170321103E-03 0.10733302045E-03 0.63530604268E-03 0.15896353067E-02
 0.12618239256E-02 -.32456707540E-03 -.12886806289E-02 -.90762756941E-03 -.15476852475E-03
 0.72557181008E-03 0.24476761684E-02 0.44210720743E-02 0.49633574625E-02 0.39748713017E-02
 0.29409215380E-02 0.22689375845E-02 0.11218191004E-02 -.21580103735E-03 -.46203175634E-03
 0.66584693172E-03 0.10522528570E-02 0.15528386667E-02 0.23650650862E-02 0.22426719740E-02
 0.58912591430E-03 -.98447945530E-03 -.90662532674E-03 0.16987878745E-03 0.10189938829E-02
 0.19148954418E-02 0.33356550819E-02 0.43220850124E-02 0.39748713017E-02 0.30859285567E-02
 0.26009234800E-02 0.19793749933E-02 0.68223259643E-03 -.30583125699E-03 -.69285221855E-04
 0.28330669416E-02 0.42688599271E-02 0.54774062071E-02 0.57881594143E-02 0.43208729493E-02
 0.19887549862E-02 0.76327329081E-03 0.91742831715E-03 0.10943546102E-02 0.96166085913E-03
 0.14985327616E-02 0.26857301517E-02 0.32666060990E-02 0.29409215383E-02 0.26009234804E-02
 0.23149038223E-02 0.12850956427E-02 -.83907685518E-04 -.25849690970E-03 0.10991237424E-02
 0.81057575919E-02 0.10617600687E-01 0.11939370773E-01 0.11104917274E-01 0.81093836622E-02
 0.47780265973E-02 0.26322112209E-02 0.12508617500E-02 -.12099954958E-05 -.34141416494E-03
 0.80903132750E-03 0.22324477330E-02 0.25964351392E-02 0.22689375844E-02 0.19793749933E-02
 0.12850956427E-02 0.64391621279E-06 -.39515515921E-03 0.14573924654E-02 0.48270731496E-02
 0.16109591265E-01 0.19142958684E-01 0.19632444862E-01 0.16673899362E-01 0.11341969250E-01
 0.61379172851E-02 0.23842652607E-02 -.12397142991E-03 -.12345274588E-02 -.44275634384E-03
 0.13173169233E-02 0.21682580671E-02 0.17309341103E-02 0.11218191007E-02 0.68223259674E-03
 -.83907685497E-04 -.39515515903E-03 0.15964236974E-02 0.61681570953E-02 0.11546588009E-01
 0.24932378544E-01 0.27487550578E-01 0.25760005252E-01 0.19688042522E-01 0.11883025821E-01
 0.54093349800E-02 0.13324100854E-02 -.61448929775E-03 -.59211176850E-03 0.71231660216E-03
 0.15872962106E-02 0.10776707510E-02 0.13032951912E-03 -.21580103715E-03 -.30583125677E-03
 -.25849690974E-03 0.14573924654E-02 0.61681570954E-02 0.12934353651E-01 0.19664963239E-01
 0.32178946980E-01 0.32754881767E-01 0.27767620452E-01 0.19013435944E-01 0.10337360370E-01
 0.43716879527E-02 0.12456713211E-02 0.14704393232E-03 0.34787870349E-03 0.75266093117E-03
 0.35256302994E-03 -.52465718523E-03 -.81099494679E-03 -.46203175611E-03 -.69285221606E-04
 0.10991237424E-02 0.48270731498E-02 0.11546588009E-01 0.19664963239E-01 0.27143063740E-01
 -.41432685961E-01 -.37776883531E-01 -.30164739997E-01 -.20296683504E-01 -.10064306458E-01
 -.23828053483E-02 0.86662441100E-03 0.69713603280E-03 -.69194912944E-03 -.22093888085E-02
 -.32693621054E-02 -.27963851980E-02 -.69247992046E-03 0.10523995936E-02 0.29082476117E-03
 -.34551605396E-02 -.10065650546E-01 -.19653847239E-01 -.30671149797E-01 -.39073256199E-01
 -.37776883531E-01 -.32366682574E-01 -.23569508501E-01 -.13445768126E-01 -.49057304983E-02