    5    5    1    1
  0.3477306E+02  0.2573869E-09  0.2573869E-09  0.3030466E-08  0.5000000E-15
  1.000000000000000E-004
  CAR 
 unknown system                          
     45     14     28
 
  0.0000000E+00  0.0000000E+00  0.0000000E+00  0.1000000E-01
    1      -11.333243   1.000000
    2      -10.322449   1.000000
    3       -8.851414   1.000000
    4       -7.736253   1.000000
    5       -7.564575   1.000000
    6       -5.642516   1.000000
    7       -5.559037   1.000000
    8       -5.558713   1.000000
    9       -5.489766   1.000000
   10       -5.489508   1.000000
   11       -5.482038   1.000000
   12       -5.408630   1.000000
   13       -5.408318   1.000000
   14       -5.201382   1.000000
   15       -5.201088   1.000000
   16       -4.983231   1.000000
   17       -4.983146   1.000000
   18       -4.977967   1.000000
   19       -4.680550   1.000000
   20       -4.680473   1.000000
   21       -4.477416   1.000000
   22       -4.477374   1.000000
   23       -4.177816   1.000000
   24       -4.177754   1.000000
   25       -3.091881   1.000000
   26        1.213539   0.000000
   27        1.811248   0.000000
   28        2.304163   0.000000
 
  0.1000000E+00  0.6938894E-17  0.0000000E+00  0.6000000E-01
    1      -11.022887   1.000000
    2      -10.029761   1.000000
    3       -8.587550   1.000000
    4       -7.569462   1.000000
    5       -7.388007   1.000000
    6       -5.768926   1.000000
    7       -5.658927   1.000000
    8       -5.601233   1.000000
    9       -5.508836   1.000000
   10       -5.464637   1.000000
   11       -5.451699   1.000000
   12       -5.413684   1.000000
   13       -5.306802   1.000000
   14       -5.288651   1.000000
   15       -5.213627   1.000000
   16       -5.118956   1.000000
   17       -4.988465   1.000000
   18       -4.956707   1.000000
   19       -4.693886   1.000000
   20       -4.669960   1.000000
   21       -4.488287   1.000000
   22       -4.472020   1.000000
   23       -4.172078   1.000000
   24       -3.987725   1.000000
   25       -2.426637   0.039484
   26        1.447297   0.000000
   27        2.116994   0.000000
   28        2.605895   0.000000
 
  0.2000000E+00 -0.1387779E-16  0.0000000E+00  0.6000000E-01
    1      -10.132328   1.000000
    2       -9.213877   1.000000
    3       -7.914659   1.000000
    4       -7.202376   1.000000
    5       -6.887565   1.000000
    6       -6.077912   1.000000
    7       -5.887001   1.000000
    8       -5.779008   1.000000
    9       -5.723317   1.000000
   10       -5.529839   1.000000
   11       -5.410608   1.000000
   12       -5.357272   1.000000
   13       -5.244411   1.000000
   14       -5.177592   1.000000
   15       -5.066757   1.000000
   16       -5.039833   1.000000
   17       -5.017476   1.000000
   18       -4.817396   1.000000
   19       -4.808787   1.000000
   20       -4.648559   1.000000
   21       -4.465081   1.000000
   22       -4.352461   1.000000
   23       -4.164658   1.000000
   24       -3.217719   1.000000
   25       -1.177725   0.000000
   26        2.145297   0.000000
   27        3.033174   0.000000
   28        3.646083   0.000000
 
  0.3000000E+00 -0.2775558E-16  0.0000000E+00  0.6000000E-01
    1       -8.845827   1.000000
    2       -8.155747   1.000000
    3       -7.306118   1.000000
    4       -6.875557   1.000000
    5       -6.541176   1.000000
    6       -6.394948   1.000000
    7       -6.084772   1.000000
    8       -5.827161   1.000000
    9       -5.634069   1.000000
   10       -5.490959   1.000000
   11       -5.406201   1.000000
   12       -5.310592   1.000000
   13       -5.102024   1.000000
   14       -5.084946   1.000000
   15       -4.985321   1.000000
   16       -4.807997   1.000000
   17       -4.685489   1.000000
   18       -4.571249   1.000000
   19       -4.540796   1.000000
   20       -4.446496   1.000000
   21       -4.335834   1.000000
   22       -4.151018   1.000000
   23       -3.964785   1.000000
   24       -2.213685   0.000001
   25        0.298581   0.000000
   26        3.231201   0.000000
   27        4.532478   0.000000
   28        5.025515   0.000000
 
  0.4000000E+00 -0.2775558E-16  0.0000000E+00  0.6000000E-01
    1       -7.771723   1.000000
    2       -7.419327   1.000000
    3       -7.134644   1.000000
    4       -6.852775   1.000000
    5       -6.631206   1.000000
    6       -6.548143   1.000000
    7       -6.265935   1.000000
    8       -5.856264   1.000000
    9       -5.513668   1.000000
   10       -5.488632   1.000000
   11       -5.256596   1.000000
   12       -5.146975   1.000000
   13       -4.891620   1.000000
   14       -4.670378   1.000000
   15       -4.511349   1.000000
   16       -4.439042   1.000000
   17       -4.299080   1.000000
   18       -4.236822   1.000000
   19       -4.148274   1.000000
   20       -4.105024   1.000000
   21       -4.029090   1.000000
   22       -3.634861   1.000000
   23       -2.994564   1.000000
   24       -1.080020   0.000000
   25        1.001817   0.000000
   26        2.504012   0.000000
   27        3.427232   0.000000
   28        4.966774   0.000000
 
  0.5000000E+00 -0.2775558E-16  0.0000000E+00  0.3000000E-01
    1       -7.498485   1.000000
    2       -7.205722   1.000000
    3       -7.080746   1.000000
    4       -6.856399   1.000000
    5       -6.733565   1.000000
    6       -6.571045   1.000000
    7       -6.327368   1.000000
    8       -5.882955   1.000000
    9       -5.558949   1.000000
   10       -5.521409   1.000000
   11       -5.166958   1.000000
   12       -5.129264   1.000000
   13       -4.697625   1.000000
   14       -4.661065   1.000000
   15       -4.324231   1.000000
   16       -4.285909   1.000000
   17       -4.231607   1.000000
   18       -4.145842   1.000000
   19       -4.073265   1.000000
   20       -3.915017   1.000000
   21       -2.835553   0.999972
   22       -2.119840   0.000000
   23       -1.778885   0.000000
   24       -1.254673   0.000000
   25       -0.966824   0.000000
   26        1.755602   0.000000
   27        2.874007   0.000000
   28        4.424796   0.000000
 
  0.2000000E+00  0.1000000E+00  0.0000000E+00  0.6000000E-01
    1      -10.420749   1.000000
    2       -9.472464   1.000000
    3       -8.112267   1.000000
    4       -7.307776   1.000000
    5       -7.027255   1.000000
    6       -5.927130   1.000000
    7       -5.884987   1.000000
    8       -5.732167   1.000000
    9       -5.698362   1.000000
   10       -5.568351   1.000000
   11       -5.378137   1.000000
   12       -5.349566   1.000000
   13       -5.294479   1.000000
   14       -5.235947   1.000000
   15       -5.114283   1.000000
   16       -5.072626   1.000000
   17       -4.906606   1.000000
   18       -4.886889   1.000000
   19       -4.812272   1.000000
   20       -4.663515   1.000000
   21       -4.564004   1.000000
   22       -4.303532   1.000000
   23       -4.219512   1.000000
   24       -3.432800   1.000000
   25       -1.537864   0.000000
   26        1.915553   0.000000
   27        2.728404   0.000000
   28        3.261620   0.000000
 
  0.3000000E+00  0.1000000E+00  0.0000000E+00  0.1200000E+00
    1       -9.313155   1.000000
    2       -8.508162   1.000000
    3       -7.445134   1.000000
    4       -6.898451   1.000000
    5       -6.532969   1.000000
    6       -6.221120   1.000000
    7       -5.999972   1.000000
    8       -5.907196   1.000000
    9       -5.849707   1.000000
   10       -5.628191   1.000000
   11       -5.490067   1.000000
   12       -5.388290   1.000000
   13       -5.352630   1.000000
   14       -5.147451   1.000000
   15       -4.970366   1.000000
   16       -4.907684   1.000000
   17       -4.758069   1.000000
   18       -4.723800   1.000000
   19       -4.593765   1.000000
   20       -4.494985   1.000000
   21       -4.340470   1.000000
   22       -4.236168   1.000000
   23       -4.028398   1.000000
   24       -2.568718   0.599724
   25       -0.218056   0.000000
   26        2.848237   0.000000
   27        3.946183   0.000000
   28        4.514466   0.000000
 
  0.4000000E+00  0.1000000E+00  0.0000000E+00  0.1200000E+00
    1       -8.060173   1.000000
    2       -7.595097   1.000000
    3       -7.084723   1.000000
    4       -6.756008   1.000000
    5       -6.477745   1.000000
    6       -6.413921   1.000000
    7       -6.125404   1.000000
    8       -5.895419   1.000000
    9       -5.583254   1.000000
   10       -5.550703   1.000000
   11       -5.425467   1.000000
   12       -5.313399   1.000000
   13       -5.190645   1.000000
   14       -4.991380   1.000000
   15       -4.920095   1.000000
   16       -4.709038   1.000000
   17       -4.564106   1.000000
   18       -4.383625   1.000000
   19       -4.306156   1.000000
   20       -4.160563   1.000000
   21       -4.025877   1.000000
   22       -3.836243   1.000000
   23       -3.246369   1.000000
   24       -1.371734   0.000000
   25        1.209391   0.000000
   26        3.590789   0.000000
   27        4.457012   0.000000
   28        5.485826   0.000000
 
  0.5000000E+00  0.1000000E+00  0.0000000E+00  0.1200000E+00
    1       -7.453326   1.000000
    2       -7.134681   1.000000
    3       -7.010194   1.000000
    4       -6.762785   1.000000
    5       -6.605040   1.000000
    6       -6.501332   1.000000
    7       -6.244940   1.000000
    8       -5.896016   1.000000
    9       -5.630099   1.000000
   10       -5.467549   1.000000
   11       -5.366544   1.000000
   12       -5.072799   1.000000
   13       -4.946209   1.000000
   14       -4.796127   1.000000
   15       -4.601625   1.000000
   16       -4.474992   1.000000
   17       -4.313300   1.000000
   18       -4.250439   1.000000
   19       -4.201521   1.000000
   20       -4.065693   1.000000
   21       -2.816012   0.999912
   22       -2.495630   0.217405
   23       -1.877727   0.000000
   24       -0.564367   0.000000
   25        0.241688   0.000000
   26        2.054359   0.000000
   27        3.230701   0.000000
   28        4.711228   0.000000
 
  0.4000000E+00  0.2000000E+00  0.0000000E+00  0.6000000E-01
    1       -8.177890   1.000000
    2       -7.645412   1.000000
    3       -7.015600   1.000000
    4       -6.642590   1.000000
    5       -6.280173   1.000000
    6       -6.145158   1.000000
    7       -6.073698   1.000000
    8       -6.003819   1.000000
    9       -5.851112   1.000000
   10       -5.695466   1.000000
   11       -5.552459   1.000000
   12       -5.497326   1.000000
   13       -5.486277   1.000000
   14       -5.142678   1.000000
   15       -4.997116   1.000000
   16       -4.798102   1.000000
   17       -4.674167   1.000000
   18       -4.480536   1.000000
   19       -4.291545   1.000000
   20       -4.164555   1.000000
   21       -3.995756   1.000000
   22       -3.794524   1.000000
   23       -3.230519   1.000000
   24       -1.453611   0.000000
   25        1.129593   0.000000
   26        3.961288   0.000000
   27        5.429359   0.000000
   28        5.808307   0.000000
 
  0.5000000E+00  0.2000000E+00  0.0000000E+00  0.1200000E+00
    1       -7.382740   1.000000
    2       -7.009584   1.000000
    3       -6.809211   1.000000
    4       -6.604744   1.000000
    5       -6.383259   1.000000
    6       -6.251049   1.000000
    7       -6.072631   1.000000
    8       -5.902674   1.000000
    9       -5.761867   1.000000
   10       -5.655482   1.000000
   11       -5.511362   1.000000
   12       -5.382726   1.000000
   13       -5.228596   1.000000
   14       -5.102157   1.000000
   15       -4.974382   1.000000
   16       -4.778586   1.000000
   17       -4.568260   1.000000
   18       -4.413821   1.000000
   19       -4.211950   1.000000
   20       -4.072486   1.000000
   21       -2.898421   1.000000
   22       -2.618294   0.829892
   23       -1.763628   0.000000
   24        0.013329   0.000000
   25        2.087641   0.000000
   26        3.123899   0.000000
   27        4.163287   0.000000
   28        5.434987   0.000000
 
 -0.4000000E+00  0.2000000E+00  0.0000000E+00  0.6000000E-01
    1       -7.213473   1.000000
    2       -6.859719   1.000000
    3       -6.726857   1.000000
    4       -6.520773   1.000000
    5       -6.449462   1.000000
    6       -6.315935   1.000000
    7       -6.103254   1.000000
    8       -5.934070   1.000000
    9       -5.776932   1.000000
   10       -5.647877   1.000000
   11       -5.372614   1.000000
   12       -5.277957   1.000000
   13       -5.164221   1.000000
   14       -5.013455   1.000000
   15       -4.889698   1.000000
   16       -4.729575   1.000000
   17       -4.463412   1.000000
   18       -4.299645   1.000000
   19       -4.246525   1.000000
   20       -4.142738   1.000000
   21       -1.865679   0.000000
   22       -0.970814   0.000000
   23       -0.528333   0.000000
   24        0.003406   0.000000
   25        0.592201   0.000000
   26        2.282403   0.000000
   27        3.523298   0.000000
   28        4.977987   0.000000
 
 -0.4000000E+00  0.3000000E+00  0.0000000E+00  0.6000000E-01
    1       -7.126147   1.000000
    2       -6.628914   1.000000
    3       -6.554721   1.000000
    4       -6.450881   1.000000
    5       -6.341373   1.000000
    6       -6.190826   1.000000
    7       -6.118099   1.000000
    8       -5.834596   1.000000
    9       -5.760491   1.000000
   10       -5.694453   1.000000
   11       -5.602043   1.000000
   12       -5.449446   1.000000
   13       -5.245834   1.000000
   14       -5.205121   1.000000
   15       -4.953761   1.000000
   16       -4.798602   1.000000
   17       -4.627355   1.000000
   18       -4.349388   1.000000
   19       -4.260895   1.000000
   20       -4.162699   1.000000
   21       -1.796420   0.000000
   22       -0.702705   0.000000
   23        0.238909   0.000000
   24        1.569878   0.000000
   25        2.156620   0.000000
   26        2.283859   0.000000
   27        3.124586   0.000000
   28        3.444065   0.000000
