unknown system                          
   1.00000000000000     
     2.573869    0.000000    0.000000
     1.286934    2.229036    0.000000
     0.000000    0.000000   30.304665
   Cu   H 
     4     1
Direct
  0.000000  0.000000  0.398815
  0.333333  0.333333  0.467250
  0.666667  0.666667  0.536042
  0.000000  0.000000  0.605684
  0.000000  0.000000  0.652327
 
   10   10  120
  0.0000     0.55511E-16 0.83614E-15 0.13699E-12 0.53096E-13 0.93481E-13 0.72442E-14 0.19960E-12 0.16341E-14 0.69389E-16
  0.0000     0.90206E-16 0.11483E-12 0.74283E-09 0.58231E-13 0.74704E-13 0.62270E-13 0.18791E-12 0.70777E-15 0.48572E-16
 0.87083E-15 0.11478E-12 0.78909E-13 0.71887E-14 0.14433E-14 0.88263E-14 0.47740E-13 0.92176E-13 0.12490E-14 0.27756E-16
 0.13695E-12 0.74283E-09 0.72164E-14 0.12490E-14 0.58287E-15 0.21358E-13 0.23995E-13 0.37341E-11 0.37590E-12 0.13018E-11
 0.53124E-13 0.58245E-13 0.14017E-14 0.69389E-15 0.20262E-14 0.27617E-13 0.39968E-14 0.60688E-13 0.59064E-13 0.13115E-13
 0.93522E-13 0.74649E-13 0.88124E-14 0.21330E-13 0.27645E-13 0.21154E-11 0.30406E-13 0.25789E-10 0.44273E-12 0.15659E-10
 0.72858E-14 0.62270E-13 0.47753E-13 0.24120E-13 0.39552E-14 0.30337E-13 0.19512E-13 0.15238E-13 0.10034E-13 0.68417E-14
 0.19966E-12 0.18786E-12 0.92322E-13 0.37341E-11 0.60549E-13 0.25789E-10 0.15127E-13 0.65947E-13 0.13677E-11 0.49350E-11
 0.16723E-14 0.70777E-15 0.11727E-14 0.37592E-12 0.59092E-13 0.44283E-12 0.10131E-13 0.13677E-11 0.71172E-12 0.83426E-13
 0.69389E-16 0.48572E-16 0.22204E-15 0.13020E-11 0.13184E-13 0.15658E-10 0.68556E-14 0.49350E-11 0.83378E-13 0.13115E-14
 0.97145E-16 0.10408E-15 0.15543E-14 0.28220E-10 0.34431E-13 0.41947E-11 0.60008E-13 0.19860E-09 0.14155E-14 -.13878E-16
 0.27756E-16 0.12837E-15 0.13693E-12 0.13897E-10 0.29948E-13 0.63255E-13 0.17987E-12 0.29498E-12 0.74940E-15 0.48572E-16
 0.16306E-14 0.13679E-12 0.12937E-12 0.46074E-14 0.86042E-15 0.61756E-14 0.83947E-13 0.10128E-12 0.13600E-14 0.13184E-15
 0.28220E-10 0.13897E-10 0.44270E-14 0.80491E-15 0.22204E-15 0.15016E-13 0.93647E-13 0.37660E-11 0.32174E-12 0.12587E-11
 0.34528E-13 0.29948E-13 0.87430E-15 0.38858E-15 0.87430E-15 0.14405E-13 0.48433E-14 0.32543E-13 0.44076E-13 0.80352E-14
 0.41948E-11 0.63172E-13 0.61895E-14 0.14960E-13 0.14405E-13 0.20463E-11 0.79214E-13 0.47952E-11 0.34472E-12 0.57909E-11
 0.60160E-13 0.17988E-12 0.83974E-13 0.93689E-13 0.48572E-14 0.79187E-13 0.36193E-13 0.17514E-13 0.15335E-13 0.24369E-13
 0.19860E-09 0.29496E-12 0.10143E-12 0.37660E-11 0.32460E-13 0.47952E-11 0.17431E-13 0.18721E-13 0.80710E-12 0.26837E-10
 0.14849E-14 0.70083E-15 0.12837E-14 0.32171E-12 0.44048E-13 0.34475E-12 0.15418E-13 0.80713E-12 0.82231E-12 0.88519E-13
 0.69389E-17 0.34694E-16 0.18735E-15 0.12589E-11 0.79936E-14 0.57910E-11 0.24383E-13 0.26837E-10 0.88506E-13 0.12247E-14
 0.62450E-16 0.41633E-16 0.17486E-14 0.16596E-11 0.72442E-14 0.54003E-12 0.37700E-12 0.17832E-11 0.63838E-15 0.38164E-16
 0.17347E-16 0.69389E-16 0.11696E-12 0.21453E-11 0.13267E-13 0.29143E-13 0.40207E-12 0.23835E-12 0.55511E-15 0.62450E-16
 0.18527E-14 0.11693E-12 0.10622E-12 0.16098E-14 0.52736E-15 0.27062E-14 0.63727E-13 0.64657E-13 0.10686E-14 0.41633E-16
 0.16596E-11 0.21453E-11 0.16098E-14 0.55511E-15 0.13878E-15 0.75634E-14 0.21430E-12 0.36942E-11 0.18420E-12 0.87373E-12
 0.72997E-14 0.13337E-13 0.51348E-15 0.24980E-15 0.44409E-15 0.65503E-14 0.38303E-14 0.14155E-13 0.22579E-13 0.29005E-14
 0.54001E-12 0.29005E-13 0.27200E-14 0.75773E-14 0.65503E-14 0.22135E-11 0.17912E-12 0.39611E-12 0.16932E-12 0.48274E-11
 0.37702E-12 0.40211E-12 0.63782E-13 0.21433E-12 0.38441E-14 0.17907E-12 0.41106E-13 0.12615E-13 0.15030E-13 0.61159E-13
 0.17831E-11 0.23820E-12 0.64712E-13 0.36942E-11 0.13975E-13 0.39616E-12 0.12518E-13 0.60230E-14 0.28033E-12 0.74444E-08
 0.63144E-15 0.58981E-15 0.10061E-14 0.18428E-12 0.22649E-13 0.16939E-12 0.15085E-13 0.28029E-12 0.50321E-12 0.62145E-13
 0.52042E-16 0.62450E-16 0.90206E-16 0.87370E-12 0.28588E-14 0.48274E-11 0.61201E-13 0.74444E-08 0.62159E-13 0.11935E-14
 0.13878E-16 0.18041E-15 0.18596E-14 0.36651E-13 0.26090E-14 0.33584E-13 0.59452E-13 0.59577E-13 0.33307E-15 -.13878E-16
 -.13878E-16 0.83267E-16 0.14547E-12 0.11576E-11 0.78687E-14 0.29046E-13 0.21399E-11 0.31562E-12 0.56899E-15 -.27756E-16
 0.18735E-14 0.14540E-12 0.12593E-12 0.13461E-14 0.43021E-15 0.20400E-14 0.69555E-13 0.76758E-13 0.98532E-15 0.27756E-16
 0.36568E-13 0.11575E-11 0.11935E-14 0.41633E-15 0.97145E-16 0.68695E-14 0.18325E-11 0.36991E-11 0.15817E-12 0.74901E-12
 0.27062E-14 0.79659E-14 0.31919E-15 0.15266E-15 0.27756E-15 0.41078E-14 0.39829E-14 0.95340E-14 0.16293E-13 0.24009E-14
 0.33612E-13 0.29060E-13 0.20539E-14 0.68279E-14 0.40523E-14 0.22071E-11 0.56558E-12 0.13381E-12 0.12446E-12 0.32387E-11
 0.59563E-13 0.21399E-11 0.69514E-13 0.18326E-11 0.40384E-14 0.56560E-12 0.40842E-13 0.84377E-14 0.14211E-13 0.26971E-12
 0.59633E-13 0.31561E-12 0.76827E-13 0.36991E-11 0.94369E-14 0.13385E-12 0.83961E-14 0.18180E-14 0.19056E-12 0.15498E-10
 0.34694E-15 0.61062E-15 0.92981E-15 0.15821E-12 0.16182E-13 0.12448E-12 0.14322E-13 0.19063E-12 0.32410E-12 0.60577E-13
 0.13878E-16 -.13878E-16 -.27756E-16 0.74897E-12 0.23176E-14 0.32387E-11 0.26970E-12 0.15498E-10 0.60535E-13 0.99920E-15
 0.27756E-16 0.27756E-16 0.15266E-14 0.54956E-14 0.94369E-15 0.59813E-14 0.50238E-14 0.10034E-13 0.27756E-16 0.27756E-16
  0.0000     0.69389E-16 0.12000E-12 0.50412E-12 0.44409E-14 0.20949E-13 0.10688E-10 0.26995E-12 0.38858E-15 0.11102E-15
 0.15266E-14 0.12002E-12 0.11148E-12 0.52736E-15 0.15266E-15 0.98532E-15 0.32988E-13 0.62533E-13 0.83267E-15 0.27756E-16
 0.54540E-14 0.50403E-12 0.47184E-15 0.22204E-15 0.27756E-16 0.44548E-14 0.15694E-10 0.36207E-11 0.14100E-12 0.50536E-12
 0.97145E-15 0.45519E-14 0.97145E-16 0.15266E-15 0.11102E-15 0.24702E-14 0.32196E-14 0.51625E-14 0.98394E-14 0.12351E-14
 0.59674E-14 0.20865E-13 0.99920E-15 0.44686E-14 0.24980E-14 0.24953E-11 0.10965E-11 0.26645E-13 0.72428E-13 0.41027E-11
 0.50793E-14 0.10688E-10 0.32904E-13 0.15694E-10 0.32335E-14 0.10965E-11 0.27964E-13 0.57176E-14 0.10686E-13 0.54541E-12
 0.10089E-13 0.26983E-12 0.62547E-13 0.36207E-11 0.50654E-14 0.26687E-13 0.55789E-14 0.77716E-15 0.98921E-13 0.49276E-11
 0.18041E-15 0.51348E-15 0.80491E-15 0.14107E-12 0.97977E-14 0.72470E-13 0.10714E-13 0.98935E-13 0.10866E-12 0.53180E-13
 0.55511E-16 0.11102E-15 -.27756E-16 0.50543E-12 0.12212E-14 0.41027E-11 0.54544E-12 0.49276E-11 0.53152E-13 0.12212E-14
 0.55511E-16 0.55511E-16 0.12768E-14 0.14572E-14 0.43021E-15 0.15821E-14 0.81879E-15 0.28311E-14 0.27756E-16 -.27756E-16
 -.11102E-15 0.11102E-15 0.13234E-12 0.30209E-12 0.25674E-14 0.14662E-13 0.66209E-10 0.27681E-12 0.44409E-15 -.27756E-16
 0.12490E-14 0.13239E-12 0.10833E-12 0.34694E-15 0.18041E-15 0.62450E-15 0.18680E-13 0.66253E-13 0.74940E-15  0.0000    
 0.13600E-14 0.30205E-12 0.12490E-15 0.22898E-15 -.13878E-16 0.33307E-14 0.24513E-09 0.36337E-11 0.12856E-12 0.36379E-12
 0.49960E-15 0.26645E-14 0.15266E-15 0.13184E-15 0.20817E-16 0.14572E-14 0.26507E-14 0.31919E-14 0.78548E-14 0.84655E-15
 0.15057E-14 0.14634E-13 0.61062E-15 0.33307E-14 0.14155E-14 0.26137E-11 0.14254E-11 0.70777E-14 0.50904E-13 0.39618E-11
 0.91593E-15 0.66209E-10 0.18624E-13 0.24513E-09 0.26784E-14 0.14254E-11 0.21698E-13 0.38719E-14 0.82018E-14 0.63252E-12
 0.28866E-14 0.27681E-12 0.66253E-13 0.36338E-11 0.31364E-14 0.70777E-14 0.36915E-14 0.31919E-15 0.65004E-13 0.21802E-11
 0.83267E-16 0.49960E-15 0.77716E-15 0.12856E-12 0.77438E-14 0.50876E-13 0.82573E-14 0.65115E-13 0.52708E-13 0.48350E-13
 0.27756E-16  0.0000     -.27756E-16 0.36388E-12 0.76328E-15 0.39618E-11 0.63254E-12 0.21803E-11 0.48211E-13 0.97145E-15
 0.55511E-16  0.0000     0.94369E-15 0.66613E-15 0.24980E-15 0.72858E-15 0.29143E-15 0.12212E-14  0.0000     0.11102E-15
  0.0000     0.55511E-16 0.12229E-12 0.19183E-12 0.16237E-14 0.12858E-13 0.11266E-10 0.27658E-12 0.44409E-15 0.55511E-16
 0.10270E-14 0.12243E-12 0.97714E-13 0.27756E-15 0.86736E-16 0.44409E-15 0.89373E-14 0.58287E-13 0.77716E-15 0.55511E-16
 0.44409E-15 0.19172E-12 0.97145E-16 0.13184E-15 -.41633E-16 0.26784E-14 0.61591E-11 0.35214E-11 0.11072E-12 0.26437E-12
 0.22204E-15 0.17208E-14 0.76328E-16 0.11102E-15 0.79797E-16 0.95757E-15 0.22204E-14 0.23453E-14 0.57176E-14 0.56899E-15
 0.61062E-15 0.12872E-13 0.37470E-15 0.26576E-14 0.91593E-15 0.29467E-11 0.70248E-12 0.65226E-15 0.32141E-13 0.10445E-10
 0.26368E-15 0.11267E-10 0.88818E-14 0.61591E-11 0.22066E-14 0.70247E-12 0.11872E-13 0.22760E-14 0.40731E-14 0.28474E-12
 0.13323E-14 0.27645E-12 0.58287E-13 0.35213E-11 0.22066E-14 0.65226E-15 0.21233E-14 0.12490E-15 0.40704E-13 0.13381E-11
 0.22204E-15 0.41633E-15 0.69389E-15 0.11099E-12 0.57176E-14 0.32224E-13 0.41148E-14 0.40704E-13 0.62728E-14 0.45963E-13
 0.55511E-16  0.0000      0.0000     0.26440E-12 0.56899E-15 0.10445E-10 0.28471E-12 0.13381E-11 0.45880E-13 0.11102E-14
 0.55511E-16 0.11102E-15 0.74940E-15 0.41633E-15 0.24980E-15 0.38858E-15 0.13878E-16 0.52736E-15 0.27756E-16 0.83267E-16
 -.11102E-15 0.22204E-15 0.10753E-12 0.12725E-12 0.91593E-15 0.99053E-14 0.19777E-11 0.26737E-12 0.36082E-15 0.55511E-16
 0.72164E-15 0.10764E-12 0.85446E-13 0.83267E-16 0.86736E-16 0.22204E-15 0.31086E-14 0.49211E-13 0.69389E-15 0.11102E-15
 0.19429E-15 0.12712E-12 -.27756E-16 0.22551E-15 -.20817E-16 0.19602E-14 0.74665E-12 0.34780E-11 0.96811E-13 0.18735E-12
 0.16653E-15 0.92981E-15 0.78063E-16 0.83267E-16 -.34694E-17 0.59674E-15 0.15404E-14 0.15266E-14 0.43854E-14 0.45797E-15
 0.29837E-15 0.99018E-14 0.13878E-15 0.19498E-14 0.56205E-15 0.31484E-11 0.31071E-12 0.69389E-16 0.22538E-13 0.69454E-10
 0.41633E-16 0.19777E-11 0.30670E-14 0.74676E-12 0.14988E-14 0.31075E-12 0.75218E-14 0.17625E-14 0.25466E-14 0.11918E-12
 0.66613E-15 0.26729E-12 0.49127E-13 0.34780E-11 0.14710E-14 0.83267E-16 0.16237E-14 0.13878E-16 0.28783E-13 0.85432E-12
 0.11102E-15 0.41633E-15 0.58287E-15 0.96811E-13 0.43299E-14 0.22593E-13 0.25951E-14 0.28894E-13 0.94369E-15 0.41911E-13
 -.27756E-16 0.11102E-15 0.83267E-16 0.18741E-12 0.36082E-15 0.69454E-10 0.11920E-12 0.85437E-12 0.41883E-13 0.88818E-15
 0.55511E-16 0.27756E-16 0.69389E-15 0.16653E-15 0.16653E-15 0.22204E-15 0.41633E-16 0.44409E-15 0.19429E-15 0.83267E-16
 -.83267E-16 0.55511E-16 0.94674E-13 0.96582E-13 0.74940E-15 0.88315E-14 0.55414E-12 0.24847E-12 0.30531E-15  0.0000    
 0.74940E-15 0.94758E-13 0.98130E-13 0.11102E-15 0.32960E-16 0.25674E-15 0.16931E-14 0.45769E-13 0.36082E-15 -.11102E-15
 0.11102E-15 0.96458E-13 0.13878E-16 0.14311E-15 -.38164E-16 0.20504E-14 0.19783E-12 0.33424E-11 0.68945E-13 0.84183E-13
 0.15266E-15 0.69389E-15 0.96277E-16 0.86736E-16 0.34694E-17 0.46491E-15 0.14572E-14 0.99920E-15 0.34694E-14 0.15266E-15
 0.97145E-16 0.88315E-14 0.20817E-15 0.20192E-14 0.41633E-15 0.39219E-11 0.14050E-12 0.27756E-15 0.17653E-13 0.14757E-10
 0.41633E-16 0.55422E-12 0.15959E-14 0.19783E-12 0.13878E-14 0.14044E-12 0.48156E-14 0.12629E-14 0.14572E-14 0.55761E-13
 0.27756E-15 0.24841E-12 0.45852E-13 0.33424E-11 0.90206E-15 0.30531E-15 0.11935E-14 0.13878E-16 0.22163E-13 0.63000E-12
 0.16653E-15 0.44409E-15 0.41633E-15 0.68973E-13 0.34417E-14 0.17722E-13 0.14849E-14 0.22267E-13 0.11963E-13 0.33556E-13
 0.83267E-16 0.55511E-16 0.83267E-16 0.84238E-13 0.26368E-15 0.14757E-10 0.55768E-13 0.63005E-12 0.33529E-13 0.94369E-15
 0.11102E-15 0.27756E-16 0.77716E-15 0.16653E-15 0.13878E-15 0.20123E-15 0.48572E-16 0.19429E-15 0.11102E-15 0.83267E-16
 -.27756E-16  0.0000     0.80963E-13 0.64941E-13 0.49960E-15 0.74211E-14 0.17947E-12 0.23409E-12 0.49960E-15 0.16653E-15
 0.69389E-15 0.80935E-13 0.12196E-12 0.16653E-15 0.25153E-16 0.97145E-16 0.62450E-15 0.45797E-13 0.47184E-15 -.27756E-16
 0.19429E-15 0.64837E-13  0.0000     0.16827E-15 -.41633E-16 0.17313E-14 0.58356E-13 0.32956E-11 0.72747E-13 0.69861E-13
 0.15266E-15 0.55511E-15 0.98012E-16 0.76328E-16 -.58981E-16 0.36082E-15 0.11866E-14 0.83267E-15 0.29421E-14 0.26368E-15
 0.76328E-16 0.74281E-14 0.11102E-15 0.17503E-14 0.32613E-15 0.41332E-11 0.68952E-13 0.10825E-14 0.12934E-13 0.21778E-11
 -.27756E-16 0.17952E-12 0.64532E-15 0.58495E-13 0.11796E-14 0.69077E-13 0.34001E-14 0.78410E-15 0.91593E-15 0.29837E-13
 0.16653E-15 0.23395E-12 0.45824E-13 0.32956E-11 0.73552E-15 0.11657E-14 0.74940E-15 -.55511E-16 0.16140E-13 0.46094E-12
 0.83267E-16 0.49960E-15 0.49960E-15 0.72720E-13 0.28033E-14 0.12927E-13 0.97145E-15 0.16182E-13 0.17042E-13 0.33293E-13
 0.55511E-16 0.11102E-15 0.55511E-16 0.69972E-13 0.26368E-15 0.21778E-11 0.29858E-13 0.46098E-12 0.33376E-13 0.13323E-14
 -.55511E-16 0.27756E-16 0.44409E-15 0.11102E-15 0.83267E-16 0.15266E-15 0.13878E-16 0.16653E-15  0.0000      0.0000    
 -.27756E-16 0.55511E-16 0.47025E-13 0.49433E-13 0.31225E-15 0.59119E-14 0.80949E-13 0.20778E-12 0.30531E-15  0.0000    
 0.58287E-15 0.46997E-13 0.12274E-12 0.69389E-16 0.41633E-16 0.69389E-16 0.12490E-15 0.32974E-13 0.27756E-15  0.0000    
 0.41633E-16 0.49308E-13 -.41633E-16 0.16306E-15 0.41633E-16 0.21060E-14 0.29393E-13 0.31413E-11 0.53346E-13 0.26479E-13
 0.69389E-16 0.34694E-15 0.24286E-16 0.11796E-15 0.13878E-16 0.24980E-15 0.85348E-15 0.63838E-15 0.21649E-14 0.97145E-16
 0.55511E-16 0.60091E-14 0.55511E-16 0.21233E-14 0.19429E-15 0.54508E-11 0.35957E-13 0.11519E-14 0.10249E-13 0.47931E-12
 -.34694E-16 0.80977E-13 0.83267E-16 0.29504E-13 0.79797E-15 0.35916E-13 0.24564E-14 0.73552E-15 0.54123E-15 0.17458E-13
 0.19429E-15 0.20765E-12 0.32807E-13 0.31413E-11 0.55511E-15 0.11935E-14 0.66613E-15 0.27756E-16 0.12379E-13 0.36747E-12
  0.0000     0.24980E-15 0.36082E-15 0.53402E-13 0.21649E-14 0.10353E-13 0.65226E-15 0.12490E-13 0.25743E-13 0.26236E-13
 0.27756E-16 -.55511E-16 0.13878E-15 0.26479E-13 0.18041E-15 0.47935E-12 0.17500E-13 0.36748E-12 0.26208E-13 0.10131E-14
 0.41633E-16 0.83267E-16 0.65919E-15 0.19429E-15 0.83267E-16 0.41633E-16 0.27756E-16 0.15959E-15 0.27756E-16 -.27756E-16
 0.69389E-17 0.41633E-16 0.45158E-13 0.39781E-13 0.26368E-15 0.54540E-14 0.42216E-13 0.19745E-12 0.23592E-15 0.15266E-15
 0.72858E-15 0.45110E-13 0.14205E-12 0.83267E-16 0.62450E-16 0.11102E-15 0.10408E-15 0.32307E-13 0.40246E-15 0.83267E-16
 0.83267E-16 0.39663E-13 0.20817E-16 0.11102E-15 -.69389E-17 0.22343E-14 0.15765E-13 0.30844E-11 0.56455E-13 0.19630E-13
 0.11102E-15 0.25674E-15 0.20817E-16 0.83267E-16 0.13878E-16 0.19429E-15 0.76328E-15 0.54123E-15 0.19151E-14 0.97145E-16
 -.13878E-16 0.55095E-14 0.83267E-16 0.21996E-14 0.16653E-15 0.61080E-11 0.22329E-13 0.12074E-14 0.87083E-14 0.21356E-12
 0.13878E-15 0.42175E-13 0.90206E-16 0.15890E-13 0.73552E-15 0.22274E-13 0.18596E-14 0.57593E-15 0.36082E-15 0.11185E-13
 0.13878E-15 0.19732E-12 0.32280E-13 0.30844E-11 0.43021E-15 0.11657E-14 0.59674E-15 0.13878E-16 0.10492E-13 0.29081E-12
 0.97145E-16 0.24980E-15 0.38858E-15 0.56455E-13 0.19151E-14 0.87499E-14 0.45797E-15 0.10492E-13 0.26965E-13 0.25577E-13
 0.62450E-16 0.69389E-16 0.12490E-15 0.19755E-13 0.13184E-15 0.21358E-12 0.11283E-13 0.29089E-12 0.25528E-13 0.11519E-14
 0.34694E-16 0.69389E-17 0.59674E-15 0.83267E-16 0.83267E-16 0.76328E-16 0.76328E-16 0.97145E-16 0.13878E-16 0.13878E-16
  0.0000     0.76328E-16 0.22454E-13 0.29921E-13 0.17347E-15 0.43507E-14 0.22815E-13 0.16812E-12 0.22898E-15 0.27756E-16
 0.66613E-15 0.22378E-13 0.15005E-12 0.69389E-17 0.20817E-16 0.76328E-16 0.48572E-16 0.22551E-13 0.27756E-15 -.48572E-16
 0.55511E-16 0.29803E-13 -.20817E-16 0.13184E-15 0.41633E-16 0.23731E-14 0.85348E-14 0.29323E-11 0.42730E-13 0.59536E-14
 0.11102E-15 0.18041E-15 0.76328E-16 0.41633E-16 0.69389E-17 0.13878E-15 0.61062E-15 0.39552E-15 0.16237E-14 0.10408E-15
 0.27756E-16 0.43437E-14 0.83267E-16 0.24078E-14 0.11102E-15 0.95265E-11 0.13788E-13 0.12768E-14 0.68626E-14 0.78312E-13
 0.48572E-16 0.22794E-13 -.69389E-17 0.86459E-14 0.63838E-15 0.13760E-13 0.13947E-14 0.50654E-15 0.25674E-15 0.72650E-14
 0.13184E-15 0.16798E-12 0.22538E-13 0.29323E-11 0.34694E-15 0.13115E-14 0.37470E-15 0.48572E-16 0.86736E-14 0.24165E-12
 0.55511E-16 0.24980E-15 0.22204E-15 0.42841E-13 0.16376E-14 0.69666E-14 0.30531E-15 0.86875E-14 0.27443E-13 0.21649E-13
 0.41633E-16 0.55511E-16 0.34694E-16 0.60577E-14 0.13878E-15 0.78229E-13 0.72650E-14 0.24173E-12 0.21635E-13 0.99226E-15
 0.34694E-16 0.69389E-16 0.55511E-15 0.83267E-16 0.11102E-15 0.69389E-16 -.41633E-16 0.97145E-16 0.34694E-16 0.48572E-16
 0.13878E-16 0.69389E-16 0.14197E-13 0.23349E-13 0.18041E-15 0.41356E-14 0.13864E-13 0.15647E-12 0.18041E-15 0.83267E-16
 0.59674E-15 0.14162E-13 0.16874E-12 0.76328E-16 0.90206E-16 0.62450E-16 0.10408E-15 0.17084E-13 0.26368E-15 -.34694E-16
 0.97145E-16 0.23259E-13 0.20817E-16 0.13184E-15 0.20817E-16 0.26229E-14 0.50376E-14 0.28258E-11 0.34334E-13 0.12559E-14
 0.14572E-15 0.11796E-15 0.20817E-16 0.55511E-16 0.27756E-16 0.90206E-16 0.41633E-15 0.29837E-15 0.15127E-14 0.69389E-16
 -.20817E-16 0.40523E-14 -.48572E-16 0.26229E-14 0.13878E-15 0.13854E-10 0.93814E-14 0.12559E-14 0.58703E-14 0.38344E-13
 0.27756E-16 0.13753E-13 0.34694E-16 0.51487E-14 0.40939E-15 0.94924E-14 0.12143E-14 0.41633E-15 0.20123E-15 0.53638E-14
 0.90206E-16 0.15642E-12 0.17097E-13 0.28259E-11 0.28449E-15 0.12837E-14 0.41633E-15 -.34694E-16 0.81046E-14 0.20059E-12
 0.15959E-15 0.29837E-15 0.18041E-15 0.34361E-13 0.14433E-14 0.59189E-14 0.24980E-15 0.82365E-14 0.27901E-13 0.19124E-13
 0.48572E-16 -.69389E-17 -.83267E-16 0.14364E-14 0.20817E-15 0.38303E-13 0.54401E-14 0.20062E-12 0.19096E-13 0.11519E-14
 0.69389E-16 0.13878E-16 0.63144E-15 0.11102E-15 0.11102E-15 0.90206E-16 0.41633E-16 0.69389E-16 -.69389E-17 0.34694E-16
 0.69389E-17 0.83267E-16 0.98949E-14 0.19658E-13 0.15266E-15 0.37678E-14 0.92010E-14 0.16270E-12 0.22204E-15 0.13878E-16
 0.69389E-15 0.99643E-14 0.19728E-12 0.76328E-16 0.13878E-16 0.97145E-16 0.69389E-16 0.18666E-13 0.22204E-15 -.55511E-16
 0.10408E-15 0.19519E-13 -.27756E-16 0.12490E-15 -.13878E-16 0.28033E-14 0.36568E-14 0.26786E-11 0.36679E-13 0.86042E-15
 0.13184E-15 0.97145E-16 0.27756E-16 0.97145E-16 -.27756E-16 0.10408E-15 0.38164E-15 0.29837E-15 0.14641E-14 0.41633E-16
  0.0000     0.37331E-14 0.69389E-17 0.27617E-14 0.76328E-16 0.14867E-10 0.62728E-14 0.14086E-14 0.48017E-14 0.19887E-13
 0.97145E-16 0.91455E-14 0.69389E-16 0.37123E-14 0.37470E-15 0.62866E-14 0.94716E-15 0.30531E-15 0.76328E-16 0.38927E-14
 0.76328E-16 0.16256E-12 0.18652E-13 0.26785E-11 0.17347E-15 0.14017E-14 0.22204E-15 0.11623E-15 0.82295E-14 0.17235E-12
 0.10408E-15 0.20123E-15 0.27062E-15 0.36721E-13 0.14572E-14 0.49266E-14 0.21511E-15 0.82608E-14 0.26659E-13 0.18305E-13
 -.27756E-16 0.83267E-16 -.27756E-16 0.91593E-15 0.13184E-15 0.19845E-13 0.39621E-14 0.17240E-12 0.18249E-13 0.14502E-14
 -.27756E-16 -.20817E-16 0.48572E-15 0.13878E-16 0.76328E-16 0.62450E-16 -.83267E-16 -.27756E-16 -.55511E-16 -.62450E-16
 -.76328E-16 0.55511E-16 0.63699E-14 0.14169E-13 0.55511E-16 0.27756E-14 0.56968E-14 0.19719E-12 0.20817E-15  0.0000    
 0.62450E-15 0.65364E-14 0.19762E-12 0.34694E-16 -.55511E-16 -.69389E-17 0.83267E-16 0.18471E-13 0.13878E-15 -.10408E-15
 0.13878E-16 0.14114E-13  0.0000     0.76328E-16 -.69389E-16 0.24564E-14 0.20262E-14 0.25742E-11 0.29289E-13 0.90206E-16
 0.10408E-15 0.41633E-16 0.97145E-16 0.27756E-16 -.41633E-16 0.97145E-16 0.29143E-15 0.18041E-15 0.12247E-14 0.41633E-16
 0.69389E-17 0.26992E-14 -.69389E-17 0.24425E-14 0.48572E-16 0.49779E-10 0.42986E-14 0.15266E-14 0.38788E-14 0.37748E-14
 0.11102E-15 0.56205E-14 0.11796E-15 0.21164E-14 0.27756E-15 0.43854E-14 0.66613E-15 0.28449E-15 0.22551E-16 0.28137E-14
 -.27756E-16 0.19722E-12 0.18437E-13 0.25743E-11 0.83267E-16 0.14676E-14 0.28796E-15 0.88471E-16 0.68799E-14 0.14750E-12
 0.48572E-16 0.18041E-15 0.11102E-15 0.29275E-13 0.11761E-14 0.38719E-14 0.79797E-16 0.70083E-14 0.27030E-13 0.15404E-13
 0.13878E-16 -.41633E-16 -.11796E-15 0.27756E-15 0.45103E-16 0.37088E-14 0.28380E-14 0.14755E-12 0.15529E-13 0.10755E-14
 0.19429E-15  0.0000     0.69389E-15 0.14572E-15 0.83267E-16 0.83267E-16 0.27756E-16 0.41633E-16 0.83267E-16 0.69389E-16
 0.34694E-16 0.11102E-15 0.22135E-14 0.12622E-13 0.83267E-16 0.28866E-14 0.41703E-14 0.20368E-12 0.27756E-15 0.13878E-15
 0.70777E-15 0.22204E-14 0.20849E-12 0.27756E-16  0.0000     0.55511E-16 0.16653E-15 0.12185E-13 0.19429E-15 0.27756E-16
 0.41633E-16 0.12532E-13 0.62450E-16 0.12490E-15 -.13878E-16 0.32474E-14 0.15335E-14 0.24081E-11 0.29782E-13 0.24980E-15
 0.15266E-15 0.76328E-16 0.97145E-16 0.83267E-16 0.27756E-16 0.83267E-16 0.29143E-15 0.22204E-15 0.13947E-14 0.69389E-16
 0.11102E-15 0.28727E-14 0.83267E-16 0.32474E-14 0.10408E-15 0.42724E-10 0.38858E-14 0.12577E-14 0.44860E-14 0.52562E-14
 0.55511E-16 0.41217E-14 0.11102E-15 0.16653E-14 0.26368E-15 0.38025E-14 0.66093E-15 0.27756E-15 0.51174E-16 0.24234E-14
 0.69389E-16 0.20353E-12 0.12192E-13 0.24080E-11 0.20817E-15 0.12130E-14 0.26368E-15 0.78063E-16 0.88818E-14 0.12678E-12
 0.15266E-15 0.20817E-15 0.18041E-15 0.29893E-13 0.14225E-14 0.45693E-14 0.19602E-15 0.89963E-14 0.24931E-13 0.14440E-13
 0.69389E-17 0.83267E-16 0.27756E-16 0.31225E-15 0.83267E-16 0.51972E-14 0.24425E-14 0.12683E-12 0.14440E-13 0.16029E-14
 0.55511E-16 -.76328E-16 0.66613E-15 -.34694E-16 0.83267E-16 0.55511E-16 -.41633E-16 -.27756E-16 -.10408E-15  0.0000    
 -.69389E-16 0.27756E-16 0.96451E-15 0.89026E-14  0.0000     0.22968E-14 0.26160E-14 0.22754E-12 0.83267E-16 -.83267E-16
 0.72164E-15 0.10547E-14 0.24205E-12 -.13878E-16 0.27756E-16 0.55511E-16 0.13878E-15 0.10242E-13 0.83267E-16 0.83267E-16
 0.20817E-16 0.88124E-14 -.69389E-16 0.76328E-16  0.0000     0.29421E-14 0.98532E-15 0.22938E-11 0.23440E-13 0.13045E-14
 0.16653E-15 -.69389E-16 0.83267E-16 0.55511E-16  0.0000     0.55511E-16 0.19429E-15 0.18041E-15 0.15682E-14 0.97145E-16
 -.27756E-16 0.22066E-14 0.27756E-16 0.28866E-14 0.83267E-16 0.13845E-08 0.24425E-14 0.14936E-14 0.32543E-14 0.41980E-15
 0.27756E-16 0.25258E-14 0.16653E-15 0.99226E-15 0.23592E-15 0.24702E-14 0.41633E-15 0.24980E-15 0.13010E-16 0.16653E-14
 -.83267E-16 0.22732E-12 0.10193E-13 0.22938E-11 0.90206E-16 0.14953E-14 0.26368E-15 0.14398E-15 0.70950E-14 0.11066E-12
 -.55511E-16 0.18735E-15 0.12490E-15 0.23384E-13 0.14849E-14 0.32613E-14 0.58981E-16 0.71818E-14 0.22506E-13 0.12407E-13
 -.55511E-16  0.0000     0.27756E-16 0.14710E-14 0.48572E-16 0.44062E-15 0.16376E-14 0.11069E-12 0.12421E-13 0.16584E-14
 0.22204E-15 0.55511E-16 0.65226E-15 0.62450E-16 0.41633E-16 0.69389E-16 0.55511E-16 0.55511E-16 0.97145E-16 0.11102E-15
 0.27756E-16 0.55511E-16 0.67307E-15 0.89373E-14 0.69389E-17 0.21094E-14 0.23176E-14 0.27542E-12 0.27756E-15 0.13878E-15
 0.72164E-15 0.74246E-15 0.24414E-12 0.14572E-15 -.27756E-16 0.83267E-16 0.11102E-15 0.88679E-14 0.13878E-15 -.27756E-16
 0.41633E-16 0.87430E-14 0.76328E-16 0.83267E-16 -.13878E-16 0.34139E-14 0.98532E-15 0.21494E-11 0.22857E-13 0.10686E-14
 0.15266E-15 -.20817E-16  0.0000     0.83267E-16 0.27756E-16 0.15266E-15 0.18041E-15 0.22204E-15 0.17972E-14 0.55511E-16
 -.13878E-16 0.22482E-14 0.13878E-15 0.34417E-14 0.97145E-16 0.21675E-08 0.23037E-14 0.11727E-14 0.53013E-14 0.77022E-15
 0.83267E-16 0.22066E-14 0.18041E-15 0.99920E-15 0.16653E-15 0.22066E-14 0.72164E-15 0.22204E-15 0.27756E-16 0.15266E-14
 0.27756E-16 0.27514E-12 0.87985E-14 0.21494E-11 0.97145E-16 0.12212E-14 0.26368E-15 0.11449E-15 0.96867E-14 0.97540E-13
 0.12490E-15 0.13878E-15 0.26368E-15 0.22843E-13 0.18249E-14 0.53152E-14 0.83267E-16 0.97700E-14 0.20088E-13 0.15626E-13
 0.11102E-15 0.83267E-16 0.41633E-16 0.10825E-14 0.55511E-16 0.71818E-15 0.14988E-14 0.97623E-13 0.15654E-13 0.20678E-14
 0.41633E-16 -.12490E-15 0.52736E-15 -.27756E-16 0.13878E-16 0.41633E-16 -.13878E-16 -.83267E-16 -.13878E-15 -.55511E-16
 -.22204E-15 0.27756E-16 0.97145E-16 0.73552E-14 -.27756E-16 0.19984E-14 0.17625E-14 0.29196E-12 0.41633E-16 -.69389E-16
 0.61062E-15 0.13878E-15 0.27670E-12 0.13878E-16  0.0000     0.27756E-16 0.83267E-16 0.84377E-14  0.0000     -.11102E-15
 -.55511E-16 0.73275E-14 -.83267E-16 0.22204E-15 -.83267E-16 0.31780E-14 0.65226E-15 0.20475E-11 0.19762E-13 0.21094E-14
 0.69389E-16 -.13878E-16 0.13878E-15 0.27756E-16 0.27756E-16 0.55511E-16 0.11102E-15 0.11102E-15 0.18596E-14 0.27756E-16
 -.13878E-16 0.18596E-14  0.0000     0.33168E-14 0.97145E-16 0.14639E-09 0.15959E-14 0.12629E-14 0.39552E-14 0.18041E-15
 0.27756E-16 0.17347E-14 0.11102E-15 0.56899E-15 0.11102E-15 0.16515E-14 0.62450E-15 0.31919E-15 0.55511E-16 0.11102E-14
 -.69389E-16 0.29193E-12 0.84516E-14 0.20475E-11 0.41633E-16 0.12629E-14 0.27756E-15 0.83267E-16 0.82989E-14 0.85001E-13
 -.55511E-16 -.55511E-16 0.41633E-16 0.19817E-13 0.17486E-14 0.39829E-14 0.62450E-16 0.83822E-14 0.18596E-13 0.14766E-13
 -.55511E-16 -.12490E-15 -.12490E-15 0.20539E-14 0.27756E-16 0.18041E-15 0.11657E-14 0.85071E-13 0.14877E-13 0.18874E-14
 0.12490E-15 -.69389E-16 0.68001E-15 0.55511E-16 0.12490E-15 0.69389E-16 0.13878E-16 0.41633E-16 -.69389E-16 0.55511E-16
 -.16653E-15 0.97145E-16 0.12490E-15 0.64393E-14  0.0000     0.20817E-14 0.12212E-14 0.34975E-12 0.13878E-16 0.83267E-16
 0.86042E-15 0.41633E-16 0.27454E-12 -.27756E-16 0.13878E-16 0.55511E-16 0.97145E-16 0.92981E-14 -.13878E-16 -.69389E-16
 0.41633E-16 0.63838E-14 -.69389E-16 0.55511E-16 -.27756E-16 0.35805E-14 0.51348E-15 0.18868E-11 0.18374E-13 0.24009E-14
 0.97145E-16 -.27756E-16 -.13878E-16 0.13878E-16 0.41633E-16 0.27756E-16 0.12490E-15 0.22204E-15 0.18596E-14 0.13878E-16
  0.0000     0.20817E-14 0.83267E-16 0.36915E-14 0.83267E-16 0.22777E-10 0.13323E-14 0.11657E-14 0.34833E-14 0.41633E-16
 0.55511E-16 0.12490E-14 0.55511E-16 0.55511E-15 0.11102E-15 0.13600E-14 0.63838E-15 0.20817E-15 0.41633E-16 0.94369E-15
 0.55511E-16 0.34962E-12 0.93398E-14 0.18868E-11 0.69389E-16 0.11935E-14 0.22204E-15 0.83267E-16 0.79103E-14 0.76911E-13
 0.27756E-16 0.27756E-16 0.15266E-15 0.18360E-13 0.19429E-14 0.36221E-14 0.55511E-16 0.78965E-14 0.16806E-13 0.18624E-13
 -.13878E-16 -.13878E-16 -.69389E-16 0.24147E-14 0.55511E-16 -.27756E-16 0.94369E-15 0.76952E-13 0.18596E-13 0.20123E-14
 0.21511E-15 0.69389E-16 0.86042E-15 0.13878E-16 0.27756E-16 0.41633E-16 -.69389E-16 0.69389E-16 -.27756E-16 0.27756E-16
  0.0000     0.11102E-15 -.13878E-16 0.54956E-14 0.41633E-16 0.24147E-14 0.11796E-14 0.36433E-12 0.12490E-15 0.41633E-16
 0.90206E-15 -.27756E-16 0.32685E-12 0.83267E-16 0.55511E-16 0.41633E-16 0.41633E-16 0.64115E-14 0.24980E-15 0.27756E-16
 0.97145E-16 0.55095E-14 -.27756E-16 0.13878E-15 -.41633E-16 0.39552E-14 0.45797E-15 0.17774E-11 0.15682E-13 0.30115E-14
 0.55511E-16 -.27756E-16  0.0000     0.97145E-16 -.69389E-16 0.83267E-16 0.55511E-16 0.69389E-16 0.22482E-14 0.41633E-16
 -.55511E-16 0.24702E-14 0.55511E-16 0.38580E-14 -.27756E-16 0.22222E-10 0.10686E-14 0.10547E-14 0.46491E-14 -.13878E-16
  0.0000     0.11796E-14 0.27756E-16 0.47184E-15 0.83267E-16 0.10408E-14 0.88818E-15 0.31919E-15 0.27756E-16 0.88818E-15
 0.27756E-16 0.36428E-12 0.63838E-14 0.17774E-11  0.0000     0.10547E-14 0.24980E-15 0.13878E-16 0.99781E-14 0.67363E-13
 0.27756E-16 0.13878E-15 0.22204E-15 0.15682E-13 0.22204E-14 0.46074E-14  0.0000     0.99920E-14 0.14738E-13 0.18846E-13
  0.0000     -.69389E-16 -.41633E-16 0.30115E-14 0.27756E-16 0.27756E-16 0.86042E-15 0.67515E-13 0.18846E-13 0.22343E-14
 0.45103E-16 0.10408E-16 0.65226E-15 0.83267E-16 0.27756E-16 0.27756E-16 -.41633E-16 -.27756E-16 -.27756E-16 -.13878E-16
 0.13878E-16 0.97145E-16 -.11102E-15 0.51625E-14 0.13878E-16 0.32752E-14 0.90206E-15 0.43009E-12 0.23592E-15 0.27756E-16
 0.76328E-15 -.69389E-16 0.39237E-12 0.13878E-16 -.41633E-16 0.83267E-16  0.0000     0.61479E-14 0.12490E-15 -.20817E-16
 0.27756E-16 0.50793E-14 -.27756E-16 0.97145E-16 -.41633E-16 0.48711E-14 0.43021E-15 0.15953E-11 0.13545E-13 0.30254E-14
  0.0000      0.0000     0.13878E-16 0.55511E-16 -.41633E-16 0.13878E-16 0.55511E-16 0.97145E-16 0.28588E-14 0.27756E-16
 -.27756E-16 0.32474E-14 0.27756E-16 0.48989E-14 0.13878E-16 0.26526E-10 0.11380E-14 0.94369E-15 0.47878E-14  0.0000    
 0.27756E-16 0.83267E-15 0.55511E-16 0.37470E-15 0.83267E-16 0.10686E-14 0.58287E-15 0.16653E-15 -.69389E-16 0.91593E-15
  0.0000     0.42999E-12 0.61895E-14 0.15954E-11  0.0000     0.90206E-15 0.41633E-16 0.27756E-16 0.10658E-13 0.59674E-13
 0.83267E-16 0.27062E-15 0.16653E-15 0.13586E-13 0.27894E-14 0.48433E-14 -.13878E-16 0.10533E-13 0.12351E-13 0.20220E-13
 0.90206E-16  0.0000     -.41633E-16 0.30531E-14 -.27756E-16  0.0000     0.83267E-15 0.59786E-13 0.20151E-13 0.26160E-14
 0.85001E-16 -.29490E-16 0.10339E-14 -.41633E-16  0.0000     0.83267E-16 -.27756E-16 -.27756E-16 -.27756E-16 0.45103E-16
  0.0000     0.12837E-15 -.41633E-16 0.46352E-14 0.27756E-16 0.33307E-14 0.88818E-15 0.50202E-12 0.24633E-15 -.65919E-16
 0.10061E-14 -.69389E-16 0.38543E-12 0.55511E-16 0.41633E-16 0.55511E-16 0.41633E-16 0.65087E-14 0.18041E-15 -.52042E-16
 0.55511E-16 0.46768E-14 -.55511E-16 0.41633E-16 -.55511E-16 0.47878E-14 0.33307E-15 0.14963E-11 0.15460E-13 0.23731E-14
 0.83267E-16 -.27756E-16  0.0000     0.27756E-16 -.13878E-16 0.27756E-16 0.11102E-15 0.69389E-16 0.27339E-14 0.12490E-15
 -.41633E-16 0.33029E-14 0.27756E-16 0.48295E-14 0.27756E-16 0.22240E-10 0.11102E-14 0.86042E-15 0.52736E-14 0.15266E-15
 0.55511E-16 0.88818E-15 0.27756E-16 0.36082E-15 0.69389E-16 0.11380E-14 0.74940E-15 0.33307E-15 0.13878E-16 0.94369E-15
 0.55511E-16 0.50199E-12 0.65642E-14 0.14963E-11  0.0000     0.88818E-15 0.22204E-15 -.41633E-16 0.11199E-13 0.53305E-13
 0.13878E-16 0.25327E-15 0.13878E-15 0.15460E-13 0.26645E-14 0.52597E-14 -.41633E-16 0.11213E-13 0.11754E-13 0.27214E-13
 -.53776E-16 -.38164E-16 -.69389E-17 0.23870E-14  0.0000     0.15266E-15 0.81879E-15 0.53360E-13 0.27117E-13 0.30358E-14
 0.55511E-16 -.16100E-16 0.10265E-14 0.29057E-16 0.48572E-16 0.32092E-16 -.22226E-17 -.14962E-16 -.49440E-16 0.97036E-17
 0.18757E-16 0.70690E-16 -.20383E-16 0.49660E-14 -.17347E-17 0.48633E-14 0.15482E-14 0.54893E-12 0.38467E-15 0.32309E-16
 0.10842E-14 -.39465E-16 0.51756E-12 0.45103E-16 -.24286E-16 0.54644E-16 0.62125E-16 0.75183E-14 0.85435E-16 0.23419E-16
 0.92374E-16 0.49054E-14 -.31659E-16 0.18041E-15 -.19732E-16 0.65711E-14 0.35096E-15 0.13570E-11 0.20112E-13 0.21845E-14