 vasp.5.4.4.18Apr17-6-g9f103f2a35 (build Jun 30 2017 11:15:00) complex          
  
 executed on    STALLO_VASP_5.4.4 date 2019.10.11  11:58:29
 running on    4 total cores
 distrk:  each k-point on    4 cores,    1 groups
 distr:  one band on NCORES_PER_BAND=   2 cores,    2 groups


--------------------------------------------------------------------------------------------------------


 INCAR:
 POTCAR:   PAW_PBE Cu 05Jan2001                   
 POTCAR:   PAW_PBE H 15Jun2001                    
 POTCAR:   PAW_PBE Cu 05Jan2001                   
   VRHFIN =Cu: d10 p1                                                           
   LEXCH  = PE                                                                  
   EATOM  =  1390.9800 eV,  102.2341 Ry                                         
                                                                                
   TITEL  = PAW_PBE Cu 05Jan2001                                                
   LULTRA =        F    use ultrasoft PP ?                                      
   IUNSCR =        1    unscreen: 0-lin 1-nonlin 2-no                           
   RPACOR =    2.000    partial core radius                                     
   POMASS =   63.546; ZVAL   =   11.000    mass and valenz                      
   RCORE  =    2.300    outmost cutoff radius                                   
   RWIGS  =    2.480; RWIGS  =    1.312    wigner-seitz radius (au A)           
   ENMAX  =  273.214; ENMIN  =  204.910 eV                                      
   RCLOC  =    1.712    cutoff for local pot                                    
   LCOR   =        T    correct aug charges                                     
   LPAW   =        T    paw PP                                                  
   EAUG   =  516.456                                                            
   DEXC   =    -.008                                                            
   RMAX   =    2.789    core radius for proj-oper                               
   RAUG   =    1.300    factor for augmentation sphere                          
   RDEP   =    2.302    radius for radial grids                                 
   QCUT   =   -4.481; QGAM   =    8.962    optimization parameters              
                                                                                
   Description                                                                  
     l     E      TYP  RCUT    TYP  RCUT                                        
     2   .000     23  2.300                                                     
     2   .000     23  2.300                                                     
     0   .000     23  2.300                                                     
     0   .000     23  2.300                                                     
     1  -.200     23  2.300                                                     
     1   .000     23  2.300                                                     
     3   .000      7   .000                                                     
  local pseudopotential read in
  partial core-charges read in
  atomic valenz-charges read in
  non local Contribution for L=           2  read in
    real space projection operators read in
  non local Contribution for L=           2  read in
    real space projection operators read in
  non local Contribution for L=           0  read in
    real space projection operators read in
  non local Contribution for L=           0  read in
    real space projection operators read in
  non local Contribution for L=           1  read in
    real space projection operators read in
  non local Contribution for L=           1  read in
    real space projection operators read in
    PAW grid and wavefunctions read in
 
   number of l-projection  operators is LMAX  =           6
   number of lm-projection operators is LMMAX =          18
 
 POTCAR:   PAW_PBE H 15Jun2001                    
   VRHFIN =H: ultrasoft test                                                    
   LEXCH  = PE                                                                  
   EATOM  =    12.4884 eV,     .9179 Ry                                         
                                                                                
   TITEL  = PAW_PBE H 15Jun2001                                                 
   LULTRA =        F    use ultrasoft PP ?                                      
   IUNSCR =        0    unscreen: 0-lin 1-nonlin 2-no                           
   RPACOR =     .000    partial core radius                                     
   POMASS =    1.000; ZVAL   =    1.000    mass and valenz                      
   RCORE  =    1.100    outmost cutoff radius                                   
   RWIGS  =     .700; RWIGS  =     .370    wigner-seitz radius (au A)           
   ENMAX  =  250.000; ENMIN  =  200.000 eV                                      
   RCLOC  =     .701    cutoff for local pot                                    
   LCOR   =        T    correct aug charges                                     
   LPAW   =        T    paw PP                                                  
   EAUG   =  400.000                                                            
   RMAX   =    2.174    core radius for proj-oper                               
   RAUG   =    1.200    factor for augmentation sphere                          
   RDEP   =    1.112    radius for radial grids                                 
   QCUT   =   -5.749; QGAM   =   11.498    optimization parameters              
                                                                                
   Description                                                                  
     l     E      TYP  RCUT    TYP  RCUT                                        
     0   .000     23  1.100                                                     
     0   .500     23  1.100                                                     
     1  -.300     23  1.100                                                     
  local pseudopotential read in
  atomic valenz-charges read in
  non local Contribution for L=           0  read in
    real space projection operators read in
  non local Contribution for L=           0  read in
    real space projection operators read in
  non local Contribution for L=           1  read in
    real space projection operators read in
    PAW grid and wavefunctions read in
 
   number of l-projection  operators is LMAX  =           3
   number of lm-projection operators is LMMAX =           5
 

 ----------------------------------------------------------------------------- 
|                                                                             |
|  ADVICE TO THIS USER RUNNING 'VASP/VAMP'   (HEAR YOUR MASTER'S VOICE ...):  |
|                                                                             |
|      You have a (more or less) 'small supercell' and for smaller cells      |
|      it is recommended  to use the reciprocal-space projection scheme!      |
|      The real space optimization is not  efficient for small cells and it   |
|      is also less accurate ...                                              |
|      Therefore set LREAL=.FALSE. in the  INCAR file                         |
|                                                                             |
 ----------------------------------------------------------------------------- 

 Optimization of the real space projectors (new method)

 maximal supplied QI-value         = 16.25
 optimisation between [QCUT,QGAM] = [  7.96, 16.09] = [ 17.76, 72.49] Ry 
 Optimized for a Real-space Cutoff    1.70 Angstroem

   l    n(q)    QCUT    max X(q) W(low)/X(q) W(high)/X(q)  e(spline) 
   2      7     7.963     4.977    0.65E-04    0.90E-04    0.59E-07
   2      7     7.963    13.467    0.48E-03    0.73E-03    0.12E-06
   0      8     7.963    13.303    0.22E-04    0.12E-04    0.51E-08
   0      8     7.963    44.613    0.10E-03    0.16E-03    0.47E-07
   1      8     7.963     5.276    0.66E-04    0.10E-04    0.22E-07
   1      8     7.963     7.322    0.38E-03    0.18E-03    0.17E-06
 Optimization of the real space projectors (new method)

 maximal supplied QI-value         = 34.20
 optimisation between [QCUT,QGAM] = [  7.87, 16.08] = [ 17.33, 72.37] Ry 
 Optimized for a Real-space Cutoff    1.85 Angstroem

   l    n(q)    QCUT    max X(q) W(low)/X(q) W(high)/X(q)  e(spline) 
   0      9     7.867     4.436    0.44E-04    0.71E-04    0.23E-06
   0      9     7.867    15.341    0.29E-03    0.73E-03    0.99E-06
   1      8     7.867     4.196    0.27E-03    0.13E-02    0.91E-06
 PAW_PBE Cu 05Jan2001                   :
 energy of atom  1       EATOM=-1390.9800
 kinetic energy error for atom=    0.0930 (will be added to EATOM!!)
 PAW_PBE H 15Jun2001                    :
 energy of atom  2       EATOM=  -12.4884
 kinetic energy error for atom=    0.0868 (will be added to EATOM!!)
 
 
 POSCAR: Cu  H                                   
  positions in cartesian coordinates
  velocities in cartesian coordinates
 exchange correlation table for  LEXCH =        8
   RHO(1)=    0.500       N(1)  =     2000
   RHO(2)=  100.500       N(2)  =     4000
 


--------------------------------------------------------------------------------------------------------


 ion  position               nearest neighbor table
   1  0.000  0.000  0.399-   2 2.55   2 2.55   2 2.55
   2  0.333  0.333  0.467-   1 2.55   1 2.55   1 2.55   3 2.56   3 2.56   3 2.56
   3  0.667  0.667  0.536-   2 2.56   2 2.56   2 2.56   4 2.58   4 2.58   4 2.58
   4  0.000  0.000  0.606-   5 1.41   3 2.58   3 2.58   3 2.58
   5  0.000  0.000  0.652-   4 1.41
 
  LATTYP: Found a hexagonal cell.
 ALAT       =     2.5738686835
 C/A-ratio  =    11.7739747694
  
  Lattice vectors:
  
 A1 = (   1.2869343418,  -2.2290356659,   0.0000000000)
 A2 = (  -2.5738686835,   0.0000000000,   0.0000000000)
 A3 = (   0.0000000000,   0.0000000000, -30.3046649396)


Analysis of symmetry for initial positions (statically):
=====================================================================
 Subroutine PRICEL returns:
 Original cell was already a primitive cell.
 

 Routine SETGRP: Setting up the symmetry group for a 
 hexagonal supercell.


 Subroutine GETGRP returns: Found  6 space group operations
 (whereof  6 operations were pure point group operations)
 out of a pool of 24 trial point group operations.


The static configuration has the point symmetry C_3v.


Analysis of symmetry for dynamics (positions and initial velocities):
=====================================================================
 Subroutine PRICEL returns:
 Original cell was already a primitive cell.
 

 Routine SETGRP: Setting up the symmetry group for a 
 hexagonal supercell.


 Subroutine GETGRP returns: Found  6 space group operations
 (whereof  6 operations were pure point group operations)
 out of a pool of 24 trial point group operations.


The dynamic configuration has the point symmetry C_3v.


 Subroutine INISYM returns: Found  6 space group operations
 (whereof  6 operations are pure point group operations),
 and found     1 'primitive' translations

 
 
 KPOINTS: k-density: 4.0                          

Automatic generation of k-mesh.
Space group operators:
 irot       det(A)        alpha          n_x          n_y          n_z        tau_x        tau_y        tau_z
    1     1.000000     0.000001     1.000000     0.000000     0.000000     0.000000     0.000000     0.000000
    2     1.000000   120.000000     0.000000     0.000000     1.000000     0.000000     0.000000     0.000000
    3     1.000000   120.000000     0.000000     0.000000    -1.000000     0.000000     0.000000     0.000000
    4    -1.000000   180.000000     0.500000    -0.866025     0.000000     0.000000     0.000000     0.000000
    5    -1.000000   180.000000     1.000000     0.000000     0.000000     0.000000     0.000000     0.000000
    6    -1.000000   180.000000    -0.500000    -0.866025     0.000000     0.000000     0.000000     0.000000
 
 Subroutine IBZKPT returns following result:
 ===========================================
 
 Found     14 irreducible k-points:
 
 Following reciprocal coordinates:
            Coordinates               Weight
  0.000000  0.000000  0.000000      1.000000
  0.100000  0.000000  0.000000      6.000000
  0.200000 -0.000000  0.000000      6.000000
  0.300000 -0.000000  0.000000      6.000000
  0.400000 -0.000000  0.000000      6.000000
  0.500000 -0.000000  0.000000      3.000000
  0.200000  0.100000  0.000000      6.000000
  0.300000  0.100000  0.000000     12.000000
  0.400000  0.100000  0.000000     12.000000
  0.500000  0.100000  0.000000     12.000000
  0.400000  0.200000  0.000000      6.000000
  0.500000  0.200000  0.000000     12.000000
 -0.400000  0.200000  0.000000      6.000000
 -0.400000  0.300000  0.000000      6.000000
 
 Following cartesian coordinates:
            Coordinates               Weight
  0.000000  0.000000  0.000000      1.000000
  0.038852 -0.022431  0.000000      6.000000
  0.077704 -0.044862  0.000000      6.000000
  0.116556 -0.067294  0.000000      6.000000
  0.155408 -0.089725  0.000000      6.000000
  0.194260 -0.112156  0.000000      3.000000
  0.077704 -0.000000  0.000000      6.000000
  0.116556 -0.022431  0.000000     12.000000
  0.155408 -0.044862  0.000000     12.000000
  0.194260 -0.067294  0.000000     12.000000
  0.155408  0.000000  0.000000      6.000000
  0.194260 -0.022431  0.000000     12.000000
 -0.155408  0.179450  0.000000      6.000000
 -0.155408  0.224312  0.000000      6.000000
 


--------------------------------------------------------------------------------------------------------




 Dimension of arrays:
   k-points           NKPTS =     14   k-points in BZ     NKDIM =     14   number of bands    NBANDS=     28
   number of dos      NEDOS =   2401   number of ions     NIONS =      5
   non local maximal  LDIM  =      6   non local SUM 2l+1 LMDIM =     18
   total plane-waves  NPLWV =  12000
   max r-space proj   IRMAX =   1888   max aug-charges    IRDMAX=   2622
   dimension x,y,z NGX =    10 NGY =   10 NGZ =  120
   dimension x,y,z NGXF=    20 NGYF=   20 NGZF=  240
   support grid    NGXF=    20 NGYF=   20 NGZF=  240
   ions per type =               4   1
   NGX,Y,Z   is equivalent  to a cutoff of   6.46,  6.46,  6.58 a.u.
   NGXF,Y,Z  is equivalent  to a cutoff of  12.92, 12.92, 13.17 a.u.

 SYSTEM =  unknown system                          
 POSCAR =  Cu  H                                   

 Startparameter for this run:
   NWRITE =      2    write-flag & timer
   PREC   = normal    normal or accurate (medium, high low for compatibility)
   ISTART =      0    job   : 0-new  1-cont  2-samecut
   ICHARG =      2    charge: 1-file 2-atom 10-const
   ISPIN  =      1    spin polarized calculation?
   LNONCOLLINEAR =      F non collinear calculations
   LSORBIT =      F    spin-orbit coupling
   INIWAV =      1    electr: 0-lowe 1-rand  2-diag
   LASPH  =      F    aspherical Exc in radial PAW
   METAGGA=      F    non-selfconsistent MetaGGA calc.

 Electronic Relaxation 1
   ENCUT  =  250.0 eV  18.37 Ry    4.29 a.u.   3.32  3.32 39.07*2*pi/ulx,y,z
   ENINI  =  250.0     initial cutoff
   ENAUG  =  516.5 eV  augmentation charge cutoff
   NELM   =     60;   NELMIN=  4; NELMDL=  0     # of ELM steps 
   EDIFF  = 0.1E-05   stopping-criterion for ELM
   LREAL  =      T    real-space projection
   NLSPLINE    = F    spline interpolate recip. space projectors
   LCOMPAT=      F    compatible to vasp.4.4
   GGA_COMPAT  = T    GGA compatible to vasp.4.4-vasp.4.6
   LMAXPAW     = -100 max onsite density
   LMAXMIX     =    2 max onsite mixed and CHGCAR
   VOSKOWN=      0    Vosko Wilk Nusair interpolation
   ROPT   =   -0.00050  -0.00050
 Ionic relaxation
   EDIFFG = 0.1E-04   stopping-criterion for IOM
   NSW    =      0    number of steps for IOM
   NBLOCK =      1;   KBLOCK =      1    inner block; outer block 
   IBRION =     -1    ionic relax: 0-MD 1-quasi-New 2-CG
   NFREE  =      0    steps in history (QN), initial steepest desc. (CG)
   ISIF   =      2    stress and relaxation
   IWAVPR =     10    prediction:  0-non 1-charg 2-wave 3-comb
   ISYM   =      2    0-nonsym 1-usesym 2-fastsym
   LCORR  =      T    Harris-Foulkes like correction to forces

   POTIM  = 0.5000    time-step for ionic-motion
   TEIN   =    0.0    initial temperature
   TEBEG  =    0.0;   TEEND  =   0.0 temperature during run
   SMASS  =  -3.00    Nose mass-parameter (am)
   estimated Nose-frequenzy (Omega)   =  0.10E-29 period in steps =****** mass=  -0.151E-27a.u.
   SCALEE = 1.0000    scale energy and forces
   NPACO  =    256;   APACO  = 16.0  distance and # of slots for P.C.
   PSTRESS=    0.0 pullay stress

  Mass of Ions in am
   POMASS =  63.55  1.00
  Ionic Valenz
   ZVAL   =  11.00  1.00
  Atomic Wigner-Seitz radii
   RWIGS  =  -1.00 -1.00
  virtual crystal weights 
   VCA    =   1.00  1.00
   NELECT =      45.0000    total number of electrons
   NUPDOWN=      -1.0000    fix difference up-down

 DOS related values:
   EMIN   = -17.00;   EMAX   =  7.00  energy-range for DOS
   EFERMI =   0.00
   ISMEAR =     0;   SIGMA  =   0.10  broadening in eV -4-tet -1-fermi 0-gaus

 Electronic relaxation 2 (details)
   IALGO  =     68    algorithm
   LDIAG  =      T    sub-space diagonalisation (order eigenvalues)
   LSUBROT=      F    optimize rotation matrix (better conditioning)
   TURBO    =      0    0=normal 1=particle mesh
   IRESTART =      0    0=no restart 2=restart with 2 vectors
   NREBOOT  =      0    no. of reboots
   NMIN     =      0    reboot dimension
   EREF     =   0.00    reference energy to select bands
   IMIX   =      4    mixing-type and parameters
     AMIX     =   0.40;   BMIX     =  1.00
     AMIX_MAG =   1.60;   BMIX_MAG =  1.00
     AMIN     =   0.10
     WC   =   100.;   INIMIX=   1;  MIXPRE=   1;  MAXMIX= -45

 Intra band minimization:
   WEIMIN = 0.0000     energy-eigenvalue tresh-hold
   EBREAK =  0.89E-08  absolut break condition
   DEPER  =   0.30     relativ break condition  

   TIME   =   0.40     timestep for ELM

  volume/ion in A,a.u.               =      34.77       234.66
  Fermi-wavevector in a.u.,A,eV,Ry     =   1.043297  1.971546 14.809520  1.088469
  Thomas-Fermi vector in A             =   2.178000
 
 Write flags
   LWAVE        =      F    write WAVECAR
   LDOWNSAMPLE  =      F    k-point downsampling of WAVECAR
   LCHARG       =      T    write CHGCAR
   LVTOT        =      F    write LOCPOT, total local potential
   LVHAR        =      F    write LOCPOT, Hartree potential only
   LELF         =      T    write electronic localiz. function (ELF)
   LORBIT       =     11    0 simple, 1 ext, 2 COOP (PROOUT), +10 PAW based schemes


 Dipole corrections
   LMONO  =      F    monopole corrections only (constant potential shift)
   LDIPOL =      F    correct potential (dipole corrections)
   IDIPOL =      0    1-x, 2-y, 3-z, 4-all directions 
   EPSILON=  1.0000000 bulk dielectric constant

 Exchange correlation treatment:
   GGA     =    --    GGA type
   LEXCH   =     8    internal setting for exchange type
   VOSKOWN=      0    Vosko Wilk Nusair interpolation
   LHFCALC =     F    Hartree Fock is set to
   LHFONE  =     F    Hartree Fock one center treatment
   AEXX    =    0.0000 exact exchange contribution

 Linear response parameters
   LEPSILON=     F    determine dielectric tensor
   LRPA    =     F    only Hartree local field effects (RPA)
   LNABLA  =     F    use nabla operator in PAW spheres
   LVEL    =     F    velocity operator in full k-point grid
   LINTERFAST=   F  fast interpolation
   KINTER  =     0    interpolate to denser k-point grid
   CSHIFT  =0.1000    complex shift for real part using Kramers Kronig
   OMEGAMAX=  -1.0    maximum frequency
   DEG_THRESHOLD= 0.2000000E-02 threshold for treating states as degnerate
   RTIME   =   -0.100 relaxation time in fs
  (WPLASMAI=    0.000 imaginary part of plasma frequency in eV, 0.658/RTIME)
   DFIELD  = 0.0000000 0.0000000 0.0000000 field for delta impulse in time
 
 Orbital magnetization related:
   ORBITALMAG=     F  switch on orbital magnetization
   LCHIMAG   =     F  perturbation theory with respect to B field
   DQ        =  0.001000  dq finite difference perturbation B field
   LLRAUG    =     F  two centre corrections for induced B field



--------------------------------------------------------------------------------------------------------


 Static calculation
 charge density and potential will be updated during run
 non-spin polarized calculation
 RMM-DIIS sequential band-by-band and
  variant of blocked Davidson during initial phase
 perform sub-space diagonalisation
    before iterative eigenvector-optimisation
 modified Broyden-mixing scheme, WC =      100.0
 initial mixing is a Kerker type mixing with AMIX =  0.4000 and BMIX =      1.0000
 Hartree-type preconditioning will be used
 using additional bands            5
 real space projection scheme for non local part
 use partial core corrections
 calculate Harris-corrections to forces 
   (improved forces if not selfconsistent)
 use gradient corrections 
 use of overlap-Matrix (Vanderbilt PP)
 Gauss-broadening in eV      SIGMA  =   0.10


--------------------------------------------------------------------------------------------------------


  energy-cutoff  :      250.00
  volume of cell :      173.87
      direct lattice vectors                 reciprocal lattice vectors
     2.573868684  0.000000000  0.000000000     0.388520209 -0.224312248  0.000000000
     1.286934342  2.229035666  0.000000000     0.000000000  0.448624495  0.000000000
     0.000000000  0.000000000 30.304664940     0.000000000  0.000000000  0.032998220

  length of vectors
     2.573868684  2.573868684 30.304664940     0.448624495  0.448624495  0.032998220


 
 k-points in units of 2pi/SCALE and weight: k-density: 4.0                          
   0.00000000  0.00000000  0.00000000       0.010
   0.03885202 -0.02243122  0.00000000       0.060
   0.07770404 -0.04486245  0.00000000       0.060
   0.11655606 -0.06729367  0.00000000       0.060
   0.15540808 -0.08972490  0.00000000       0.060
   0.19426010 -0.11215612  0.00000000       0.030
   0.07770404 -0.00000000  0.00000000       0.060
   0.11655606 -0.02243122  0.00000000       0.120
   0.15540808 -0.04486245  0.00000000       0.120
   0.19426010 -0.06729367  0.00000000       0.120
   0.15540808  0.00000000  0.00000000       0.060
   0.19426010 -0.02243122  0.00000000       0.120
  -0.15540808  0.17944980  0.00000000       0.060
  -0.15540808  0.22431225  0.00000000       0.060
 
 k-points in reciprocal lattice and weights: k-density: 4.0                          
   0.00000000  0.00000000  0.00000000       0.010
   0.10000000  0.00000000  0.00000000       0.060
   0.20000000 -0.00000000  0.00000000       0.060
   0.30000000 -0.00000000  0.00000000       0.060
   0.40000000 -0.00000000  0.00000000       0.060
   0.50000000 -0.00000000  0.00000000       0.030
   0.20000000  0.10000000  0.00000000       0.060
   0.30000000  0.10000000  0.00000000       0.120
   0.40000000  0.10000000  0.00000000       0.120
   0.50000000  0.10000000  0.00000000       0.120
   0.40000000  0.20000000  0.00000000       0.060
   0.50000000  0.20000000  0.00000000       0.120
  -0.40000000  0.20000000  0.00000000       0.060
  -0.40000000  0.30000000  0.00000000       0.060
 
 position of ions in fractional coordinates (direct lattice) 
   0.00000000  0.00000000  0.39881502
   0.33333333  0.33333333  0.46725011
   0.66666666  0.66666667  0.53604203
   0.00000000  0.00000000  0.60568418
   0.00000000  0.00000000  0.65232700
 
 position of ions in cartesian coordinates  (Angst):
   0.00000000  0.00000000 12.08595557
   1.28693434  0.74301189 14.15985791
   2.57386868  1.48602378 16.24457397
   0.00000000  0.00000000 18.35505625
   0.00000000  0.00000000 19.76855112
 


--------------------------------------------------------------------------------------------------------


 k-point  1 :   0.0000 0.0000 0.0000  plane waves:    1609
 k-point  2 :   0.1000 0.0000 0.0000  plane waves:    1589
 k-point  3 :   0.2000-0.0000 0.0000  plane waves:    1586
 k-point  4 :   0.3000-0.0000 0.0000  plane waves:    1542
 k-point  5 :   0.4000-0.0000 0.0000  plane waves:    1568
 k-point  6 :   0.5000-0.0000 0.0000  plane waves:    1570
 k-point  7 :   0.2000 0.1000 0.0000  plane waves:    1579
 k-point  8 :   0.3000 0.1000 0.0000  plane waves:    1569
 k-point  9 :   0.4000 0.1000 0.0000  plane waves:    1552
 k-point 10 :   0.5000 0.1000 0.0000  plane waves:    1549
 k-point 11 :   0.4000 0.2000 0.0000  plane waves:    1545
 k-point 12 :   0.5000 0.2000 0.0000  plane waves:    1549
 k-point 13 :  -0.4000 0.2000 0.0000  plane waves:    1546
 k-point 14 :  -0.4000 0.3000 0.0000  plane waves:    1547

 maximum and minimum number of plane-waves per node :       808      768

 maximum number of plane-waves:      1609
 maximum index in each direction: 
   IXMAX=    3   IYMAX=    3   IZMAX=   39
   IXMIN=   -3   IYMIN=   -3   IZMIN=  -39


 real space projection operators:
  total allocation   :        841.02 KBytes
  max/ min on nodes  :        422.05        418.97


 parallel 3D FFT for wavefunctions:
    minimum data exchange during FFTs selected (reduces bandwidth)
 parallel 3D FFT for charge:
    minimum data exchange during FFTs selected (reduces bandwidth)


 total amount of memory used by VASP MPI-rank0    35974. kBytes
=======================================================================

   base      :      30000. kBytes
   nonlr-proj:        676. kBytes
   fftplans  :        995. kBytes
   grid      :       1592. kBytes
   one-center:         46. kBytes
   wavefun   :       2665. kBytes
 
     INWAV:  cpu time    0.0000: real time    0.0002
 Broyden mixing: mesh for mixing (old mesh)
   NGX =  7   NGY =  7   NGZ = 79
  (NGX  = 20   NGY  = 20   NGZ  =240)
  gives a total of   3871 points

 initial charge density was supplied:
 charge density of overlapping atoms calculated
 number of electron      45.0000000 magnetization 
 keeping initial charge density in first step


--------------------------------------------------------------------------------------------------------


 Maximum index for non-local projection operator          890
 Maximum index for augmentation-charges          590 (set IRDMAX)


--------------------------------------------------------------------------------------------------------


 First call to EWALD:  gamma=   0.318
 Maximum number of real-space cells 6x 6x 1
 Maximum number of reciprocal cells 2x 2x13

    FEWALD:  cpu time    0.0010: real time    0.0016


--------------------------------------- Iteration      1(   1)  ---------------------------------------


    POTLOK:  cpu time    0.0160: real time    0.0203
    SETDIJ:  cpu time    0.0030: real time    0.0040
     EDDAV:  cpu time    0.2740: real time    0.2786
       DOS:  cpu time    0.0020: real time    0.0026
    --------------------------------------------
      LOOP:  cpu time    0.2950: real time    0.3055

 eigenvalue-minimisations  :   800
 total energy-change (2. order) : 0.1991194E+03  (-0.1397592E+04)
 number of electron      45.0000000 magnetization 
 augmentation part       45.0000000 magnetization 

 Free energy of the ion-electron system (eV)
  ---------------------------------------------------
  alpha Z        PSCENC =       120.87645803
  Ewald energy   TEWEN  =     37990.17053790
  -Hartree energ DENC   =    -43111.03678797
  -exchange      EXHF   =         0.00000000
  -V(xc)+E(xc)   XCENC  =       177.27503281
  PAW double counting   =      4328.99049516    -4905.09836044
  entropy T*S    EENTRO =        -0.01305335
  eigenvalues    EBANDS =        22.00549833
  atomic energy  EATOM  =      5575.94961827
  Solvation  Ediel_sol  =         0.00000000
  ---------------------------------------------------
  free energy    TOTEN  =       199.11943874 eV

  energy without entropy =      199.13249210  energy(sigma->0) =      199.12596542


--------------------------------------------------------------------------------------------------------




--------------------------------------- Iteration      1(   2)  ---------------------------------------


     EDDAV:  cpu time    0.2770: real time    0.2779
       DOS:  cpu time    0.0030: real time    0.0026
    --------------------------------------------
      LOOP:  cpu time    0.2800: real time    0.2805

 eigenvalue-minimisations  :   832
 total energy-change (2. order) :-0.2089874E+03  (-0.2034870E+03)
 number of electron      45.0000000 magnetization 
 augmentation part       45.0000000 magnetization 

 Free energy of the ion-electron system (eV)
  ---------------------------------------------------
  alpha Z        PSCENC =       120.87645803
  Ewald energy   TEWEN  =     37990.17053790
  -Hartree energ DENC   =    -43111.03678797
  -exchange      EXHF   =         0.00000000
  -V(xc)+E(xc)   XCENC  =       177.27503281
  PAW double counting   =      4328.99049516    -4905.09836044
  entropy T*S    EENTRO =        -0.01849217
  eigenvalues    EBANDS =      -186.97648892
  atomic energy  EATOM  =      5575.94961827
  Solvation  Ediel_sol  =         0.00000000
  ---------------------------------------------------
  free energy    TOTEN  =        -9.86798733 eV

  energy without entropy =       -9.84949516  energy(sigma->0) =       -9.85874125


--------------------------------------------------------------------------------------------------------




--------------------------------------- Iteration      1(   3)  ---------------------------------------


     EDDAV:  cpu time    0.2820: real time    0.2826
       DOS:  cpu time    0.0030: real time    0.0026
    --------------------------------------------
      LOOP:  cpu time    0.2850: real time    0.2852

 eigenvalue-minimisations  :   852
 total energy-change (2. order) :-0.1060879E+02  (-0.1022017E+02)
 number of electron      45.0000000 magnetization 
 augmentation part       45.0000000 magnetization 

 Free energy of the ion-electron system (eV)
  ---------------------------------------------------
  alpha Z        PSCENC =       120.87645803
  Ewald energy   TEWEN  =     37990.17053790
  -Hartree energ DENC   =    -43111.03678797
  -exchange      EXHF   =         0.00000000
  -V(xc)+E(xc)   XCENC  =       177.27503281
  PAW double counting   =      4328.99049516    -4905.09836044
  entropy T*S    EENTRO =        -0.02023056
  eigenvalues    EBANDS =      -197.58354158
  atomic energy  EATOM  =      5575.94961827
  Solvation  Ediel_sol  =         0.00000000
  ---------------------------------------------------
  free energy    TOTEN  =       -20.47677838 eV

  energy without entropy =      -20.45654782  energy(sigma->0) =      -20.46666310


--------------------------------------------------------------------------------------------------------




--------------------------------------- Iteration      1(   4)  ---------------------------------------


     EDDAV:  cpu time    0.2820: real time    0.2842
       DOS:  cpu time    0.0020: real time    0.0026
    --------------------------------------------
      LOOP:  cpu time    0.2840: real time    0.2868

 eigenvalue-minimisations  :   848
 total energy-change (2. order) :-0.1660182E+00  (-0.1650684E+00)
 number of electron      45.0000000 magnetization 
 augmentation part       45.0000000 magnetization 

 Free energy of the ion-electron system (eV)
  ---------------------------------------------------
  alpha Z        PSCENC =       120.87645803
  Ewald energy   TEWEN  =     37990.17053790
  -Hartree energ DENC   =    -43111.03678797
  -exchange      EXHF   =         0.00000000
  -V(xc)+E(xc)   XCENC  =       177.27503281
  PAW double counting   =      4328.99049516    -4905.09836044
  entropy T*S    EENTRO =        -0.01975108
  eigenvalues    EBANDS =      -197.75003927
  atomic energy  EATOM  =      5575.94961827
  Solvation  Ediel_sol  =         0.00000000
  ---------------------------------------------------
  free energy    TOTEN  =       -20.64279659 eV

  energy without entropy =      -20.62304550  energy(sigma->0) =      -20.63292105


--------------------------------------------------------------------------------------------------------




--------------------------------------- Iteration      1(   5)  ---------------------------------------


     EDDAV:  cpu time    0.3020: real time    0.3018
       DOS:  cpu time    0.0030: real time    0.0026
    CHARGE:  cpu time    0.0160: real time    0.0169
    MIXING:  cpu time    0.0010: real time    0.0008
    --------------------------------------------
      LOOP:  cpu time    0.3220: real time    0.3221

 eigenvalue-minimisations  :   924
 total energy-change (2. order) :-0.1414855E-02  (-0.1414637E-02)
 number of electron      44.9999936 magnetization 
 augmentation part       26.4720063 magnetization 

 Broyden mixing:
  rms(total) = 0.15815E+01    rms(broyden)= 0.15807E+01
  rms(prec ) = 0.16440E+01
  weight for this iteration     100.00

 Free energy of the ion-electron system (eV)
  ---------------------------------------------------
  alpha Z        PSCENC =       120.87645803
  Ewald energy   TEWEN  =     37990.17053790
  -Hartree energ DENC   =    -43111.03678797
  -exchange      EXHF   =         0.00000000
  -V(xc)+E(xc)   XCENC  =       177.27503281
  PAW double counting   =      4328.99049516    -4905.09836044
  entropy T*S    EENTRO =        -0.01974598
  eigenvalues    EBANDS =      -197.75145923
  atomic energy  EATOM  =      5575.94961827
  Solvation  Ediel_sol  =         0.00000000
  ---------------------------------------------------
  free energy    TOTEN  =       -20.64421144 eV

  energy without entropy =      -20.62446547  energy(sigma->0) =      -20.63433845


--------------------------------------------------------------------------------------------------------




--------------------------------------- Iteration      1(   6)  ---------------------------------------


    POTLOK:  cpu time    0.0110: real time    0.0117
    SETDIJ:  cpu time    0.0040: real time    0.0032
    EDDIAG:  cpu time    0.0550: real time    0.0558
  RMM-DIIS:  cpu time    0.1620: real time    0.1616
    ORTHCH:  cpu time    0.0070: real time    0.0072
       DOS:  cpu time    0.0020: real time    0.0026
    CHARGE:  cpu time    0.0170: real time    0.0163
    MIXING:  cpu time    0.0000: real time    0.0007
    --------------------------------------------
      LOOP:  cpu time    0.2580: real time    0.2592

 eigenvalue-minimisations  :   864
 total energy-change (2. order) : 0.1453501E+01  (-0.5010595E+01)
 number of electron      44.9999964 magnetization 
 augmentation part       30.1669582 magnetization 

 Broyden mixing:
  rms(total) = 0.88300E+00    rms(broyden)= 0.88251E+00
  rms(prec ) = 0.97034E+00
  weight for this iteration     100.00

 eigenvalues of (default mixing * dielectric matrix)
  average eigenvalue GAMMA=   0.6454
  0.6454

 Free energy of the ion-electron system (eV)
  ---------------------------------------------------
  alpha Z        PSCENC =       120.87645803
  Ewald energy   TEWEN  =     37990.17053790
  -Hartree energ DENC   =    -42966.65464017
  -exchange      EXHF   =         0.00000000
  -V(xc)+E(xc)   XCENC  =       171.85558369
  PAW double counting   =      4203.69106252    -4742.19099041
  entropy T*S    EENTRO =        -0.00909852
  eigenvalues    EBANDS =      -372.87924201
  atomic energy  EATOM  =      5575.94961827
  Solvation  Ediel_sol  =         0.00000000
  ---------------------------------------------------
  free energy    TOTEN  =       -19.19071072 eV

  energy without entropy =      -19.18161220  energy(sigma->0) =      -19.18616146


--------------------------------------------------------------------------------------------------------




--------------------------------------- Iteration      1(   7)  ---------------------------------------


    POTLOK:  cpu time    0.0120: real time    0.0114
    SETDIJ:  cpu time    0.0030: real time    0.0032
    EDDIAG:  cpu time    0.0550: real time    0.0556
  RMM-DIIS:  cpu time    0.1570: real time    0.1580
    ORTHCH:  cpu time    0.0090: real time    0.0072
       DOS:  cpu time    0.0010: real time    0.0026
    CHARGE:  cpu time    0.0170: real time    0.0164
    MIXING:  cpu time    0.0010: real time    0.0005
    --------------------------------------------
      LOOP:  cpu time    0.2550: real time    0.2548

 eigenvalue-minimisations  :   844
 total energy-change (2. order) : 0.2319482E+01  (-0.9069688E+00)
 number of electron      44.9999945 magnetization 
 augmentation part       28.6301794 magnetization 

 Broyden mixing:
  rms(total) = 0.38800E+00    rms(broyden)= 0.38763E+00
  rms(prec ) = 0.58971E+00
  weight for this iteration     100.00

 eigenvalues of (default mixing * dielectric matrix)
  average eigenvalue GAMMA=   0.4275
  0.6624  0.1927

 Free energy of the ion-electron system (eV)
  ---------------------------------------------------
  alpha Z        PSCENC =       120.87645803
  Ewald energy   TEWEN  =     37990.17053790
  -Hartree energ DENC   =    -43038.27013836
  -exchange      EXHF   =         0.00000000
  -V(xc)+E(xc)   XCENC  =       173.64208682
  PAW double counting   =      4314.03306054    -4879.10498437
  entropy T*S    EENTRO =        -0.00990840
  eigenvalues    EBANDS =      -274.15795916
  atomic energy  EATOM  =      5575.94961827
  Solvation  Ediel_sol  =         0.00000000
  ---------------------------------------------------
  free energy    TOTEN  =       -16.87122872 eV

  energy without entropy =      -16.86132033  energy(sigma->0) =      -16.86627452


--------------------------------------------------------------------------------------------------------




--------------------------------------- Iteration      1(   8)  ---------------------------------------


    POTLOK:  cpu time    0.0110: real time    0.0138
    SETDIJ:  cpu time    0.0040: real time    0.0032
    EDDIAG:  cpu time    0.0550: real time    0.0556
  RMM-DIIS:  cpu time    0.1620: real time    0.1628
    ORTHCH:  cpu time    0.0070: real time    0.0071
       DOS:  cpu time    0.0030: real time    0.0026
    CHARGE:  cpu time    0.0160: real time    0.0163
    MIXING:  cpu time    0.0010: real time    0.0005
    --------------------------------------------
      LOOP:  cpu time    0.2590: real time    0.2618

 eigenvalue-minimisations  :   867
 total energy-change (2. order) : 0.5174052E+00  (-0.2482138E-01)
 number of electron      44.9999948 magnetization 
 augmentation part       28.7088430 magnetization 

 Broyden mixing:
  rms(total) = 0.15708E+00    rms(broyden)= 0.15620E+00
  rms(prec ) = 0.17309E+00
  weight for this iteration     100.00

 eigenvalues of (default mixing * dielectric matrix)
  average eigenvalue GAMMA=   0.6431
  1.1554  0.5848  0.1891

 Free energy of the ion-electron system (eV)
  ---------------------------------------------------
  alpha Z        PSCENC =       120.87645803
  Ewald energy   TEWEN  =     37990.17053790
  -Hartree energ DENC   =    -43034.33637252
  -exchange      EXHF   =         0.00000000
  -V(xc)+E(xc)   XCENC  =       173.62201759
  PAW double counting   =      4323.28107047    -4890.01189424
  entropy T*S    EENTRO =        -0.01111422
  eigenvalues    EBANDS =      -275.89414483
  atomic energy  EATOM  =      5575.94961827
  Solvation  Ediel_sol  =         0.00000000
  ---------------------------------------------------
  free energy    TOTEN  =       -16.35382355 eV

  energy without entropy =      -16.34270933  energy(sigma->0) =      -16.34826644


--------------------------------------------------------------------------------------------------------




--------------------------------------- Iteration      1(   9)  ---------------------------------------


    POTLOK:  cpu time    0.0110: real time    0.0115
    SETDIJ:  cpu time    0.0040: real time    0.0032
    EDDIAG:  cpu time    0.0550: real time    0.0556
  RMM-DIIS:  cpu time    0.1610: real time    0.1608
    ORTHCH:  cpu time    0.0070: real time    0.0072
       DOS:  cpu time    0.0030: real time    0.0027
    CHARGE:  cpu time    0.0160: real time    0.0163
    MIXING:  cpu time    0.0010: real time    0.0011
    --------------------------------------------
      LOOP:  cpu time    0.2580: real time    0.2583

 eigenvalue-minimisations  :   860
 total energy-change (2. order) : 0.5202434E-01  (-0.6241943E-02)
 number of electron      44.9999950 magnetization 
 augmentation part       28.6655231 magnetization 

 Broyden mixing:
  rms(total) = 0.88655E-01    rms(broyden)= 0.88634E-01
  rms(prec ) = 0.98147E-01
  weight for this iteration     100.00

 eigenvalues of (default mixing * dielectric matrix)
  average eigenvalue GAMMA=   0.8694
  2.0589  0.6082  0.6082  0.2024

 Free energy of the ion-electron system (eV)
  ---------------------------------------------------
  alpha Z        PSCENC =       120.87645803
  Ewald energy   TEWEN  =     37990.17053790
  -Hartree energ DENC   =    -43037.78248459
  -exchange      EXHF   =         0.00000000
  -V(xc)+E(xc)   XCENC  =       173.50635488
  PAW double counting   =      4354.74219236    -4925.91573133
  entropy T*S    EENTRO =        -0.01555993
  eigenvalues    EBANDS =      -267.83318479
  atomic energy  EATOM  =      5575.94961827
  Solvation  Ediel_sol  =         0.00000000
  ---------------------------------------------------
  free energy    TOTEN  =       -16.30179921 eV

  energy without entropy =      -16.28623928  energy(sigma->0) =      -16.29401925


--------------------------------------------------------------------------------------------------------




--------------------------------------- Iteration      1(  10)  ---------------------------------------


    POTLOK:  cpu time    0.0110: real time    0.0114
    SETDIJ:  cpu time    0.0030: real time    0.0032
    EDDIAG:  cpu time    0.0550: real time    0.0555
  RMM-DIIS:  cpu time    0.1600: real time    0.1596
    ORTHCH:  cpu time    0.0070: real time    0.0071
       DOS:  cpu time    0.0030: real time    0.0026
    CHARGE:  cpu time    0.0160: real time    0.0163
    MIXING:  cpu time    0.0010: real time    0.0006
    --------------------------------------------
      LOOP:  cpu time    0.2560: real time    0.2562

 eigenvalue-minimisations  :   842
 total energy-change (2. order) : 0.2013126E-01  (-0.1665501E-02)
 number of electron      44.9999949 magnetization 
 augmentation part       28.6780020 magnetization 

 Broyden mixing:
  rms(total) = 0.54041E-01    rms(broyden)= 0.54025E-01
  rms(prec ) = 0.59789E-01
  weight for this iteration     100.00

 eigenvalues of (default mixing * dielectric matrix)
  average eigenvalue GAMMA=   0.7939
  2.0634  0.6354  0.6354  0.2043  0.4309

 Free energy of the ion-electron system (eV)
  ---------------------------------------------------
  alpha Z        PSCENC =       120.87645803
  Ewald energy   TEWEN  =     37990.17053790
  -Hartree energ DENC   =    -43039.94661039
  -exchange      EXHF   =         0.00000000
  -V(xc)+E(xc)   XCENC  =       173.27045506
  PAW double counting   =      4388.57179871    -4963.82140367
  entropy T*S    EENTRO =        -0.01733537
  eigenvalues    EBANDS =      -261.33518649
  atomic energy  EATOM  =      5575.94961827
  Solvation  Ediel_sol  =         0.00000000
  ---------------------------------------------------
  free energy    TOTEN  =       -16.28166796 eV

  energy without entropy =      -16.26433259  energy(sigma->0) =      -16.27300027


--------------------------------------------------------------------------------------------------------




--------------------------------------- Iteration      1(  11)  ---------------------------------------


    POTLOK:  cpu time    0.0110: real time    0.0115
    SETDIJ:  cpu time    0.0030: real time    0.0032
    EDDIAG:  cpu time    0.0550: real time    0.0555
  RMM-DIIS:  cpu time    0.1630: real time    0.1629
    ORTHCH:  cpu time    0.0070: real time    0.0071
       DOS:  cpu time    0.0020: real time    0.0027
    CHARGE:  cpu time    0.0180: real time    0.0164
    MIXING:  cpu time    0.0000: real time    0.0006
    --------------------------------------------
      LOOP:  cpu time    0.2590: real time    0.2599

 eigenvalue-minimisations  :   864
 total energy-change (2. order) : 0.4755396E-02  (-0.1011775E-02)
 number of electron      44.9999949 magnetization 
 augmentation part       28.7005009 magnetization 

 Broyden mixing:
  rms(total) = 0.29828E-01    rms(broyden)= 0.29819E-01
  rms(prec ) = 0.32514E-01
  weight for this iteration     100.00

 eigenvalues of (default mixing * dielectric matrix)
  average eigenvalue GAMMA=   0.8876
  2.3337  1.1625  0.6642  0.5915  0.2042  0.3699

 Free energy of the ion-electron system (eV)
  ---------------------------------------------------
  alpha Z        PSCENC =       120.87645803
  Ewald energy   TEWEN  =     37990.17053790
  -Hartree energ DENC   =    -43040.93117965
  -exchange      EXHF   =         0.00000000
  -V(xc)+E(xc)   XCENC  =       173.21106584
  PAW double counting   =      4392.25986529    -4967.70444056
  entropy T*S    EENTRO =        -0.01704688
  eigenvalues    EBANDS =      -260.09179081
  atomic energy  EATOM  =      5575.94961827
  Solvation  Ediel_sol  =         0.00000000
  ---------------------------------------------------
  free energy    TOTEN  =       -16.27691256 eV

  energy without entropy =      -16.25986568  energy(sigma->0) =      -16.26838912


--------------------------------------------------------------------------------------------------------




--------------------------------------- Iteration      1(  12)  ---------------------------------------


    POTLOK:  cpu time    0.0120: real time    0.0140
    SETDIJ:  cpu time    0.0030: real time    0.0032
    EDDIAG:  cpu time    0.0550: real time    0.0554
  RMM-DIIS:  cpu time    0.1600: real time    0.1598
    ORTHCH:  cpu time    0.0070: real time    0.0071
       DOS:  cpu time    0.0020: real time    0.0026
    CHARGE:  cpu time    0.0170: real time    0.0163
    MIXING:  cpu time    0.0010: real time    0.0006
    --------------------------------------------
      LOOP:  cpu time    0.2570: real time    0.2590

 eigenvalue-minimisations  :   858
 total energy-change (2. order) : 0.2242642E-02  (-0.6338856E-03)
 number of electron      44.9999950 magnetization 
 augmentation part       28.7393334 magnetization 

 Broyden mixing:
  rms(total) = 0.16490E-01    rms(broyden)= 0.16470E-01
  rms(prec ) = 0.21822E-01
  weight for this iteration     100.00

 eigenvalues of (default mixing * dielectric matrix)
  average eigenvalue GAMMA=   0.8494
  2.3989  1.1025  0.2040  0.6683  0.6683  0.5584  0.3454

 Free energy of the ion-electron system (eV)
  ---------------------------------------------------
  alpha Z        PSCENC =       120.87645803
  Ewald energy   TEWEN  =     37990.17053790
  -Hartree energ DENC   =    -43041.28918962
  -exchange      EXHF   =         0.00000000
  -V(xc)+E(xc)   XCENC  =       173.13100411
  PAW double counting   =      4397.44855110    -4973.12849274
  entropy T*S    EENTRO =        -0.01536108
  eigenvalues    EBANDS =      -259.41779589
  atomic energy  EATOM  =      5575.94961827
  Solvation  Ediel_sol  =         0.00000000
  ---------------------------------------------------
  free energy    TOTEN  =       -16.27466992 eV

  energy without entropy =      -16.25930884  energy(sigma->0) =      -16.26698938


--------------------------------------------------------------------------------------------------------




--------------------------------------- Iteration      1(  13)  ---------------------------------------


    POTLOK:  cpu time    0.0110: real time    0.0113
    SETDIJ:  cpu time    0.0030: real time    0.0031
    EDDIAG:  cpu time    0.0550: real time    0.0554
  RMM-DIIS:  cpu time    0.1600: real time    0.1598
    ORTHCH:  cpu time    0.0070: real time    0.0071
       DOS:  cpu time    0.0030: real time    0.0027
    CHARGE:  cpu time    0.0160: real time    0.0164
    MIXING:  cpu time    0.0010: real time    0.0007
    --------------------------------------------
      LOOP:  cpu time    0.2560: real time    0.2565

 eigenvalue-minimisations  :   854
 total energy-change (2. order) : 0.9303732E-03  (-0.8162271E-04)
 number of electron      44.9999950 magnetization 
 augmentation part       28.7328135 magnetization 

 Broyden mixing:
  rms(total) = 0.57079E-02    rms(broyden)= 0.56663E-02
  rms(prec ) = 0.76312E-02
  weight for this iteration     100.00

 eigenvalues of (default mixing * dielectric matrix)
  average eigenvalue GAMMA=   0.9202
  2.3413  1.7726  0.9250  0.7327  0.6043  0.2040  0.4424  0.3397

 Free energy of the ion-electron system (eV)
  ---------------------------------------------------
  alpha Z        PSCENC =       120.87645803
  Ewald energy   TEWEN  =     37990.17053790
  -Hartree energ DENC   =    -43042.89663648
  -exchange      EXHF   =         0.00000000
  -V(xc)+E(xc)   XCENC  =       173.13176476
  PAW double counting   =      4399.42396276    -4975.33355444
  entropy T*S    EENTRO =        -0.01628670
  eigenvalues    EBANDS =      -257.57960365
  atomic energy  EATOM  =      5575.94961827
  Solvation  Ediel_sol  =         0.00000000
  ---------------------------------------------------
  free energy    TOTEN  =       -16.27373954 eV

  energy without entropy =      -16.25745285  energy(sigma->0) =      -16.26559620


--------------------------------------------------------------------------------------------------------




--------------------------------------- Iteration      1(  14)  ---------------------------------------


    POTLOK:  cpu time    0.0110: real time    0.0113
    SETDIJ:  cpu time    0.0040: real time    0.0032
    EDDIAG:  cpu time    0.0550: real time    0.0553
  RMM-DIIS:  cpu time    0.1590: real time    0.1593
    ORTHCH:  cpu time    0.0070: real time    0.0072
       DOS:  cpu time    0.0030: real time    0.0027
    CHARGE:  cpu time    0.0160: real time    0.0164
    MIXING:  cpu time    0.0010: real time    0.0007
    --------------------------------------------
      LOOP:  cpu time    0.2560: real time    0.2560

 eigenvalue-minimisations  :   853
 total energy-change (2. order) : 0.2153882E-03  (-0.2788933E-04)
 number of electron      44.9999950 magnetization 
 augmentation part       28.7296560 magnetization 

 Broyden mixing:
  rms(total) = 0.51583E-02    rms(broyden)= 0.51222E-02
  rms(prec ) = 0.74336E-02
  weight for this iteration     100.00

 eigenvalues of (default mixing * dielectric matrix)
  average eigenvalue GAMMA=   1.0288
  2.5905  2.5905  1.0237  0.8124  0.2040  0.6999  0.5827  0.4105  0.3447

 Free energy of the ion-electron system (eV)
  ---------------------------------------------------
  alpha Z        PSCENC =       120.87645803
  Ewald energy   TEWEN  =     37990.17053790
  -Hartree energ DENC   =    -43044.78277035
  -exchange      EXHF   =         0.00000000
  -V(xc)+E(xc)   XCENC  =       173.13714486
  PAW double counting   =      4400.28260005    -4976.23924335
  entropy T*S    EENTRO =        -0.01675334
  eigenvalues    EBANDS =      -255.65111622
  atomic energy  EATOM  =      5575.94961827
  Solvation  Ediel_sol  =         0.00000000
  ---------------------------------------------------
  free energy    TOTEN  =       -16.27352416 eV

  energy without entropy =      -16.25677081  energy(sigma->0) =      -16.26514749


--------------------------------------------------------------------------------------------------------




--------------------------------------- Iteration      1(  15)  ---------------------------------------


    POTLOK:  cpu time    0.0110: real time    0.0113
    SETDIJ:  cpu time    0.0030: real time    0.0032
    EDDIAG:  cpu time    0.0550: real time    0.0554
  RMM-DIIS:  cpu time    0.1530: real time    0.1526
    ORTHCH:  cpu time    0.0060: real time    0.0071
       DOS:  cpu time    0.0030: real time    0.0026
    CHARGE:  cpu time    0.0160: real time    0.0164
    MIXING:  cpu time    0.0020: real time    0.0007
    --------------------------------------------
      LOOP:  cpu time    0.2490: real time    0.2493

 eigenvalue-minimisations  :   822
 total energy-change (2. order) : 0.1882642E-05  (-0.3049375E-04)
 number of electron      44.9999950 magnetization 
 augmentation part       28.7285741 magnetization 

 Broyden mixing:
  rms(total) = 0.23925E-02    rms(broyden)= 0.23214E-02
  rms(prec ) = 0.37894E-02
  weight for this iteration     100.00

 eigenvalues of (default mixing * dielectric matrix)
  average eigenvalue GAMMA=   1.1007
  3.1459  2.6115  1.3191  0.8677  0.8677  0.6472  0.5982  0.2040  0.4016  0.3441

 Free energy of the ion-electron system (eV)
  ---------------------------------------------------
  alpha Z        PSCENC =       120.87645803
  Ewald energy   TEWEN  =     37990.17053790
  -Hartree energ DENC   =    -43048.24121601
  -exchange      EXHF   =         0.00000000
  -V(xc)+E(xc)   XCENC  =       173.15187502
  PAW double counting   =      4400.16015306    -4975.99120165
  entropy T*S    EENTRO =        -0.01646033
  eigenvalues    EBANDS =      -252.33328655
  atomic energy  EATOM  =      5575.94961827
  Solvation  Ediel_sol  =         0.00000000
  ---------------------------------------------------
  free energy    TOTEN  =       -16.27352227 eV

  energy without entropy =      -16.25706194  energy(sigma->0) =      -16.26529211


--------------------------------------------------------------------------------------------------------




--------------------------------------- Iteration      1(  16)  ---------------------------------------


    POTLOK:  cpu time    0.0110: real time    0.0131
    SETDIJ:  cpu time    0.0030: real time    0.0032
    EDDIAG:  cpu time    0.0550: real time    0.0553
  RMM-DIIS:  cpu time    0.1550: real time    0.1555
    ORTHCH:  cpu time    0.0070: real time    0.0071
       DOS:  cpu time    0.0030: real time    0.0027
    CHARGE:  cpu time    0.0160: real time    0.0163
    MIXING:  cpu time    0.0020: real time    0.0008
    --------------------------------------------
      LOOP:  cpu time    0.2520: real time    0.2540

 eigenvalue-minimisations  :   832
 total energy-change (2. order) :-0.1559852E-03  (-0.4522397E-05)
 number of electron      44.9999950 magnetization 
 augmentation part       28.7305080 magnetization 

 Broyden mixing:
  rms(total) = 0.12934E-02    rms(broyden)= 0.11710E-02
  rms(prec ) = 0.18287E-02
  weight for this iteration     100.00

 eigenvalues of (default mixing * dielectric matrix)
  average eigenvalue GAMMA=   1.1710
  2.9884  2.9884  1.9741  0.9888  0.9888  0.2040  0.7727  0.6377  0.5916  0.4042
  0.3430

 Free energy of the ion-electron system (eV)
  ---------------------------------------------------
  alpha Z        PSCENC =       120.87645803
  Ewald energy   TEWEN  =     37990.17053790
  -Hartree energ DENC   =    -43048.95684998
  -exchange      EXHF   =         0.00000000
  -V(xc)+E(xc)   XCENC  =       173.15196936
  PAW double counting   =      4399.76196634    -4975.55927819
  entropy T*S    EENTRO =        -0.01652220
  eigenvalues    EBANDS =      -251.65157778
  atomic energy  EATOM  =      5575.94961827
  Solvation  Ediel_sol  =         0.00000000
  ---------------------------------------------------
  free energy    TOTEN  =       -16.27367826 eV

  energy without entropy =      -16.25715605  energy(sigma->0) =      -16.26541716


--------------------------------------------------------------------------------------------------------




--------------------------------------- Iteration      1(  17)  ---------------------------------------


    POTLOK:  cpu time    0.0110: real time    0.0113
    SETDIJ:  cpu time    0.0030: real time    0.0032
    EDDIAG:  cpu time    0.0550: real time    0.0555
  RMM-DIIS:  cpu time    0.1440: real time    0.1437
    ORTHCH:  cpu time    0.0070: real time    0.0071
       DOS:  cpu time    0.0020: real time    0.0026
    CHARGE:  cpu time    0.0170: real time    0.0163
    MIXING:  cpu time    0.0010: real time    0.0008
    --------------------------------------------
      LOOP:  cpu time    0.2400: real time    0.2406

 eigenvalue-minimisations  :   765
 total energy-change (2. order) :-0.2362922E-03  (-0.3544828E-05)
 number of electron      44.9999950 magnetization 
 augmentation part       28.7297174 magnetization 

 Broyden mixing:
  rms(total) = 0.10185E-02    rms(broyden)= 0.85827E-03
  rms(prec ) = 0.13467E-02
  weight for this iteration     100.00
  WARNING: grid for Broyden might be to small

 eigenvalues of (default mixing * dielectric matrix)
  average eigenvalue GAMMA=   1.3001
  4.2747  2.9039  2.3249  1.3823  0.2040  0.9646  0.7954  0.7954  0.6043  0.6043
  0.4042  0.3427

 Free energy of the ion-electron system (eV)
  ---------------------------------------------------
  alpha Z        PSCENC =       120.87645803
  Ewald energy   TEWEN  =     37990.17053790
  -Hartree energ DENC   =    -43050.15223828
  -exchange      EXHF   =         0.00000000
  -V(xc)+E(xc)   XCENC  =       173.15414337
  PAW double counting   =      4399.53868046    -4975.35405843
  entropy T*S    EENTRO =        -0.01660676
  eigenvalues    EBANDS =      -250.44044910
  atomic energy  EATOM  =      5575.94961827
  Solvation  Ediel_sol  =         0.00000000
  ---------------------------------------------------
  free energy    TOTEN  =       -16.27391455 eV

  energy without entropy =      -16.25730779  energy(sigma->0) =      -16.26561117


--------------------------------------------------------------------------------------------------------




--------------------------------------- Iteration      1(  18)  ---------------------------------------


    POTLOK:  cpu time    0.0110: real time    0.0113
    SETDIJ:  cpu time    0.0030: real time    0.0032
    EDDIAG:  cpu time    0.0550: real time    0.0554
  RMM-DIIS:  cpu time    0.1390: real time    0.1386
    ORTHCH:  cpu time    0.0070: real time    0.0071
       DOS:  cpu time    0.0030: real time    0.0027
    CHARGE:  cpu time    0.0160: real time    0.0163
    MIXING:  cpu time    0.0010: real time    0.0009
    --------------------------------------------
      LOOP:  cpu time    0.2350: real time    0.2355

 eigenvalue-minimisations  :   733
 total energy-change (2. order) :-0.1458152E-03  (-0.2488836E-05)
 number of electron      44.9999950 magnetization 
 augmentation part       28.7299810 magnetization 

 Broyden mixing:
  rms(total) = 0.70806E-03    rms(broyden)= 0.44830E-03
  rms(prec ) = 0.66975E-03
  weight for this iteration     100.00
  WARNING: grid for Broyden might be to small

 eigenvalues of (default mixing * dielectric matrix)
  average eigenvalue GAMMA=   1.4786
  5.6064  3.1799  2.5592  1.9123  1.2515  0.2040  0.9446  0.8049  0.8049  0.6038
  0.6038  0.4041  0.3427

 Free energy of the ion-electron system (eV)
  ---------------------------------------------------
  alpha Z        PSCENC =       120.87645803
  Ewald energy   TEWEN  =     37990.17053790
  -Hartree energ DENC   =    -43051.00687202
  -exchange      EXHF   =         0.00000000
  -V(xc)+E(xc)   XCENC  =       173.15391747
  PAW double counting   =      4399.40234015    -4975.23197213
  entropy T*S    EENTRO =        -0.01658048
  eigenvalues    EBANDS =      -249.57150756
  atomic energy  EATOM  =      5575.94961827
  Solvation  Ediel_sol  =         0.00000000
  ---------------------------------------------------
  free energy    TOTEN  =       -16.27406037 eV

  energy without entropy =      -16.25747989  energy(sigma->0) =      -16.26577013


--------------------------------------------------------------------------------------------------------




--------------------------------------- Iteration      1(  19)  ---------------------------------------


    POTLOK:  cpu time    0.0110: real time    0.0111
    SETDIJ:  cpu time    0.0030: real time    0.0032
    EDDIAG:  cpu time    0.0550: real time    0.0554
  RMM-DIIS:  cpu time    0.1180: real time    0.1187
    ORTHCH:  cpu time    0.0080: real time    0.0071
       DOS:  cpu time    0.0020: real time    0.0026
    CHARGE:  cpu time    0.0170: real time    0.0164
    MIXING:  cpu time    0.0010: real time    0.0009
    --------------------------------------------
      LOOP:  cpu time    0.2150: real time    0.2155

 eigenvalue-minimisations  :   619
 total energy-change (2. order) :-0.7177351E-04  (-0.8575778E-06)
 number of electron      44.9999950 magnetization 
 augmentation part       28.7302514 magnetization 

 Broyden mixing:
  rms(total) = 0.62241E-03    rms(broyden)= 0.29523E-03
  rms(prec ) = 0.41574E-03
  weight for this iteration     100.00
  WARNING: grid for Broyden might be to small

 eigenvalues of (default mixing * dielectric matrix)
  average eigenvalue GAMMA=   1.5694
  5.7946  4.0068  2.1928  2.0375  2.0375  1.2034  0.2040  0.9178  0.8112  0.8112
  0.6040  0.6040  0.4041  0.3427

 Free energy of the ion-electron system (eV)
  ---------------------------------------------------
  alpha Z        PSCENC =       120.87645803
  Ewald energy   TEWEN  =     37990.17053790
  -Hartree energ DENC   =    -43051.59302777
  -exchange      EXHF   =         0.00000000
  -V(xc)+E(xc)   XCENC  =       173.15299544
  PAW double counting   =      4399.47421014    -4975.31393821
  entropy T*S    EENTRO =        -0.01655882
  eigenvalues    EBANDS =      -248.97442712
  atomic energy  EATOM  =      5575.94961827
  Solvation  Ediel_sol  =         0.00000000
  ---------------------------------------------------
  free energy    TOTEN  =       -16.27413214 eV

  energy without entropy =      -16.25757332  energy(sigma->0) =      -16.26585273


--------------------------------------------------------------------------------------------------------




--------------------------------------- Iteration      1(  20)  ---------------------------------------


    POTLOK:  cpu time    0.0110: real time    0.0112
    SETDIJ:  cpu time    0.0040: real time    0.0032
    EDDIAG:  cpu time    0.0540: real time    0.0553
  RMM-DIIS:  cpu time    0.1080: real time    0.1070
    ORTHCH:  cpu time    0.0060: real time    0.0071
       DOS:  cpu time    0.0030: real time    0.0027
    CHARGE:  cpu time    0.0160: real time    0.0162
    MIXING:  cpu time    0.0010: real time    0.0010
    --------------------------------------------
      LOOP:  cpu time    0.2030: real time    0.2037

 eigenvalue-minimisations  :   526
 total energy-change (2. order) :-0.2789433E-04  (-0.1132061E-06)
 number of electron      44.9999950 magnetization 
 augmentation part       28.7301317 magnetization 

 Broyden mixing:
  rms(total) = 0.61118E-03    rms(broyden)= 0.27070E-03
  rms(prec ) = 0.44183E-03
  weight for this iteration     100.00
  WARNING: grid for Broyden might be to small

 eigenvalues of (default mixing * dielectric matrix)
  average eigenvalue GAMMA=   1.7044
  6.8292  4.6038  2.6578  2.6578  1.8228  1.2541  0.2040  1.0497  0.8869  0.8225
  0.8225  0.6039  0.6039  0.4041  0.3427

 Free energy of the ion-electron system (eV)
  ---------------------------------------------------
  alpha Z        PSCENC =       120.87645803
  Ewald energy   TEWEN  =     37990.17053790
  -Hartree energ DENC   =    -43051.75202889
  -exchange      EXHF   =         0.00000000
  -V(xc)+E(xc)   XCENC  =       173.15356090
  PAW double counting   =      4399.44201853    -4975.27295870
  entropy T*S    EENTRO =        -0.01658940
  eigenvalues    EBANDS =      -248.82477668
  atomic energy  EATOM  =      5575.94961827
  Solvation  Ediel_sol  =         0.00000000
  ---------------------------------------------------
  free energy    TOTEN  =       -16.27416003 eV

  energy without entropy =      -16.25757063  energy(sigma->0) =      -16.26586533


--------------------------------------------------------------------------------------------------------




--------------------------------------- Iteration      1(  21)  ---------------------------------------


    POTLOK:  cpu time    0.0120: real time    0.0129
    SETDIJ:  cpu time    0.0030: real time    0.0031
    EDDIAG:  cpu time    0.0550: real time    0.0554
  RMM-DIIS:  cpu time    0.1020: real time    0.1019
    ORTHCH:  cpu time    0.0070: real time    0.0071
       DOS:  cpu time    0.0020: real time    0.0026
    CHARGE:  cpu time    0.0170: real time    0.0162
    MIXING:  cpu time    0.0010: real time    0.0010
    --------------------------------------------
      LOOP:  cpu time    0.1990: real time    0.2004

 eigenvalue-minimisations  :   501
 total energy-change (2. order) :-0.1942420E-04  (-0.1244894E-06)
 number of electron      44.9999950 magnetization 
 augmentation part       28.7299756 magnetization 

 Broyden mixing:
  rms(total) = 0.55828E-03    rms(broyden)= 0.10755E-03
  rms(prec ) = 0.14239E-03
  weight for this iteration     100.00
  WARNING: grid for Broyden might be to small

 eigenvalues of (default mixing * dielectric matrix)
  average eigenvalue GAMMA=   1.8315
  7.4068  5.0756  2.7737  2.6465  2.6465  1.8436  1.2289  0.2040  0.9653  0.9231
  0.8178  0.8178  0.6038  0.6038  0.4041  0.3427

 Free energy of the ion-electron system (eV)
  ---------------------------------------------------
  alpha Z        PSCENC =       120.87645803
  Ewald energy   TEWEN  =     37990.17053790
  -Hartree energ DENC   =    -43051.90475189
  -exchange      EXHF   =         0.00000000
  -V(xc)+E(xc)   XCENC  =       173.15395497
  PAW double counting   =      4399.50327078    -4975.33293292
  entropy T*S    EENTRO =        -0.01657402
  eigenvalues    EBANDS =      -248.67376059
  atomic energy  EATOM  =      5575.94961827
  Solvation  Ediel_sol  =         0.00000000
  ---------------------------------------------------
  free energy    TOTEN  =       -16.27417946 eV

  energy without entropy =      -16.25760544  energy(sigma->0) =      -16.26589245


--------------------------------------------------------------------------------------------------------




--------------------------------------- Iteration      1(  22)  ---------------------------------------


    POTLOK:  cpu time    0.0110: real time    0.0111
    SETDIJ:  cpu time    0.0040: real time    0.0032
    EDDIAG:  cpu time    0.0540: real time    0.0554
  RMM-DIIS:  cpu time    0.1020: real time    0.1016
    ORTHCH:  cpu time    0.0070: real time    0.0072
       DOS:  cpu time    0.0030: real time    0.0027
    CHARGE:  cpu time    0.0160: real time    0.0163
    MIXING:  cpu time    0.0010: real time    0.0010
    --------------------------------------------
      LOOP:  cpu time    0.1980: real time    0.1984

 eigenvalue-minimisations  :   476
 total energy-change (2. order) :-0.6910796E-05  (-0.2619927E-07)
 number of electron      44.9999950 magnetization 
 augmentation part       28.7301065 magnetization 

 Broyden mixing:
  rms(total) = 0.54991E-03    rms(broyden)= 0.48855E-04
  rms(prec ) = 0.69309E-04
  weight for this iteration     100.00
  WARNING: grid for Broyden might be to small

 eigenvalues of (default mixing * dielectric matrix)
  average eigenvalue GAMMA=   1.8869
  8.2225  5.4621  3.4230  2.5542  2.5542  1.7673  0.2040  1.2515  1.1727  0.9552
  0.9193  0.8183  0.8183  0.6038  0.6038  0.3427  0.4041

 Free energy of the ion-electron system (eV)
  ---------------------------------------------------
  alpha Z        PSCENC =       120.87645803
  Ewald energy   TEWEN  =     37990.17053790
  -Hartree energ DENC   =    -43051.92881951
  -exchange      EXHF   =         0.00000000
  -V(xc)+E(xc)   XCENC  =       173.15362821
  PAW double counting   =      4399.49252777    -4975.32530823
  entropy T*S    EENTRO =        -0.01657136
  eigenvalues    EBANDS =      -248.64625745
  atomic energy  EATOM  =      5575.94961827
  Solvation  Ediel_sol  =         0.00000000
  ---------------------------------------------------
  free energy    TOTEN  =       -16.27418637 eV

  energy without entropy =      -16.25761501  energy(sigma->0) =      -16.26590069


--------------------------------------------------------------------------------------------------------




--------------------------------------- Iteration      1(  23)  ---------------------------------------


    POTLOK:  cpu time    0.0110: real time    0.0112
    SETDIJ:  cpu time    0.0040: real time    0.0032
    EDDIAG:  cpu time    0.0550: real time    0.0555
  RMM-DIIS:  cpu time    0.0850: real time    0.0849
    ORTHCH:  cpu time    0.0070: real time    0.0071
       DOS:  cpu time    0.0030: real time    0.0027
    CHARGE:  cpu time    0.0160: real time    0.0163
    MIXING:  cpu time    0.0010: real time    0.0011
    --------------------------------------------
      LOOP:  cpu time    0.1820: real time    0.1819

 eigenvalue-minimisations  :   202
 total energy-change (2. order) :-0.1211418E-05  (-0.2524271E-08)
 number of electron      44.9999950 magnetization 
 augmentation part       28.7300965 magnetization 

 Broyden mixing:
  rms(total) = 0.54813E-03    rms(broyden)= 0.20858E-04
  rms(prec ) = 0.32846E-04
  weight for this iteration     100.00
  WARNING: grid for Broyden might be to small

 eigenvalues of (default mixing * dielectric matrix)
  average eigenvalue GAMMA=   1.9938
  8.5224  6.0167  3.7629  3.0402  2.3871  2.3871  1.7673  0.2040  1.1973  1.0979
  0.9996  0.9164  0.8173  0.8173  0.6038  0.6038  0.3427  0.4041

 Free energy of the ion-electron system (eV)
  ---------------------------------------------------
  alpha Z        PSCENC =       120.87645803
  Ewald energy   TEWEN  =     37990.17053790
  -Hartree energ DENC   =    -43051.94209727
  -exchange      EXHF   =         0.00000000
  -V(xc)+E(xc)   XCENC  =       173.15366603
  PAW double counting   =      4399.48013926    -4975.31208452
  entropy T*S    EENTRO =        -0.01657567
  eigenvalues    EBANDS =      -248.63384962
  atomic energy  EATOM  =      5575.94961827
  Solvation  Ediel_sol  =         0.00000000
  ---------------------------------------------------
  free energy    TOTEN  =       -16.27418758 eV

  energy without entropy =      -16.25761191  energy(sigma->0) =      -16.26589975


--------------------------------------------------------------------------------------------------------




--------------------------------------- Iteration      1(  24)  ---------------------------------------


    POTLOK:  cpu time    0.0110: real time    0.0112
    SETDIJ:  cpu time    0.0030: real time    0.0031
    EDDIAG:  cpu time    0.0550: real time    0.0554
  RMM-DIIS:  cpu time    0.0770: real time    0.0763
    ORTHCH:  cpu time    0.0060: real time    0.0071
       DOS:  cpu time    0.0030: real time    0.0027
    --------------------------------------------
      LOOP:  cpu time    0.1550: real time    0.1559

 eigenvalue-minimisations  :   126
 total energy-change (2. order) :-0.4349040E-06  (-0.3607115E-09)
 number of electron      44.9999950 magnetization 
 augmentation part       28.7300965 magnetization 

 Free energy of the ion-electron system (eV)
  ---------------------------------------------------
  alpha Z        PSCENC =       120.87645803
  Ewald energy   TEWEN  =     37990.17053790
  -Hartree energ DENC   =    -43051.95106036
  -exchange      EXHF   =         0.00000000
  -V(xc)+E(xc)   XCENC  =       173.15365773
  PAW double counting   =      4399.48020293    -4975.31189250
  entropy T*S    EENTRO =        -0.01657463
  eigenvalues    EBANDS =      -248.62513540
  atomic energy  EATOM  =      5575.94961827
  Solvation  Ediel_sol  =         0.00000000
  ---------------------------------------------------
  free energy    TOTEN  =       -16.27418802 eV

  energy without entropy =      -16.25761339  energy(sigma->0) =      -16.26590070


--------------------------------------------------------------------------------------------------------




 average (electrostatic) potential at core
  the test charge radii are     1.0053  0.5201
  (the norm of the test charge is              1.0000)
       1 -45.9807       2 -46.1745       3 -46.2251       4 -46.5409       5 -39.1564
 
 
 
 E-fermi :  -2.5509     XC(G=0):  -4.4605     alpha+bet : -2.7756


 k-point     1 :       0.0000    0.0000    0.0000
  band No.  band energies     occupation 
      1     -11.3332      2.00000
      2     -10.3224      2.00000
      3      -8.8514      2.00000
      4      -7.7363      2.00000
      5      -7.5646      2.00000
      6      -5.6425      2.00000
      7      -5.5590      2.00000
      8      -5.5587      2.00000
      9      -5.4898      2.00000
     10      -5.4895      2.00000
     11      -5.4820      2.00000
     12      -5.4086      2.00000
     13      -5.4083      2.00000
     14      -5.2014      2.00000
     15      -5.2011      2.00000
     16      -4.9832      2.00000
     17      -4.9831      2.00000
     18      -4.9780      2.00000
     19      -4.6806      2.00000
     20      -4.6805      2.00000
     21      -4.4774      2.00000
     22      -4.4774      2.00000
     23      -4.1778      2.00000
     24      -4.1778      2.00000
     25      -3.0919      2.00000
     26       1.2135      0.00000
     27       1.8112      0.00000
     28       2.3042      0.00000

 k-point     2 :       0.1000    0.0000    0.0000
  band No.  band energies     occupation 
      1     -11.0229      2.00000
      2     -10.0298      2.00000
      3      -8.5876      2.00000
      4      -7.5695      2.00000
      5      -7.3880      2.00000
      6      -5.7689      2.00000
      7      -5.6589      2.00000
      8      -5.6012      2.00000
      9      -5.5088      2.00000
     10      -5.4646      2.00000
     11      -5.4517      2.00000
     12      -5.4137      2.00000
     13      -5.3068      2.00000
     14      -5.2887      2.00000
     15      -5.2136      2.00000
     16      -5.1190      2.00000
     17      -4.9885      2.00000
     18      -4.9567      2.00000
     19      -4.6939      2.00000
     20      -4.6700      2.00000
     21      -4.4883      2.00000
     22      -4.4720      2.00000
     23      -4.1721      2.00000
     24      -3.9877      2.00000
     25      -2.4266      0.07897
     26       1.4473      0.00000
     27       2.1170      0.00000
     28       2.6059      0.00000

 k-point     3 :       0.2000   -0.0000    0.0000
  band No.  band energies     occupation 
      1     -10.1323      2.00000
      2      -9.2139      2.00000
      3      -7.9147      2.00000
      4      -7.2024      2.00000
      5      -6.8876      2.00000
      6      -6.0779      2.00000
      7      -5.8870      2.00000
      8      -5.7790      2.00000
      9      -5.7233      2.00000
     10      -5.5298      2.00000
     11      -5.4106      2.00000
     12      -5.3573      2.00000
     13      -5.2444      2.00000
     14      -5.1776      2.00000
     15      -5.0668      2.00000
     16      -5.0398      2.00000
     17      -5.0175      2.00000
     18      -4.8174      2.00000
     19      -4.8088      2.00000
     20      -4.6486      2.00000
     21      -4.4651      2.00000
     22      -4.3525      2.00000
     23      -4.1647      2.00000
     24      -3.2177      2.00000
     25      -1.1777      0.00000
     26       2.1453      0.00000
     27       3.0332      0.00000
     28       3.6461      0.00000

 k-point     4 :       0.3000   -0.0000    0.0000
  band No.  band energies     occupation 
      1      -8.8458      2.00000
      2      -8.1557      2.00000
      3      -7.3061      2.00000
      4      -6.8756      2.00000
      5      -6.5412      2.00000
      6      -6.3949      2.00000
      7      -6.0848      2.00000
      8      -5.8272      2.00000
      9      -5.6341      2.00000
     10      -5.4910      2.00000
     11      -5.4062      2.00000
     12      -5.3106      2.00000
     13      -5.1020      2.00000
     14      -5.0849      2.00000
     15      -4.9853      2.00000
     16      -4.8080      2.00000
     17      -4.6855      2.00000
     18      -4.5712      2.00000
     19      -4.5408      2.00000
     20      -4.4465      2.00000
     21      -4.3358      2.00000
     22      -4.1510      2.00000
     23      -3.9648      2.00000
     24      -2.2137      0.00000
     25       0.2986      0.00000
     26       3.2312      0.00000
     27       4.5325      0.00000
     28       5.0255      0.00000

 k-point     5 :       0.4000   -0.0000    0.0000
  band No.  band energies     occupation 
      1      -7.7717      2.00000
      2      -7.4193      2.00000
      3      -7.1346      2.00000
      4      -6.8528      2.00000
      5      -6.6312      2.00000
      6      -6.5481      2.00000
      7      -6.2659      2.00000
      8      -5.8563      2.00000
      9      -5.5137      2.00000
     10      -5.4886      2.00000
     11      -5.2566      2.00000
     12      -5.1470      2.00000
     13      -4.8916      2.00000
     14      -4.6704      2.00000
     15      -4.5113      2.00000
     16      -4.4390      2.00000
     17      -4.2991      2.00000
     18      -4.2368      2.00000
     19      -4.1483      2.00000
     20      -4.1050      2.00000
     21      -4.0291      2.00000
     22      -3.6349      2.00000
     23      -2.9946      2.00000
     24      -1.0800      0.00000
     25       1.0018      0.00000
     26       2.5040      0.00000
     27       3.4272      0.00000
     28       4.9668      0.00000

 k-point     6 :       0.5000   -0.0000    0.0000
  band No.  band energies     occupation 
      1      -7.4985      2.00000
      2      -7.2057      2.00000
      3      -7.0807      2.00000
      4      -6.8564      2.00000
      5      -6.7336      2.00000
      6      -6.5710      2.00000
      7      -6.3274      2.00000
      8      -5.8830      2.00000
      9      -5.5589      2.00000
     10      -5.5214      2.00000
     11      -5.1670      2.00000
     12      -5.1293      2.00000
     13      -4.6976      2.00000
     14      -4.6611      2.00000
     15      -4.3242      2.00000
     16      -4.2859      2.00000
     17      -4.2316      2.00000
     18      -4.1458      2.00000
     19      -4.0733      2.00000
     20      -3.9150      2.00000
     21      -2.8356      1.99994
     22      -2.1198      0.00000
     23      -1.7789      0.00000
     24      -1.2547      0.00000
     25      -0.9668      0.00000
     26       1.7556      0.00000
     27       2.8740      0.00000
     28       4.4248      0.00000

 k-point     7 :       0.2000    0.1000    0.0000
  band No.  band energies     occupation 
      1     -10.4207      2.00000
      2      -9.4725      2.00000
      3      -8.1123      2.00000
      4      -7.3078      2.00000
      5      -7.0273      2.00000
      6      -5.9271      2.00000
      7      -5.8850      2.00000
      8      -5.7322      2.00000
      9      -5.6984      2.00000
     10      -5.5684      2.00000
     11      -5.3781      2.00000
     12      -5.3496      2.00000
     13      -5.2945      2.00000
     14      -5.2359      2.00000
     15      -5.1143      2.00000
     16      -5.0726      2.00000
     17      -4.9066      2.00000
     18      -4.8869      2.00000
     19      -4.8123      2.00000
     20      -4.6635      2.00000
     21      -4.5640      2.00000
     22      -4.3035      2.00000
     23      -4.2195      2.00000
     24      -3.4328      2.00000
     25      -1.5379      0.00000
     26       1.9156      0.00000
     27       2.7284      0.00000
     28       3.2616      0.00000

 k-point     8 :       0.3000    0.1000    0.0000
  band No.  band energies     occupation 
      1      -9.3132      2.00000
      2      -8.5082      2.00000
      3      -7.4451      2.00000
      4      -6.8985      2.00000
      5      -6.5330      2.00000
      6      -6.2211      2.00000
      7      -6.0000      2.00000
      8      -5.9072      2.00000
      9      -5.8497      2.00000
     10      -5.6282      2.00000
     11      -5.4901      2.00000
     12      -5.3883      2.00000
     13      -5.3526      2.00000
     14      -5.1475      2.00000
     15      -4.9704      2.00000
     16      -4.9077      2.00000
     17      -4.7581      2.00000
     18      -4.7238      2.00000
     19      -4.5938      2.00000
     20      -4.4950      2.00000
     21      -4.3405      2.00000
     22      -4.2362      2.00000
     23      -4.0284      2.00000
     24      -2.5687      1.19945
     25      -0.2181      0.00000
     26       2.8482      0.00000
     27       3.9462      0.00000
     28       4.5145      0.00000

 k-point     9 :       0.4000    0.1000    0.0000
  band No.  band energies     occupation 
      1      -8.0602      2.00000
      2      -7.5951      2.00000
      3      -7.0847      2.00000
      4      -6.7560      2.00000
      5      -6.4777      2.00000
      6      -6.4139      2.00000
      7      -6.1254      2.00000
      8      -5.8954      2.00000
      9      -5.5833      2.00000
     10      -5.5507      2.00000
     11      -5.4255      2.00000
     12      -5.3134      2.00000
     13      -5.1906      2.00000
     14      -4.9914      2.00000
     15      -4.9201      2.00000
     16      -4.7090      2.00000
     17      -4.5641      2.00000
     18      -4.3836      2.00000
     19      -4.3062      2.00000
     20      -4.1606      2.00000
     21      -4.0259      2.00000
     22      -3.8362      2.00000
     23      -3.2464      2.00000
     24      -1.3717      0.00000
     25       1.2094      0.00000
     26       3.5908      0.00000
     27       4.4570      0.00000
     28       5.4858      0.00000

 k-point    10 :       0.5000    0.1000    0.0000
  band No.  band energies     occupation 
      1      -7.4533      2.00000
      2      -7.1347      2.00000
      3      -7.0102      2.00000
      4      -6.7628      2.00000
      5      -6.6050      2.00000
      6      -6.5013      2.00000
      7      -6.2449      2.00000
      8      -5.8960      2.00000
      9      -5.6301      2.00000
     10      -5.4675      2.00000
     11      -5.3665      2.00000
     12      -5.0728      2.00000
     13      -4.9462      2.00000
     14      -4.7961      2.00000
     15      -4.6016      2.00000
     16      -4.4750      2.00000
     17      -4.3133      2.00000
     18      -4.2504      2.00000
     19      -4.2015      2.00000
     20      -4.0657      2.00000
     21      -2.8160      1.99982
     22      -2.4956      0.43481
     23      -1.8777      0.00000
     24      -0.5644      0.00000
     25       0.2417      0.00000
     26       2.0544      0.00000
     27       3.2307      0.00000
     28       4.7112      0.00000

 k-point    11 :       0.4000    0.2000    0.0000
  band No.  band energies     occupation 
      1      -8.1779      2.00000
      2      -7.6454      2.00000
      3      -7.0156      2.00000
      4      -6.6426      2.00000
      5      -6.2802      2.00000
      6      -6.1452      2.00000
      7      -6.0737      2.00000
      8      -6.0038      2.00000
      9      -5.8511      2.00000
     10      -5.6955      2.00000
     11      -5.5525      2.00000
     12      -5.4973      2.00000
     13      -5.4863      2.00000
     14      -5.1427      2.00000
     15      -4.9971      2.00000
     16      -4.7981      2.00000
     17      -4.6742      2.00000
     18      -4.4805      2.00000
     19      -4.2915      2.00000
     20      -4.1646      2.00000
     21      -3.9958      2.00000
     22      -3.7945      2.00000
     23      -3.2305      2.00000
     24      -1.4536      0.00000
     25       1.1296      0.00000
     26       3.9613      0.00000
     27       5.4294      0.00000
     28       5.8083      0.00000

 k-point    12 :       0.5000    0.2000    0.0000
  band No.  band energies     occupation 
      1      -7.3827      2.00000
      2      -7.0096      2.00000
      3      -6.8092      2.00000
      4      -6.6047      2.00000
      5      -6.3833      2.00000
      6      -6.2510      2.00000
      7      -6.0726      2.00000
      8      -5.9027      2.00000
      9      -5.7619      2.00000
     10      -5.6555      2.00000
     11      -5.5114      2.00000
     12      -5.3827      2.00000
     13      -5.2286      2.00000
     14      -5.1022      2.00000
     15      -4.9744      2.00000
     16      -4.7786      2.00000
     17      -4.5683      2.00000
     18      -4.4138      2.00000
     19      -4.2120      2.00000
     20      -4.0725      2.00000
     21      -2.8984      2.00000
     22      -2.6183      1.65978
     23      -1.7636      0.00000
     24       0.0133      0.00000
     25       2.0876      0.00000
     26       3.1239      0.00000
     27       4.1633      0.00000
     28       5.4350      0.00000

 k-point    13 :      -0.4000    0.2000    0.0000
  band No.  band energies     occupation 
      1      -7.2135      2.00000
      2      -6.8597      2.00000
      3      -6.7269      2.00000
      4      -6.5208      2.00000
      5      -6.4495      2.00000
      6      -6.3159      2.00000
      7      -6.1033      2.00000
      8      -5.9341      2.00000
      9      -5.7769      2.00000
     10      -5.6479      2.00000
     11      -5.3726      2.00000
     12      -5.2780      2.00000
     13      -5.1642      2.00000
     14      -5.0135      2.00000
     15      -4.8897      2.00000
     16      -4.7296      2.00000
     17      -4.4634      2.00000
     18      -4.2996      2.00000
     19      -4.2465      2.00000
     20      -4.1427      2.00000
     21      -1.8657      0.00000
     22      -0.9708      0.00000
     23      -0.5283      0.00000
     24       0.0034      0.00000
     25       0.5922      0.00000
     26       2.2824      0.00000
     27       3.5233      0.00000
     28       4.9780      0.00000

 k-point    14 :      -0.4000    0.3000    0.0000
  band No.  band energies     occupation 
      1      -7.1261      2.00000
      2      -6.6289      2.00000
      3      -6.5547      2.00000
      4      -6.4509      2.00000
      5      -6.3414      2.00000
      6      -6.1908      2.00000
      7      -6.1181      2.00000
      8      -5.8346      2.00000
      9      -5.7605      2.00000
     10      -5.6945      2.00000
     11      -5.6020      2.00000
     12      -5.4494      2.00000
     13      -5.2458      2.00000
     14      -5.2051      2.00000
     15      -4.9538      2.00000
     16      -4.7986      2.00000
     17      -4.6274      2.00000
     18      -4.3494      2.00000
     19      -4.2609      2.00000
     20      -4.1627      2.00000
     21      -1.7964      0.00000
     22      -0.7027      0.00000
     23       0.2389      0.00000
     24       1.5699      0.00000
     25       2.1566      0.00000
     26       2.2839      0.00000
     27       3.1246      0.00000
     28       3.4441      0.00000


--------------------------------------------------------------------------------------------------------


 soft charge-density along one line, spin component           1
         0         1         2         3         4         5         6         7         8         9
 total charge-density along one line
 
 pseudopotential strength for first ion, spin component:           1
-10.975   0.000   0.000  -0.005   0.000   1.801  -0.000  -0.000
  0.000 -10.943  -0.000   0.000  -0.005  -0.000   1.785   0.000
  0.000  -0.000 -10.939  -0.000   0.000  -0.000   0.000   1.783
 -0.005   0.000  -0.000 -10.943   0.000   0.002  -0.000   0.000
  0.000  -0.005   0.000   0.000 -10.975  -0.000   0.002  -0.000
  1.801  -0.000  -0.000   0.002  -0.000   0.749   0.000   0.000
 -0.000   1.785   0.000  -0.000   0.002   0.000   0.756  -0.000
 -0.000   0.000   1.783   0.000  -0.000   0.000  -0.000   0.757
  0.002  -0.000   0.000   1.785  -0.000  -0.001   0.000  -0.000
 -0.000   0.002  -0.000  -0.000   1.801   0.000  -0.001   0.000
  0.000   0.000  -0.006   0.000   0.000   0.000   0.000   0.002
 -0.000  -0.000   0.000  -0.000  -0.000   0.000   0.000  -0.000
  0.000  -0.010  -0.000  -0.000   0.000  -0.000   0.006  -0.000
 -0.000   0.000  -0.011   0.000  -0.000  -0.000  -0.000   0.006
  0.000  -0.000  -0.000  -0.010   0.000  -0.000  -0.000  -0.000
 -0.000   0.005   0.000   0.000  -0.000   0.000  -0.003  -0.000
  0.000  -0.000   0.006  -0.000   0.000  -0.000   0.000  -0.003
 -0.000   0.000   0.000   0.005  -0.000   0.000  -0.000  -0.000
 total augmentation occupancy for first ion, spin component:           1
  1.927   0.000  -0.000  -0.003  -0.000  -0.001   0.000   0.000   0.011   0.000   0.000  -0.000   0.000  -0.000   0.007   0.000
  0.000   1.935   0.000   0.000  -0.003   0.000  -0.034  -0.000  -0.000   0.011  -0.000   0.000  -0.002   0.000   0.000  -0.005
 -0.000   0.000   1.937   0.000  -0.000   0.000  -0.000  -0.026  -0.000   0.000   0.016   0.037  -0.000   0.035   0.000   0.000
 -0.003   0.000   0.000   1.935   0.000   0.011   0.000  -0.000  -0.034  -0.000   0.000   0.000   0.000   0.000  -0.002  -0.000
 -0.000  -0.003  -0.000   0.000   1.927  -0.000   0.011   0.000  -0.000  -0.001  -0.000  -0.000   0.007  -0.000  -0.000  -0.001
 -0.001   0.000   0.000   0.011  -0.000   0.059  -0.000  -0.000   0.001  -0.000   0.000  -0.000  -0.000  -0.000   0.005   0.000
  0.000  -0.034  -0.000   0.000   0.011  -0.000   0.041   0.000   0.000   0.001  -0.000   0.000   0.032   0.000   0.000  -0.003
  0.000  -0.000  -0.026  -0.000   0.000  -0.000  -0.000   0.057  -0.000  -0.000  -0.076   0.013  -0.000   0.044  -0.000   0.000
  0.011  -0.000  -0.000  -0.034  -0.000   0.001   0.000  -0.000   0.041   0.000   0.000   0.000   0.000  -0.000   0.032   0.000
 -0.000   0.011   0.000  -0.000  -0.001  -0.000   0.001  -0.000  -0.000   0.059   0.000  -0.000   0.005  -0.000  -0.000  -0.000
  0.000   0.000   0.016   0.000  -0.000   0.000   0.000  -0.076   0.000   0.000   1.237  -0.284   0.000   0.070   0.000  -0.000
 -0.000   0.000   0.037  -0.000  -0.000  -0.000   0.000   0.013   0.000  -0.000  -0.284   0.110   0.000  -0.046  -0.000   0.000
  0.000  -0.002  -0.000   0.000   0.007  -0.000   0.032  -0.000   0.000   0.005  -0.000  -0.000   0.168  -0.000   0.000  -0.010
 -0.000   0.000   0.035   0.000  -0.000  -0.000  -0.000   0.044   0.000  -0.000   0.070  -0.046  -0.000   0.094  -0.000   0.000
  0.007   0.000   0.000  -0.002  -0.000   0.005   0.000   0.000   0.032  -0.000   0.000  -0.000   0.000   0.000   0.168   0.000
  0.000  -0.005   0.000  -0.000  -0.001   0.000  -0.003   0.000   0.000  -0.000   0.000  -0.000  -0.010   0.000   0.000   0.001
  0.000   0.000  -0.008   0.000   0.000   0.000  -0.000  -0.002   0.000   0.000  -0.013   0.006   0.000  -0.007   0.000  -0.000
 -0.001  -0.000   0.000  -0.005   0.000  -0.000   0.000   0.000  -0.003   0.000  -0.000   0.000   0.000   0.000  -0.010   0.000


------------------------ aborting loop because EDIFF is reached ----------------------------------------


 


 total charge     
 
# of ion       s       p       d       tot
------------------------------------------
    1        0.455   0.285   9.223   9.963
    2        0.448   0.370   9.220  10.038
    3        0.454   0.384   9.198  10.035
    4        0.514   0.425   9.183  10.121
    5        0.504   0.017   0.000   0.521
--------------------------------------------------
tot          2.375   1.480  36.823  40.678
 
    CHARGE:  cpu time    0.0150: real time    0.0163
    FORLOC:  cpu time    0.0020: real time    0.0014
    FORNL :  cpu time    0.0840: real time    0.0832
    STRESS:  cpu time    0.2520: real time    0.2528
    FORCOR:  cpu time    0.0110: real time    0.0115
    FORHAR:  cpu time    0.0030: real time    0.0031
    MIXING:  cpu time    0.0020: real time    0.0011
    OFIELD:  cpu time    0.0000: real time    0.0000

  FORCE on cell =-STRESS in cart. coord.  units (eV):
  Direction    XX          YY          ZZ          XY          YZ          ZX
  --------------------------------------------------------------------------------------
  Alpha Z   120.87646   120.87646   120.87646
  Ewald   40887.05588 40887.05588-43783.94472     0.00000    -0.00000     0.00000
  Hartree 42212.88548 42212.88547-41373.81257     0.00001    -0.00001    -0.00001
  E(xc)    -252.99473  -252.99323  -253.19088    -0.00130     0.00013     0.00023
  Local  -83371.39018-83371.39580 84894.29009     0.00486    -0.00083    -0.00144
  n-local  -157.48112  -152.83651  -154.70894     2.64142    -0.16791    -0.04768
  augment   227.23060   227.23948   224.21066    -0.00769     0.00268     0.00458
  Kinetic   339.44706   312.87924   323.33759    -9.35281    -0.37910     0.06783
  Fock        0.00000     0.00000     0.00000     0.00000     0.00000     0.00000
  -------------------------------------------------------------------------------------
  Total      -5.32979    -5.32979    -2.94231     0.00000    -0.00000     0.00000
  in kB     -49.11430   -49.11430   -27.11353     0.00000    -0.00000     0.00000
  external pressure =      -41.78 kB  Pullay stress =        0.00 kB


 VOLUME and BASIS-vectors are now :
 -----------------------------------------------------------------------------
  energy-cutoff  :      250.00
  volume of cell :      173.87
      direct lattice vectors                 reciprocal lattice vectors
     2.573868684  0.000000000  0.000000000     0.388520209 -0.224312248  0.000000000
     1.286934342  2.229035666  0.000000000     0.000000000  0.448624495  0.000000000
     0.000000000  0.000000000 30.304664940     0.000000000  0.000000000  0.032998220

  length of vectors
     2.573868684  2.573868684 30.304664940     0.448624495  0.448624495  0.032998220


 FORCES acting on ions
    electron-ion (+dipol)            ewald-force                    non-local-force                 convergence-correction
 -----------------------------------------------------------------------------------------------
   -.374E-03 -.216E-03 0.422E+04   -.396E-07 0.305E-07 -.422E+04   0.000E+00 0.347E-17 -.134E+01   -.182E-08 -.105E-08 -.206E-03
   -.798E-04 -.462E-04 0.149E+04   0.125E-08 -.963E-09 -.149E+04   0.000E+00 0.000E+00 -.981E+00   -.864E-09 -.497E-09 0.792E-04
   0.533E-04 0.305E-04 -.125E+04   0.110E-06 -.845E-07 0.125E+04   0.000E+00 0.520E-17 -.339E+00   0.262E-11 0.497E-11 -.457E-03
   0.199E-03 0.115E-03 -.395E+04   -.713E-07 0.549E-07 0.395E+04   -.104E-16 0.104E-16 -.329E+01   0.303E-09 0.175E-09 -.433E-03
   -.802E-04 -.463E-04 -.502E+03   -.125E-09 0.964E-10 0.506E+03   0.152E-17 -.434E-18 -.242E+01   0.197E-09 0.114E-09 0.264E-04
 -----------------------------------------------------------------------------------------------
   -.282E-03 -.163E-03 0.834E+01   -.150E-12 0.336E-13 0.341E-12   -.889E-17 0.186E-16 -.837E+01   -.218E-08 -.125E-08 -.990E-03
 
 
 POSITION                                       TOTAL-FORCE (eV/Angst)
 -----------------------------------------------------------------------------------
      0.00000      0.00000     12.08596        -0.000000      0.000000      0.050145
      1.28693      0.74301     14.15986         0.000000     -0.000000     -0.004267
      2.57387      1.48602     16.24457         0.000000     -0.000000     -0.066507
      0.00000      0.00000     18.35506        -0.000000      0.000000     -1.371848
      0.00000      0.00000     19.76855         0.000000      0.000000      1.392477
 -----------------------------------------------------------------------------------
    total drift:                               -0.000282     -0.000163     -0.029021


--------------------------------------------------------------------------------------------------------



  FREE ENERGIE OF THE ION-ELECTRON SYSTEM (eV)
  ---------------------------------------------------
  free  energy   TOTEN  =       -16.27418802 eV

  energy  without entropy=      -16.25761339  energy(sigma->0) =      -16.26590070
 


--------------------------------------------------------------------------------------------------------


    POTLOK:  cpu time    0.0140: real time    0.0143


--------------------------------------------------------------------------------------------------------


     LOOP+:  cpu time    6.3990: real time    6.4368
    4ORBIT:  cpu time    0.0000: real time    0.0000
 


 total charge     
 
# of ion       s       p       d       tot
------------------------------------------
    1        0.455   0.285   9.223   9.963
    2        0.448   0.370   9.220  10.038
    3        0.454   0.384   9.198  10.035
    4        0.514   0.425   9.183  10.121
    5        0.504   0.017   0.000   0.521
--------------------------------------------------
tot          2.375   1.480  36.823  40.678
 

 total amount of memory used by VASP MPI-rank0    35974. kBytes
=======================================================================

   base      :      30000. kBytes
   nonlr-proj:        676. kBytes
   fftplans  :        995. kBytes
   grid      :       1592. kBytes
   one-center:         46. kBytes
   wavefun   :       2665. kBytes
 
  
  
 General timing and accounting informations for this job:
 ========================================================
  
                  Total CPU time used (sec):        7.560
                            User time (sec):        7.410
                          System time (sec):        0.150
                         Elapsed time (sec):        7.734
  
                   Maximum memory used (kb):       35564.
                   Average memory used (kb):           0.
  
                          Minor page faults:        12176
                          Major page faults:          141
                 Voluntary context switches:         2693
