PROCAR lm decomposed
# of k-points:   14         # of bands:   28         # of ions:    5

 k-point     1 :    0.00000000 0.00000000 0.00000000     weight = 0.01000000

band     1 # energy  -11.33324269 # occ.  2.00000000
 
ion      s     py     pz     px    dxy    dyz    dz2    dxz  x2-y2    tot
    1  0.048  0.000  0.006  0.000  0.000  0.000  0.000  0.000  0.000  0.054
    2  0.181  0.000  0.001  0.000  0.000  0.000  0.000  0.000  0.000  0.182
    3  0.220  0.000  0.000  0.000  0.000  0.000  0.000  0.000  0.000  0.220
    4  0.116  0.000  0.002  0.000  0.000  0.000  0.001  0.000  0.000  0.119
    5  0.014  0.000  0.000  0.000  0.000  0.000  0.000  0.000  0.000  0.014
tot    0.579  0.000  0.010  0.000  0.000  0.000  0.002  0.000  0.000  0.590
 
band     2 # energy  -10.32244850 # occ.  2.00000000
 
ion      s     py     pz     px    dxy    dyz    dz2    dxz  x2-y2    tot
    1  0.133  0.000  0.008  0.000  0.000  0.000  0.002  0.000  0.000  0.143
    2  0.136  0.000  0.009  0.000  0.000  0.000  0.004  0.000  0.000  0.148
    3  0.017  0.000  0.024  0.000  0.000  0.000  0.001  0.000  0.000  0.041
    4  0.202  0.000  0.001  0.000  0.000  0.000  0.001  0.000  0.000  0.204
    5  0.047  0.000  0.001  0.000  0.000  0.000  0.000  0.000  0.000  0.048
tot    0.535  0.000  0.042  0.000  0.000  0.000  0.007  0.000  0.000  0.584
 
band     3 # energy   -8.85141426 # occ.  2.00000000
 
ion      s     py     pz     px    dxy    dyz    dz2    dxz  x2-y2    tot
    1  0.155  0.000  0.000  0.000  0.000  0.000  0.029  0.000  0.000  0.185
    2  0.003  0.000  0.041  0.000  0.000  0.000  0.001  0.000  0.000  0.044
    3  0.136  0.000  0.006  0.000  0.000  0.000  0.034  0.000  0.000  0.176
    4  0.066  0.000  0.041  0.000  0.000  0.000  0.001  0.000  0.000  0.108
    5  0.075  0.000  0.001  0.000  0.000  0.000  0.000  0.000  0.000  0.076
tot    0.435  0.000  0.088  0.000  0.000  0.000  0.066  0.000  0.000  0.589
 
band     4 # energy   -7.73625296 # occ.  2.00000000
 
ion      s     py     pz     px    dxy    dyz    dz2    dxz  x2-y2    tot
    1  0.065  0.000  0.003  0.000  0.000  0.000  0.083  0.000  0.000  0.151
    2  0.062  0.000  0.002  0.000  0.000  0.000  0.129  0.000  0.000  0.193
    3  0.016  0.000  0.015  0.000  0.000  0.000  0.019  0.000  0.000  0.050
    4  0.007  0.000  0.043  0.000  0.000  0.000  0.231  0.000  0.000  0.281
    5  0.074  0.000  0.001  0.000  0.000  0.000  0.000  0.000  0.000  0.075
tot    0.225  0.000  0.064  0.000  0.000  0.000  0.462  0.000  0.000  0.751
 
band     5 # energy   -7.56457537 # occ.  2.00000000
 
ion      s     py     pz     px    dxy    dyz    dz2    dxz  x2-y2    tot
    1  0.021  0.000  0.002  0.000  0.000  0.000  0.042  0.000  0.000  0.065
    2  0.028  0.000  0.000  0.000  0.000  0.000  0.108  0.000  0.000  0.137
    3  0.027  0.000  0.000  0.000  0.000  0.000  0.148  0.000  0.000  0.175
    4  0.034  0.000  0.002  0.000  0.000  0.000  0.424  0.000  0.000  0.460
    5  0.021  0.000  0.001  0.000  0.000  0.000  0.000  0.000  0.000  0.022
tot    0.132  0.000  0.005  0.000  0.000  0.000  0.722  0.000  0.000  0.859
 
band     6 # energy   -5.64251565 # occ.  2.00000000
 
ion      s     py     pz     px    dxy    dyz    dz2    dxz  x2-y2    tot
    1  0.001  0.000  0.000  0.000  0.000  0.000  0.056  0.000  0.000  0.058
    2  0.000  0.000  0.011  0.000  0.000  0.000  0.067  0.000  0.000  0.078
    3  0.005  0.000  0.000  0.000  0.000  0.000  0.666  0.000  0.000  0.671
    4  0.001  0.000  0.019  0.000  0.000  0.000  0.087  0.000  0.000  0.106
    5  0.004  0.000  0.000  0.000  0.000  0.000  0.000  0.000  0.000  0.004
tot    0.011  0.000  0.031  0.000  0.000  0.000  0.876  0.000  0.000  0.917
 
band     7 # energy   -5.55903715 # occ.  2.00000000
 
ion      s     py     pz     px    dxy    dyz    dz2    dxz  x2-y2    tot
    1  0.000  0.000  0.000  0.000  0.000  0.001  0.000  0.000  0.000  0.002
    2  0.000  0.000  0.000  0.000  0.016  0.000  0.000  0.000  0.048  0.064
    3  0.000  0.000  0.000  0.000  0.014  0.037  0.000  0.012  0.042  0.106
    4  0.000  0.000  0.000  0.000  0.198  0.000  0.000  0.000  0.595  0.794
    5  0.000  0.000  0.000  0.000  0.000  0.000  0.000  0.000  0.000  0.000
tot    0.000  0.000  0.000  0.000  0.229  0.039  0.000  0.013  0.686  0.967
 
band     8 # energy   -5.55871349 # occ.  2.00000000
 
ion      s     py     pz     px    dxy    dyz    dz2    dxz  x2-y2    tot
    1  0.000  0.000  0.000  0.000  0.000  0.000  0.000  0.001  0.000  0.002
    2  0.000  0.000  0.000  0.000  0.048  0.000  0.000  0.000  0.016  0.064
    3  0.000  0.000  0.000  0.000  0.042  0.012  0.000  0.037  0.014  0.106
    4  0.000  0.000  0.000  0.000  0.595  0.000  0.000  0.000  0.198  0.794
    5  0.000  0.000  0.000  0.000  0.000  0.000  0.000  0.000  0.000  0.000
tot    0.000  0.000  0.000  0.000  0.686  0.013  0.000  0.039  0.229  0.967
 
band     9 # energy   -5.48976560 # occ.  2.00000000
 
ion      s     py     pz     px    dxy    dyz    dz2    dxz  x2-y2    tot
    1  0.000  0.000  0.000  0.000  0.004  0.001  0.000  0.000  0.013  0.020
    2  0.000  0.000  0.000  0.000  0.000  0.048  0.000  0.016  0.000  0.064
    3  0.000  0.000  0.000  0.000  0.169  0.029  0.000  0.010  0.507  0.714
    4  0.000  0.000  0.000  0.000  0.007  0.106  0.000  0.035  0.022  0.170
    5  0.000  0.000  0.000  0.000  0.000  0.000  0.000  0.000  0.000  0.000
tot    0.000  0.000  0.000  0.000  0.181  0.183  0.000  0.061  0.542  0.968
 
band    10 # energy   -5.48950805 # occ.  2.00000000
 
ion      s     py     pz     px    dxy    dyz    dz2    dxz  x2-y2    tot
    1  0.000  0.000  0.000  0.000  0.013  0.000  0.000  0.001  0.004  0.020
    2  0.000  0.000  0.000  0.000  0.000  0.016  0.000  0.048  0.000  0.064
    3  0.000  0.000  0.000  0.000  0.507  0.010  0.000  0.029  0.169  0.714
    4  0.000  0.000  0.000  0.000  0.022  0.035  0.000  0.106  0.007  0.170
    5  0.000  0.000  0.000  0.000  0.000  0.000  0.000  0.000  0.000  0.000
tot    0.000  0.000  0.000  0.000  0.542  0.061  0.000  0.184  0.181  0.968
 
band    11 # energy   -5.48203823 # occ.  2.00000000
 
ion      s     py     pz     px    dxy    dyz    dz2    dxz  x2-y2    tot
    1  0.000  0.000  0.006  0.000  0.000  0.000  0.367  0.000  0.000  0.374
    2  0.004  0.000  0.001  0.000  0.000  0.000  0.511  0.000  0.000  0.516
    3  0.002  0.000  0.010  0.000  0.000  0.000  0.004  0.000  0.000  0.016
    4  0.000  0.000  0.009  0.000  0.000  0.000  0.014  0.000  0.000  0.023
    5  0.003  0.000  0.000  0.000  0.000  0.000  0.000  0.000  0.000  0.003
tot    0.009  0.000  0.027  0.000  0.000  0.000  0.896  0.000  0.000  0.932
 
band    12 # energy   -5.40862979 # occ.  2.00000000
 
ion      s     py     pz     px    dxy    dyz    dz2    dxz  x2-y2    tot
    1  0.000  0.000  0.000  0.000  0.003  0.023  0.000  0.008  0.010  0.045
    2  0.000  0.000  0.000  0.000  0.195  0.005  0.000  0.002  0.584  0.785
    3  0.000  0.000  0.000  0.000  0.000  0.025  0.000  0.008  0.000  0.034
    4  0.000  0.000  0.000  0.000  0.025  0.003  0.000  0.001  0.074  0.103
    5  0.000  0.000  0.000  0.000  0.000  0.000  0.000  0.000  0.000  0.000
tot    0.000  0.000  0.000  0.000  0.223  0.056  0.000  0.019  0.669  0.967
 
band    13 # energy   -5.40831751 # occ.  2.00000000
 
ion      s     py     pz     px    dxy    dyz    dz2    dxz  x2-y2    tot
    1  0.000  0.000  0.000  0.000  0.010  0.008  0.000  0.023  0.003  0.045
    2  0.000  0.000  0.000  0.000  0.584  0.002  0.000  0.005  0.195  0.785
    3  0.000  0.000  0.000  0.000  0.000  0.008  0.000  0.025  0.000  0.034
    4  0.000  0.000  0.000  0.000  0.075  0.001  0.000  0.003  0.025  0.103
    5  0.000  0.000  0.000  0.000  0.000  0.000  0.000  0.000  0.000  0.000
tot    0.000  0.000  0.000  0.000  0.669  0.019  0.000  0.056  0.223  0.967
 
band    14 # energy   -5.20138245 # occ.  2.00000000
 
ion      s     py     pz     px    dxy    dyz    dz2    dxz  x2-y2    tot
    1  0.000  0.000  0.000  0.000  0.205  0.006  0.000  0.002  0.615  0.828
    2  0.000  0.000  0.000  0.000  0.001  0.062  0.000  0.021  0.002  0.085
    3  0.000  0.000  0.000  0.000  0.008  0.002  0.000  0.001  0.025  0.035
    4  0.000  0.000  0.000  0.000  0.001  0.013  0.000  0.004  0.002  0.020
    5  0.000  0.000  0.000  0.000  0.000  0.000  0.000  0.000  0.000  0.000
tot    0.000  0.000  0.000  0.000  0.215  0.082  0.000  0.027  0.644  0.969
 
band    15 # energy   -5.20108812 # occ.  2.00000000
 
ion      s     py     pz     px    dxy    dyz    dz2    dxz  x2-y2    tot
    1  0.000  0.000  0.000  0.000  0.615  0.002  0.000  0.006  0.205  0.828
    2  0.000  0.000  0.000  0.000  0.002  0.021  0.000  0.062  0.001  0.085
    3  0.000  0.000  0.000  0.000  0.025  0.001  0.000  0.002  0.008  0.035
    4  0.000  0.000  0.000  0.000  0.002  0.004  0.000  0.013  0.001  0.020
    5  0.000  0.000  0.000  0.000  0.000  0.000  0.000  0.000  0.000  0.000
tot    0.000  0.000  0.000  0.000  0.644  0.027  0.000  0.082  0.215  0.969
 
band    16 # energy   -4.98323139 # occ.  2.00000000
 
ion      s     py     pz     px    dxy    dyz    dz2    dxz  x2-y2    tot
    1  0.000  0.000  0.000  0.000  0.001  0.003  0.000  0.001  0.003  0.009
    2  0.000  0.000  0.000  0.000  0.004  0.006  0.000  0.002  0.013  0.026
    3  0.000  0.000  0.000  0.000  0.039  0.042  0.000  0.014  0.116  0.212
    4  0.000  0.000  0.000  0.000  0.004  0.540  0.000  0.180  0.013  0.737
    5  0.000  0.001  0.000  0.000  0.000  0.000  0.000  0.000  0.000  0.001
tot    0.000  0.001  0.000  0.000  0.049  0.591  0.000  0.197  0.146  0.984
 
band    17 # energy   -4.98314640 # occ.  2.00000000
 
ion      s     py     pz     px    dxy    dyz    dz2    dxz  x2-y2    tot
    1  0.000  0.000  0.000  0.000  0.003  0.001  0.000  0.003  0.001  0.009
    2  0.000  0.000  0.000  0.000  0.013  0.002  0.000  0.006  0.004  0.026
    3  0.000  0.000  0.000  0.000  0.116  0.014  0.000  0.042  0.039  0.212
    4  0.000  0.000  0.000  0.000  0.013  0.180  0.000  0.539  0.004  0.737
    5  0.000  0.000  0.000  0.001  0.000  0.000  0.000  0.000  0.000  0.001
tot    0.000  0.000  0.000  0.001  0.146  0.197  0.000  0.591  0.049  0.984
 
band    18 # energy   -4.97796689 # occ.  2.00000000
 
ion      s     py     pz     px    dxy    dyz    dz2    dxz  x2-y2    tot
    1  0.027  0.000  0.002  0.000  0.000  0.000  0.303  0.000  0.000  0.332
    2  0.016  0.000  0.035  0.000  0.000  0.000  0.059  0.000  0.000  0.111
    3  0.000  0.000  0.081  0.000  0.000  0.000  0.004  0.000  0.000  0.085
    4  0.005  0.000  0.059  0.000  0.000  0.000  0.100  0.000  0.000  0.164
    5  0.018  0.000  0.000  0.000  0.000  0.000  0.000  0.000  0.000  0.018
tot    0.067  0.000  0.177  0.000  0.000  0.000  0.467  0.000  0.000  0.711
 
band    19 # energy   -4.68055009 # occ.  2.00000000
 
ion      s     py     pz     px    dxy    dyz    dz2    dxz  x2-y2    tot
    1  0.000  0.000  0.000  0.000  0.022  0.030  0.000  0.010  0.067  0.130
    2  0.000  0.000  0.000  0.000  0.020  0.296  0.000  0.099  0.059  0.474
    3  0.000  0.000  0.000  0.000  0.007  0.224  0.000  0.075  0.022  0.329
    4  0.000  0.000  0.000  0.000  0.004  0.028  0.000  0.009  0.011  0.052
    5  0.000  0.000  0.000  0.000  0.000  0.000  0.000  0.000  0.000  0.000
tot    0.000  0.000  0.000  0.000  0.053  0.578  0.000  0.193  0.160  0.985
 
band    20 # energy   -4.68047301 # occ.  2.00000000
 
ion      s     py     pz     px    dxy    dyz    dz2    dxz  x2-y2    tot
    1  0.000  0.000  0.000  0.000  0.067  0.010  0.000  0.030  0.022  0.130
    2  0.000  0.000  0.000  0.000  0.059  0.099  0.000  0.296  0.020  0.474
    3  0.000  0.000  0.000  0.000  0.023  0.075  0.000  0.224  0.008  0.329
    4  0.000  0.000  0.000  0.000  0.011  0.009  0.000  0.028  0.004  0.052
    5  0.000  0.000  0.000  0.000  0.000  0.000  0.000  0.000  0.000  0.000
tot    0.000  0.000  0.000  0.000  0.160  0.193  0.000  0.578  0.053  0.985
 
band    21 # energy   -4.47741591 # occ.  2.00000000
 
ion      s     py     pz     px    dxy    dyz    dz2    dxz  x2-y2    tot
    1  0.000  0.000  0.000  0.000  0.004  0.262  0.000  0.087  0.011  0.365
    2  0.000  0.000  0.000  0.000  0.000  0.100  0.000  0.033  0.000  0.134
    3  0.000  0.000  0.000  0.000  0.003  0.306  0.000  0.102  0.008  0.418
    4  0.000  0.000  0.000  0.000  0.003  0.044  0.000  0.015  0.008  0.069
    5  0.000  0.000  0.000  0.000  0.000  0.000  0.000  0.000  0.000  0.000
tot    0.000  0.000  0.000  0.000  0.009  0.712  0.000  0.237  0.027  0.986
 
band    22 # energy   -4.47737450 # occ.  2.00000000
 
ion      s     py     pz     px    dxy    dyz    dz2    dxz  x2-y2    tot
    1  0.000  0.000  0.000  0.000  0.011  0.087  0.000  0.262  0.004  0.365
    2  0.000  0.000  0.000  0.000  0.000  0.033  0.000  0.100  0.000  0.134
    3  0.000  0.000  0.000  0.000  0.008  0.102  0.000  0.306  0.003  0.418
    4  0.000  0.000  0.000  0.000  0.008  0.015  0.000  0.044  0.003  0.069
    5  0.000  0.000  0.000  0.000  0.000  0.000  0.000  0.000  0.000  0.000
tot    0.000  0.000  0.000  0.000  0.027  0.237  0.000  0.712  0.009  0.986
 
band    23 # energy   -4.17781620 # occ.  2.00000000
 
ion      s     py     pz     px    dxy    dyz    dz2    dxz  x2-y2    tot
    1  0.000  0.000  0.000  0.000  0.002  0.410  0.000  0.137  0.006  0.556
    2  0.000  0.000  0.000  0.000  0.006  0.221  0.000  0.074  0.019  0.321
    3  0.000  0.000  0.000  0.000  0.002  0.073  0.000  0.024  0.005  0.105
    4  0.000  0.000  0.000  0.000  0.000  0.005  0.000  0.002  0.001  0.009
    5  0.000  0.000  0.000  0.000  0.000  0.000  0.000  0.000  0.000  0.000
tot    0.000  0.000  0.000  0.000  0.011  0.710  0.000  0.237  0.032  0.990
 
band    24 # energy   -4.17775438 # occ.  2.00000000
 
ion      s     py     pz     px    dxy    dyz    dz2    dxz  x2-y2    tot
    1  0.000  0.000  0.000  0.000  0.006  0.137  0.000  0.410  0.002  0.556
    2  0.000  0.000  0.000  0.000  0.019  0.074  0.000  0.221  0.006  0.321
    3  0.000  0.000  0.000  0.000  0.005  0.024  0.000  0.073  0.002  0.105
    4  0.000  0.000  0.000  0.000  0.001  0.002  0.000  0.005  0.000  0.009
    5  0.000  0.000  0.000  0.000  0.000  0.000  0.000  0.000  0.000  0.000
tot    0.000  0.000  0.000  0.000  0.032  0.237  0.000  0.710  0.011  0.990
 
band    25 # energy   -3.09188088 # occ.  2.00000000
 
ion      s     py     pz     px    dxy    dyz    dz2    dxz  x2-y2    tot
    1  0.019  0.000  0.153  0.000  0.000  0.000  0.028  0.000  0.000  0.200
    2  0.015  0.000  0.079  0.000  0.000  0.000  0.024  0.000  0.000  0.118
    3  0.013  0.000  0.034  0.000  0.000  0.000  0.018  0.000  0.000  0.065
    4  0.008  0.000  0.012  0.000  0.000  0.000  0.019  0.000  0.000  0.040
    5  0.005  0.000  0.000  0.000  0.000  0.000  0.000  0.000  0.000  0.005
tot    0.060  0.000  0.279  0.000  0.000  0.000  0.089  0.000  0.000  0.427
 
band    26 # energy    1.21353876 # occ.  0.00000000
 
ion      s     py     pz     px    dxy    dyz    dz2    dxz  x2-y2    tot
    1  0.014  0.000  0.006  0.000  0.000  0.000  0.014  0.000  0.000  0.033
    2  0.027  0.000  0.007  0.000  0.000  0.000  0.024  0.000  0.000  0.059
    3  0.048  0.000  0.008  0.000  0.000  0.000  0.042  0.000  0.000  0.098
    4  0.070  0.000  0.004  0.000  0.000  0.000  0.067  0.000  0.000  0.142
    5  0.008  0.000  0.006  0.000  0.000  0.000  0.000  0.000  0.000  0.015
tot    0.168  0.000  0.030  0.000  0.000  0.000  0.148  0.000  0.000  0.346
 
band    27 # energy    1.81124766 # occ.  0.00000000
 
ion      s     py     pz     px    dxy    dyz    dz2    dxz  x2-y2    tot
    1  0.008  0.000  0.006  0.000  0.000  0.000  0.008  0.000  0.000  0.021
    2  0.001  0.000  0.006  0.000  0.000  0.000  0.001  0.000  0.000  0.009
    3  0.000  0.000  0.006  0.000  0.000  0.000  0.000  0.000  0.000  0.007
    4  0.005  0.000  0.005  0.000  0.000  0.000  0.004  0.000  0.000  0.014
    5  0.000  0.000  0.001  0.000  0.000  0.000  0.000  0.000  0.000  0.001
tot    0.015  0.000  0.024  0.000  0.000  0.000  0.013  0.000  0.000  0.053
 
band    28 # energy    2.30416328 # occ.  0.00000000
 
ion      s     py     pz     px    dxy    dyz    dz2    dxz  x2-y2    tot
    1  0.004  0.000  0.003  0.000  0.000  0.000  0.004  0.000  0.000  0.010
    2  0.000  0.000  0.003  0.000  0.000  0.000  0.000  0.000  0.000  0.004
    3  0.000  0.000  0.003  0.000  0.000  0.000  0.000  0.000  0.000  0.004
    4  0.003  0.000  0.002  0.000  0.000  0.000  0.003  0.000  0.000  0.008
    5  0.000  0.000  0.001  0.000  0.000  0.000  0.000  0.000  0.000  0.001
tot    0.008  0.000  0.011  0.000  0.000  0.000  0.007  0.000  0.000  0.027
 

 k-point     2 :    0.10000000 0.00000000 0.00000000     weight = 0.06000000

band     1 # energy  -11.02288678 # occ.  2.00000000
 
ion      s     py     pz     px    dxy    dyz    dz2    dxz  x2-y2    tot
    1  0.046  0.000  0.005  0.001  0.000  0.000  0.000  0.000  0.000  0.053
    2  0.174  0.001  0.001  0.004  0.000  0.000  0.000  0.000  0.000  0.181
    3  0.214  0.002  0.000  0.005  0.000  0.000  0.000  0.000  0.000  0.220
    4  0.114  0.001  0.002  0.002  0.000  0.000  0.002  0.000  0.000  0.122
    5  0.015  0.000  0.000  0.000  0.000  0.000  0.000  0.000  0.000  0.015
tot    0.563  0.004  0.009  0.012  0.000  0.000  0.002  0.001  0.000  0.591
 
band     2 # energy  -10.02976148 # occ.  2.00000000
 
ion      s     py     pz     px    dxy    dyz    dz2    dxz  x2-y2    tot
    1  0.128  0.001  0.008  0.003  0.000  0.000  0.001  0.001  0.000  0.142
    2  0.134  0.001  0.008  0.003  0.000  0.000  0.003  0.001  0.000  0.150
    3  0.015  0.000  0.023  0.000  0.000  0.001  0.001  0.002  0.000  0.042
    4  0.194  0.001  0.001  0.004  0.000  0.000  0.002  0.000  0.000  0.202
    5  0.049  0.000  0.001  0.000  0.000  0.000  0.000  0.000  0.000  0.050
tot    0.519  0.003  0.042  0.010  0.000  0.001  0.007  0.003  0.000  0.586
 
band     3 # energy   -8.58755038 # occ.  2.00000000
 
ion      s     py     pz     px    dxy    dyz    dz2    dxz  x2-y2    tot
    1  0.146  0.001  0.000  0.004  0.000  0.000  0.026  0.000  0.000  0.179
    2  0.002  0.000  0.040  0.000  0.000  0.002  0.000  0.005  0.000  0.049
    3  0.130  0.001  0.005  0.003  0.000  0.000  0.031  0.001  0.000  0.173
    4  0.058  0.000  0.043  0.001  0.000  0.001  0.005  0.003  0.000  0.112
    5  0.081  0.000  0.001  0.000  0.000  0.000  0.000  0.000  0.000  0.082
tot    0.418  0.003  0.090  0.008  0.001  0.003  0.063  0.009  0.000  0.594
 
band     4 # energy   -7.56946216 # occ.  2.00000000
 
ion      s     py     pz     px    dxy    dyz    dz2    dxz  x2-y2    tot
    1  0.043  0.000  0.002  0.001  0.000  0.000  0.051  0.000  0.000  0.098
    2  0.034  0.000  0.003  0.001  0.000  0.000  0.066  0.001  0.000  0.106
    3  0.004  0.000  0.014  0.000  0.001  0.001  0.000  0.002  0.000  0.022
    4  0.021  0.001  0.039  0.002  0.000  0.002  0.416  0.006  0.000  0.487
    5  0.080  0.000  0.002  0.000  0.000  0.000  0.000  0.000  0.000  0.081
tot    0.181  0.002  0.060  0.005  0.002  0.003  0.533  0.008  0.001  0.793
 
band     5 # energy   -7.38800692 # occ.  2.00000000
 
ion      s     py     pz     px    dxy    dyz    dz2    dxz  x2-y2    tot
    1  0.040  0.001  0.003  0.002  0.000  0.000  0.077  0.000  0.000  0.123
    2  0.047  0.001  0.000  0.002  0.000  0.000  0.179  0.000  0.000  0.230
    3  0.034  0.001  0.001  0.002  0.000  0.000  0.175  0.000  0.000  0.214
    4  0.023  0.000  0.000  0.001  0.001  0.000  0.236  0.000  0.000  0.262
    5  0.003  0.000  0.000  0.000  0.000  0.000  0.000  0.000  0.000  0.003
tot    0.147  0.002  0.005  0.007  0.002  0.000  0.667  0.001  0.001  0.832
 
band     6 # energy   -5.76892560 # occ.  2.00000000
 
ion      s     py     pz     px    dxy    dyz    dz2    dxz  x2-y2    tot
    1  0.000  0.000  0.001  0.000  0.003  0.000  0.081  0.001  0.001  0.087
    2  0.001  0.000  0.006  0.000  0.055  0.011  0.013  0.032  0.018  0.135
    3  0.002  0.000  0.002  0.000  0.000  0.004  0.418  0.012  0.000  0.439
    4  0.001  0.000  0.014  0.000  0.060  0.022  0.078  0.067  0.020  0.261
    5  0.002  0.000  0.000  0.000  0.000  0.000  0.000  0.000  0.000  0.003
tot    0.006  0.000  0.023  0.001  0.117  0.037  0.589  0.111  0.039  0.925
 
band     7 # energy   -5.65892687 # occ.  2.00000000
 
ion      s     py     pz     px    dxy    dyz    dz2    dxz  x2-y2    tot
    1  0.001  0.000  0.000  0.000  0.008  0.000  0.019  0.001  0.003  0.032
    2  0.001  0.000  0.002  0.000  0.077  0.001  0.106  0.002  0.026  0.214
    3  0.000  0.000  0.007  0.000  0.011  0.032  0.020  0.096  0.004  0.169
    4  0.000  0.000  0.007  0.001  0.363  0.002  0.018  0.007  0.121  0.520
    5  0.002  0.000  0.000  0.000  0.000  0.000  0.000  0.000  0.000  0.002
tot    0.004  0.000  0.016  0.001  0.459  0.035  0.163  0.105  0.153  0.937
 
band     8 # energy   -5.60123325 # occ.  2.00000000
 
ion      s     py     pz     px    dxy    dyz    dz2    dxz  x2-y2    tot
    1  0.000  0.000  0.002  0.000  0.006  0.001  0.075  0.002  0.002  0.088
    2  0.001  0.000  0.000  0.000  0.001  0.015  0.102  0.046  0.000  0.165
    3  0.000  0.000  0.001  0.001  0.422  0.006  0.014  0.018  0.141  0.603
    4  0.000  0.000  0.001  0.000  0.008  0.021  0.003  0.063  0.003  0.098
    5  0.001  0.000  0.000  0.000  0.000  0.000  0.000  0.000  0.000  0.001
tot    0.003  0.000  0.004  0.001  0.437  0.043  0.193  0.129  0.146  0.956
 
band     9 # energy   -5.50883646 # occ.  2.00000000
 
ion      s     py     pz     px    dxy    dyz    dz2    dxz  x2-y2    tot
    1  0.004  0.000  0.001  0.000  0.066  0.007  0.003  0.020  0.022  0.122
    2  0.004  0.000  0.005  0.000  0.021  0.019  0.239  0.058  0.007  0.353
    3  0.000  0.000  0.022  0.000  0.018  0.002  0.043  0.005  0.006  0.096
    4  0.001  0.000  0.009  0.000  0.166  0.025  0.016  0.075  0.056  0.348
    5  0.002  0.000  0.000  0.000  0.000  0.000  0.000  0.000  0.000  0.002
tot    0.010  0.000  0.036  0.001  0.271  0.053  0.301  0.157  0.091  0.921
 
band    10 # energy   -5.46463672 # occ.  2.00000000
 
ion      s     py     pz     px    dxy    dyz    dz2    dxz  x2-y2    tot
    1  0.000  0.000  0.000  0.000  0.000  0.003  0.000  0.001  0.000  0.004
    2  0.000  0.000  0.000  0.000  0.019  0.006  0.000  0.002  0.056  0.083
    3  0.000  0.000  0.000  0.000  0.005  0.074  0.000  0.025  0.014  0.118
    4  0.000  0.001  0.000  0.000  0.183  0.027  0.000  0.009  0.545  0.764
    5  0.000  0.000  0.000  0.000  0.000  0.000  0.000  0.000  0.000  0.000
tot    0.000  0.001  0.000  0.000  0.206  0.110  0.000  0.037  0.615  0.969
 
band    11 # energy   -5.45169950 # occ.  2.00000000
 
ion      s     py     pz     px    dxy    dyz    dz2    dxz  x2-y2    tot
    1  0.001  0.000  0.001  0.000  0.024  0.008  0.011  0.025  0.008  0.077
    2  0.001  0.000  0.000  0.000  0.442  0.000  0.015  0.001  0.148  0.607
    3  0.000  0.000  0.003  0.000  0.016  0.001  0.059  0.002  0.005  0.086
    4  0.000  0.000  0.005  0.000  0.077  0.014  0.016  0.042  0.025  0.179
    5  0.001  0.000  0.000  0.000  0.000  0.000  0.000  0.000  0.000  0.001
tot    0.003  0.000  0.008  0.001  0.558  0.023  0.101  0.069  0.187  0.950
 
band    12 # energy   -5.41368382 # occ.  2.00000000
 
ion      s     py     pz     px    dxy    dyz    dz2    dxz  x2-y2    tot
    1  0.000  0.000  0.000  0.000  0.004  0.002  0.000  0.001  0.013  0.020
    2  0.000  0.000  0.000  0.000  0.000  0.056  0.000  0.019  0.001  0.076
    3  0.000  0.000  0.000  0.000  0.154  0.024  0.000  0.008  0.463  0.650
    4  0.000  0.000  0.000  0.000  0.012  0.130  0.000  0.044  0.036  0.222
    5  0.000  0.000  0.000  0.000  0.000  0.000  0.000  0.000  0.000  0.000
tot    0.000  0.001  0.000  0.000  0.171  0.213  0.000  0.071  0.512  0.969
 
band    13 # energy   -5.30680158 # occ.  2.00000000
 
ion      s     py     pz     px    dxy    dyz    dz2    dxz  x2-y2    tot
    1  0.000  0.000  0.000  0.000  0.003  0.026  0.000  0.009  0.008  0.045
    2  0.000  0.001  0.000  0.000  0.184  0.003  0.000  0.001  0.550  0.739
    3  0.000  0.000  0.000  0.000  0.005  0.023  0.000  0.008  0.015  0.051
    4  0.000  0.000  0.000  0.000  0.033  0.000  0.000  0.000  0.099  0.133
    5  0.000  0.000  0.000  0.000  0.000  0.000  0.000  0.000  0.000  0.000
tot    0.000  0.001  0.000  0.000  0.225  0.053  0.000  0.018  0.672  0.968
 
band    14 # energy   -5.28865071 # occ.  2.00000000
 
ion      s     py     pz     px    dxy    dyz    dz2    dxz  x2-y2    tot
    1  0.004  0.000  0.002  0.000  0.047  0.001  0.352  0.004  0.016  0.425
    2  0.001  0.000  0.017  0.000  0.010  0.013  0.086  0.038  0.003  0.168
    3  0.000  0.000  0.012  0.000  0.146  0.013  0.015  0.039  0.048  0.274
    4  0.001  0.000  0.011  0.000  0.001  0.004  0.018  0.011  0.000  0.045
    5  0.003  0.000  0.000  0.000  0.000  0.000  0.000  0.000  0.000  0.003
tot    0.009  0.000  0.042  0.000  0.204  0.031  0.471  0.092  0.068  0.916
 
band    15 # energy   -5.21362737 # occ.  2.00000000
 
ion      s     py     pz     px    dxy    dyz    dz2    dxz  x2-y2    tot
    1  0.002  0.000  0.000  0.001  0.487  0.002  0.064  0.004  0.163  0.725
    2  0.000  0.000  0.011  0.000  0.008  0.002  0.015  0.005  0.003  0.044
    3  0.001  0.000  0.007  0.000  0.005  0.019  0.031  0.057  0.002  0.122
    4  0.000  0.000  0.002  0.000  0.023  0.005  0.002  0.016  0.008  0.055
    5  0.000  0.000  0.000  0.000  0.000  0.000  0.000  0.000  0.000  0.001
tot    0.004  0.000  0.019  0.001  0.524  0.028  0.112  0.082  0.176  0.946
 
band    16 # energy   -5.11895624 # occ.  2.00000000
 
ion      s     py     pz     px    dxy    dyz    dz2    dxz  x2-y2    tot
    1  0.000  0.001  0.000  0.000  0.173  0.013  0.000  0.004  0.516  0.707
    2  0.000  0.000  0.000  0.000  0.001  0.100  0.000  0.034  0.002  0.136
    3  0.000  0.000  0.000  0.000  0.006  0.008  0.000  0.003  0.018  0.034
    4  0.000  0.000  0.000  0.000  0.002  0.064  0.000  0.022  0.005  0.093
    5  0.000  0.000  0.000  0.000  0.000  0.000  0.000  0.000  0.000  0.000
tot    0.000  0.001  0.000  0.000  0.181  0.186  0.000  0.062  0.541  0.971
 
band    17 # energy   -4.98846478 # occ.  2.00000000
 
ion      s     py     pz     px    dxy    dyz    dz2    dxz  x2-y2    tot
    1  0.000  0.000  0.000  0.000  0.023  0.005  0.000  0.002  0.070  0.100
    2  0.000  0.000  0.000  0.000  0.007  0.007  0.000  0.002  0.022  0.039
    3  0.000  0.000  0.000  0.000  0.054  0.041  0.000  0.014  0.162  0.271
    4  0.000  0.000  0.000  0.000  0.006  0.409  0.000  0.136  0.019  0.571
    5  0.000  0.001  0.000  0.000  0.000  0.000  0.000  0.000  0.000  0.001
tot    0.000  0.001  0.000  0.000  0.091  0.462  0.000  0.153  0.274  0.982
 
band    18 # energy   -4.95670697 # occ.  2.00000000
 
ion      s     py     pz     px    dxy    dyz    dz2    dxz  x2-y2    tot
    1  0.000  0.000  0.000  0.000  0.025  0.007  0.002  0.022  0.008  0.066
    2  0.000  0.000  0.000  0.000  0.039  0.006  0.006  0.019  0.013  0.082
    3  0.002  0.000  0.001  0.000  0.078  0.057  0.041  0.171  0.026  0.377
    4  0.000  0.000  0.007  0.000  0.017  0.098  0.008  0.296  0.006  0.432
    5  0.005  0.000  0.000  0.000  0.000  0.000  0.000  0.000  0.000  0.006
tot    0.008  0.000  0.009  0.001  0.159  0.169  0.057  0.508  0.053  0.964
 
band    19 # energy   -4.69388577 # occ.  2.00000000
 
ion      s     py     pz     px    dxy    dyz    dz2    dxz  x2-y2    tot
    1  0.000  0.000  0.000  0.000  0.033  0.049  0.000  0.016  0.100  0.198
    2  0.000  0.000  0.000  0.000  0.020  0.245  0.000  0.081  0.060  0.406
    3  0.000  0.000  0.000  0.000  0.014  0.174  0.000  0.058  0.043  0.289
    4  0.000  0.000  0.000  0.000  0.004  0.057  0.000  0.019  0.011  0.091
    5  0.000  0.000  0.000  0.000  0.000  0.000  0.000  0.000  0.000  0.000
tot    0.000  0.000  0.000  0.000  0.071  0.524  0.000  0.174  0.214  0.984
 
band    20 # energy   -4.66996011 # occ.  2.00000000
 
ion      s     py     pz     px    dxy    dyz    dz2    dxz  x2-y2    tot
    1  0.000  0.000  0.004  0.000  0.040  0.090  0.002  0.269  0.013  0.417
    2  0.000  0.000  0.004  0.000  0.053  0.062  0.000  0.186  0.018  0.323
    3  0.002  0.000  0.002  0.000  0.012  0.023  0.023  0.068  0.004  0.134
    4  0.000  0.000  0.003  0.000  0.004  0.018  0.004  0.055  0.001  0.086
    5  0.002  0.000  0.000  0.000  0.000  0.000  0.000  0.000  0.000  0.002
tot    0.005  0.000  0.012  0.000  0.109  0.192  0.030  0.578  0.036  0.962
 
band    21 # energy   -4.48828690 # occ.  2.00000000
 
ion      s     py     pz     px    dxy    dyz    dz2    dxz  x2-y2    tot
    1  0.010  0.000  0.014  0.000  0.013  0.089  0.078  0.268  0.004  0.478
    2  0.001  0.000  0.002  0.000  0.012  0.078  0.004  0.233  0.004  0.333
    3  0.001  0.000  0.005  0.000  0.005  0.004  0.008  0.012  0.002  0.035
    4  0.000  0.000  0.006  0.000  0.001  0.009  0.008  0.028  0.000  0.052
    5  0.003  0.000  0.000  0.000  0.000  0.000  0.000  0.000  0.000  0.003
tot    0.015  0.000  0.026  0.001  0.031  0.180  0.098  0.540  0.010  0.901
 
band    22 # energy   -4.47202036 # occ.  2.00000000
 
ion      s     py     pz     px    dxy    dyz    dz2    dxz  x2-y2    tot
    1  0.000  0.000  0.000  0.000  0.004  0.251  0.000  0.084  0.013  0.352
    2  0.000  0.000  0.000  0.000  0.006  0.081  0.000  0.027  0.018  0.132
    3  0.000  0.000  0.000  0.000  0.002  0.318  0.000  0.106  0.005  0.431
    4  0.000  0.000  0.000  0.000  0.003  0.044  0.000  0.015  0.010  0.072
    5  0.000  0.000  0.000  0.000  0.000  0.000  0.000  0.000  0.000  0.000
tot    0.000  0.000  0.000  0.000  0.015  0.694  0.000  0.231  0.045  0.987
 
band    23 # energy   -4.17207788 # occ.  2.00000000
 
ion      s     py     pz     px    dxy    dyz    dz2    dxz  x2-y2    tot
    1  0.000  0.000  0.000  0.000  0.003  0.388  0.000  0.129  0.008  0.529
    2  0.000  0.000  0.000  0.000  0.006  0.239  0.000  0.080  0.018  0.342
    3  0.000  0.000  0.000  0.000  0.002  0.076  0.000  0.025  0.006  0.110