Starting job 28337950 ("jobname") on c15-30 at Fri Oct 11 11:19:45 CEST 2019
 running on    4 total cores
 distrk:  each k-point on    4 cores,    1 groups
 distr:  one band on    2 cores,    2 groups
 using from now: INCAR     
 vasp.5.4.4.18Apr17-6-g9f103f2a35 (build Jun 30 2017 11:15:00) complex          
  
 POSCAR found type information on POSCAR  Cu H 
 POSCAR found :  2 types and       5 ions
 scaLAPACK will be used

 ----------------------------------------------------------------------------- 
|                                                                             |
|  ADVICE TO THIS USER RUNNING 'VASP/VAMP'   (HEAR YOUR MASTER'S VOICE ...):  |
|                                                                             |
|      You have a (more or less) 'small supercell' and for smaller cells      |
|      it is recommended  to use the reciprocal-space projection scheme!      |
|      The real space optimization is not  efficient for small cells and it   |
|      is also less accurate ...                                              |
|      Therefore set LREAL=.FALSE. in the  INCAR file                         |
|                                                                             |
 ----------------------------------------------------------------------------- 

 LDA part: xc-table for Pade appr. of Perdew
 POSCAR, INCAR and KPOINTS ok, starting setup
 FFT: planning ...
 WAVECAR not read
 entering main loop
       N       E                     dE             d eps       ncg     rms          rms(c)
DAV:   1     0.197377023317E+03    0.19738E+03   -0.13913E+04   808   0.925E+02
DAV:   2    -0.100239604523E+02   -0.20740E+03   -0.20092E+03   832   0.264E+02
DAV:   3    -0.203022412918E+02   -0.10278E+02   -0.10010E+02   848   0.765E+01
DAV:   4    -0.204394390755E+02   -0.13720E+00   -0.13671E+00   884   0.833E+00
DAV:   5    -0.204406934017E+02   -0.12543E-02   -0.12543E-02   928   0.532E-01    0.157E+01
RMM:   6    -0.199936519079E+02    0.44704E+00   -0.50897E+01   871   0.699E+01    0.996E+00
RMM:   7    -0.172596655861E+02    0.27340E+01   -0.97880E+00   861   0.305E+01    0.467E+00
RMM:   8    -0.162957306535E+02    0.96393E+00   -0.39618E-01   859   0.498E+00    0.197E+00
RMM:   9    -0.162215715121E+02    0.74159E-01   -0.10437E-01   849   0.294E+00    0.750E-01
RMM:  10    -0.162037930749E+02    0.17778E-01   -0.31483E-02   840   0.136E+00    0.666E-01
RMM:  11    -0.161981911598E+02    0.56019E-02   -0.13539E-02   864   0.106E+00    0.380E-01
RMM:  12    -0.161956371973E+02    0.25540E-02   -0.79241E-03   850   0.720E-01    0.172E-01
RMM:  13    -0.161942878881E+02    0.13493E-02   -0.98574E-04   861   0.261E-01    0.687E-02
RMM:  14    -0.161940289368E+02    0.25895E-03   -0.27127E-04   857   0.138E-01    0.372E-02
RMM:  15    -0.161940494597E+02   -0.20523E-04   -0.17040E-04   822   0.602E-02    0.478E-02
RMM:  16    -0.161941915088E+02   -0.14205E-03   -0.10879E-04   824   0.489E-02    0.296E-02
RMM:  17    -0.161943479537E+02   -0.15644E-03   -0.43017E-05   808   0.431E-02    0.130E-02
RMM:  18    -0.161944851083E+02   -0.13715E-03   -0.37195E-05   764   0.271E-02    0.878E-03
RMM:  19    -0.161945214644E+02   -0.36356E-04   -0.64247E-06   657   0.156E-02    0.614E-03
RMM:  20    -0.161945706563E+02   -0.49192E-04   -0.22853E-06   514   0.837E-03    0.565E-03
RMM:  21    -0.161945904997E+02   -0.19843E-04   -0.89506E-07   490   0.602E-03    0.585E-03
RMM:  22    -0.161946006689E+02   -0.10169E-04   -0.40724E-07   474   0.380E-03    0.545E-03
RMM:  23    -0.161946057837E+02   -0.51149E-05   -0.13182E-07   377   0.190E-03    0.546E-03
RMM:  24    -0.161946062655E+02   -0.48177E-06   -0.22288E-08   290   0.157E-03
   1 F= -.16194606E+02 E0= -.16187871E+02  d E =-.134714E-01

Currently Loaded Modulefiles:
  1) intel/2017.4         2) perf-reports/7.0.6

Job script resource usage:
       JobID  MaxVMSize     MaxRSS 
------------ ---------- ---------- 
28337950.ba+    216884K      2495K 

Job step resource usage:
       JobID    JobName  AllocCPUS  MaxVMSize     MaxRSS    Elapsed ExitCode 
------------ ---------- ---------- ---------- ---------- ---------- -------- 
28337950        jobname          4                         00:00:12      0:0 
28337950.0    pmi_proxy          1    279832K       523K   00:00:10      0:0 

Job 28337950 ("jobname") completed on c15-30 at Fri Oct 11 11:19:56 CEST 2019
