unknown system                          
           1
     2.573869    0.000000    0.000000
     1.286934    2.229036    0.000000
     0.000000    0.000000   30.304665
   Cu   H 
   4   1
Direct configuration=     1
   0.00000000  0.00000000  0.39881502
   0.33333333  0.33333333  0.46725011
   0.66666666  0.66666667  0.53604203
   0.00000000  0.00000000  0.60568418
   0.00000000  0.00000000  0.65232700
