unknown system                          
   3.10000000000000     
     1.000000    0.000000    0.000000
     0.000000    1.000000    0.000000
     0.000000    0.000000    1.000000
   Pt
     2
Direct
  0.000000  0.000000  0.000000
  0.500000  0.500000  0.500000
 
   36   36   36
  113.86      111.59      105.41      96.964      87.998      79.568      71.694      63.678      54.828      45.088    
  35.184      26.243      19.190      14.303      11.172      9.1160      7.8402      7.1617      6.9507      7.1617    
  7.8402      9.1160      11.172      14.303      19.190      26.243      35.184      45.088      54.828      63.678    
  71.694      79.568      87.998      96.964      105.41      111.59      111.59      109.38      103.40      95.201    
  86.482      78.246      70.506      62.592      53.854      44.261      34.539      25.790      18.907      14.142    
  11.081      9.0613      7.8080      7.1408      6.9333      7.1408      7.8080      9.0613      11.081      14.142    
  18.907      25.790      34.539      44.261      53.854      62.592      70.506      78.246      86.482      95.201    
  103.40      109.38      105.41      103.40      97.923      90.395      82.317      74.577      67.175      59.525    
  51.088      41.909      32.706      24.508      18.106      13.686      10.817      8.9047      7.7158      7.0813    
  6.8834      7.0813      7.7158      8.9047      10.817      13.686      18.106      24.508      32.706      41.909    
  51.088      59.525      67.175      74.577      82.317      90.395      97.923      103.40      96.964      95.201    
  90.395      83.725      76.447      69.298      62.286      54.957      46.941      38.380      29.966      22.598    
  16.917      13.005      10.416      8.6666      7.5761      6.9913      6.8083      6.9913      7.5761      8.6666    
  10.416      13.005      16.917      22.598      29.966      38.380      46.941      54.957      62.286      69.298    
  76.447      83.725      90.395      95.201      87.998      86.482      82.317      76.447      69.877      63.213    
  56.503      49.470      41.937      34.133      26.690      20.333      15.512      12.191      9.9236      8.3764    
  7.4068      6.8829      6.7181      6.8829      7.4068      8.3764      9.9236      12.191      15.512      20.333    
  26.690      34.133      41.937      49.470      56.503      63.213      69.877      76.447      82.317      86.482    
  79.568      78.246      74.577      69.298      63.213      56.843      50.320      43.560      36.565      29.621    
  23.254      17.985      14.061      11.329      9.3929      8.0658      7.2273      6.7695      6.6245      6.7695    
  7.2273      8.0658      9.3929      11.329      14.061      17.985      23.254      29.621      36.565      43.560    
  50.320      56.843      63.213      69.298      74.577      78.246      71.694      70.506      67.175      62.286    
  56.503      50.320      43.974      37.558      31.209      25.216      19.968      15.773      12.689      10.479    
  8.8704      7.7636      7.0558      6.6641      6.5388      6.6641      7.0558      7.7636      8.8704      10.479    
  12.689      15.773      19.968      25.216      31.209      37.558      43.974      50.320      56.503      62.286    
  67.175      70.506      63.678      62.592      59.525      54.957      49.470      43.560      37.558      31.684    
  26.145      21.185      17.040      13.828      11.461      9.6887      8.3916      7.4913      6.9064      6.5771    
  6.4708      6.5771      6.9064      7.4913      8.3916      9.6887      11.461      13.828      17.040      21.185    
  26.145      31.684      37.558      43.560      49.470      54.957      59.525      62.592      54.828      53.854    
  51.088      46.941      41.937      36.565      31.209      26.145      21.585      17.697      14.577      12.197    
  10.383      8.9949      7.9776      7.2620      6.7878      6.5160      6.4272      6.5160      6.7878      7.2620    
  7.9776      8.9949      10.383      12.197      14.577      17.697      21.585      26.145      31.209      36.565    
  41.937      46.941      51.088      53.854      45.088      44.261      41.909      38.380      34.133      29.621    
  25.216      21.185      17.697      14.836      12.590      10.843      9.4641      8.4126      7.6362      7.0803    
  6.7042      6.4846      6.4122      6.4846      6.7042      7.0803      7.6362      8.4126      9.4641      10.843    
  12.590      14.836      17.697      21.185      25.216      29.621      34.133      38.380      41.909      44.261    
  35.184      34.539      32.706      29.966      26.690      23.254      19.968      17.040      14.577      12.590    
  11.003      9.7190      8.7103      7.9406      7.3651      6.9453      6.6556      6.4842      6.4272      6.4842    
  6.6556      6.9453      7.3651      7.9406      8.7103      9.7190      11.003      12.590      14.577      17.040    
  19.968      23.254      26.690      29.966      32.706      34.539      26.243      25.790      24.508      22.598    
  20.333      17.985      15.773      13.828      12.197      10.843      9.7190      8.8158      8.1098      7.5676    
  7.1567      6.8523      6.6398      6.5130      6.4708      6.5130      6.6398      6.8523      7.1567      7.5676    
  8.1098      8.8158      9.7190      10.843      12.197      13.828      15.773      17.985      20.333      22.598    
  24.508      25.790      19.190      18.907      18.106      16.917      15.512      14.061      12.689      11.461    
  10.383      9.4641      8.7103      8.1098      7.6404      7.2779      7.0013      6.7956      6.6523      6.5671    
  6.5388      6.5671      6.6523      6.7956      7.0013      7.2779      7.6404      8.1098      8.7103      9.4641    
  10.383      11.461      12.689      14.061      15.512      16.917      18.106      18.907      14.303      14.142    
  13.686      13.005      12.191      11.329      10.479      9.6887      8.9949      8.4126      7.9406      7.5676    
  7.2779      7.0560      6.8894      6.7686      6.6869      6.6398      6.6245      6.6398      6.6869      6.7686    
  6.8894      7.0560      7.2779      7.5676      7.9406      8.4126      8.9949      9.6887      10.479      11.329    
  12.191      13.005      13.686      14.142      11.172      11.081      10.817      10.416      9.9236      9.3929    
  8.8704      8.3916      7.9776      7.6362      7.3651      7.1567      7.0013      6.8894      6.8128      6.7640    
  6.7359      6.7221      6.7181      6.7221      6.7359      6.7640      6.8128      6.8894      7.0013      7.1567    
  7.3651      7.6362      7.9776      8.3916      8.8704      9.3929      9.9236      10.416      10.817      11.081    
  9.1160      9.0613      8.9047      8.6666      8.3764      8.0658      7.7636      7.4913      7.2620      7.0803    
  6.9453      6.8523      6.7956      6.7686      6.7640      6.7739      6.7896      6.8031      6.8083      6.8031    
  6.7896      6.7739      6.7640      6.7686      6.7956      6.8523      6.9453      7.0803      7.2620      7.4913    
  7.7636      8.0658      8.3764      8.6666      8.9047      9.0613      7.8402      7.8080      7.7158      7.5761    
  7.4068      7.2273      7.0558      6.9064      6.7878      6.7042      6.6556      6.6398      6.6523      6.6869    
  6.7359      6.7896      6.8380      6.8715      6.8834      6.8715      6.8380      6.7896      6.7359      6.6869    
  6.6523      6.6398      6.6556      6.7042      6.7878      6.9064      7.0558      7.2273      7.4068      7.5761    
  7.7158      7.8080      7.1617      7.1408      7.0813      6.9913      6.8829      6.7695      6.6641      6.5771    
  6.5160      6.4846      6.4842      6.5130      6.5671      6.6398      6.7221      6.8031      6.8715      6.9172    
  6.9333      6.9172      6.8715      6.8031      6.7221      6.6398      6.5671      6.5130      6.4842      6.4846    
  6.5160      6.5771      6.6641      6.7695      6.8829      6.9913      7.0813      7.1408      6.9507      6.9333    
  6.8834      6.8083      6.7181      6.6245      6.5388      6.4708      6.4272      6.4122      6.4272      6.4708    
  6.5388      6.6245      6.7181      6.8083      6.8834      6.9333      6.9507      6.9333      6.8834      6.8083    
  6.7181      6.6245      6.5388      6.4708      6.4272      6.4122      6.4272      6.4708      6.5388      6.6245    
  6.7181      6.8083      6.8834      6.9333      7.1617      7.1408      7.0813      6.9913      6.8829      6.7695    
  6.6641      6.5771      6.5160      6.4846      6.4842      6.5130      6.5671      6.6398      6.7221      6.8031    
  6.8715      6.9172      6.9333      6.9172      6.8715      6.8031      6.7221      6.6398      6.5671      6.5130    
  6.4842      6.4846      6.5160      6.5771      6.6641      6.7695      6.8829      6.9913      7.0813      7.1408    
  7.8402      7.8080      7.7158      7.5761      7.4068      7.2273      7.0558      6.9064      6.7878      6.7042    
  6.6556      6.6398      6.6523      6.6869      6.7359      6.7896      6.8380      6.8715      6.8834      6.8715    
  6.8380      6.7896      6.7359      6.6869      6.6523      6.6398      6.6556      6.7042      6.7878      6.9064    
  7.0558      7.2273      7.4068      7.5761      7.7158      7.8080      9.1160      9.0613      8.9047      8.6666    
  8.3764      8.0658      7.7636      7.4913      7.2620      7.0803      6.9453      6.8523      6.7956      6.7686    
  6.7640      6.7739      6.7896      6.8031      6.8083      6.8031      6.7896      6.7739      6.7640      6.7686    
  6.7956      6.8523      6.9453      7.0803      7.2620      7.4913      7.7636      8.0658      8.3764      8.6666    
  8.9047      9.0613      11.172      11.081      10.817      10.416      9.9236      9.3929      8.8704      8.3916    
  7.9776      7.6362      7.3651      7.1567      7.0013      6.8894      6.8128      6.7640      6.7359      6.7221    
  6.7181      6.7221      6.7359      6.7640      6.8128      6.8894      7.0013      7.1567      7.3651      7.6362    
  7.9776      8.3916      8.8704      9.3929      9.9236      10.416      10.817      11.081      14.303      14.142    
  13.686      13.005      12.191      11.329      10.479      9.6887      8.9949      8.4126      7.9406      7.5676    
  7.2779      7.0560      6.8894      6.7686      6.6869      6.6398      6.6245      6.6398      6.6869      6.7686    
  6.8894      7.0560      7.2779      7.5676      7.9406      8.4126      8.9949      9.6887      10.479      11.329    
  12.191      13.005      13.686      14.142      19.190      18.907      18.106      16.917      15.512      14.061    
  12.689      11.461      10.383      9.4641      8.7103      8.1098      7.6404      7.2779      7.0013      6.7956    
  6.6523      6.5671      6.5388      6.5671      6.6523      6.7956      7.0013      7.2779      7.6404      8.1098    
  8.7103      9.4641      10.383      11.461      12.689      14.061      15.512      16.917      18.106      18.907    
  26.243      25.790      24.508      22.598      20.333      17.985      15.773      13.828      12.197      10.843    
  9.7190      8.8158      8.1098      7.5676      7.1567      6.8523      6.6398      6.5130      6.4708      6.5130    
  6.6398      6.8523      7.1567      7.5676      8.1098      8.8158      9.7190      10.843      12.197      13.828    
  15.773      17.985      20.333      22.598      24.508      25.790      35.184      34.539      32.706      29.966    
  26.690      23.254      19.968      17.040      14.577      12.590      11.003      9.7190      8.7103      7.9406    
  7.3651      6.9453      6.6556      6.4842      6.4272      6.4842      6.6556      6.9453      7.3651      7.9406    
  8.7103      9.7190      11.003      12.590      14.577      17.040      19.968      23.254      26.690      29.966    
  32.706      34.539      45.088      44.261      41.909      38.380      34.133      29.621      25.216      21.185    
  17.697      14.836      12.590      10.843      9.4641      8.4126      7.6362      7.0803      6.7042      6.4846    
  6.4122      6.4846      6.7042      7.0803      7.6362      8.4126      9.4641      10.843      12.590      14.836    
  17.697      21.185      25.216      29.621      34.133      38.380      41.909      44.261      54.828      53.854    
  51.088      46.941      41.937      36.565      31.209      26.145      21.585      17.697      14.577      12.197    
  10.383      8.9949      7.9776      7.2620      6.7878      6.5160      6.4272      6.5160      6.7878      7.2620    
  7.9776      8.9949      10.383      12.197      14.577      17.697      21.585      26.145      31.209      36.565    
  41.937      46.941      51.088      53.854      63.678      62.592      59.525      54.957      49.470      43.560    
  37.558      31.684      26.145      21.185      17.040      13.828      11.461      9.6887      8.3916      7.4913    
  6.9064      6.5771      6.4708      6.5771      6.9064      7.4913      8.3916      9.6887      11.461      13.828    
  17.040      21.185      26.145      31.684      37.558      43.560      49.470      54.957      59.525      62.592    
  71.694      70.506      67.175      62.286      56.503      50.320      43.974      37.558      31.209      25.216    
  19.968      15.773      12.689      10.479      8.8704      7.7636      7.0558      6.6641      6.5388      6.6641    
  7.0558      7.7636      8.8704      10.479      12.689      15.773      19.968      25.216      31.209      37.558    
  43.974      50.320      56.503      62.286      67.175      70.506      79.568      78.246      74.577      69.298    
  63.213      56.843      50.320      43.560      36.565      29.621      23.254      17.985      14.061      11.329    
  9.3929      8.0658      7.2273      6.7695      6.6245      6.7695      7.2273      8.0658      9.3929      11.329    
  14.061      17.985      23.254      29.621      36.565      43.560      50.320      56.843      63.213      69.298    
  74.577      78.246      87.998      86.482      82.317      76.447      69.877      63.213      56.503      49.470    
  41.937      34.133      26.690      20.333      15.512      12.191      9.9236      8.3764      7.4068      6.8829    
  6.7181      6.8829      7.4068      8.3764      9.9236      12.191      15.512      20.333      26.690      34.133    
  41.937      49.470      56.503      63.213      69.877      76.447      82.317      86.482      96.964      95.201    
  90.395      83.725      76.447      69.298      62.286      54.957      46.941      38.380      29.966      22.598    
  16.917      13.005      10.416      8.6666      7.5761      6.9913      6.8083      6.9913      7.5761      8.6666    
  10.416      13.005      16.917      22.598      29.966      38.380      46.941      54.957      62.286      69.298    
  76.447      83.725      90.395      95.201      105.41      103.40      97.923      90.395      82.317      74.577    
  67.175      59.525      51.088      41.909      32.706      24.508      18.106      13.686      10.817      8.9047    
  7.7158      7.0813      6.8834      7.0813      7.7158      8.9047      10.817      13.686      18.106      24.508    
  32.706      41.909      51.088      59.525      67.175      74.577      82.317      90.395      97.923      103.40    
  111.59      109.38      103.40      95.201      86.482      78.246      70.506      62.592      53.854      44.261    
  34.539      25.790      18.907      14.142      11.081      9.0613      7.8080      7.1408      6.9333      7.1408    
  7.8080      9.0613      11.081      14.142      18.907      25.790      34.539      44.261      53.854      62.592    
  70.506      78.246      86.482      95.201      103.40      109.38      111.59      109.38      103.40      95.201    
  86.482      78.246      70.506      62.592      53.854      44.261      34.539      25.790      18.907      14.142    
  11.081      9.0613      7.8080      7.1408      6.9333      7.1408      7.8080      9.0613      11.081      14.142    
  18.907      25.790      34.539      44.261      53.854      62.592      70.506      78.246      86.482      95.201    
  103.40      109.38      109.38      107.24      101.44      93.491      85.006      76.956      69.345      61.532    
  52.903      43.454      33.911      25.351      18.633      13.987      10.992      9.0089      7.7775      7.1214    
  6.9172      7.1214      7.7775      9.0089      10.992      13.987      18.633      25.351      33.911      43.454    
  52.903      61.532      69.345      76.956      85.006      93.491      101.44      107.24      103.40      101.44    
  96.134      88.821      80.951      73.375      66.089      58.532      50.200      41.161      32.128      24.107    
  17.858      13.546      10.737      8.8589      7.6904      7.0662      6.8715      7.0662      7.6904      8.8589    
  10.737      13.546      17.858      24.107      32.128      41.161      50.200      58.532      66.089      73.375    
  80.951      88.821      96.134      101.44      95.201      93.491      88.821      82.330      75.225      68.214    
  61.303      54.061      46.147      37.719      29.462      22.254      16.708      12.889      10.350      8.6314    
  7.5591      6.9834      6.8031      6.9834      7.5591      8.6314      10.350      12.889      16.708      22.254    
  29.462      37.719      46.147      54.061      61.303      68.214      75.225      82.330      88.821      93.491    
  86.482      85.006      80.951      75.225      68.797      62.250      55.631      48.685      41.253      33.576    
  26.276      20.058      15.350      12.104      9.8763      8.3551      7.4008      6.8846      6.7221      6.8846    
  7.4008      8.3551      9.8763      12.104      15.350      20.058      26.276      33.576      41.253      48.685    
  55.631      62.250      68.797      75.225      80.951      85.006      78.246      76.956      73.375      68.214    
  62.250      55.985      49.555      42.887      35.997      29.174      22.934      17.782      13.947      11.271    
  9.3664      8.0607      7.2347      6.7830      6.6398      6.7830      7.2347      8.0607      9.3664      11.271    
  13.947      17.782      22.934      29.174      35.997      42.887      49.555      55.985      62.250      68.214    
  73.375      76.956      70.506      69.345      66.089      61.303      55.631      49.555      43.311      36.997    
  30.756      24.876      19.738      15.636      12.620      10.448      8.8659      7.7759      7.0779      6.6910    
  6.5671      6.6910      7.0779      7.7759      8.8659      10.448      12.620      15.636      19.738      24.876    
  30.756      36.997      43.311      49.555      55.631      61.303      66.089      69.345      62.592      61.532    
  58.532      54.061      48.685      42.887      36.997      31.232      25.801      20.944      16.890      13.750    
  11.429      9.6857      8.4088      7.5215      6.9439      6.6183      6.5130      6.6183      6.9439      7.5215    
  8.4088      9.6857      11.429      13.750      16.890      20.944      25.801      31.232      36.997      42.887    
  48.685      54.061      58.532      61.532      53.854      52.903      50.200      46.147      41.253      35.997    
  30.756      25.801      21.342      17.543      14.494      12.164      10.382      9.0169      8.0152      7.3095    
  6.8410      6.5721      6.4842      6.5721      6.8410      7.3095      8.0152      9.0169      10.382      12.164    
  14.494      17.543      21.342      25.801      30.756      35.997      41.253      46.147      50.200      52.903    
  44.261      43.454      41.161      37.719      33.576      29.174      24.876      20.944      17.543      14.752    
  12.558      10.845      9.4901      8.4566      7.6925      7.1446      6.7732      6.5563      6.4846      6.5563    
  6.7732      7.1446      7.6925      8.4566      9.4901      10.845      12.558      14.752      17.543      20.944    
  24.876      29.174      33.576      37.719      41.161      43.454      34.539      33.911      32.128      29.462    
  26.276      22.934      19.738      16.890      14.494      12.558      11.006      9.7475      8.7588      8.0038    
  7.4386      7.0259      6.7409      6.5721      6.5160      6.5721      6.7409      7.0259      7.4386      8.0038    
  8.7588      9.7475      11.006      12.558      14.494      16.890      19.738      22.934      26.276      29.462    
  32.128      33.911      25.790      25.351      24.107      22.254      20.058      17.782      15.636      13.750    
  12.164      10.845      9.7475      8.8659      8.1767      7.6474      7.2462      6.9492      6.7419      6.6183    
  6.5771      6.6183      6.7419      6.9492      7.2462      7.6474      8.1767      8.8659      9.7475      10.845    
  12.164      13.750      15.636      17.782      20.058      22.254      24.107      25.351      18.907      18.633    
  17.858      16.708      15.350      13.947      12.620      11.429      10.382      9.4901      8.7588      8.1767    
  7.7224      7.3723      7.1060      6.9089      6.7720      6.6910      6.6641      6.6910      6.7720      6.9089    
  7.1060      7.3723      7.7224      8.1767      8.7588      9.4901      10.382      11.429      12.620      13.947    
  15.350      16.708      17.858      18.633      14.142      13.987      13.546      12.889      12.104      11.271    
  10.448      9.6857      9.0169      8.4566      8.0038      7.6474      7.3723      7.1636      7.0089      6.8984    
  6.8249      6.7830      6.7695      6.7830      6.8249      6.8984      7.0089      7.1636      7.3723      7.6474    
  8.0038      8.4566      9.0169      9.6857      10.448      11.271      12.104      12.889      13.546      13.987    
  11.081      10.992      10.737      10.350      9.8763      9.3664      8.8659      8.4088      8.0152      7.6925    
  7.4386      7.2462      7.1060      7.0089      6.9462      6.9099      6.8918      6.8846      6.8829      6.8846    
  6.8918      6.9099      6.9462      7.0089      7.1060      7.2462      7.4386      7.6925      8.0152      8.4088    
  8.8659      9.3664      9.8763      10.350      10.737      10.992      9.0613      9.0089      8.8589      8.6314    
  8.3551      8.0607      7.7759      7.5215      7.3095      7.1446      7.0259      6.9492      6.9089      6.8984    
  6.9099      6.9345      6.9621      6.9834      6.9913      6.9834      6.9621      6.9345      6.9099      6.8984    
  6.9089      6.9492      7.0259      7.1446      7.3095      7.5215      7.7759      8.0607      8.3551      8.6314    
  8.8589      9.0089      7.8080      7.7775      7.6904      7.5591      7.4008      7.2347      7.0779      6.9439    
  6.8410      6.7732      6.7409      6.7419      6.7720      6.8249      6.8918      6.9621      7.0239      7.0662    
  7.0813      7.0662      7.0239      6.9621      6.8918      6.8249      6.7720      6.7419      6.7409      6.7732    
  6.8410      6.9439      7.0779      7.2347      7.4008      7.5591      7.6904      7.7775      7.1408      7.1214    
  7.0662      6.9834      6.8846      6.7830      6.6910      6.6183      6.5721      6.5563      6.5721      6.6183    
  6.6910      6.7830      6.8846      6.9834      7.0662      7.1214      7.1408      7.1214      7.0662      6.9834    
  6.8846      6.7830      6.6910      6.6183      6.5721      6.5563      6.5721      6.6183      6.6910      6.7830    
  6.8846      6.9834      7.0662      7.1214      6.9333      6.9172      6.8715      6.8031      6.7221      6.6398    
  6.5671      6.5130      6.4842      6.4846      6.5160      6.5771      6.6641      6.7695      6.8829      6.9913    
  7.0813      7.1408      7.1617      7.1408      7.0813      6.9913      6.8829      6.7695      6.6641      6.5771    
  6.5160      6.4846      6.4842      6.5130      6.5671      6.6398      6.7221      6.8031      6.8715      6.9172    
  7.1408      7.1214      7.0662      6.9834      6.8846      6.7830      6.6910      6.6183      6.5721      6.5563    
  6.5721      6.6183      6.6910      6.7830      6.8846      6.9834      7.0662      7.1214      7.1408      7.1214    
  7.0662      6.9834      6.8846      6.7830      6.6910      6.6183      6.5721      6.5563      6.5721      6.6183    
  6.6910      6.7830      6.8846      6.9834      7.0662      7.1214      7.8080      7.7775      7.6904      7.5591    
  7.4008      7.2347      7.0779      6.9439      6.8410      6.7732      6.7409      6.7419      6.7720      6.8249    
  6.8918      6.9621      7.0239      7.0662      7.0813      7.0662      7.0239      6.9621      6.8918      6.8249    
  6.7720      6.7419      6.7409      6.7732      6.8410      6.9439      7.0779      7.2347      7.4008      7.5591    
  7.6904      7.7775      9.0613      9.0089      8.8589      8.6314      8.3551      8.0607      7.7759      7.5215    
  7.3095      7.1446      7.0259      6.9492      6.9089      6.8984      6.9099      6.9345      6.9621      6.9834    
  6.9913      6.9834      6.9621      6.9345      6.9099      6.8984      6.9089      6.9492      7.0259      7.1446    
  7.3095      7.5215      7.7759      8.0607      8.3551      8.6314      8.8589      9.0089      11.081      10.992    
  10.737      10.350      9.8763      9.3664      8.8659      8.4088      8.0152      7.6925      7.4386      7.2462    
  7.1060      7.0089      6.9462      6.9099      6.8918      6.8846      6.8829      6.8846      6.8918      6.9099    
  6.9462      7.0089      7.1060      7.2462      7.4386      7.6925      8.0152      8.4088      8.8659      9.3664    
  9.8763      10.350      10.737      10.992      14.142      13.987      13.546      12.889      12.104      11.271    
  10.448      9.6857      9.0169      8.4566      8.0038      7.6474      7.3723      7.1636      7.0089      6.8984    
  6.8249      6.7830      6.7695      6.7830      6.8249      6.8984      7.0089      7.1636      7.3723      7.6474    
  8.0038      8.4566      9.0169      9.6857      10.448      11.271      12.104      12.889      13.546      13.987    
  18.907      18.633      17.858      16.708      15.350      13.947      12.620      11.429      10.382      9.4901    
  8.7588      8.1767      7.7224      7.3723      7.1060      6.9089      6.7720      6.6910      6.6641      6.6910    
  6.7720      6.9089      7.1060      7.3723      7.7224      8.1767      8.7588      9.4901      10.382      11.429    
  12.620      13.947      15.350      16.708      17.858      18.633      25.790      25.351      24.107      22.254    
  20.058      17.782      15.636      13.750      12.164      10.845      9.7475      8.8659      8.1767      7.6474    
  7.2462      6.9492      6.7419      6.6183      6.5771      6.6183      6.7419      6.9492      7.2462      7.6474    
  8.1767      8.8659      9.7475      10.845      12.164      13.750      15.636      17.782      20.058      22.254    
  24.107      25.351      34.539      33.911      32.128      29.462      26.276      22.934      19.738      16.890    
  14.494      12.558      11.006      9.7475      8.7588      8.0038      7.4386      7.0259      6.7409      6.5721    
  6.5160      6.5721      6.7409      7.0259      7.4386      8.0038      8.7588      9.7475      11.006      12.558    
  14.494      16.890      19.738      22.934      26.276      29.462      32.128      33.911      44.261      43.454    
  41.161      37.719      33.576      29.174      24.876      20.944      17.543      14.752      12.558      10.845    
  9.4901      8.4566      7.6925      7.1446      6.7732      6.5563      6.4846      6.5563      6.7732      7.1446    
  7.6925      8.4566      9.4901      10.845      12.558      14.752      17.543      20.944      24.876      29.174    
  33.576      37.719      41.161      43.454      53.854      52.903      50.200      46.147      41.253      35.997    
  30.756      25.801      21.342      17.543      14.494      12.164      10.382      9.0169      8.0152      7.3095    
  6.8410      6.5721      6.4842      6.5721      6.8410      7.3095      8.0152      9.0169      10.382      12.164    
  14.494      17.543      21.342      25.801      30.756      35.997      41.253      46.147      50.200      52.903    
  62.592      61.532      58.532      54.061      48.685      42.887      36.997      31.232      25.801      20.944    
  16.890      13.750      11.429      9.6857      8.4088      7.5215      6.9439      6.6183      6.5130      6.6183    
  6.9439      7.5215      8.4088      9.6857      11.429      13.750      16.890      20.944      25.801      31.232    
  36.997      42.887      48.685      54.061      58.532      61.532      70.506      69.345      66.089      61.303    
  55.631      49.555      43.311      36.997      30.756      24.876      19.738      15.636      12.620      10.448    
  8.8659      7.7759      7.0779      6.6910      6.5671      6.6910      7.0779      7.7759      8.8659      10.448    
  12.620      15.636      19.738      24.876      30.756      36.997      43.311      49.555      55.631      61.303    
  66.089      69.345      78.246      76.956      73.375      68.214      62.250      55.985      49.555      42.887    
  35.997      29.174      22.934      17.782      13.947      11.271      9.3664      8.0607      7.2347      6.7830    
  6.6398      6.7830      7.2347      8.0607      9.3664      11.271      13.947      17.782      22.934      29.174    
  35.997      42.887      49.555      55.985      62.250      68.214      73.375      76.956      86.482      85.006    