unknown system                          
   3.10000000000000     
     1.000000    0.000000    0.000000
     0.000000    1.000000    0.000000
     0.000000    0.000000    1.000000
   Pt
     2
Direct
  0.000000  0.000000  0.000000
  0.500000  0.500000  0.500000
 
   36   36   36
 0.11386439951E+03 0.11158648266E+03 0.10541107300E+03 0.96963649289E+02 0.87997942893E+02
 0.79568130545E+02 0.71693500133E+02 0.63677583425E+02 0.54828280478E+02 0.45088498211E+02
 0.35183810267E+02 0.26243009260E+02 0.19189606641E+02 0.14302711999E+02 0.11172499457E+02
 0.91159837371E+01 0.78401701976E+01 0.71616747865E+01 0.69506875424E+01 0.71616747865E+01
 0.78401701976E+01 0.91159837371E+01 0.11172499457E+02 0.14302711999E+02 0.19189606641E+02
 0.26243009260E+02 0.35183810267E+02 0.45088498211E+02 0.54828280478E+02 0.63677583425E+02
 0.71693500133E+02 0.79568130545E+02 0.87997942893E+02 0.96963649289E+02 0.10541107300E+03
 0.11158648266E+03 0.11158648266E+03 0.10938024662E+03 0.10339646492E+03 0.95201470108E+02
 0.86481684599E+02 0.78245659282E+02 0.70505617735E+02 0.62592423395E+02 0.53854154301E+02
 0.44261112696E+02 0.34538599168E+02 0.25790405610E+02 0.18906547328E+02 0.14141883312E+02
 0.11080664521E+02 0.90613023252E+01 0.78079592610E+01 0.71408379801E+01 0.69332511966E+01
 0.71408379801E+01 0.78079592610E+01 0.90613023252E+01 0.11080664521E+02 0.14141883312E+02
 0.18906547328E+02 0.25790405610E+02 0.34538599168E+02 0.44261112696E+02 0.53854154301E+02
 0.62592423395E+02 0.70505617735E+02 0.78245659282E+02 0.86481684599E+02 0.95201470108E+02
 0.10339646492E+03 0.10938024662E+03 0.10541107300E+03 0.10339646492E+03 0.97923136158E+02
 0.90395327462E+02 0.82316995632E+02 0.74576785038E+02 0.67175088814E+02 0.59524934940E+02
 0.51088318783E+02 0.41909228246E+02 0.32706422455E+02 0.24507794129E+02 0.18105682557E+02
 0.13685868888E+02 0.10817235226E+02 0.89046693193E+01 0.77157978398E+01 0.70812841246E+01
 0.68834426119E+01 0.70812841246E+01 0.77157978398E+01 0.89046693193E+01 0.10817235226E+02
 0.13685868888E+02 0.18105682557E+02 0.24507794129E+02 0.32706422455E+02 0.41909228246E+02
 0.51088318783E+02 0.59524934940E+02 0.67175088814E+02 0.74576785038E+02 0.82316995632E+02
 0.90395327462E+02 0.97923136158E+02 0.10339646492E+03 0.96963649289E+02 0.95201470108E+02
 0.90395327462E+02 0.83724766343E+02 0.76446668232E+02 0.69298479527E+02 0.62286040440E+02
 0.54956986131E+02 0.46941460286E+02 0.38380439554E+02 0.29965742404E+02 0.22597950404E+02
 0.16916821919E+02 0.13005148693E+02 0.10415699529E+02 0.86666411482E+01 0.75761306759E+01
 0.69912930225E+01 0.68082903392E+01 0.69912930225E+01 0.75761306759E+01 0.86666411482E+01
 0.10415699529E+02 0.13005148693E+02 0.16916821919E+02 0.22597950404E+02 0.29965742404E+02
 0.38380439554E+02 0.46941460286E+02 0.54956986131E+02 0.62286040440E+02 0.69298479527E+02
 0.76446668232E+02 0.83724766343E+02 0.90395327462E+02 0.95201470108E+02 0.87997942893E+02
 0.86481684599E+02 0.82316995632E+02 0.76446668232E+02 0.69877465242E+02 0.63213425682E+02
 0.56503203266E+02 0.49470255578E+02 0.41936653414E+02 0.34133262157E+02 0.26689784142E+02
 0.20333022355E+02 0.15512446952E+02 0.12191273408E+02 0.99236058001E+01 0.83764062970E+01
 0.74067542555E+01 0.68828599987E+01 0.67180560754E+01 0.68828599987E+01 0.74067542555E+01
 0.83764062970E+01 0.99236058001E+01 0.12191273408E+02 0.15512446952E+02 0.20333022355E+02
 0.26689784142E+02 0.34133262157E+02 0.41936653414E+02 0.49470255578E+02 0.56503203266E+02
 0.63213425682E+02 0.69877465242E+02 0.76446668232E+02 0.82316995632E+02 0.86481684599E+02
 0.79568130545E+02 0.78245659282E+02 0.74576785038E+02 0.69298479527E+02 0.63213425682E+02
 0.56843057873E+02 0.50319728729E+02 0.43559842250E+02 0.36565111740E+02 0.29621292621E+02
 0.23254308787E+02 0.17985476058E+02 0.14061074075E+02 0.11329312088E+02 0.93928505415E+01
 0.80658018211E+01 0.72273062856E+01 0.67695076508E+01 0.66244540276E+01 0.67695076508E+01
 0.72273062856E+01 0.80658018211E+01 0.93928505415E+01 0.11329312088E+02 0.14061074075E+02
 0.17985476058E+02 0.23254308787E+02 0.29621292621E+02 0.36565111740E+02 0.43559842250E+02
 0.50319728729E+02 0.56843057873E+02 0.63213425682E+02 0.69298479527E+02 0.74576785038E+02
 0.78245659282E+02 0.71693500133E+02 0.70505617735E+02 0.67175088814E+02 0.62286040440E+02
 0.56503203266E+02 0.50319728729E+02 0.43973811278E+02 0.37558111027E+02 0.31209005038E+02
 0.25216361105E+02 0.19968056905E+02 0.15772788659E+02 0.12689224539E+02 0.10478767481E+02
 0.88703767992E+01 0.77635738883E+01 0.70558457744E+01 0.66640937218E+01 0.65388355189E+01
 0.66640937218E+01 0.70558457744E+01 0.77635738883E+01 0.88703767992E+01 0.10478767481E+02
 0.12689224539E+02 0.15772788659E+02 0.19968056905E+02 0.25216361105E+02 0.31209005038E+02
 0.37558111027E+02 0.43973811278E+02 0.50319728729E+02 0.56503203266E+02 0.62286040440E+02
 0.67175088814E+02 0.70505617735E+02 0.63677583425E+02 0.62592423395E+02 0.59524934940E+02
 0.54956986131E+02 0.49470255578E+02 0.43559842250E+02 0.37558111027E+02 0.31684281021E+02
 0.26144982551E+02 0.21185015734E+02 0.17040273596E+02 0.13828409702E+02 0.11461164733E+02
 0.96887058292E+01 0.83915840437E+01 0.74913386017E+01 0.69063834810E+01 0.65771409335E+01
 0.64707583411E+01 0.65771409335E+01 0.69063834810E+01 0.74913386017E+01 0.83915840437E+01
 0.96887058292E+01 0.11461164733E+02 0.13828409702E+02 0.17040273596E+02 0.21185015734E+02
 0.26144982551E+02 0.31684281021E+02 0.37558111027E+02 0.43559842250E+02 0.49470255578E+02
 0.54956986131E+02 0.59524934940E+02 0.62592423395E+02 0.54828280478E+02 0.53854154301E+02
 0.51088318783E+02 0.46941460286E+02 0.41936653414E+02 0.36565111740E+02 0.31209005038E+02
 0.26144982551E+02 0.21585224191E+02 0.17697382647E+02 0.14577236969E+02 0.12196778897E+02
 0.10383082274E+02 0.89949005284E+01 0.79775899603E+01 0.72619745577E+01 0.67878136786E+01
 0.65159769631E+01 0.64271748315E+01 0.65159769631E+01 0.67878136786E+01 0.72619745577E+01
 0.79775899603E+01 0.89949005284E+01 0.10383082274E+02 0.12196778897E+02 0.14577236969E+02
 0.17697382647E+02 0.21585224191E+02 0.26144982551E+02 0.31209005038E+02 0.36565111740E+02
 0.41936653414E+02 0.46941460286E+02 0.51088318783E+02 0.53854154301E+02 0.45088498211E+02
 0.44261112696E+02 0.41909228246E+02 0.38380439554E+02 0.34133262157E+02 0.29621292621E+02
 0.25216361105E+02 0.21185015734E+02 0.17697382647E+02 0.14836178332E+02 0.12590130924E+02
 0.10843078492E+02 0.94641100067E+01 0.84125869482E+01 0.76361627700E+01 0.70803060938E+01
 0.67041646542E+01 0.64846341910E+01 0.64121978089E+01 0.64846341910E+01 0.67041646542E+01
 0.70803060938E+01 0.76361627700E+01 0.84125869482E+01 0.94641100067E+01 0.10843078492E+02
 0.12590130924E+02 0.14836178332E+02 0.17697382647E+02 0.21185015734E+02 0.25216361105E+02
 0.29621292621E+02 0.34133262157E+02 0.38380439554E+02 0.41909228246E+02 0.44261112696E+02
 0.35183810267E+02 0.34538599168E+02 0.32706422455E+02 0.29965742404E+02 0.26689784142E+02
 0.23254308787E+02 0.19968056905E+02 0.17040273596E+02 0.14577236969E+02 0.12590130924E+02
 0.11003295327E+02 0.97190150042E+01 0.87103329608E+01 0.79406318031E+01 0.73651423503E+01
 0.69452533493E+01 0.66556457773E+01 0.64841749046E+01 0.64271748315E+01 0.64841749046E+01
 0.66556457773E+01 0.69452533493E+01 0.73651423503E+01 0.79406318031E+01 0.87103329608E+01
 0.97190150042E+01 0.11003295327E+02 0.12590130924E+02 0.14577236969E+02 0.17040273596E+02
 0.19968056905E+02 0.23254308787E+02 0.26689784142E+02 0.29965742404E+02 0.32706422455E+02
 0.34538599168E+02 0.26243009260E+02 0.25790405610E+02 0.24507794129E+02 0.22597950404E+02
 0.20333022355E+02 0.17985476058E+02 0.15772788659E+02 0.13828409702E+02 0.12196778897E+02
 0.10843078492E+02 0.97190150042E+01 0.88157638606E+01 0.81097629245E+01 0.75676206978E+01
 0.71567409001E+01 0.68523426470E+01 0.66398029907E+01 0.65130313975E+01 0.64707583411E+01
 0.65130313975E+01 0.66398029907E+01 0.68523426470E+01 0.71567409001E+01 0.75676206978E+01
 0.81097629245E+01 0.88157638606E+01 0.97190150042E+01 0.10843078492E+02 0.12196778897E+02
 0.13828409702E+02 0.15772788659E+02 0.17985476058E+02 0.20333022355E+02 0.22597950404E+02
 0.24507794129E+02 0.25790405610E+02 0.19189606641E+02 0.18906547328E+02 0.18105682557E+02
 0.16916821919E+02 0.15512446952E+02 0.14061074075E+02 0.12689224539E+02 0.11461164733E+02
 0.10383082274E+02 0.94641100067E+01 0.87103329608E+01 0.81097629245E+01 0.76403834320E+01
 0.72778805263E+01 0.70012651255E+01 0.67956268219E+01 0.66522591357E+01 0.65671231733E+01
 0.65388355189E+01 0.65671231733E+01 0.66522591357E+01 0.67956268219E+01 0.70012651255E+01
 0.72778805263E+01 0.76403834320E+01 0.81097629245E+01 0.87103329608E+01 0.94641100067E+01
 0.10383082274E+02 0.11461164733E+02 0.12689224539E+02 0.14061074075E+02 0.15512446952E+02
 0.16916821919E+02 0.18105682557E+02 0.18906547328E+02 0.14302711999E+02 0.14141883312E+02
 0.13685868888E+02 0.13005148693E+02 0.12191273408E+02 0.11329312088E+02 0.10478767481E+02
 0.96887058292E+01 0.89949005284E+01 0.84125869482E+01 0.79406318031E+01 0.75676206978E+01
 0.72778805263E+01 0.70560211730E+01 0.68893773408E+01 0.67685582938E+01 0.66869095354E+01
 0.66398225082E+01 0.66244540276E+01 0.66398225082E+01 0.66869095354E+01 0.67685582938E+01
 0.68893773408E+01 0.70560211730E+01 0.72778805263E+01 0.75676206978E+01 0.79406318031E+01
 0.84125869482E+01 0.89949005284E+01 0.96887058292E+01 0.10478767481E+02 0.11329312088E+02
 0.12191273408E+02 0.13005148693E+02 0.13685868888E+02 0.14141883312E+02 0.11172499457E+02
 0.11080664521E+02 0.10817235226E+02 0.10415699529E+02 0.99236058001E+01 0.93928505415E+01
 0.88703767992E+01 0.83915840437E+01 0.79775899603E+01 0.76361627700E+01 0.73651423503E+01
 0.71567409001E+01 0.70012651255E+01 0.68893773408E+01 0.68127891016E+01 0.67639800238E+01
 0.67358609207E+01 0.67220834046E+01 0.67180560754E+01 0.67220834046E+01 0.67358609207E+01
 0.67639800238E+01 0.68127891016E+01 0.68893773408E+01 0.70012651255E+01 0.71567409001E+01
 0.73651423503E+01 0.76361627700E+01 0.79775899603E+01 0.83915840437E+01 0.88703767992E+01
 0.93928505415E+01 0.99236058001E+01 0.10415699529E+02 0.10817235226E+02 0.11080664521E+02
 0.91159837371E+01 0.90613023252E+01 0.89046693193E+01 0.86666411482E+01 0.83764062970E+01
 0.80658018211E+01 0.77635738883E+01 0.74913386017E+01 0.72619745577E+01 0.70803060938E+01
 0.69452533493E+01 0.68523426470E+01 0.67956268219E+01 0.67685582938E+01 0.67639800238E+01
 0.67738773199E+01 0.67896221682E+01 0.68030752130E+01 0.68082903392E+01 0.68030752130E+01
 0.67896221682E+01 0.67738773199E+01 0.67639800238E+01 0.67685582938E+01 0.67956268219E+01
 0.68523426470E+01 0.69452533493E+01 0.70803060938E+01 0.72619745577E+01 0.74913386017E+01
 0.77635738883E+01 0.80658018211E+01 0.83764062970E+01 0.86666411482E+01 0.89046693193E+01
 0.90613023252E+01 0.78401701976E+01 0.78079592610E+01 0.77157978398E+01 0.75761306759E+01
 0.74067542555E+01 0.72273062856E+01 0.70558457744E+01 0.69063834810E+01 0.67878136786E+01
 0.67041646542E+01 0.66556457773E+01 0.66398029907E+01 0.66522591357E+01 0.66869095354E+01
 0.67358609207E+01 0.67896221682E+01 0.68379594536E+01 0.68714641881E+01 0.68834426119E+01
 0.68714641881E+01 0.68379594536E+01 0.67896221682E+01 0.67358609207E+01 0.66869095354E+01
 0.66522591357E+01 0.66398029907E+01 0.66556457773E+01 0.67041646542E+01 0.67878136786E+01
 0.69063834810E+01 0.70558457744E+01 0.72273062856E+01 0.74067542555E+01 0.75761306759E+01
 0.77157978398E+01 0.78079592610E+01 0.71616747865E+01 0.71408379801E+01 0.70812841246E+01
 0.69912930225E+01 0.68828599987E+01 0.67695076508E+01 0.66640937218E+01 0.65771409335E+01
 0.65159769631E+01 0.64846341910E+01 0.64841749046E+01 0.65130313975E+01 0.65671231733E+01
 0.66398225082E+01 0.67220834046E+01 0.68030752130E+01 0.68714641881E+01 0.69171805736E+01
 0.69332511966E+01 0.69171805736E+01 0.68714641881E+01 0.68030752130E+01 0.67220834046E+01
 0.66398225082E+01 0.65671231733E+01 0.65130313975E+01 0.64841749046E+01 0.64846341910E+01
 0.65159769631E+01 0.65771409335E+01 0.66640937218E+01 0.67695076508E+01 0.68828599987E+01
 0.69912930225E+01 0.70812841246E+01 0.71408379801E+01 0.69506875424E+01 0.69332511966E+01
 0.68834426119E+01 0.68082903392E+01 0.67180560754E+01 0.66244540276E+01 0.65388355189E+01
 0.64707583411E+01 0.64271748315E+01 0.64121978089E+01 0.64271748315E+01 0.64707583411E+01
 0.65388355189E+01 0.66244540276E+01 0.67180560754E+01 0.68082903392E+01 0.68834426119E+01
 0.69332511966E+01 0.69506875424E+01 0.69332511966E+01 0.68834426119E+01 0.68082903392E+01
 0.67180560754E+01 0.66244540276E+01 0.65388355189E+01 0.64707583411E+01 0.64271748315E+01
 0.64121978089E+01 0.64271748315E+01 0.64707583411E+01 0.65388355189E+01 0.66244540276E+01
 0.67180560754E+01 0.68082903392E+01 0.68834426119E+01 0.69332511966E+01 0.71616747865E+01
 0.71408379801E+01 0.70812841246E+01 0.69912930225E+01 0.68828599987E+01 0.67695076508E+01
 0.66640937218E+01 0.65771409335E+01 0.65159769631E+01 0.64846341910E+01 0.64841749046E+01
 0.65130313975E+01 0.65671231733E+01 0.66398225082E+01 0.67220834046E+01 0.68030752130E+01
 0.68714641881E+01 0.69171805736E+01 0.69332511966E+01 0.69171805736E+01 0.68714641881E+01
 0.68030752130E+01 0.67220834046E+01 0.66398225082E+01 0.65671231733E+01 0.65130313975E+01
 0.64841749046E+01 0.64846341910E+01 0.65159769631E+01 0.65771409335E+01 0.66640937218E+01
 0.67695076508E+01 0.68828599987E+01 0.69912930225E+01 0.70812841246E+01 0.71408379801E+01
 0.78401701976E+01 0.78079592610E+01 0.77157978398E+01 0.75761306759E+01 0.74067542555E+01
 0.72273062856E+01 0.70558457744E+01 0.69063834810E+01 0.67878136786E+01 0.67041646542E+01
 0.66556457773E+01 0.66398029907E+01 0.66522591357E+01 0.66869095354E+01 0.67358609207E+01
 0.67896221682E+01 0.68379594536E+01 0.68714641881E+01 0.68834426119E+01 0.68714641881E+01
 0.68379594536E+01 0.67896221682E+01 0.67358609207E+01 0.66869095354E+01 0.66522591357E+01
 0.66398029907E+01 0.66556457773E+01 0.67041646542E+01 0.67878136786E+01 0.69063834810E+01
 0.70558457744E+01 0.72273062856E+01 0.74067542555E+01 0.75761306759E+01 0.77157978398E+01
 0.78079592610E+01 0.91159837371E+01 0.90613023252E+01 0.89046693193E+01 0.86666411482E+01
 0.83764062970E+01 0.80658018211E+01 0.77635738883E+01 0.74913386017E+01 0.72619745577E+01
 0.70803060938E+01 0.69452533493E+01 0.68523426470E+01 0.67956268219E+01 0.67685582938E+01
 0.67639800238E+01 0.67738773199E+01 0.67896221682E+01 0.68030752130E+01 0.68082903392E+01
 0.68030752130E+01 0.67896221682E+01 0.67738773199E+01 0.67639800238E+01 0.67685582938E+01
 0.67956268219E+01 0.68523426470E+01 0.69452533493E+01 0.70803060938E+01 0.72619745577E+01
 0.74913386017E+01 0.77635738883E+01 0.80658018211E+01 0.83764062970E+01 0.86666411482E+01
 0.89046693193E+01 0.90613023252E+01 0.11172499457E+02 0.11080664521E+02 0.10817235226E+02
 0.10415699529E+02 0.99236058001E+01 0.93928505415E+01 0.88703767992E+01 0.83915840437E+01
 0.79775899603E+01 0.76361627700E+01 0.73651423503E+01 0.71567409001E+01 0.70012651255E+01
 0.68893773408E+01 0.68127891016E+01 0.67639800238E+01 0.67358609207E+01 0.67220834046E+01
 0.67180560754E+01 0.67220834046E+01 0.67358609207E+01 0.67639800238E+01 0.68127891016E+01
 0.68893773408E+01 0.70012651255E+01 0.71567409001E+01 0.73651423503E+01 0.76361627700E+01
 0.79775899603E+01 0.83915840437E+01 0.88703767992E+01 0.93928505415E+01 0.99236058001E+01
 0.10415699529E+02 0.10817235226E+02 0.11080664521E+02 0.14302711999E+02 0.14141883312E+02
 0.13685868888E+02 0.13005148693E+02 0.12191273408E+02 0.11329312088E+02 0.10478767481E+02
 0.96887058292E+01 0.89949005284E+01 0.84125869482E+01 0.79406318031E+01 0.75676206978E+01
 0.72778805263E+01 0.70560211730E+01 0.68893773408E+01 0.67685582938E+01 0.66869095354E+01
 0.66398225082E+01 0.66244540276E+01 0.66398225082E+01 0.66869095354E+01 0.67685582938E+01
 0.68893773408E+01 0.70560211730E+01 0.72778805263E+01 0.75676206978E+01 0.79406318031E+01
 0.84125869482E+01 0.89949005284E+01 0.96887058292E+01 0.10478767481E+02 0.11329312088E+02
 0.12191273408E+02 0.13005148693E+02 0.13685868888E+02 0.14141883312E+02 0.19189606641E+02
 0.18906547328E+02 0.18105682557E+02 0.16916821919E+02 0.15512446952E+02 0.14061074075E+02
 0.12689224539E+02 0.11461164733E+02 0.10383082274E+02 0.94641100067E+01 0.87103329608E+01
 0.81097629245E+01 0.76403834320E+01 0.72778805263E+01 0.70012651255E+01 0.67956268219E+01
 0.66522591357E+01 0.65671231733E+01 0.65388355189E+01 0.65671231733E+01 0.66522591357E+01
 0.67956268219E+01 0.70012651255E+01 0.72778805263E+01 0.76403834320E+01 0.81097629245E+01
 0.87103329608E+01 0.94641100067E+01 0.10383082274E+02 0.11461164733E+02 0.12689224539E+02
 0.14061074075E+02 0.15512446952E+02 0.16916821919E+02 0.18105682557E+02 0.18906547328E+02
 0.26243009260E+02 0.25790405610E+02 0.24507794129E+02 0.22597950404E+02 0.20333022355E+02
 0.17985476058E+02 0.15772788659E+02 0.13828409702E+02 0.12196778897E+02 0.10843078492E+02
 0.97190150042E+01 0.88157638606E+01 0.81097629245E+01 0.75676206978E+01 0.71567409001E+01
 0.68523426470E+01 0.66398029907E+01 0.65130313975E+01 0.64707583411E+01 0.65130313975E+01
 0.66398029907E+01 0.68523426470E+01 0.71567409001E+01 0.75676206978E+01 0.81097629245E+01
 0.88157638606E+01 0.97190150042E+01 0.10843078492E+02 0.12196778897E+02 0.13828409702E+02
 0.15772788659E+02 0.17985476058E+02 0.20333022355E+02 0.22597950404E+02 0.24507794129E+02
 0.25790405610E+02 0.35183810267E+02 0.34538599168E+02 0.32706422455E+02 0.29965742404E+02
 0.26689784142E+02 0.23254308787E+02 0.19968056905E+02 0.17040273596E+02 0.14577236969E+02
 0.12590130924E+02 0.11003295327E+02 0.97190150042E+01 0.87103329608E+01 0.79406318031E+01
 0.73651423503E+01 0.69452533493E+01 0.66556457773E+01 0.64841749046E+01 0.64271748315E+01
 0.64841749046E+01 0.66556457773E+01 0.69452533493E+01 0.73651423503E+01 0.79406318031E+01
 0.87103329608E+01 0.97190150042E+01 0.11003295327E+02 0.12590130924E+02 0.14577236969E+02
 0.17040273596E+02 0.19968056905E+02 0.23254308787E+02 0.26689784142E+02 0.29965742404E+02
 0.32706422455E+02 0.34538599168E+02 0.45088498211E+02 0.44261112696E+02 0.41909228246E+02
 0.38380439554E+02 0.34133262157E+02 0.29621292621E+02 0.25216361105E+02 0.21185015734E+02
 0.17697382647E+02 0.14836178332E+02 0.12590130924E+02 0.10843078492E+02 0.94641100067E+01
 0.84125869482E+01 0.76361627700E+01 0.70803060938E+01 0.67041646542E+01 0.64846341910E+01
 0.64121978089E+01 0.64846341910E+01 0.67041646542E+01 0.70803060938E+01 0.76361627700E+01
 0.84125869482E+01 0.94641100067E+01 0.10843078492E+02 0.12590130924E+02 0.14836178332E+02
 0.17697382647E+02 0.21185015734E+02 0.25216361105E+02 0.29621292621E+02 0.34133262157E+02
 0.38380439554E+02 0.41909228246E+02 0.44261112696E+02 0.54828280478E+02 0.53854154301E+02
 0.51088318783E+02 0.46941460286E+02 0.41936653414E+02 0.36565111740E+02 0.31209005038E+02
 0.26144982551E+02 0.21585224191E+02 0.17697382647E+02 0.14577236969E+02 0.12196778897E+02
 0.10383082274E+02 0.89949005284E+01 0.79775899603E+01 0.72619745577E+01 0.67878136786E+01
 0.65159769631E+01 0.64271748315E+01 0.65159769631E+01 0.67878136786E+01 0.72619745577E+01
 0.79775899603E+01 0.89949005284E+01 0.10383082274E+02 0.12196778897E+02 0.14577236969E+02
 0.17697382647E+02 0.21585224191E+02 0.26144982551E+02 0.31209005038E+02 0.36565111740E+02
 0.41936653414E+02 0.46941460286E+02 0.51088318783E+02 0.53854154301E+02 0.63677583425E+02
 0.62592423395E+02 0.59524934940E+02 0.54956986131E+02 0.49470255578E+02 0.43559842250E+02
 0.37558111027E+02 0.31684281021E+02 0.26144982551E+02 0.21185015734E+02 0.17040273596E+02
 0.13828409702E+02 0.11461164733E+02 0.96887058292E+01 0.83915840437E+01 0.74913386017E+01
 0.69063834810E+01 0.65771409335E+01 0.64707583411E+01 0.65771409335E+01 0.69063834810E+01
 0.74913386017E+01 0.83915840437E+01 0.96887058292E+01 0.11461164733E+02 0.13828409702E+02
 0.17040273596E+02 0.21185015734E+02 0.26144982551E+02 0.31684281021E+02 0.37558111027E+02
 0.43559842250E+02 0.49470255578E+02 0.54956986131E+02 0.59524934940E+02 0.62592423395E+02
 0.71693500133E+02 0.70505617735E+02 0.67175088814E+02 0.62286040440E+02 0.56503203266E+02
 0.50319728729E+02 0.43973811278E+02 0.37558111027E+02 0.31209005038E+02 0.25216361105E+02
 0.19968056905E+02 0.15772788659E+02 0.12689224539E+02 0.10478767481E+02 0.88703767992E+01
 0.77635738883E+01 0.70558457744E+01 0.66640937218E+01 0.65388355189E+01 0.66640937218E+01
 0.70558457744E+01 0.77635738883E+01 0.88703767992E+01 0.10478767481E+02 0.12689224539E+02
 0.15772788659E+02 0.19968056905E+02 0.25216361105E+02 0.31209005038E+02 0.37558111027E+02
 0.43973811278E+02 0.50319728729E+02 0.56503203266E+02 0.62286040440E+02 0.67175088814E+02
 0.70505617735E+02 0.79568130545E+02 0.78245659282E+02 0.74576785038E+02 0.69298479527E+02
 0.63213425682E+02 0.56843057873E+02 0.50319728729E+02 0.43559842250E+02 0.36565111740E+02
 0.29621292621E+02 0.23254308787E+02 0.17985476058E+02 0.14061074075E+02 0.11329312088E+02
 0.93928505415E+01 0.80658018211E+01 0.72273062856E+01 0.67695076508E+01 0.66244540276E+01
 0.67695076508E+01 0.72273062856E+01 0.80658018211E+01 0.93928505415E+01 0.11329312088E+02
 0.14061074075E+02 0.17985476058E+02 0.23254308787E+02 0.29621292621E+02 0.36565111740E+02
 0.43559842250E+02 0.50319728729E+02 0.56843057873E+02 0.63213425682E+02 0.69298479527E+02
 0.74576785038E+02 0.78245659282E+02 0.87997942893E+02 0.86481684599E+02 0.82316995632E+02
 0.76446668232E+02 0.69877465242E+02 0.63213425682E+02 0.56503203266E+02 0.49470255578E+02
 0.41936653414E+02 0.34133262157E+02 0.26689784142E+02 0.20333022355E+02 0.15512446952E+02
 0.12191273408E+02 0.99236058001E+01 0.83764062970E+01 0.74067542555E+01 0.68828599987E+01
 0.67180560754E+01 0.68828599987E+01 0.74067542555E+01 0.83764062970E+01 0.99236058001E+01
 0.12191273408E+02 0.15512446952E+02 0.20333022355E+02 0.26689784142E+02 0.34133262157E+02
 0.41936653414E+02 0.49470255578E+02 0.56503203266E+02 0.63213425682E+02 0.69877465242E+02
 0.76446668232E+02 0.82316995632E+02 0.86481684599E+02 0.96963649289E+02 0.95201470108E+02
 0.90395327462E+02 0.83724766343E+02 0.76446668232E+02 0.69298479527E+02 0.62286040440E+02
 0.54956986131E+02 0.46941460286E+02 0.38380439554E+02 0.29965742404E+02 0.22597950404E+02
 0.16916821919E+02 0.13005148693E+02 0.10415699529E+02 0.86666411482E+01 0.75761306759E+01
 0.69912930225E+01 0.68082903392E+01 0.69912930225E+01 0.75761306759E+01 0.86666411482E+01
 0.10415699529E+02 0.13005148693E+02 0.16916821919E+02 0.22597950404E+02 0.29965742404E+02
 0.38380439554E+02 0.46941460286E+02 0.54956986131E+02 0.62286040440E+02 0.69298479527E+02
 0.76446668232E+02 0.83724766343E+02 0.90395327462E+02 0.95201470108E+02 0.10541107300E+03
 0.10339646492E+03 0.97923136158E+02 0.90395327462E+02 0.82316995632E+02 0.74576785038E+02
 0.67175088814E+02 0.59524934940E+02 0.51088318783E+02 0.41909228246E+02 0.32706422455E+02
 0.24507794129E+02 0.18105682557E+02 0.13685868888E+02 0.10817235226E+02 0.89046693193E+01
 0.77157978398E+01 0.70812841246E+01 0.68834426119E+01 0.70812841246E+01 0.77157978398E+01
 0.89046693193E+01 0.10817235226E+02 0.13685868888E+02 0.18105682557E+02 0.24507794129E+02
 0.32706422455E+02 0.41909228246E+02 0.51088318783E+02 0.59524934940E+02 0.67175088814E+02
 0.74576785038E+02 0.82316995632E+02 0.90395327462E+02 0.97923136158E+02 0.10339646492E+03
 0.11158648266E+03 0.10938024662E+03 0.10339646492E+03 0.95201470108E+02 0.86481684599E+02
 0.78245659282E+02 0.70505617735E+02 0.62592423395E+02 0.53854154301E+02 0.44261112696E+02
 0.34538599168E+02 0.25790405610E+02 0.18906547328E+02 0.14141883312E+02 0.11080664521E+02
 0.90613023252E+01 0.78079592610E+01 0.71408379801E+01 0.69332511966E+01 0.71408379801E+01
 0.78079592610E+01 0.90613023252E+01 0.11080664521E+02 0.14141883312E+02 0.18906547328E+02
 0.25790405610E+02 0.34538599168E+02 0.44261112696E+02 0.53854154301E+02 0.62592423395E+02
 0.70505617735E+02 0.78245659282E+02 0.86481684599E+02 0.95201470108E+02 0.10339646492E+03
 0.10938024662E+03 0.11158648266E+03 0.10938024662E+03 0.10339646492E+03 0.95201470108E+02
 0.86481684599E+02 0.78245659282E+02 0.70505617735E+02 0.62592423395E+02 0.53854154301E+02
 0.44261112696E+02 0.34538599168E+02 0.25790405610E+02 0.18906547328E+02 0.14141883312E+02
 0.11080664521E+02 0.90613023252E+01 0.78079592610E+01 0.71408379801E+01 0.69332511966E+01
 0.71408379801E+01 0.78079592610E+01 0.90613023252E+01 0.11080664521E+02 0.14141883312E+02
 0.18906547328E+02 0.25790405610E+02 0.34538599168E+02 0.44261112696E+02 0.53854154301E+02
 0.62592423395E+02 0.70505617735E+02 0.78245659282E+02 0.86481684599E+02 0.95201470108E+02
 0.10339646492E+03 0.10938024662E+03 0.10938024662E+03 0.10724293903E+03 0.10144331316E+03
 0.93490606467E+02 0.85006473811E+02 0.76955929900E+02 0.69345059625E+02 0.61531647335E+02
 0.52902634687E+02 0.43454300660E+02 0.33910876375E+02 0.25351251391E+02 0.18632680144E+02
 0.13986609222E+02 0.10991897127E+02 0.90088681485E+01 0.77774708300E+01 0.71214499645E+01
 0.69171805736E+01 0.71214499645E+01 0.77774708300E+01 0.90088681485E+01 0.10991897127E+02
 0.13986609222E+02 0.18632680144E+02 0.25351251391E+02 0.33910876375E+02 0.43454300660E+02
 0.52902634687E+02 0.61531647335E+02 0.69345059625E+02 0.76955929900E+02 0.85006473811E+02
 0.93490606467E+02 0.10144331316E+03 0.10724293903E+03 0.10339646492E+03 0.10144331316E+03
 0.96133918751E+02 0.88821156654E+02 0.80951254358E+02 0.73375000391E+02 0.66088994430E+02
 0.58531780440E+02 0.50200366188E+02 0.41160717652E+02 0.32128406568E+02 0.24106879907E+02
 0.17857939366E+02 0.13546395137E+02 0.10737442685E+02 0.88588540024E+01 0.76904239349E+01
 0.70662263226E+01 0.68714641881E+01 0.70662263226E+01 0.76904239349E+01 0.88588540024E+01
 0.10737442685E+02 0.13546395137E+02 0.17857939366E+02 0.24106879907E+02 0.32128406568E+02
 0.41160717652E+02 0.50200366188E+02 0.58531780440E+02 0.66088994430E+02 0.73375000391E+02
 0.80951254358E+02 0.88821156654E+02 0.96133918751E+02 0.10144331316E+03 0.95201470108E+02
 0.93490606467E+02 0.88821156654E+02 0.82329541720E+02 0.75224868386E+02 0.68214440755E+02
 0.61302968368E+02 0.54060825370E+02 0.46147106822E+02 0.37718933297E+02 0.29462223042E+02
 0.22254320460E+02 0.16708150156E+02 0.12889337606E+02 0.10350100523E+02 0.86314252389E+01
 0.75590706339E+01 0.69833593657E+01 0.68030752130E+01 0.69833593657E+01 0.75590706339E+01
 0.86314252389E+01 0.10350100523E+02 0.12889337606E+02 0.16708150156E+02 0.22254320460E+02
 0.29462223042E+02 0.37718933297E+02 0.46147106822E+02 0.54060825370E+02 0.61302968368E+02
 0.68214440755E+02 0.75224868386E+02 0.82329541720E+02 0.88821156654E+02 0.93490606467E+02
 0.86481684599E+02 0.85006473811E+02 0.80951254358E+02 0.75224868386E+02 0.68797074687E+02
 0.62249536292E+02 0.55631489704E+02 0.48684733879E+02 0.41252698770E+02 0.33575826395E+02
 0.26275563779E+02 0.20057824533E+02 0.15350258974E+02 0.12103642618E+02 0.98762892385E+01
 0.83550793263E+01 0.74008100355E+01 0.68846041376E+01 0.67220834046E+01 0.68846041376E+01
 0.74008100355E+01 0.83550793263E+01 0.98762892385E+01 0.12103642618E+02 0.15350258974E+02
 0.20057824533E+02 0.26275563779E+02 0.33575826395E+02 0.41252698770E+02 0.48684733879E+02
 0.55631489704E+02 0.62249536292E+02 0.68797074687E+02 0.75224868386E+02 0.80951254358E+02
 0.85006473811E+02 0.78245659282E+02 0.76955929900E+02 0.73375000391E+02 0.68214440755E+02
 0.62249536292E+02 0.55985465059E+02 0.49555073599E+02 0.42887319872E+02 0.35997179389E+02
 0.29173929609E+02 0.22934064354E+02 0.17781629018E+02 0.13946952285E+02 0.11270818405E+02
 0.93664441109E+01 0.80606961522E+01 0.72346602961E+01 0.67830461175E+01 0.66398225082E+01
 0.67830461175E+01 0.72346602961E+01 0.80606961522E+01 0.93664441109E+01 0.11270818405E+02
 0.13946952285E+02 0.17781629018E+02 0.22934064354E+02 0.29173929609E+02 0.35997179389E+02
 0.42887319872E+02 0.49555073599E+02 0.55985465059E+02 0.62249536292E+02 0.68214440755E+02
 0.73375000391E+02 0.76955929900E+02 0.70505617735E+02 0.69345059625E+02 0.66088994430E+02
 0.61302968368E+02 0.55631489704E+02 0.49555073599E+02 0.43310501993E+02 0.36996601844E+02
 0.30755631102E+02 0.24876472265E+02 0.19737985327E+02 0.15636172902E+02 0.12619753817E+02
 0.10448475548E+02 0.88659415529E+01 0.77759427603E+01 0.70779265550E+01 0.66909667075E+01
 0.65671231733E+01 0.66909667075E+01 0.70779265550E+01 0.77759427603E+01 0.88659415529E+01
 0.10448475548E+02 0.12619753817E+02 0.15636172902E+02 0.19737985327E+02 0.24876472265E+02
 0.30755631102E+02 0.36996601844E+02 0.43310501993E+02 0.49555073599E+02 0.55631489704E+02
 0.61302968368E+02 0.66088994430E+02 0.69345059625E+02 0.62592423395E+02 0.61531647335E+02
 0.58531780440E+02 0.54060825370E+02 0.48684733879E+02 0.42887319872E+02 0.36996601844E+02
 0.31232138194E+02 0.25800825697E+02 0.20944035487E+02 0.16890460941E+02 0.13749900985E+02
 0.11429459548E+02 0.96856663843E+01 0.84087993047E+01 0.75214596424E+01 0.69439125626E+01
 0.66183298866E+01 0.65130313975E+01 0.66183298866E+01 0.69439125626E+01 0.75214596424E+01
 0.84087993047E+01 0.96856663843E+01 0.11429459548E+02 0.13749900985E+02 0.16890460941E+02
 0.20944035487E+02 0.25800825697E+02 0.31232138194E+02 0.36996601844E+02 0.42887319872E+02
 0.48684733879E+02 0.54060825370E+02 0.58531780440E+02 0.61531647335E+02 0.53854154301E+02
 0.52902634687E+02 0.50200366188E+02 0.46147106822E+02 0.41252698770E+02 0.35997179389E+02
 0.30755631102E+02 0.25800825697E+02 0.21341894954E+02 0.17542547787E+02 0.14493924836E+02
 0.12164438428E+02 0.10382310163E+02 0.90168525013E+01 0.80151889116E+01 0.73094701793E+01
 0.68410475074E+01 0.65721046740E+01 0.64841749046E+01 0.65721046740E+01 0.68410475074E+01
 0.73094701793E+01 0.80151889116E+01 0.90168525013E+01 0.10382310163E+02 0.12164438428E+02
 0.14493924836E+02 0.17542547787E+02 0.21341894954E+02 0.25800825697E+02 0.30755631102E+02
 0.35997179389E+02 0.41252698770E+02 0.46147106822E+02 0.50200366188E+02 0.52902634687E+02
 0.44261112696E+02 0.43454300660E+02 0.41160717652E+02 0.37718933297E+02 0.33575826395E+02
 0.29173929609E+02 0.24876472265E+02 0.20944035487E+02 0.17542547787E+02 0.14751542783E+02