   2   2   0   0
  0.1489550E+02  0.3100000E-09  0.3100000E-09  0.3100000E-09  0.5000000E-15
  1.000000000000000E-004
  CAR 
 unknown system                          
     25.63788076     -4.23465214  301      7.88617583      1.00000000
     -4.235  0.0000E+00  0.0000E+00
     -4.135  0.0000E+00  0.0000E+00
     -4.036  0.0000E+00  0.0000E+00
     -3.936  0.0000E+00  0.0000E+00
     -3.836  0.0000E+00  0.0000E+00
     -3.737  0.0000E+00  0.0000E+00
     -3.637  0.0000E+00  0.0000E+00
     -3.538  0.0000E+00  0.0000E+00
     -3.438  0.0000E+00  0.0000E+00
     -3.338  0.0000E+00  0.0000E+00
     -3.239  0.0000E+00  0.0000E+00
     -3.139  0.0000E+00  0.0000E+00
     -3.040  0.0000E+00  0.0000E+00
     -2.940  0.0000E+00  0.0000E+00
     -2.841  0.0000E+00  0.0000E+00
     -2.741  0.0000E+00  0.0000E+00
     -2.641  0.0000E+00  0.0000E+00
     -2.542  0.0000E+00  0.0000E+00
     -2.442  0.0000E+00  0.0000E+00
     -2.343  0.0000E+00  0.0000E+00
     -2.243  0.0000E+00  0.0000E+00
     -2.144  0.4955E-02  0.1504E-03
     -2.044  0.2171E-01  0.1380E-02
     -1.944  0.5009E-01  0.4868E-02
     -1.845  0.7455E-01  0.1118E-01
     -1.745  0.8661E-01  0.1930E-01
     -1.646  0.8957E-01  0.2808E-01
     -1.546  0.9637E-01  0.3729E-01
     -1.447  0.1082E+00  0.4744E-01
     -1.347  0.1223E+00  0.5891E-01
     -1.247  0.1371E+00  0.7182E-01
     -1.148  0.1517E+00  0.8622E-01
     -1.048  0.1613E+00  0.1019E+00
     -0.949  0.1673E+00  0.1182E+00
     -0.849  0.1773E+00  0.1353E+00
     -0.750  0.1898E+00  0.1536E+00
     -0.650  0.2015E+00  0.1731E+00
     -0.550  0.2132E+00  0.1937E+00
     -0.451  0.2251E+00  0.2155E+00
     -0.351  0.2373E+00  0.2385E+00
     -0.252  0.2533E+00  0.2629E+00
     -0.152  0.2742E+00  0.2891E+00
     -0.052  0.2984E+00  0.3176E+00
      0.047  0.3231E+00  0.3486E+00
      0.147  0.3469E+00  0.3819E+00
      0.246  0.3705E+00  0.4177E+00
      0.346  0.3942E+00  0.4557E+00
      0.445  0.4382E+00  0.4967E+00
      0.545  0.5087E+00  0.5437E+00
      0.645  0.5837E+00  0.5982E+00
      0.744  0.7055E+00  0.6612E+00
      0.844  0.1188E+01  0.7579E+00
      0.943  0.1625E+01  0.9050E+00
      1.043  0.1653E+01  0.1070E+01
      1.142  0.1655E+01  0.1230E+01
      1.242  0.1898E+01  0.1408E+01
      1.342  0.1525E+01  0.1634E+01
      1.441  0.1660E+01  0.1793E+01
      1.541  0.1775E+01  0.1964E+01
      1.640  0.1981E+01  0.2147E+01
      1.740  0.2179E+01  0.2361E+01
      1.839  0.2610E+01  0.2596E+01
      1.939  0.2988E+01  0.2883E+01
      2.039  0.3053E+01  0.3188E+01
      2.138  0.3618E+01  0.3506E+01
      2.238  0.2509E+01  0.3808E+01
      2.337  0.1640E+01  0.4008E+01
      2.437  0.1165E+01  0.4146E+01
      2.536  0.8842E+00  0.4247E+01
      2.636  0.2754E+01  0.4486E+01
      2.736  0.3445E+01  0.4786E+01
      2.835  0.4545E+01  0.5229E+01
      2.935  0.3912E+01  0.5652E+01
      3.034  0.4195E+01  0.6062E+01
      3.134  0.4973E+01  0.6518E+01
      3.233  0.3276E+01  0.7001E+01
      3.333  0.2034E+01  0.7248E+01
      3.433  0.1785E+01  0.7436E+01
      3.532  0.1787E+01  0.7617E+01
      3.632  0.2126E+01  0.7813E+01
      3.731  0.3248E+01  0.8068E+01
      3.831  0.3453E+01  0.8399E+01
      3.931  0.4335E+01  0.8784E+01
      4.030  0.6056E+01  0.9271E+01
      4.130  0.3418E+01  0.9751E+01
      4.229  0.2566E+01  0.1005E+02
      4.329  0.2409E+01  0.1030E+02
      4.428  0.2146E+01  0.1053E+02
      4.528  0.1956E+01  0.1073E+02
      4.628  0.1609E+01  0.1091E+02
      4.727  0.1524E+01  0.1107E+02
      4.827  0.1428E+01  0.1121E+02
      4.926  0.1315E+01  0.1135E+02
      5.026  0.1189E+01  0.1147E+02
      5.125  0.1050E+01  0.1159E+02
      5.225  0.1234E+01  0.1170E+02
      5.325  0.1024E+01  0.1181E+02
      5.424  0.1157E+01  0.1192E+02
      5.524  0.1376E+01  0.1205E+02
      5.623  0.1731E+01  0.1220E+02
      5.723  0.2091E+01  0.1239E+02
      5.822  0.2358E+01  0.1261E+02
      5.922  0.2715E+01  0.1286E+02
      6.022  0.3155E+01  0.1315E+02
      6.121  0.3681E+01  0.1349E+02
      6.221  0.3846E+01  0.1387E+02
      6.320  0.3770E+01  0.1425E+02
      6.420  0.3710E+01  0.1463E+02
      6.519  0.4636E+01  0.1500E+02
      6.619  0.3792E+01  0.1542E+02
      6.719  0.3564E+01  0.1580E+02
      6.818  0.3429E+01  0.1615E+02
      6.918  0.3014E+01  0.1646E+02
      7.017  0.4866E+01  0.1681E+02
      7.117  0.5262E+01  0.1729E+02
      7.216  0.6790E+01  0.1819E+02
      7.316  0.3626E+01  0.1869E+02
      7.416  0.3053E+01  0.1903E+02
      7.515  0.2477E+01  0.1931E+02
      7.615  0.1497E+01  0.1950E+02
      7.714  0.2264E+01  0.1967E+02
      7.814  0.1704E+01  0.1988E+02
      7.914  0.1665E+01  0.2005E+02
      8.013  0.1615E+01  0.2021E+02
      8.113  0.1731E+01  0.2037E+02
      8.212  0.1971E+01  0.2057E+02
      8.312  0.1560E+01  0.2074E+02
      8.411  0.1406E+01  0.2089E+02
      8.511  0.1064E+01  0.2101E+02
      8.611  0.8292E+00  0.2110E+02
      8.710  0.7083E+00  0.2118E+02
      8.810  0.7105E+00  0.2125E+02
      8.909  0.7012E+00  0.2132E+02
      9.009  0.6426E+00  0.2139E+02
      9.108  0.5822E+00  0.2145E+02
      9.208  0.5570E+00  0.2150E+02
      9.308  0.5637E+00  0.2156E+02
      9.407  0.5781E+00  0.2162E+02
      9.507  0.5974E+00  0.2167E+02
      9.606  0.5885E+00  0.2173E+02
      9.706  0.5783E+00  0.2179E+02
      9.805  0.5682E+00  0.2185E+02
      9.905  0.5582E+00  0.2190E+02
     10.005  0.5478E+00  0.2196E+02
     10.104  0.5404E+00  0.2201E+02
     10.204  0.5385E+00  0.2207E+02
     10.303  0.5363E+00  0.2212E+02
     10.403  0.5340E+00  0.2217E+02
     10.502  0.5317E+00  0.2223E+02
     10.602  0.5294E+00  0.2228E+02
     10.702  0.5116E+00  0.2233E+02
     10.801  0.5096E+00  0.2238E+02
     10.901  0.5072E+00  0.2243E+02
     11.000  0.5044E+00  0.2248E+02
     11.100  0.5012E+00  0.2253E+02
     11.199  0.4991E+00  0.2258E+02
     11.299  0.4972E+00  0.2263E+02
     11.399  0.5050E+00  0.2268E+02
     11.498  0.5148E+00  0.2273E+02
     11.598  0.5072E+00  0.2279E+02
     11.697  0.5002E+00  0.2284E+02
     11.797  0.4970E+00  0.2289E+02
     11.897  0.4907E+00  0.2293E+02
     11.996  0.4852E+00  0.2298E+02
     12.096  0.4764E+00  0.2303E+02
     12.195  0.4678E+00  0.2308E+02
     12.295  0.4673E+00  0.2312E+02
     12.394  0.4690E+00  0.2317E+02
     12.494  0.4714E+00  0.2322E+02
     12.594  0.4741E+00  0.2326E+02
     12.693  0.4841E+00  0.2331E+02
     12.793  0.4870E+00  0.2336E+02
     12.892  0.4894E+00  0.2341E+02
     12.992  0.6307E+00  0.2346E+02
     13.091  0.5553E+00  0.2352E+02
     13.191  0.4873E+00  0.2357E+02
     13.291  0.6106E+00  0.2363E+02
     13.390  0.6042E+00  0.2369E+02
     13.490  0.5345E+00  0.2375E+02
     13.589  0.3036E+00  0.2379E+02
     13.689  0.2742E+00  0.2382E+02
     13.788  0.2453E+00  0.2384E+02
     13.888  0.2169E+00  0.2387E+02
     13.988  0.1827E+00  0.2389E+02
     14.087  0.2168E+00  0.2390E+02
     14.187  0.2498E+00  0.2393E+02
     14.286  0.2947E+00  0.2395E+02
     14.386  0.3460E+00  0.2399E+02
     14.485  0.4104E+00  0.2402E+02
     14.585  0.5938E+00  0.2407E+02
     14.685  0.7364E+00  0.2414E+02
     14.784  0.7512E+00  0.2421E+02
     14.884  0.8122E+00  0.2429E+02
     14.983  0.8612E+00  0.2437E+02
     15.083  0.1170E+01  0.2447E+02
     15.182  0.1100E+01  0.2458E+02
     15.282  0.9417E+00  0.2468E+02
     15.382  0.1002E+01  0.2478E+02
     15.481  0.8790E+00  0.2488E+02
     15.581  0.8028E+00  0.2496E+02
     15.680  0.8092E+00  0.2504E+02
     15.780  0.8245E+00  0.2513E+02
     15.880  0.8244E+00  0.2521E+02
     15.979  0.7988E+00  0.2529E+02
     16.079  0.7181E+00  0.2537E+02
     16.178  0.6996E+00  0.2544E+02
     16.278  0.6905E+00  0.2551E+02
     16.377  0.6751E+00  0.2557E+02
     16.477  0.6616E+00  0.2564E+02
     16.577  0.6500E+00  0.2571E+02
     16.676  0.6447E+00  0.2577E+02
     16.776  0.6359E+00  0.2583E+02
     16.875  0.5914E+00  0.2590E+02
     16.975  0.5664E+00  0.2596E+02
     17.074  0.5621E+00  0.2601E+02
     17.174  0.5554E+00  0.2607E+02
     17.274  0.5484E+00  0.2612E+02
     17.373  0.5421E+00  0.2618E+02
     17.473  0.5425E+00  0.2623E+02
     17.572  0.5431E+00  0.2628E+02
     17.672  0.5309E+00  0.2634E+02
     17.771  0.5318E+00  0.2639E+02
     17.871  0.5345E+00  0.2644E+02
     17.971  0.5444E+00  0.2650E+02
     18.070  0.6052E+00  0.2655E+02
     18.170  0.5307E+00  0.2661E+02
     18.269  0.5286E+00  0.2666E+02
     18.369  0.5219E+00  0.2672E+02
     18.468  0.5112E+00  0.2677E+02
     18.568  0.5043E+00  0.2682E+02
     18.668  0.4966E+00  0.2687E+02
     18.767  0.4890E+00  0.2692E+02
     18.867  0.4826E+00  0.2697E+02
     18.966  0.4777E+00  0.2701E+02
     19.066  0.4734E+00  0.2706E+02
     19.165  0.4698E+00  0.2711E+02
     19.265  0.4667E+00  0.2716E+02
     19.365  0.4644E+00  0.2720E+02
     19.464  0.4626E+00  0.2725E+02
     19.564  0.4800E+00  0.2729E+02
     19.663  0.4703E+00  0.2734E+02
     19.763  0.4599E+00  0.2739E+02
     19.863  0.4483E+00  0.2743E+02
     19.962  0.4382E+00  0.2748E+02
     20.062  0.3801E+00  0.2752E+02
     20.161  0.3659E+00  0.2755E+02
     20.261  0.3524E+00  0.2759E+02
     20.360  0.3384E+00  0.2762E+02
     20.460  0.3238E+00  0.2766E+02
     20.560  0.3088E+00  0.2769E+02
     20.659  0.2791E+00  0.2772E+02
     20.759  0.2633E+00  0.2775E+02
     20.858  0.2473E+00  0.2777E+02
     20.958  0.2309E+00  0.2780E+02
     21.057  0.2153E+00  0.2782E+02
     21.157  0.2045E+00  0.2784E+02
     21.257  0.1855E+00  0.2786E+02
     21.356  0.1678E+00  0.2788E+02
     21.456  0.1514E+00  0.2789E+02
     21.555  0.1369E+00  0.2791E+02
     21.655  0.1218E+00  0.2792E+02
     21.754  0.1086E+00  0.2793E+02
     21.854  0.9695E-01  0.2794E+02
     21.954  0.8695E-01  0.2795E+02
     22.053  0.7858E-01  0.2796E+02
     22.153  0.7182E-01  0.2796E+02
     22.252  0.5273E-01  0.2797E+02
     22.352  0.4680E-01  0.2798E+02
     22.451  0.4117E-01  0.2798E+02
     22.551  0.3583E-01  0.2798E+02
     22.651  0.3078E-01  0.2799E+02
     22.750  0.2602E-01  0.2799E+02
     22.850  0.2156E-01  0.2799E+02
     22.949  0.1775E-01  0.2799E+02
     23.049  0.1457E-01  0.2800E+02
     23.149  0.1160E-01  0.2800E+02
     23.248  0.8833E-02  0.2800E+02
     23.348  0.6276E-02  0.2800E+02
     23.447  0.3925E-02  0.2800E+02
     23.547  0.1780E-02  0.2800E+02
     23.646  0.0000E+00  0.2800E+02
     23.746  0.0000E+00  0.2800E+02
     23.846  0.0000E+00  0.2800E+02
     23.945  0.0000E+00  0.2800E+02
     24.045  0.0000E+00  0.2800E+02
     24.144  0.0000E+00  0.2800E+02
     24.244  0.0000E+00  0.2800E+02
     24.343  0.0000E+00  0.2800E+02
     24.443  0.0000E+00  0.2800E+02
     24.543  0.0000E+00  0.2800E+02
     24.642  0.0000E+00  0.2800E+02
     24.742  0.0000E+00  0.2800E+02
     24.841  0.0000E+00  0.2800E+02
     24.941  0.0000E+00  0.2800E+02
     25.040  0.0000E+00  0.2800E+02
     25.140  0.0000E+00  0.2800E+02
     25.240  0.0000E+00  0.2800E+02
     25.339  0.0000E+00  0.2800E+02
     25.439  0.0000E+00  0.2800E+02
     25.538  0.0000E+00  0.2800E+02
     25.638  0.0000E+00  0.2800E+02
