    2    2    1    1
  0.1489550E+02  0.3100000E-09  0.3100000E-09  0.3100000E-09  0.5000000E-15
  1.000000000000000E-004
  CAR 
 unknown system                          
     20     35     14
 
  0.0000000E+00  0.0000000E+00  0.0000000E+00  0.1371742E-02
    1       -2.234652   1.000000
    2        1.211321   1.000000
    3        1.211321   1.000000
    4        4.063155   1.000000
    5        4.063155   1.000000
    6        4.063155   1.000000
    7        6.789953   1.000000
    8        6.789953   1.000000
    9        8.469148   0.048096
   10        8.469148  -0.235749
   11        8.469148   0.000000
   12       15.828655   0.000000
   13       15.828655   0.000000
   14       15.828655   0.000000
 
  0.1111111E+00  0.0000000E+00  0.0000000E+00  0.8230453E-02
    1       -1.968270   1.000000
    2        1.341238   1.000000
    3        1.392499   1.000000
    4        4.067800   1.000000
    5        4.067800   1.000000
    6        4.171730   1.000000
    7        6.562711   1.000000
    8        6.874846   1.000000
    9        8.002453   0.783837
   10        8.002453   0.588428
   11        8.302044  -0.000852
   12       14.455365   0.000000
   13       16.607169   0.000000
   14       16.607169   0.000000
 
  0.2222222E+00  0.0000000E+00  0.0000000E+00  0.8230453E-02
    1       -1.201476   1.000000
    2        1.724359   1.000000
    3        1.850862   1.000000
    4        4.110989   1.000000
    5        4.110989   1.000000
    6        4.490570   1.000000
    7        5.939668   1.000000
    8        7.011411   1.000000
    9        7.011411   1.000678
   10        7.097864   1.029817
   11        7.837525   0.281516
   12       12.036614   0.000000
   13       18.518720   0.000000
   14       18.518720   0.000000
 
  0.3333333E+00  0.0000000E+00  0.0000000E+00  0.8230453E-02
    1       -0.045098   1.000000
    2        2.291091   1.000000
    3        2.339724   1.000000
    4        4.262884   1.000000
    5        4.262884   1.000000
    6        4.998216   1.000000
    7        5.062013   1.000000
    8        5.998177   1.000000
    9        5.998177   1.000000
   10        7.168333   1.000000
   11        7.378783   1.086261
   12        9.820372   0.000000
   13       21.010475   0.000000
   14       21.010476   0.000000
 
  0.4444444E+00  0.0000000E+00  0.0000000E+00  0.8230453E-02
    1        1.250234   1.000000
    2        2.182856   1.000000
    3        3.148539   1.000000
    4        4.087687   1.000000
    5        4.599615   1.000000
    6        4.599615   1.000000
    7        5.174368   1.000000
    8        5.174368   1.000000
    9        5.656427   1.000000
   10        6.406939   1.000000
   11        7.692732   1.000000
   12        8.339725   0.000000
   13       22.903006   0.000000
   14       23.637881   0.000000
 
  0.1111111E+00  0.1111111E+00  0.0000000E+00  0.1646091E-01
    1       -1.712247   1.000000
    2        1.480813   1.000000
    3        1.556566   1.000000
    4        3.854675   1.000000
    5        4.055493   1.000000
    6        4.500454   1.000000
    7        6.544521   1.000000
    8        6.807529   1.000000
    9        7.290344   1.017444
   10        7.532176   1.007374
   11        8.534808  -0.001353
   12       15.083094   0.000000
   13       15.316803   0.000000
   14       17.221754   0.000000
 
  0.2222222E+00  0.1111111E+00  0.0000000E+00  0.3292181E-01
    1       -0.982291   1.000000
    2        1.820835   1.000000
    3        2.025480   1.000000
    4        3.727212   1.000000
    5        4.056403   1.000000
    6        4.993511   1.000000
    7        6.100918   1.000000
    8        6.263646   1.000000
    9        6.591577   1.000847
   10        7.002104   1.005984
   11        8.354723  -0.061309
   12       12.706242   0.000000
   13       16.907096   0.000000
   14       18.858308   0.000000
 
  0.3333333E+00  0.1111111E+00  0.0000000E+00  0.3292181E-01
    1        0.093640   1.000000
    2        2.235509   1.000000
    3        2.565479   1.000000
    4        3.768822   1.000000
    5        4.094505   1.000000
    6        5.299312   1.000000
    7        5.473204   1.000000
    8        5.607885   1.000000
    9        5.787917   1.000000
   10        7.308915   1.000000
   11        7.810724   0.579189
   12       10.335762   0.000000
   13       18.882826   0.000000
   14       21.140216   0.000000
 
  0.4444444E+00  0.1111111E+00  0.0000000E+00  0.3292181E-01
    1        1.258733   1.000000
    2        2.113110   1.000000
    3        3.202093   1.000000
    4        3.861399   1.000000
    5        4.027555   1.000000
    6        4.537123   1.000000
    7        5.198455   1.000000
    8        5.389404   1.000000
    9        6.322989   1.000000
   10        7.087400   1.000000
   11        7.691480   0.903273
   12        8.572185   0.000000
   13       20.617751   0.000000
   14       22.190840   0.000000
 
  0.2222222E+00  0.2222222E+00  0.0000000E+00  0.1646091E-01
    1       -0.387267   1.000000
    2        1.961513   1.000000
    3        2.571577   1.000000
    4        3.361612   1.000000
    5        4.040279   1.000000
    6        5.228817   1.000000
    7        5.726276   1.000000
    8        5.875431   1.000000
    9        6.306861   1.000000
   10        6.880440   1.005856
   11        8.703958  -0.025435
   12       13.778184   0.000000
   13       14.606956   0.000000
   14       19.898687   0.000000
 
  0.3333333E+00  0.2222222E+00  0.0000000E+00  0.3292181E-01
    1        0.395137   1.000000
    2        1.975613   1.000000
    3        3.201693   1.000000
    4        3.257280   1.000000
    5        4.210379   1.000000
    6        4.330974   1.000000
    7        5.555608   1.000000
    8        6.113661   1.000000
    9        6.518402   1.000000
   10        7.127734   1.030442
   11        8.561933  -0.079752
   12       11.378227   0.000000
   13       16.090323   0.000000
   14       21.605318   0.000000
 
  0.4444444E+00  0.2222222E+00  0.0000000E+00  0.3292181E-01
    1        1.126858   1.000000
    2        1.682143   1.000000
    3        3.297028   1.000000
    4        3.673913   1.000000
    5        3.854600   1.000000
    6        4.253223   1.000000
    7        5.787269   1.000000
    8        6.000958   1.000000
    9        7.317295   1.000000
   10        7.682252   0.961574
   11        8.042155   0.048231
   12        9.122470   0.000000
   13       17.865148   0.000000
   14       19.756097   0.000000
 
  0.3333333E+00  0.3333333E+00  0.0000000E+00  0.1646091E-01
    1        0.657454   1.000000
    2        1.575538   1.000000
    3        2.851254   1.000000
    4        3.535413   1.000000
    5        4.193014   1.000000
    6        4.930695   1.000000
    7        5.684038   1.000000
    8        6.507086   1.000000
    9        7.017042   1.000000
   10        7.422464   1.047637
   11        8.901667   0.000000
   12       11.473108   0.000000
   13       14.598554   0.000000
   14       19.561466   0.000000
 
  0.4444444E+00  0.3333333E+00  0.0000000E+00  0.3292181E-01
    1        0.880622   1.000000
    2        1.178531   1.000000
    3        2.777421   1.000000
    4        3.006053   1.000000
    5        5.019819   1.000000
    6        5.439816   1.000000
    7        6.160614   1.000000
    8        6.571931   1.000000
    9        7.618944   1.000000
   10        8.209918   0.038570
   11        8.752520   0.000000
   12        9.511618   0.000000
   13       15.584937   0.000000
   14       17.353782   0.000000
 
  0.4444444E+00  0.4444444E+00  0.0000000E+00  0.1646091E-01
    1        0.749260   1.000000
    2        0.844133   1.000000
    3        2.541844   1.000000
    4        2.618275   1.000000
    5        6.290093   1.000000
    6        6.455851   1.000000
    7        6.506928   1.000000
    8        7.141326   1.000000
    9        7.466227   1.000000
   10        8.829522  -0.134843
   11        8.915427   0.000000
   12        9.033897   0.000000
   13       14.684896   0.000000
   14       15.479265   0.000000
 
  0.1111111E+00  0.1111111E+00  0.1111111E+00  0.1097394E-01
    1       -1.463100   1.000000
    2        1.668381   1.000000
    3        1.668381   1.000000
    4        3.831742   1.000000
    5        3.831742   1.000000
    6        4.846197   1.000000
    7        6.379938   1.000000
    8        6.652081   1.000000
    9        6.652081   1.020274
   10        8.073997   0.789115
   11        8.073997   0.009248
   12       15.305912   0.000000
   13       16.064748   0.000000
   14       16.064748   0.000000
 
  0.2222222E+00  0.1111111E+00  0.1111111E+00  0.3292181E-01
    1       -0.758776   1.000000
    2        1.992484   1.000000
    3        2.129963   1.000000
    4        3.639982   1.000000
    5        3.781965   1.000000
    6        5.341259   1.000000
    7        5.444559   1.000000
    8        6.231060   1.000000
    9        6.923194   1.000220
   10        7.118820   1.008980
   11        8.140430   0.012471
   12       13.294722   0.000000
   13       16.760502   0.000000
   14       17.855993   0.000000
 
  0.3333333E+00  0.1111111E+00  0.1111111E+00  0.3292181E-01
    1        0.257093   1.000000
    2        2.474192   1.000000
    3        2.489140   1.000000
    4        3.692534   1.000000
    5        3.718964   1.000000
    6        4.624732   1.000000
    7        5.695768   1.000000
    8        6.156098   1.000000
    9        6.189752   1.000000
   10        7.257297   1.000000
   11        7.741577   0.569257
   12       10.923237   0.000000
   13       18.282435   0.000000
   14       20.079224   0.000000
 
  0.4444444E+00  0.1111111E+00  0.1111111E+00  0.3292181E-01
    1        1.323431   1.000000
    2        2.157582   1.000000
    3        3.066658   1.000000
    4        3.530667   1.000000
    5        4.021676   1.000000
    6        4.364916   1.000000
    7        5.358307   1.000000
    8        5.541494   1.000000
    9        6.806561   1.000000
   10        7.222228   1.000000
   11        7.790900   0.590071
   12        9.016755   0.000000
   13       19.846453   0.000000
   14       21.519241   0.000000
 
  0.2222222E+00  0.2222222E+00  0.1111111E+00  0.3292181E-01
    1       -0.154533   1.000000
    2        2.187632   1.000000
    3        2.626768   1.000000
    4        3.318379   1.000000
    5        3.684812   1.000000
    6        4.377954   1.000000
    7        6.233442   1.000000
    8        6.413467   1.000000
    9        6.660721   1.000000
   10        6.832871   1.005496
   11        8.237892  -0.011897
   12       14.500329   0.000000
   13       14.602769   0.000000
   14       18.459064   0.000000
 
  0.3333333E+00  0.2222222E+00  0.1111111E+00  0.6584362E-01
    1        0.620025   1.000000
    2        2.196152   1.000000
    3        3.146556   1.000000
    4        3.162786   1.000000
    5        3.803431   1.000000
    6        3.924715   1.000000
    7        6.073555   1.000000
    8        6.185637   1.000000
    9        7.009308   1.000000
   10        7.225063   1.025638
   11        8.091556   0.017404
   12       12.028265   0.000000
   13       16.044269   0.000000
   14       19.970299   0.000000
 
  0.4444444E+00  0.2222222E+00  0.1111111E+00  0.6584362E-01
    1        1.302770   1.000000
    2        1.841210   1.000000
    3        3.191129   1.000000
    4        3.241473   1.000000
    5        4.067641   1.000000
    6        4.090419   1.000000
    7        5.925476   1.000000
    8        5.984497   1.000000
    9        7.243382   1.000000
   10        7.607118   1.004568
   11        8.350807  -0.054046
   12        9.912778   0.000000
   13       17.665322   0.000000
   14       19.558124   0.000000
 
  0.3333333E+00  0.3333333E+00  0.1111111E+00  0.3292181E-01
    1        0.914524   1.000000
    2        1.764263   1.000000
    3        2.825125   1.000000
    4        3.313291   1.000000
    5        4.139002   1.000000
    6        4.402542   1.000000
    7        6.008663   1.000000
    8        6.522500   1.000000
    9        7.019027   1.000000
   10        8.151037   0.475947
   11        8.312512  -0.000453
   12       12.364032   0.000000
   13       14.457979   0.000000
   14       19.488860   0.000000
 
  0.4444444E+00  0.3333333E+00  0.1111111E+00  0.6584362E-01
    1        1.110531   1.000000
    2        1.372032   1.000000
    3        2.754955   1.000000
    4        2.939888   1.000000
    5        4.898889   1.000000
    6        5.070523   1.000000
    7        6.277253   1.000000
    8        6.517475   1.000000
    9        7.277453   1.000000
   10        7.946974   0.560552
   11        9.226182   0.000000
   12       10.671332   0.000000
   13       15.463296   0.000000
   14       17.240261   0.000000
 
  0.4444444E+00  0.4444444E+00  0.1111111E+00  0.3292181E-01
    1        0.986637   1.000000
    2        1.065326   1.000000
    3        2.537143   1.000000
    4        2.608718   1.000000
    5        6.015507   1.000000
    6        6.282773   1.000000
    7        6.548604   1.000000
    8        6.736166   1.000000
    9        7.150449   1.000000
   10        7.756709   0.705597
   11       10.023882   0.000000
   12       10.689971   0.000000
   13       14.508666   0.000000
   14       15.341434   0.000000
 
  0.2222222E+00  0.2222222E+00  0.2222222E+00  0.1097394E-01
    1        0.466876   1.000000
    2        2.770325   1.000000
    3        2.770325   1.000000
    4        3.221542   1.000000
    5        3.221542   1.000000
    6        3.418182   1.000000
    7        6.689336   1.000000
    8        6.689336   1.000000
    9        7.195396   1.000000
   10        7.363133   1.004513
   11        7.363133   0.814754
   12       14.587776   0.000000
   13       16.123949   0.000000
   14       16.123949   0.000000
 
  0.3333333E+00  0.2222222E+00  0.2222222E+00  0.3292181E-01
    1        1.182208   1.000000
    2        2.531342   1.000000
    3        2.937494   1.000000
    4        3.135750   1.000000
    5        3.179401   1.000000
    6        3.631091   1.000000
    7        6.474735   1.000000
    8        6.640936   1.000000
    9        7.015039   1.000000
   10        7.529997   1.003431
   11        8.267183  -0.003703
   12       13.145227   0.000000
   13       15.719580   0.000000
   14       18.028239   0.000000
 
  0.4444444E+00  0.2222222E+00  0.2222222E+00  0.3292181E-01
    1        1.623950   1.000000
    2        1.989913   1.000000
    3        3.048942   1.000000
    4        3.092191   1.000000
    5        3.704671   1.000000
    6        4.046117   1.000000
    7        6.283161   1.000000
    8        6.284256   1.000000
    9        7.208449   1.000000
   10        7.342549   1.020828
   11        9.512913  -0.015193
   12       11.121891   0.000000
   13       16.860722   0.000000
   14       18.712546   0.000000
 
  0.3333333E+00  0.3333333E+00  0.2222222E+00  0.3292181E-01
    1        1.636832   1.000000
    2        2.101079   1.000000
    3        2.781642   1.000000
    4        3.140920   1.000000
    5        3.509976   1.000000
    6        3.950288   1.000000
    7        6.610314   1.000000
    8        6.715359   1.000000
    9        7.012974   1.000000
   10        7.515328   1.015722
   11        9.440936  -0.012378
   12       14.067631   0.000000
   13       14.138075   0.000000
   14       18.155354   0.000000
 
  0.4444444E+00  0.3333333E+00  0.2222222E+00  0.6584362E-01
    1        1.700875   1.000000
    2        1.791524   1.000000
    3        2.770701   1.000000
    4        2.946186   1.000000
    5        4.225939   1.000000
    6        4.460531   1.000000
    7        6.595702   1.000000
    8        6.670286   1.000000
    9        7.177588   1.000000
   10        7.372997   1.026349
   11       10.670669   0.000000
   12       12.181992   0.000000
   13       15.226562   0.000000
   14       16.915787   0.000000
 
  0.4444444E+00  0.4444444E+00  0.2222222E+00  0.3292181E-01
    1        1.638335   1.000000
    2        1.638862   1.000000
    3        2.553588   1.000000
    4        2.651434   1.000000
    5        5.091418   1.000000
    6        5.172285   1.000000
    7        6.782302   1.000000
    8        6.838485   1.000000
    9        7.172372   1.000000
   10        7.300791   1.027236
   11       11.728106   0.000000
   12       12.641993   0.000000
   13       14.055582   0.000000
   14       15.049233   0.000000
 
  0.3333333E+00  0.3333333E+00  0.3333333E+00  0.1097394E-01
    1        2.074939   1.000000
    2        2.615089   1.000000
    3        2.798145   1.000000
    4        2.798145   1.000000
    5        3.615470   1.000000
    6        3.615470   1.000000
    7        6.980575   1.000000
    8        6.980575   1.000000
    9        7.058487   1.000000
   10        7.058487   1.000000
   11       10.743117  -0.005565
   12       13.862697   0.000000
   13       15.974648   0.000000
   14       15.974651   0.000000
 
  0.4444444E+00  0.3333333E+00  0.3333333E+00  0.3292181E-01
    1        2.038905   1.000000
    2        2.246719   1.000000
    3        2.943104   1.000000
    4        3.235348   1.000000
    5        3.641512   1.000000
    6        4.014660   1.000000
    7        6.915489   1.000000
    8        6.929327   1.000000
    9        7.162874   1.000000
   10        7.201452   1.000000
   11       11.977032   0.000000
   12       13.234157   0.000000
   13       15.138580   0.000000
   14       16.236837   0.000000
 
  0.4444444E+00  0.4444444E+00  0.3333333E+00  0.3292181E-01
    1        2.216452   1.000000
    2        2.488661   1.000000
    3        2.664366   1.000000
    4        2.977422   1.000000
    5        4.073561   1.000000
    6        4.222468   1.000000
    7        7.043912   1.000000
    8        7.057399   1.000000
    9        7.194583   1.000000
   10        7.211697   1.000000
   11       12.974230   0.000000
   12       13.526301   0.000000
   13       14.716705   0.000000
   14       15.134608   0.000000
 
  0.4444444E+00  0.4444444E+00  0.4444444E+00  0.1097394E-01
    1        2.599172   1.000000
    2        2.948338   1.000000
    3        2.948338   1.000000
    4        3.461977   1.000000
    5        3.461977   1.000000
    6        3.547294   1.000000
    7        7.204899   1.000000
    8        7.204899   1.000000
    9        7.205778   1.000000
   10        7.205778   1.000000
   11       13.152967   0.000000
   12       13.181999   0.000000
   13       15.981324   0.000000
   14       16.817547   0.000000
