Starting job 28218131 ("jobfile") on c15-5 at Fri Sep 20 10:38:14 CEST 2019
 running on    4 total cores
 distrk:  each k-point on    4 cores,    1 groups
 distr:  one band on    2 cores,    2 groups
 using from now: INCAR     
 vasp.5.4.1 05Feb16 (build Mar 02 2016 14:09:44) complex                        
  
 POSCAR found type information on POSCAR  Pt
 POSCAR found :  1 types and       2 ions

 ----------------------------------------------------------------------------- 
|                                                                             |
|  ADVICE TO THIS USER RUNNING 'VASP/VAMP'   (HEAR YOUR MASTER'S VOICE ...):  |
|                                                                             |
|      You have a (more or less) 'small supercell' and for smaller cells      |
|      it is recommended  to use the reciprocal-space projection scheme!      |
|      The real space optimization is not  efficient for small cells and it   |
|      is also less accurate ...                                              |
|      Therefore set LREAL=.FALSE. in the  INCAR file                         |
|                                                                             |
 ----------------------------------------------------------------------------- 

 LDA part: xc-table for Pade appr. of Perdew
 POSCAR, INCAR and KPOINTS ok, starting setup
 WARNING: small aliasing (wrap around) errors must be expected
 FFT: planning ...
 WAVECAR not read
 entering main loop
       N       E                     dE             d eps       ncg     rms          rms(c)
DAV:   1     0.203231876941E+03    0.20323E+03   -0.96160E+03   988   0.140E+03
DAV:   2    -0.405310377717E+01   -0.20728E+03   -0.19291E+03   992   0.423E+02
DAV:   3    -0.123816490381E+02   -0.83285E+01   -0.79414E+01  1250   0.937E+01
DAV:   4    -0.125039278434E+02   -0.12228E+00   -0.12220E+00  1034   0.115E+01
DAV:   5    -0.125067159553E+02   -0.27881E-02   -0.27929E-02  1238   0.160E+00    0.506E+00
RMM:   6    -0.118960411478E+02    0.61067E+00   -0.10118E+00   981   0.135E+01    0.181E+00
RMM:   7    -0.118254841219E+02    0.70557E-01   -0.34809E-01   999   0.596E+00    0.450E-01
RMM:   8    -0.118175368429E+02    0.79473E-02   -0.11622E-02  1007   0.157E+00    0.760E-02
RMM:   9    -0.118175973696E+02   -0.60527E-04   -0.12039E-03  1064   0.266E-01    0.244E-02
RMM:  10    -0.118176091551E+02   -0.11786E-04   -0.87699E-05   908   0.151E-01    0.206E-02
RMM:  11    -0.118176048021E+02    0.43530E-05   -0.19480E-05   540   0.683E-02
   1 F= -.11817605E+02 E0= -.11817605E+02  d E =0.000000E+00

Currently Loaded Modulefiles:
  1) intel/2016.1       2) vasp/5.4.1.Feb16

Job script resource usage:
       JobID  MaxVMSize     MaxRSS 
------------ ---------- ---------- 
28218131.ba+    216752K      2584K 

Job step resource usage:
       JobID    JobName  AllocCPUS  MaxVMSize     MaxRSS    Elapsed ExitCode 
------------ ---------- ---------- ---------- ---------- ---------- -------- 
28218131        jobfile          4                         00:00:06      0:0 
28218131.0    pmi_proxy          1    279832K       523K   00:00:04      0:0 

Job 28218131 ("jobfile") completed on c15-5 at Fri Sep 20 10:38:18 CEST 2019
