<?xml version="1.0" encoding="ISO-8859-1"?>
<modeling>
 <generator>
  <i name="program" type="string">vasp </i>
  <i name="version" type="string">5.4.1  </i>
  <i name="subversion" type="string">05Feb16 (build Mar 02 2016 14:09:44) complex                          parallel </i>
  <i name="platform" type="string">Abel-impi-ifc-cuda </i>
  <i name="date" type="string">2019 09 20 </i>
  <i name="time" type="string">10:38:14 </i>
 </generator>
 <incar>
  <i type="string" name="PREC">normal    ! low/normal/accurate</i>
  <i type="string" name="ALGO"> Fast      ! Algorithm for electronic re</i>
  <i type="int" name="ISPIN">     1</i>
  <i type="int" name="NELMIN">     4</i>
  <i name="EDIFF">      0.00001000</i>
  <i type="int" name="NSW">     0</i>
  <i name="ENCUT">    500.00000000</i>
  <i type="string" name="LREAL"> Auto      ! Projection in reciprocal sp</i>
  <i type="int" name="ISMEAR">    -5</i>
  <i name="SIGMA">      0.20000000</i>
  <i type="logical" name="LWAVE"> F  </i>
  <v type="int" name="KPOINT_BSE">    -1     0     0     0</v>
 </incar>
 <kpoints>
  <generation param="Gamma">
   <v type="int" name="divisions">       9        9        9 </v>
   <v name="usershift">      0.00000000       0.00000000       0.00000000 </v>
   <v name="genvec1">      0.11111111       0.00000000       0.00000000 </v>
   <v name="genvec2">      0.00000000       0.11111111       0.00000000 </v>
   <v name="genvec3">      0.00000000       0.00000000       0.11111111 </v>
   <v name="shift">      0.00000000       0.00000000       0.00000000 </v>
  </generation>
  <varray name="kpointlist" >
   <v>       0.00000000       0.00000000       0.00000000 </v>
   <v>       0.11111111       0.00000000       0.00000000 </v>
   <v>       0.22222222       0.00000000       0.00000000 </v>
   <v>       0.33333333       0.00000000       0.00000000 </v>
   <v>       0.44444444       0.00000000       0.00000000 </v>
   <v>       0.11111111       0.11111111       0.00000000 </v>
   <v>       0.22222222       0.11111111       0.00000000 </v>
   <v>       0.33333333       0.11111111       0.00000000 </v>
   <v>       0.44444444       0.11111111       0.00000000 </v>
   <v>       0.22222222       0.22222222       0.00000000 </v>
   <v>       0.33333333       0.22222222       0.00000000 </v>
   <v>       0.44444444       0.22222222       0.00000000 </v>
   <v>       0.33333333       0.33333333       0.00000000 </v>
   <v>       0.44444444       0.33333333       0.00000000 </v>
   <v>       0.44444444       0.44444444       0.00000000 </v>
   <v>       0.11111111       0.11111111       0.11111111 </v>
   <v>       0.22222222       0.11111111       0.11111111 </v>
   <v>       0.33333333       0.11111111       0.11111111 </v>
   <v>       0.44444444       0.11111111       0.11111111 </v>
   <v>       0.22222222       0.22222222       0.11111111 </v>
   <v>       0.33333333       0.22222222       0.11111111 </v>
   <v>       0.44444444       0.22222222       0.11111111 </v>
   <v>       0.33333333       0.33333333       0.11111111 </v>
   <v>       0.44444444       0.33333333       0.11111111 </v>
   <v>       0.44444444       0.44444444       0.11111111 </v>
   <v>       0.22222222       0.22222222       0.22222222 </v>
   <v>       0.33333333       0.22222222       0.22222222 </v>
   <v>       0.44444444       0.22222222       0.22222222 </v>
   <v>       0.33333333       0.33333333       0.22222222 </v>
   <v>       0.44444444       0.33333333       0.22222222 </v>
   <v>       0.44444444       0.44444444       0.22222222 </v>
   <v>       0.33333333       0.33333333       0.33333333 </v>
   <v>       0.44444444       0.33333333       0.33333333 </v>
   <v>       0.44444444       0.44444444       0.33333333 </v>
   <v>       0.44444444       0.44444444       0.44444444 </v>
  </varray>
  <varray name="weights" >
   <v>       0.00137174 </v>
   <v>       0.00823045 </v>
   <v>       0.00823045 </v>
   <v>       0.00823045 </v>
   <v>       0.00823045 </v>
   <v>       0.01646091 </v>
   <v>       0.03292181 </v>
   <v>       0.03292181 </v>
   <v>       0.03292181 </v>
   <v>       0.01646091 </v>
   <v>       0.03292181 </v>
   <v>       0.03292181 </v>
   <v>       0.01646091 </v>
   <v>       0.03292181 </v>
   <v>       0.01646091 </v>
   <v>       0.01097394 </v>
   <v>       0.03292181 </v>
   <v>       0.03292181 </v>
   <v>       0.03292181 </v>
   <v>       0.03292181 </v>
   <v>       0.06584362 </v>
   <v>       0.06584362 </v>
   <v>       0.03292181 </v>
   <v>       0.06584362 </v>
   <v>       0.03292181 </v>
   <v>       0.01097394 </v>
   <v>       0.03292181 </v>
   <v>       0.03292181 </v>
   <v>       0.03292181 </v>
   <v>       0.06584362 </v>
   <v>       0.03292181 </v>
   <v>       0.01097394 </v>
   <v>       0.03292181 </v>
   <v>       0.03292181 </v>
   <v>       0.01097394 </v>
  </varray>
  <varray name="tetrahedronlist"  type="int" >
   <v type="int" >       12        1        2        2        6 </v>
   <v type="int" >       12        2        2        6        6 </v>
   <v type="int" >       12        2        6        6       16 </v>
   <v type="int" >       12        2        3        6        7 </v>
   <v type="int" >       12        2        6        6        7 </v>
   <v type="int" >       12        6        6        7       16 </v>
   <v type="int" >       12        3        6        7        7 </v>
   <v type="int" >       24        6        7        7       17 </v>
   <v type="int" >       24        6        7       16       17 </v>
   <v type="int" >       12        3        4        7        8 </v>
   <v type="int" >       12        3        7        7        8 </v>
   <v type="int" >       12        7        7        8       17 </v>
   <v type="int" >       12        4        7        8        8 </v>
   <v type="int" >       12        7        8        8       18 </v>
   <v type="int" >       12        7        8       17       18 </v>
   <v type="int" >       12        4        5        8        9 </v>
   <v type="int" >       12        4        8        8        9 </v>
   <v type="int" >       12        8        8        9       18 </v>
   <v type="int" >       12        5        8        9        9 </v>
   <v type="int" >       12        8        9        9       19 </v>
   <v type="int" >       12        8        9       18       19 </v>
   <v type="int" >        6        5        5        9        9 </v>
   <v type="int" >       12        5        9        9        9 </v>
   <v type="int" >       12        9        9        9       19 </v>
   <v type="int" >        6        9        9       19       19 </v>
   <v type="int" >       12        6        7       10       16 </v>
   <v type="int" >       12        7       10       16       17 </v>
   <v type="int" >       12       10       16       17       20 </v>
   <v type="int" >       12        7        8       11       17 </v>
   <v type="int" >       12        7       10       11       17 </v>
   <v type="int" >       12       10       11       17       20 </v>
   <v type="int" >       12        8       11       17       18 </v>
   <v type="int" >       12       11       17       18       21 </v>
   <v type="int" >       12       11       17       20       21 </v>
   <v type="int" >       12        8        9       12       18 </v>
   <v type="int" >       12        8       11       12       18 </v>
   <v type="int" >       12       11       12       18       21 </v>
   <v type="int" >       12        9       12       18       19 </v>
   <v type="int" >       12       12       18       19       22 </v>
   <v type="int" >       12       12       18       21       22 </v>
   <v type="int" >       12        9        9       12       19 </v>
   <v type="int" >       12        9       12       12       19 </v>
   <v type="int" >       12       12       12       19       22 </v>
   <v type="int" >       12        9       12       19       19 </v>
   <v type="int" >       12       12       19       19       22 </v>
   <v type="int" >       12       12       19       22       22 </v>
   <v type="int" >       12        8        9       11       19 </v>
   <v type="int" >       12        9       11       12       19 </v>
   <v type="int" >       12       11       12       19       22 </v>
   <v type="int" >       12        8       11       18       19 </v>
   <v type="int" >       12       11       18       19       21 </v>
   <v type="int" >       12       11       19       21       22 </v>
   <v type="int" >       12        7        8       10       18 </v>
   <v type="int" >       12        8       10       11       18 </v>
   <v type="int" >       12       10       11       18       21 </v>
   <v type="int" >       12        7       10       17       18 </v>
   <v type="int" >       12       10       17       18       20 </v>
   <v type="int" >       12       10       18       20       21 </v>
   <v type="int" >       12        7        7       10       17 </v>
   <v type="int" >       12        7       10       17       20 </v>
   <v type="int" >       12        7       16       17       17 </v>
   <v type="int" >       12        7       17       17       20 </v>
   <v type="int" >       12        2        3        6       16 </v>
   <v type="int" >       12        3        6        7       16 </v>
   <v type="int" >       12        3        7       16       17 </v>
   <v type="int" >       12       10       11       13       20 </v>
   <v type="int" >       12       11       13       20       21 </v>
   <v type="int" >       12       13       20       21       23 </v>
   <v type="int" >       12       11       12       14       21 </v>
   <v type="int" >       12       11       13       14       21 </v>
   <v type="int" >       12       13       14       21       23 </v>
   <v type="int" >       12       12       14       21       22 </v>
   <v type="int" >       12       14       21       22       24 </v>
   <v type="int" >       12       14       21       23       24 </v>
   <v type="int" >       12       12       12       14       22 </v>
   <v type="int" >       12       12       14       14       22 </v>
   <v type="int" >       12       14       14       22       24 </v>
   <v type="int" >       12       12       14       22       22 </v>
   <v type="int" >       12       14       22       22       24 </v>
   <v type="int" >       12       14       22       24       24 </v>
   <v type="int" >       12       11       12       13       22 </v>
   <v type="int" >       12       12       13       14       22 </v>
   <v type="int" >       12       13       14       22       24 </v>
   <v type="int" >       12       11       13       21       22 </v>
   <v type="int" >       12       13       21       22       23 </v>
   <v type="int" >       12       13       22       23       24 </v>
   <v type="int" >       12       10       11       11       21 </v>
   <v type="int" >       12       11       11       13       21 </v>
   <v type="int" >       12       11       13       21       23 </v>
   <v type="int" >       12       10       11       20       21 </v>
   <v type="int" >       12       11       20       21       21 </v>
   <v type="int" >       12       11       21       21       23 </v>
   <v type="int" >       12        7        8       10       20 </v>
   <v type="int" >       12        8       10       11       20 </v>
   <v type="int" >       12        8       11       20       21 </v>
   <v type="int" >       12        7        8       17       20 </v>
   <v type="int" >       12        8       17       18       20 </v>
   <v type="int" >       12        8       18       20       21 </v>
   <v type="int" >       12        3        4        7       17 </v>
   <v type="int" >       12        4        7        8       17 </v>
   <v type="int" >       12        4        8       17       18 </v>
   <v type="int" >       12       13       14       15       23 </v>
   <v type="int" >       12       14       15       23       24 </v>
   <v type="int" >       12       15       23       24       25 </v>
   <v type="int" >       24       14       14       15       24 </v>
   <v type="int" >       12       14       15       15       24 </v>
   <v type="int" >       12       15       15       24       25 </v>
   <v type="int" >       12       14       15       24       24 </v>
   <v type="int" >       12       15       24       24       25 </v>
   <v type="int" >       12       15       24       25       25 </v>
   <v type="int" >       12       13       14       14       24 </v>
   <v type="int" >       12       14       15       24       25 </v>
   <v type="int" >       12       13       14       23       24 </v>
   <v type="int" >       12       14       23       24       24 </v>
   <v type="int" >       24       14       24       24       25 </v>
   <v type="int" >       12       11       12       13       23 </v>
   <v type="int" >       12       12       13       14       23 </v>
   <v type="int" >       12       12       14       23       24 </v>
   <v type="int" >       12       11       12       21       23 </v>
   <v type="int" >       12       12       21       22       23 </v>
   <v type="int" >       12       12       22       23       24 </v>
   <v type="int" >       12        8        9       11       21 </v>
   <v type="int" >       12        9       11       12       21 </v>
   <v type="int" >       12        9       12       21       22 </v>
   <v type="int" >       12        8        9       18       21 </v>
   <v type="int" >       12        9       18       19       21 </v>
   <v type="int" >       12        9       19       21       22 </v>
   <v type="int" >       12        4        5        8       18 </v>
   <v type="int" >       12        5        8        9       18 </v>
   <v type="int" >       12        5        9       18       19 </v>
   <v type="int" >       12       15       15       15       25 </v>
   <v type="int" >       12       15       15       25       25 </v>
   <v type="int" >       12       15       25       25       25 </v>
   <v type="int" >       12       14       14       15       25 </v>
   <v type="int" >       12       14       15       15       25 </v>
   <v type="int" >       12       14       15       25       25 </v>
   <v type="int" >       12       14       14       24       25 </v>
   <v type="int" >       12       14       24       25       25 </v>
   <v type="int" >       12       12       12       14       24 </v>
   <v type="int" >       12       12       14       14       24 </v>
   <v type="int" >       12       12       14       24       24 </v>
   <v type="int" >       12       12       12       22       24 </v>
   <v type="int" >       12       12       22       22       24 </v>
   <v type="int" >       12       12       22       24       24 </v>
   <v type="int" >       12        9        9       12       22 </v>
   <v type="int" >       12        9       12       12       22 </v>
   <v type="int" >       12        9       12       22       22 </v>
   <v type="int" >       12        9        9       19       22 </v>
   <v type="int" >       12        9       19       19       22 </v>
   <v type="int" >       12        9       19       22       22 </v>
   <v type="int" >       12        5        5        9       19 </v>
   <v type="int" >       12        5        9        9       19 </v>
   <v type="int" >       12        5        9       19       19 </v>
   <v type="int" >       12       13       14       15       25 </v>
   <v type="int" >       12       13       14       24       25 </v>
   <v type="int" >       12       13       23       24       25 </v>
   <v type="int" >       12       11       12       14       24 </v>
   <v type="int" >       12       11       13       14       24 </v>
   <v type="int" >       12       11       13       23       24 </v>
   <v type="int" >       12       11       12       22       24 </v>
   <v type="int" >       12       11       21       22       24 </v>
   <v type="int" >       12       11       21       23       24 </v>
   <v type="int" >       12        8        9       12       22 </v>
   <v type="int" >       12        8       11       12       22 </v>
   <v type="int" >       12        8       11       21       22 </v>
   <v type="int" >       12        8        9       19       22 </v>
   <v type="int" >       12        8       18       19       22 </v>
   <v type="int" >       12        8       18       21       22 </v>
   <v type="int" >       12        4        5        9       19 </v>
   <v type="int" >       12        4        8        9       19 </v>
   <v type="int" >       12        4        8       18       19 </v>
   <v type="int" >       12       10       11       13       23 </v>
   <v type="int" >       12       10       11       21       23 </v>
   <v type="int" >       12       10       20       21       23 </v>
   <v type="int" >       12        7        8       11       21 </v>
   <v type="int" >       12        7       10       11       21 </v>
   <v type="int" >       12        7       10       20       21 </v>
   <v type="int" >       12        7        8       18       21 </v>
   <v type="int" >       12        7       17       18       21 </v>
   <v type="int" >       12        7       17       20       21 </v>
   <v type="int" >       12        3        4        8       18 </v>
   <v type="int" >       12        3        7        8       18 </v>
   <v type="int" >       12        3        7       17       18 </v>
   <v type="int" >       12        6        7       10       20 </v>
   <v type="int" >       12        6        7       17       20 </v>
   <v type="int" >       12        6       16       17       20 </v>
   <v type="int" >       12        2        3        7       17 </v>
   <v type="int" >       12        2        6        7       17 </v>
   <v type="int" >       12        2        6       16       17 </v>
   <v type="int" >       12        1        2        6       16 </v>
   <v type="int" >       12       16       17       17       20 </v>
   <v type="int" >       12       17       17       20       20 </v>
   <v type="int" >       12       17       20       20       26 </v>
   <v type="int" >       12       17       18       20       21 </v>
   <v type="int" >       12       17       20       20       21 </v>
   <v type="int" >       12       20       20       21       26 </v>
   <v type="int" >       12       18       20       21       21 </v>
   <v type="int" >       24       20       21       21       27 </v>
   <v type="int" >       24       20       21       26       27 </v>
   <v type="int" >       12       18       19       21       22 </v>
   <v type="int" >       12       18       21       21       22 </v>
   <v type="int" >       12       21       21       22       27 </v>
   <v type="int" >       12       19       21       22       22 </v>
   <v type="int" >       12       21       22       22       28 </v>
   <v type="int" >       12       21       22       27       28 </v>
   <v type="int" >        6       19       19       22       22 </v>
   <v type="int" >       12       19       22       22       22 </v>
   <v type="int" >       12       22       22       22       28 </v>
   <v type="int" >        6       22       22       28       28 </v>
   <v type="int" >       12       20       21       23       26 </v>
   <v type="int" >       12       21       23       26       27 </v>
   <v type="int" >       12       23       26       27       29 </v>
   <v type="int" >       12       21       22       24       27 </v>
   <v type="int" >       12       21       23       24       27 </v>
   <v type="int" >       12       23       24       27       29 </v>
   <v type="int" >       12       22       24       27       28 </v>
   <v type="int" >       12       24       27       28       30 </v>
   <v type="int" >       12       24       27       29       30 </v>
   <v type="int" >       12       22       22       24       28 </v>
   <v type="int" >       12       22       24       24       28 </v>
   <v type="int" >       12       24       24       28       30 </v>
   <v type="int" >       12       22       24       28       28 </v>
   <v type="int" >       12       24       28       28       30 </v>
   <v type="int" >       12       24       28       30       30 </v>
   <v type="int" >       12       21       22       23       28 </v>
   <v type="int" >       12       22       23       24       28 </v>
   <v type="int" >       12       23       24       28       30 </v>
   <v type="int" >       12       21       23       27       28 </v>
   <v type="int" >       12       23       27       28       29 </v>
   <v type="int" >       12       23       28       29       30 </v>
   <v type="int" >       12       21       21       23       27 </v>
   <v type="int" >       12       21       23       27       29 </v>
   <v type="int" >       12       21       26       27       27 </v>
   <v type="int" >       12       21       27       27       29 </v>
   <v type="int" >       12       17       18       20       26 </v>
   <v type="int" >       12       18       20       21       26 </v>
   <v type="int" >       12       18       21       26       27 </v>
   <v type="int" >       12       23       24       25       29 </v>
   <v type="int" >       12       24       25       29       30 </v>
   <v type="int" >       12       25       29       30       31 </v>
   <v type="int" >       24       24       24       25       30 </v>
   <v type="int" >       12       24       25       25       30 </v>
   <v type="int" >       12       25       25       30       31 </v>
   <v type="int" >       12       24       25       30       30 </v>
   <v type="int" >       12       25       30       30       31 </v>
   <v type="int" >       12       25       30       31       31 </v>
   <v type="int" >       12       23       24       24       30 </v>
   <v type="int" >       12       24       25       30       31 </v>
   <v type="int" >       12       23       24       29       30 </v>
   <v type="int" >       12       24       29       30       30 </v>
   <v type="int" >       24       24       30       30       31 </v>
   <v type="int" >       12       21       22       23       29 </v>
   <v type="int" >       12       22       23       24       29 </v>
   <v type="int" >       12       22       24       29       30 </v>
   <v type="int" >       12       21       22       27       29 </v>
   <v type="int" >       12       22       27       28       29 </v>
   <v type="int" >       12       22       28       29       30 </v>
   <v type="int" >       12       18       19       21       27 </v>
   <v type="int" >       12       19       21       22       27 </v>
   <v type="int" >       12       19       22       27       28 </v>
   <v type="int" >       12       25       25       25       31 </v>
   <v type="int" >       12       25       25       31       31 </v>
   <v type="int" >       12       25       31       31       31 </v>
   <v type="int" >       12       24       24       25       31 </v>
   <v type="int" >       12       24       25       25       31 </v>
   <v type="int" >       12       24       25       31       31 </v>
   <v type="int" >       12       24       24       30       31 </v>
   <v type="int" >       12       24       30       31       31 </v>
   <v type="int" >       12       22       22       24       30 </v>
   <v type="int" >       12       22       24       24       30 </v>
   <v type="int" >       12       22       24       30       30 </v>
   <v type="int" >       12       22       22       28       30 </v>
   <v type="int" >       12       22       28       28       30 </v>
   <v type="int" >       12       22       28       30       30 </v>
   <v type="int" >       12       19       19       22       28 </v>
   <v type="int" >       12       19       22       22       28 </v>
   <v type="int" >       12       19       22       28       28 </v>
   <v type="int" >       12       23       24       25       31 </v>
   <v type="int" >       12       23       24       30       31 </v>
   <v type="int" >       12       23       29       30       31 </v>
   <v type="int" >       12       21       22       24       30 </v>
   <v type="int" >       12       21       23       24       30 </v>
   <v type="int" >       12       21       23       29       30 </v>
   <v type="int" >       12       21       22       28       30 </v>
   <v type="int" >       12       21       27       28       30 </v>
   <v type="int" >       12       21       27       29       30 </v>
   <v type="int" >       12       18       19       22       28 </v>
   <v type="int" >       12       18       21       22       28 </v>
   <v type="int" >       12       18       21       27       28 </v>
   <v type="int" >       12       20       21       23       29 </v>
   <v type="int" >       12       20       21       27       29 </v>
   <v type="int" >       12       20       26       27       29 </v>
   <v type="int" >       12       17       18       21       27 </v>
   <v type="int" >       12       17       20       21       27 </v>
   <v type="int" >       12       17       20       26       27 </v>
   <v type="int" >       12       16       17       20       26 </v>
   <v type="int" >       12       26       27       27       29 </v>
   <v type="int" >       12       27       27       29       29 </v>
   <v type="int" >       12       27       29       29       32 </v>
   <v type="int" >       12       27       28       29       30 </v>
   <v type="int" >       12       27       29       29       30 </v>
   <v type="int" >       12       29       29       30       32 </v>
   <v type="int" >       12       28       29       30       30 </v>
   <v type="int" >       24       29       30       30       33 </v>
   <v type="int" >       24       29       30       32       33 </v>
   <v type="int" >        6       28       28       30       30 </v>
   <v type="int" >       12       28       30       30       30 </v>
   <v type="int" >       12       30       30       30       33 </v>
   <v type="int" >        6       30       30       33       33 </v>
   <v type="int" >       12       29       30       31       32 </v>
   <v type="int" >       12       30       31       32       33 </v>
   <v type="int" >       12       31       32       33       34 </v>
   <v type="int" >       24       30       30       31       33 </v>
   <v type="int" >       12       30       31       31       33 </v>
   <v type="int" >       12       31       31       33       34 </v>
   <v type="int" >       12       30       31       33       33 </v>
   <v type="int" >       12       31       33       33       34 </v>
   <v type="int" >       12       31       33       34       34 </v>
   <v type="int" >       12       30       31       33       34 </v>
   <v type="int" >       12       30       32       33       33 </v>
   <v type="int" >       24       30       33       33       34 </v>
   <v type="int" >       12       27       28       29       32 </v>
   <v type="int" >       12       28       29       30       32 </v>
   <v type="int" >       12       28       30       32       33 </v>
   <v type="int" >       12       31       31       31       34 </v>
   <v type="int" >       12       31       31       34       34 </v>
   <v type="int" >       12       31       34       34       34 </v>
   <v type="int" >       12       30       30       31       34 </v>
   <v type="int" >       12       30       31       31       34 </v>
   <v type="int" >       12       30       31       34       34 </v>
   <v type="int" >       12       30       30       33       34 </v>
   <v type="int" >       12       30       33       34       34 </v>
   <v type="int" >       12       28       28       30       33 </v>
   <v type="int" >       12       28       30       30       33 </v>
   <v type="int" >       12       28       30       33       33 </v>
   <v type="int" >       12       29       30       31       34 </v>
   <v type="int" >       12       29       30       33       34 </v>
   <v type="int" >       12       29       32       33       34 </v>
   <v type="int" >       12       27       28       30       33 </v>
   <v type="int" >       12       27       29       30       33 </v>
   <v type="int" >       12       27       29       32       33 </v>
   <v type="int" >       12       26       27       29       32 </v>
   <v type="int" >       12       32       33       33       34 </v>
   <v type="int" >       18       33       33       34       34 </v>
   <v type="int" >       24       33       34       34       35 </v>
   <v type="int" >       12       33       34       34       34 </v>
   <v type="int" >       24       34       34       34       35 </v>
   <v type="int" >       18       34       34       35       35 </v>
   <v type="int" >       12       34       35       35       35 </v>
   <v type="int" >       12       33       33       34       35 </v>
   <v type="int" >       12       33       34       35       35 </v>
   <v type="int" >       12       32       33       34       35 </v>
   <v type="int" >        6       35       35       35       35 </v>
  </varray>
  <i name="volumeweight">      0.00022862 </i>
 </kpoints>
 <parameters>
  <separator name="general" >
   <i type="string" name="SYSTEM">unknown system</i>
   <i type="logical" name="LCOMPAT"> F  </i>
  </separator>
  <separator name="electronic" >
   <i type="string" name="PREC">normal</i>
   <i name="ENMAX">    500.00000000</i>
   <i name="ENAUG">    358.96600000</i>
   <i name="EDIFF">      0.00001000</i>
   <i type="int" name="IALGO">    68</i>
   <i type="int" name="IWAVPR">    10</i>
   <i type="int" name="NBANDS">    14</i>
   <i name="NELECT">     20.00000000</i>
   <i type="int" name="TURBO">     0</i>
   <i type="int" name="IRESTART">     0</i>
   <i type="int" name="NREBOOT">     0</i>
   <i type="int" name="NMIN">     0</i>
   <i name="EREF">      0.00000000</i>
   <separator name="electronic smearing" >
    <i type="int" name="ISMEAR">    -5</i>
    <i name="SIGMA">      0.20000000</i>
    <i name="KSPACING">      0.50000000</i>
    <i type="logical" name="KGAMMA"> T  </i>
   </separator>
   <separator name="electronic projectors" >
    <i type="logical" name="LREAL"> T  </i>
    <v name="ROPT">     -0.00050000</v>
    <i type="int" name="LMAXPAW">  -100</i>
    <i type="int" name="LMAXMIX">     2</i>
    <i type="logical" name="NLSPLINE"> F  </i>
   </separator>
   <separator name="electronic startup" >
    <i type="int" name="ISTART">     0</i>
    <i type="int" name="ICHARG">     2</i>
    <i type="int" name="INIWAV">     1</i>
   </separator>
   <separator name="electronic spin" >
    <i type="int" name="ISPIN">     1</i>
    <i type="logical" name="LNONCOLLINEAR"> F  </i>
    <v name="MAGMOM">      1.00000000      1.00000000</v>
    <i name="NUPDOWN">     -1.00000000</i>
    <i type="logical" name="LSORBIT"> F  </i>
    <v name="SAXIS">      0.00000000      0.00000000      1.00000000</v>
    <i type="logical" name="LSPIRAL"> F  </i>
    <v name="QSPIRAL">      0.00000000      0.00000000      0.00000000</v>
    <i type="logical" name="LZEROZ"> F  </i>
   </separator>
   <separator name="electronic exchange-correlation" >
    <i type="logical" name="LASPH"> F  </i>
    <i type="logical" name="LMETAGGA"> F  </i>
   </separator>
   <separator name="electronic convergence" >
    <i type="int" name="NELM">    60</i>
    <i type="int" name="NELMDL">    -5</i>
    <i type="int" name="NELMIN">     4</i>
    <i name="ENINI">    500.00000000</i>
    <separator name="electronic convergence detail" >
     <i type="logical" name="LDIAG"> T  </i>
     <i type="logical" name="LSUBROT"> F  </i>
     <i name="WEIMIN">      0.00000000</i>
     <i name="EBREAK">      0.00000018</i>
     <i name="DEPER">      0.30000000</i>
     <i type="int" name="NRMM">     4</i>
     <i name="TIME">      0.40000000</i>
    </separator>
   </separator>
   <separator name="electronic mixer" >
    <i name="AMIX">      0.40000000</i>
    <i name="BMIX">      1.00000000</i>
    <i name="AMIN">      0.10000000</i>
    <i name="AMIX_MAG">      1.60000000</i>
    <i name="BMIX_MAG">      1.00000000</i>
    <separator name="electronic mixer details" >
     <i type="int" name="IMIX">     4</i>
     <i type="logical" name="MIXFIRST"> F  </i>
     <i type="int" name="MAXMIX">   -45</i>
     <i name="WC">    100.00000000</i>
     <i type="int" name="INIMIX">     1</i>
     <i type="int" name="MIXPRE">     1</i>
     <i type="int" name="MREMOVE">     5</i>
    </separator>
   </separator>
   <separator name="electronic dipolcorrection" >
    <i type="logical" name="LDIPOL"> F  </i>
    <i type="logical" name="LMONO"> F  </i>
    <i type="int" name="IDIPOL">     0</i>
    <i name="EPSILON">      1.00000000</i>
    <v name="DIPOL">   -100.00000000   -100.00000000   -100.00000000</v>
    <i name="EFIELD">      0.00000000</i>
   </separator>
  </separator>
  <separator name="grids" >
   <i type="int" name="NGX">    18</i>
   <i type="int" name="NGY">    18</i>
   <i type="int" name="NGZ">    18</i>
   <i type="int" name="NGXF">    36</i>
   <i type="int" name="NGYF">    36</i>
   <i type="int" name="NGZF">    36</i>
   <i type="logical" name="ADDGRID"> F  </i>
  </separator>
  <separator name="ionic" >
   <i type="int" name="NSW">     0</i>
   <i type="int" name="IBRION">    -1</i>
   <i type="int" name="ISIF">     2</i>
   <i name="PSTRESS">      0.00000000</i>
   <i name="EDIFFG">      0.00010000</i>
   <i type="int" name="NFREE">     0</i>
   <i name="POTIM">      0.50000000</i>
   <i name="SMASS">     -3.00000000</i>
   <i name="SCALEE">      1.00000000</i>
  </separator>
  <separator name="ionic md" >
   <i name="TEBEG">      0.00010000</i>
   <i name="TEEND">      0.00010000</i>
   <i type="int" name="NBLOCK">     1</i>
   <i type="int" name="KBLOCK">     1</i>
   <i type="int" name="NPACO">   256</i>
   <i name="APACO">     16.00000000</i>
  </separator>
  <separator name="symmetry" >
   <i type="int" name="ISYM">     2</i>
   <i name="SYMPREC">      0.00001000</i>
  </separator>
  <separator name="dos" >
   <i type="logical" name="LORBIT"> F  </i>
   <v name="RWIGS">     -1.00000000</v>
   <i type="int" name="NEDOS">   301</i>
   <i name="EMIN">     10.00000000</i>
   <i name="EMAX">    -10.00000000</i>
   <i name="EFERMI">      0.00000000</i>
  </separator>
  <separator name="writing" >
   <i type="int" name="NWRITE">     2</i>
   <i type="logical" name="LWAVE"> F  </i>
   <i type="logical" name="LCHARG"> T  </i>
   <i type="logical" name="LPARD"> F  </i>
   <i type="logical" name="LVTOT"> F  </i>
   <i type="logical" name="LVHAR"> F  </i>
   <i type="logical" name="LELF"> F  </i>
   <i type="logical" name="LOPTICS"> F  </i>
   <v name="STM">      0.00000000      0.00000000      0.00000000      0.00000000      0.00000000      0.00000000      0.00000000</v>
  </separator>
  <separator name="performance" >
   <i type="int" name="NPAR">     2</i>
   <i type="int" name="NSIM">     4</i>
   <i type="int" name="NBLK">    -1</i>
   <i type="logical" name="LPLANE"> T  </i>
   <i type="logical" name="LSCALAPACK"> F  </i>
   <i type="logical" name="LSCAAWARE"> F  </i>
   <i type="logical" name="LSCALU"> F  </i>
   <i type="logical" name="LASYNC"> F  </i>
   <i type="logical" name="LORBITALREAL"> F  </i>
  </separator>
  <separator name="miscellaneous" >
   <i type="int" name="IDIOT">     3</i>
   <i type="logical" name="LMUSIC"> F  </i>
   <v name="POMASS">    195.08000000</v>
   <v name="DARWINR">      0.00000000</v>
   <v name="DARWINV">      1.00000000</v>
   <i type="logical" name="LCORR"> T  </i>
  </separator>
  <i type="logical" name="GGA_COMPAT"> T  </i>
  <i type="logical" name="LBERRY"> F  </i>
  <i type="int" name="ICORELEVEL">     0</i>
  <i type="logical" name="LDAU"> F  </i>
  <i type="int" name="I_CONSTRAINED_M">     0</i>
  <separator name="electronic exchange-correlation" >
   <i type="string" name="GGA">--</i>
   <i type="int" name="VOSKOWN">     0</i>
   <i type="logical" name="LHFCALC"> F  </i>
   <i type="string" name="PRECFOCK"></i>
   <i type="logical" name="LSYMGRAD"> F  </i>
   <i type="logical" name="LHFONE"> F  </i>
   <i type="logical" name="LRHFCALC"> F  </i>
   <i type="logical" name="LTHOMAS"> F  </i>
   <i type="logical" name="LMODELHF"> F  </i>
   <i name="ENCUT4O">     -1.00000000</i>
   <i type="int" name="EXXOEP">     0</i>
   <i type="int" name="FOURORBIT">     0</i>
   <i name="AEXX">      0.00000000</i>
   <i name="HFALPHA">      0.00000000</i>
   <i name="MCALPHA">      0.00000000</i>
   <i name="ALDAX">      1.00000000</i>
   <i name="AGGAX">      1.00000000</i>
   <i name="ALDAC">      1.00000000</i>
   <i name="AGGAC">      1.00000000</i>
   <i type="int" name="NKREDX">     1</i>
   <i type="int" name="NKREDY">     1</i>
   <i type="int" name="NKREDZ">     1</i>
   <i type="logical" name="SHIFTRED"> F  </i>
   <i type="logical" name="ODDONLY"> F  </i>
   <i type="logical" name="EVENONLY"> F  </i>
   <i type="int" name="LMAXFOCK">     0</i>
   <i type="int" name="NMAXFOCKAE">     0</i>
   <i type="logical" name="LFOCKAEDFT"> F  </i>
   <i name="HFSCREEN">      0.00000000</i>
   <i name="HFSCREENC">      0.00000000</i>
   <i type="int" name="NBANDSGWLOW">     0</i>
  </separator>
  <separator name="vdW DFT" >
   <i type="logical" name="LUSE_VDW"> F  </i>
   <i name="Zab_VDW">     -0.84910000</i>
   <i name="PARAM1">      0.12340000</i>
   <i name="PARAM2">      1.00000000</i>
   <i name="PARAM3">      0.00000000</i>
  </separator>
  <separator name="model GW" >
   <i type="int" name="MODEL_GW">     0</i>
   <i name="MODEL_EPS0">      8.93730000</i>
   <i name="MODEL_ALPHA">      1.00000000</i>
  </separator>
  <separator name="linear response parameters" >
   <i type="logical" name="LEPSILON"> F  </i>
   <i type="logical" name="LRPA"> F  </i>
   <i type="logical" name="LNABLA"> F  </i>
   <i type="logical" name="LVEL"> F  </i>
   <i type="int" name="KINTER">     0</i>
   <i name="CSHIFT">      0.10000000</i>
   <i name="OMEGAMAX">     -1.00000000</i>
   <i name="DEG_THRESHOLD">      0.00200000</i>
  </separator>
  <separator name="orbital magnetization" >
   <i type="logical" name="NUCIND"> F  </i>
   <v name="MAGPOS">      0.00000000      0.00000000      0.00000000</v>
   <i type="logical" name="LNICSALL"> T  </i>
   <i type="logical" name="ORBITALMAG"> F  </i>
   <i type="logical" name="LMAGBLOCH"> F  </i>
   <i type="logical" name="LCHIMAG"> F  </i>
   <i type="logical" name="LGAUGE"> T  </i>
   <i type="int" name="MAGATOM">     0</i>
   <v name="MAGDIPOL">      0.00000000      0.00000000      0.00000000</v>
   <v name="AVECCONST">      0.00000000      0.00000000      0.00000000</v>
  </separator>
  <separator name="response functions" >
   <i type="logical" name="LADDER"> F  </i>
   <i type="logical" name="LFXC"> F  </i>
   <i type="logical" name="LHARTREE"> T  </i>
   <i type="int" name="IBSE">     0</i>
   <v type="int" name="KPOINT">    -1     0     0     0</v>
   <i type="logical" name="LTCTE"> F  </i>
   <i type="logical" name="LTETE"> F  </i>
   <i type="logical" name="LTRIPLET"> F  </i>
   <i type="logical" name="LFXCEPS"> F  </i>
   <i type="logical" name="LFXHEG"> F  </i>
   <i type="int" name="NATURALO">     0</i>
   <i type="logical" name="L2ORDER"> F  </i>
   <i type="logical" name="LUSEW"> F  </i>
   <i name="ENCUTGW">     -2.00000000</i>
   <i name="ENCUTGWSOFT">     -2.00000000</i>
   <i name="ENCUTLF">     -1.00000000</i>
   <i type="int" name="LMAXMP2">    -1</i>
   <i name="SCISSOR">      0.00000000</i>
   <i type="int" name="NOMEGA">     0</i>
   <i type="int" name="NOMEGAR">     0</i>
   <i type="int" name="NBANDSGW">    -1</i>
   <i type="int" name="NBANDSO">    -1</i>
   <i type="int" name="NBANDSV">    -1</i>
   <i type="int" name="NELM">     1</i>
   <i type="int" name="NELMHF">     1</i>
   <i type="int" name="DIM">     3</i>
   <i type="int" name="ANTIRES">     0</i>
   <i name="OMEGAMAX">    -30.00000000</i>
   <i name="OMEGAMIN">    -30.00000000</i>
   <i name="OMEGATL">   -200.00000000</i>
   <i type="int" name="OMEGAGRID">     0</i>
   <i name="CSHIFT">     -0.10000000</i>
   <i type="logical" name="SELFENERGY"> F  </i>
   <i type="logical" name="LSPECTRAL"> F  </i>
   <i type="logical" name="LSPECTRALGW"> F  </i>
   <i type="logical" name="LSINGLES"> F  </i>
   <i type="logical" name="LFERMIGW"> F  </i>
   <i type="logical" name="ODDONLYGW"> F  </i>
   <i type="logical" name="EVENONLYGW"> F  </i>
   <i type="int" name="NKREDLFX">     1</i>
   <i type="int" name="NKREDLFY">     1</i>
   <i type="int" name="NKREDLFZ">     1</i>
   <i type="int" name="MAXMEM">  1800</i>
   <i type="int" name="TELESCOPE">     0</i>
   <i type="int" name="TAUPAR">     1</i>
   <i type="int" name="OMEGAPAR">    -1</i>
   <i name="LAMBDA">      1.00000000</i>
  </separator>
  <separator name="External order field" >
   <i name="OFIELD_KAPPA">      0.00000000</i>
   <v name="OFIELD_K">      0.00000000      0.00000000      0.00000000</v>
   <i name="OFIELD_Q6_NEAR">      0.00000000</i>
   <i name="OFIELD_Q6_FAR">      0.00000000</i>
   <i name="OFIELD_A">      0.00000000</i>
  </separator>
 </parameters>
 <atominfo>
  <atoms>       2 </atoms>
  <types>       1 </types>
  <array name="atoms" >
   <dimension dim="1">ion</dimension>
   <field type="string">element</field>
   <field type="int">atomtype</field>
   <set>
    <rc><c>Pt</c><c>   1</c></rc>
    <rc><c>Pt</c><c>   1</c></rc>
   </set>
  </array>
  <array name="atomtypes" >
   <dimension dim="1">type</dimension>
   <field type="int">atomspertype</field>
   <field type="string">element</field>
   <field>mass</field>
   <field>valence</field>
   <field type="string">pseudopotential</field>
   <set>
    <rc><c>   2</c><c>Pt</c><c>    195.08000000</c><c>     10.00000000</c><c> PAW_PBE Pt 05Jan2001                   </c></rc>
   </set>
  </array>
 </atominfo>
 <structure name="initialpos" >
  <crystal>
   <varray name="basis" >
    <v>       3.10000000       0.00000000       0.00000000 </v>
    <v>       0.00000000       3.10000000       0.00000000 </v>
    <v>       0.00000000       0.00000000       3.10000000 </v>
   </varray>
   <i name="volume">     29.79100000 </i>
   <varray name="rec_basis" >
    <v>       0.32258065       0.00000000       0.00000000 </v>
    <v>       0.00000000       0.32258065       0.00000000 </v>
    <v>       0.00000000       0.00000000       0.32258065 </v>
   </varray>
  </crystal>
  <varray name="positions" >
   <v>       0.00000000       0.00000000       0.00000000 </v>
   <v>       0.50000000       0.50000000       0.50000000 </v>
  </varray>
 </structure>
 <calculation>
  <scstep>
   <time name="dav">    0.21    0.21</time>
   <time name="total">    0.23    0.26</time>
   <energy>
    <i name="alphaZ">    195.35467759 </i>
    <i name="ewald">  -1690.45765860 </i>
    <i name="hartreedc">   -140.58775969 </i>
    <i name="XCdc">      7.71863003 </i>
    <i name="pawpsdc">   1146.49098650 </i>
    <i name="pawaedc">  -1089.92424116 </i>
    <i name="eentropy">      0.00000000 </i>
    <i name="bandstr">    316.41090866 </i>
    <i name="atom">   1458.22633362 </i>
    <i name="e_fr_energy">    203.23187694 </i>
    <i name="e_wo_entrp">    203.23187694 </i>
    <i name="e_0_energy">    203.23187694 </i>
   </energy>
  </scstep>
  <scstep>
   <time name="dav">    0.20    0.20</time>
   <time name="total">    0.21    0.22</time>
   <energy>
    <i name="e_fr_energy">     -4.05310378 </i>
    <i name="e_wo_entrp">     -4.05310378 </i>
    <i name="e_0_energy">     -4.05310378 </i>
   </energy>
  </scstep>
  <scstep>
   <time name="dav">    0.24    0.24</time>
   <time name="total">    0.25    0.26</time>
   <energy>
    <i name="e_fr_energy">    -12.38164904 </i>
    <i name="e_wo_entrp">    -12.38164904 </i>
    <i name="e_0_energy">    -12.38164904 </i>
   </energy>
  </scstep>
  <scstep>
   <time name="dav">    0.21    0.21</time>
   <time name="total">    0.22    0.23</time>
   <energy>
    <i name="e_fr_energy">    -12.50392784 </i>
    <i name="e_wo_entrp">    -12.50392784 </i>
    <i name="e_0_energy">    -12.50392784 </i>
   </energy>
  </scstep>
  <scstep>
   <time name="dav">    0.24    0.24</time>
   <time name="total">    0.26    0.27</time>
   <energy>
    <i name="e_fr_energy">    -12.50671596 </i>
    <i name="e_wo_entrp">    -12.50671596 </i>
    <i name="e_0_energy">    -12.50671596 </i>
   </energy>
  </scstep>
  <scstep>
   <time name="diag">    0.03    0.03</time>
   <time name="diis">    0.12    0.12</time>
   <time name="orth">    0.00    0.00</time>
   <time name="total">    0.18    0.20</time>
   <energy>
    <i name="e_fr_energy">    -11.89604115 </i>
    <i name="e_wo_entrp">    -11.89604115 </i>
    <i name="e_0_energy">    -11.89604115 </i>
   </energy>
  </scstep>
  <scstep>
   <time name="diag">    0.03    0.03</time>
   <time name="diis">    0.12    0.12</time>
   <time name="orth">    0.00    0.00</time>
   <time name="total">    0.19    0.19</time>
   <energy>
    <i name="e_fr_energy">    -11.82548412 </i>
    <i name="e_wo_entrp">    -11.82548412 </i>
    <i name="e_0_energy">    -11.82548412 </i>
   </energy>
  </scstep>
  <scstep>
   <time name="diag">    0.03    0.03</time>
   <time name="diis">    0.12    0.12</time>
   <time name="orth">    0.00    0.00</time>
   <time name="total">    0.19    0.21</time>
   <energy>
    <i name="e_fr_energy">    -11.81753684 </i>
    <i name="e_wo_entrp">    -11.81753684 </i>
    <i name="e_0_energy">    -11.81753684 </i>
   </energy>
  </scstep>
  <scstep>
   <time name="diag">    0.03    0.03</time>
   <time name="diis">    0.13    0.13</time>
   <time name="orth">    0.00    0.00</time>
   <time name="total">    0.20    0.20</time>
   <energy>
    <i name="e_fr_energy">    -11.81759737 </i>
    <i name="e_wo_entrp">    -11.81759737 </i>
    <i name="e_0_energy">    -11.81759737 </i>
   </energy>
  </scstep>
  <scstep>
   <time name="diag">    0.03    0.03</time>
   <time name="diis">    0.12    0.12</time>
   <time name="orth">    0.00    0.00</time>
   <time name="total">    0.18    0.19</time>
   <energy>
    <i name="e_fr_energy">    -11.81760916 </i>
    <i name="e_wo_entrp">    -11.81760916 </i>
    <i name="e_0_energy">    -11.81760916 </i>
   </energy>
  </scstep>
  <scstep>
   <time name="diag">    0.03    0.03</time>
   <time name="diis">    0.08    0.08</time>
   <time name="orth">    0.00    0.00</time>
   <time name="total">    0.13    0.13</time>
   <energy>
    <i name="alphaZ">    195.35467759 </i>
    <i name="ewald">  -1690.45765860 </i>
    <i name="hartreedc">   -121.84125177 </i>
    <i name="XCdc">      7.05186550 </i>
    <i name="pawpsdc">   1214.48176742 </i>
    <i name="pawaedc">  -1163.37783909 </i>
    <i name="eentropy">      0.00000000 </i>
    <i name="bandstr">     88.74450054 </i>
    <i name="atom">   1458.22633362 </i>
    <i name="e_fr_energy">    -11.81760480 </i>
    <i name="e_wo_entrp">    -11.81760480 </i>
    <i name="e_0_energy">    -11.81760480 </i>
   </energy>
  </scstep>
  <structure>
   <crystal>
    <varray name="basis" >
     <v>       3.10000000       0.00000000       0.00000000 </v>
     <v>       0.00000000       3.10000000       0.00000000 </v>
     <v>       0.00000000       0.00000000       3.10000000 </v>
    </varray>
    <i name="volume">     29.79100000 </i>
    <varray name="rec_basis" >
     <v>       0.32258065       0.00000000       0.00000000 </v>
     <v>       0.00000000       0.32258065       0.00000000 </v>
     <v>       0.00000000       0.00000000       0.32258065 </v>
    </varray>
   </crystal>
   <varray name="positions" >
    <v>       0.00000000       0.00000000       0.00000000 </v>
    <v>       0.50000000       0.50000000       0.50000000 </v>
   </varray>
  </structure>
  <varray name="forces" >
   <v>       0.00000000       0.00000000       0.00000000 </v>
   <v>      -0.00000000      -0.00000000      -0.00000000 </v>
  </varray>
  <varray name="stress" >
   <v>     182.90582393       0.00000000       0.00000000 </v>
   <v>       0.00000000     182.90582393       0.00000000 </v>
   <v>       0.00000000       0.00000000     182.90582393 </v>
  </varray>
  <energy>
   <i name="e_fr_energy">    -11.81760480 </i>
   <i name="e_wo_entrp">    -11.81760480 </i>
   <i name="e_0_energy">      0.00000000 </i>
  </energy>
  <time name="totalsc">    2.62    2.83</time>
  <eigenvalues>
   <array>
    <dimension dim="1">band</dimension>
    <dimension dim="2">kpoint</dimension>
    <dimension dim="3">spin</dimension>
    <field>eigene</field>
    <field>occ</field>
    <set>
     <set comment="spin 1">
      <set comment="kpoint 1">
       <r>   -2.2347    1.0000 </r>
       <r>    1.2113    1.0000 </r>
       <r>    1.2113    1.0000 </r>
       <r>    4.0632    1.0000 </r>
       <r>    4.0632    1.0000 </r>
       <r>    4.0632    1.0000 </r>
       <r>    6.7900    1.0000 </r>
       <r>    6.7900    1.0000 </r>
       <r>    8.4691    0.0481 </r>
       <r>    8.4691   -0.2357 </r>
       <r>    8.4691    0.0000 </r>
       <r>   15.8287    0.0000 </r>
       <r>   15.8287    0.0000 </r>
       <r>   15.8287    0.0000 </r>
      </set>
      <set comment="kpoint 2">
       <r>   -1.9683    1.0000 </r>
       <r>    1.3412    1.0000 </r>
       <r>    1.3925    1.0000 </r>
       <r>    4.0678    1.0000 </r>
       <r>    4.0678    1.0000 </r>
       <r>    4.1717    1.0000 </r>
       <r>    6.5627    1.0000 </r>
       <r>    6.8748    1.0000 </r>
       <r>    8.0025    0.7838 </r>
       <r>    8.0025    0.5884 </r>
       <r>    8.3020   -0.0009 </r>
       <r>   14.4554    0.0000 </r>
       <r>   16.6072    0.0000 </r>
       <r>   16.6072    0.0000 </r>
      </set>
      <set comment="kpoint 3">
       <r>   -1.2015    1.0000 </r>
       <r>    1.7244    1.0000 </r>
       <r>    1.8509    1.0000 </r>
       <r>    4.1110    1.0000 </r>
       <r>    4.1110    1.0000 </r>
       <r>    4.4906    1.0000 </r>
       <r>    5.9397    1.0000 </r>
       <r>    7.0114    1.0000 </r>
       <r>    7.0114    1.0007 </r>
       <r>    7.0979    1.0298 </r>
       <r>    7.8375    0.2815 </r>
       <r>   12.0366    0.0000 </r>
       <r>   18.5187    0.0000 </r>
       <r>   18.5187    0.0000 </r>
      </set>
      <set comment="kpoint 4">
       <r>   -0.0451    1.0000 </r>
       <r>    2.2911    1.0000 </r>
       <r>    2.3397    1.0000 </r>
       <r>    4.2629    1.0000 </r>
       <r>    4.2629    1.0000 </r>
       <r>    4.9982    1.0000 </r>
       <r>    5.0620    1.0000 </r>
       <r>    5.9982    1.0000 </r>
       <r>    5.9982    1.0000 </r>
       <r>    7.1683    1.0000 </r>
       <r>    7.3788    1.0863 </r>
       <r>    9.8204    0.0000 </r>
       <r>   21.0105    0.0000 </r>
       <r>   21.0105    0.0000 </r>
      </set>
      <set comment="kpoint 5">
       <r>    1.2502    1.0000 </r>
       <r>    2.1829    1.0000 </r>
       <r>    3.1485    1.0000 </r>
       <r>    4.0877    1.0000 </r>
       <r>    4.5996    1.0000 </r>
       <r>    4.5996    1.0000 </r>
       <r>    5.1744    1.0000 </r>
       <r>    5.1744    1.0000 </r>
       <r>    5.6564    1.0000 </r>
       <r>    6.4069    1.0000 </r>
       <r>    7.6927    1.0000 </r>
       <r>    8.3397    0.0000 </r>
       <r>   22.9030    0.0000 </r>
       <r>   23.6379    0.0000 </r>
      </set>
      <set comment="kpoint 6">
       <r>   -1.7122    1.0000 </r>
       <r>    1.4808    1.0000 </r>
       <r>    1.5566    1.0000 </r>
       <r>    3.8547    1.0000 </r>
       <r>    4.0555    1.0000 </r>
       <r>    4.5005    1.0000 </r>
       <r>    6.5445    1.0000 </r>
       <r>    6.8075    1.0000 </r>
       <r>    7.2903    1.0174 </r>
       <r>    7.5322    1.0074 </r>
       <r>    8.5348   -0.0014 </r>
       <r>   15.0831    0.0000 </r>
       <r>   15.3168    0.0000 </r>
       <r>   17.2218    0.0000 </r>
      </set>
      <set comment="kpoint 7">
       <r>   -0.9823    1.0000 </r>
       <r>    1.8208    1.0000 </r>
       <r>    2.0255    1.0000 </r>
       <r>    3.7272    1.0000 </r>
       <r>    4.0564    1.0000 </r>
       <r>    4.9935    1.0000 </r>
       <r>    6.1009    1.0000 </r>
       <r>    6.2636    1.0000 </r>
       <r>    6.5916    1.0008 </r>
       <r>    7.0021    1.0060 </r>
       <r>    8.3547   -0.0613 </r>
       <r>   12.7062    0.0000 </r>
       <r>   16.9071    0.0000 </r>
       <r>   18.8583    0.0000 </r>
      </set>
      <set comment="kpoint 8">
       <r>    0.0936    1.0000 </r>
       <r>    2.2355    1.0000 </r>
       <r>    2.5655    1.0000 </r>
       <r>    3.7688    1.0000 </r>
       <r>    4.0945    1.0000 </r>
       <r>    5.2993    1.0000 </r>
       <r>    5.4732    1.0000 </r>
       <r>    5.6079    1.0000 </r>
       <r>    5.7879    1.0000 </r>
       <r>    7.3089    1.0000 </r>
       <r>    7.8107    0.5792 </r>
       <r>   10.3358    0.0000 </r>
       <r>   18.8828    0.0000 </r>
       <r>   21.1402    0.0000 </r>
      </set>
      <set comment="kpoint 9">
       <r>    1.2587    1.0000 </r>
       <r>    2.1131    1.0000 </r>
       <r>    3.2021    1.0000 </r>
       <r>    3.8614    1.0000 </r>
       <r>    4.0276    1.0000 </r>
       <r>    4.5371    1.0000 </r>
       <r>    5.1985    1.0000 </r>
       <r>    5.3894    1.0000 </r>
       <r>    6.3230    1.0000 </r>
       <r>    7.0874    1.0000 </r>
       <r>    7.6915    0.9033 </r>
       <r>    8.5722    0.0000 </r>
       <r>   20.6178    0.0000 </r>
       <r>   22.1908    0.0000 </r>
      </set>
      <set comment="kpoint 10">
       <r>   -0.3873    1.0000 </r>
       <r>    1.9615    1.0000 </r>
       <r>    2.5716    1.0000 </r>
       <r>    3.3616    1.0000 </r>
       <r>    4.0403    1.0000 </r>
       <r>    5.2288    1.0000 </r>
       <r>    5.7263    1.0000 </r>
       <r>    5.8754    1.0000 </r>
       <r>    6.3069    1.0000 </r>
       <r>    6.8804    1.0059 </r>
       <r>    8.7040   -0.0254 </r>
       <r>   13.7782    0.0000 </r>
       <r>   14.6070    0.0000 </r>
       <r>   19.8987    0.0000 </r>
      </set>
      <set comment="kpoint 11">
       <r>    0.3951    1.0000 </r>
       <r>    1.9756    1.0000 </r>
       <r>    3.2017    1.0000 </r>
       <r>    3.2573    1.0000 </r>
       <r>    4.2104    1.0000 </r>
       <r>    4.3310    1.0000 </r>
       <r>    5.5556    1.0000 </r>
       <r>    6.1137    1.0000 </r>
       <r>    6.5184    1.0000 </r>
       <r>    7.1277    1.0304 </r>
       <r>    8.5619   -0.0798 </r>
       <r>   11.3782    0.0000 </r>
       <r>   16.0903    0.0000 </r>
       <r>   21.6053    0.0000 </r>
      </set>
      <set comment="kpoint 12">
       <r>    1.1269    1.0000 </r>
       <r>    1.6821    1.0000 </r>
       <r>    3.2970    1.0000 </r>
       <r>    3.6739    1.0000 </r>
       <r>    3.8546    1.0000 </r>
       <r>    4.2532    1.0000 </r>
       <r>    5.7873    1.0000 </r>
       <r>    6.0010    1.0000 </r>
       <r>    7.3173    1.0000 </r>
       <r>    7.6823    0.9616 </r>
       <r>    8.0422    0.0482 </r>
       <r>    9.1225    0.0000 </r>
       <r>   17.8651    0.0000 </r>
       <r>   19.7561    0.0000 </r>
      </set>
      <set comment="kpoint 13">
       <r>    0.6575    1.0000 </r>
       <r>    1.5755    1.0000 </r>
       <r>    2.8513    1.0000 </r>
       <r>    3.5354    1.0000 </r>
       <r>    4.1930    1.0000 </r>
       <r>    4.9307    1.0000 </r>
       <r>    5.6840    1.0000 </r>
       <r>    6.5071    1.0000 </r>
       <r>    7.0170    1.0000 </r>
       <r>    7.4225    1.0476 </r>
       <r>    8.9017    0.0000 </r>
       <r>   11.4731    0.0000 </r>
       <r>   14.5986    0.0000 </r>
       <r>   19.5615    0.0000 </r>
      </set>
      <set comment="kpoint 14">
       <r>    0.8806    1.0000 </r>
       <r>    1.1785    1.0000 </r>
       <r>    2.7774    1.0000 </r>
       <r>    3.0061    1.0000 </r>
       <r>    5.0198    1.0000 </r>
       <r>    5.4398    1.0000 </r>
       <r>    6.1606    1.0000 </r>
       <r>    6.5719    1.0000 </r>
       <r>    7.6189    1.0000 </r>
       <r>    8.2099    0.0386 </r>
       <r>    8.7525    0.0000 </r>
       <r>    9.5116    0.0000 </r>
       <r>   15.5849    0.0000 </r>
       <r>   17.3538    0.0000 </r>
      </set>
      <set comment="kpoint 15">
       <r>    0.7493    1.0000 </r>
       <r>    0.8441    1.0000 </r>
       <r>    2.5418    1.0000 </r>
       <r>    2.6183    1.0000 </r>
       <r>    6.2901    1.0000 </r>
       <r>    6.4559    1.0000 </r>
       <r>    6.5069    1.0000 </r>
       <r>    7.1413    1.0000 </r>
       <r>    7.4662    1.0000 </r>
       <r>    8.8295   -0.1348 </r>
       <r>    8.9154    0.0000 </r>
       <r>    9.0339    0.0000 </r>
       <r>   14.6849    0.0000 </r>
       <r>   15.4793    0.0000 </r>
      </set>
      <set comment="kpoint 16">
       <r>   -1.4631    1.0000 </r>
       <r>    1.6684    1.0000 </r>
       <r>    1.6684    1.0000 </r>
       <r>    3.8317    1.0000 </r>
       <r>    3.8317    1.0000 </r>
       <r>    4.8462    1.0000 </r>
       <r>    6.3799    1.0000 </r>
       <r>    6.6521    1.0000 </r>
       <r>    6.6521    1.0203 </r>
       <r>    8.0740    0.7891 </r>
       <r>    8.0740    0.0092 </r>
       <r>   15.3059    0.0000 </r>
       <r>   16.0647    0.0000 </r>
       <r>   16.0647    0.0000 </r>
      </set>
      <set comment="kpoint 17">
       <r>   -0.7588    1.0000 </r>
       <r>    1.9925    1.0000 </r>
       <r>    2.1300    1.0000 </r>
       <r>    3.6400    1.0000 </r>
       <r>    3.7820    1.0000 </r>
       <r>    5.3413    1.0000 </r>
       <r>    5.4446    1.0000 </r>
       <r>    6.2311    1.0000 </r>
       <r>    6.9232    1.0002 </r>
       <r>    7.1188    1.0090 </r>
       <r>    8.1404    0.0125 </r>
       <r>   13.2947    0.0000 </r>
       <r>   16.7605    0.0000 </r>
       <r>   17.8560    0.0000 </r>
      </set>
      <set comment="kpoint 18">
       <r>    0.2571    1.0000 </r>
       <r>    2.4742    1.0000 </r>
       <r>    2.4891    1.0000 </r>
       <r>    3.6925    1.0000 </r>
       <r>    3.7190    1.0000 </r>
       <r>    4.6247    1.0000 </r>
       <r>    5.6958    1.0000 </r>
       <r>    6.1561    1.0000 </r>
       <r>    6.1898    1.0000 </r>
       <r>    7.2573    1.0000 </r>
       <r>    7.7416    0.5693 </r>
       <r>   10.9232    0.0000 </r>
       <r>   18.2824    0.0000 </r>
       <r>   20.0792    0.0000 </r>
      </set>
      <set comment="kpoint 19">
       <r>    1.3234    1.0000 </r>
       <r>    2.1576    1.0000 </r>
       <r>    3.0667    1.0000 </r>
       <r>    3.5307    1.0000 </r>
       <r>    4.0217    1.0000 </r>
       <r>    4.3649    1.0000 </r>
       <r>    5.3583    1.0000 </r>
       <r>    5.5415    1.0000 </r>
       <r>    6.8066    1.0000 </r>
       <r>    7.2222    1.0000 </r>
       <r>    7.7909    0.5901 </r>
       <r>    9.0168    0.0000 </r>
       <r>   19.8465    0.0000 </r>
       <r>   21.5192    0.0000 </r>
      </set>
      <set comment="kpoint 20">
       <r>   -0.1545    1.0000 </r>
       <r>    2.1876    1.0000 </r>
       <r>    2.6268    1.0000 </r>
       <r>    3.3184    1.0000 </r>
       <r>    3.6848    1.0000 </r>
       <r>    4.3780    1.0000 </r>
       <r>    6.2334    1.0000 </r>
       <r>    6.4135    1.0000 </r>
       <r>    6.6607    1.0000 </r>
       <r>    6.8329    1.0055 </r>
       <r>    8.2379   -0.0119 </r>
       <r>   14.5003    0.0000 </r>
       <r>   14.6028    0.0000 </r>
       <r>   18.4591    0.0000 </r>
      </set>
      <set comment="kpoint 21">
       <r>    0.6200    1.0000 </r>
       <r>    2.1962    1.0000 </r>
       <r>    3.1466    1.0000 </r>
       <r>    3.1628    1.0000 </r>
       <r>    3.8034    1.0000 </r>
       <r>    3.9247    1.0000 </r>
       <r>    6.0736    1.0000 </r>
       <r>    6.1856    1.0000 </r>
       <r>    7.0093    1.0000 </r>
       <r>    7.2251    1.0256 </r>
       <r>    8.0916    0.0174 </r>
       <r>   12.0283    0.0000 </r>
       <r>   16.0443    0.0000 </r>
       <r>   19.9703    0.0000 </r>
      </set>
      <set comment="kpoint 22">
       <r>    1.3028    1.0000 </r>
       <r>    1.8412    1.0000 </r>
       <r>    3.1911    1.0000 </r>
       <r>    3.2415    1.0000 </r>
       <r>    4.0676    1.0000 </r>
       <r>    4.0904    1.0000 </r>
       <r>    5.9255    1.0000 </r>
       <r>    5.9845    1.0000 </r>
       <r>    7.2434    1.0000 </r>
       <r>    7.6071    1.0046 </r>
       <r>    8.3508   -0.0540 </r>
       <r>    9.9128    0.0000 </r>
       <r>   17.6653    0.0000 </r>
       <r>   19.5581    0.0000 </r>
      </set>
      <set comment="kpoint 23">
       <r>    0.9145    1.0000 </r>
       <r>    1.7643    1.0000 </r>
       <r>    2.8251    1.0000 </r>
       <r>    3.3133    1.0000 </r>
       <r>    4.1390    1.0000 </r>
       <r>    4.4025    1.0000 </r>
       <r>    6.0087    1.0000 </r>
       <r>    6.5225    1.0000 </r>
       <r>    7.0190    1.0000 </r>
       <r>    8.1510    0.4759 </r>
       <r>    8.3125   -0.0005 </r>
       <r>   12.3640    0.0000 </r>
       <r>   14.4580    0.0000 </r>
       <r>   19.4889    0.0000 </r>
      </set>
      <set comment="kpoint 24">
       <r>    1.1105    1.0000 </r>
       <r>    1.3720    1.0000 </r>
       <r>    2.7550    1.0000 </r>
       <r>    2.9399    1.0000 </r>
       <r>    4.8989    1.0000 </r>
       <r>    5.0705    1.0000 </r>
       <r>    6.2773    1.0000 </r>
       <r>    6.5175    1.0000 </r>
       <r>    7.2775    1.0000 </r>
       <r>    7.9470    0.5606 </r>
       <r>    9.2262    0.0000 </r>
       <r>   10.6713    0.0000 </r>
       <r>   15.4633    0.0000 </r>
       <r>   17.2403    0.0000 </r>
      </set>
      <set comment="kpoint 25">
       <r>    0.9866    1.0000 </r>
       <r>    1.0653    1.0000 </r>
       <r>    2.5371    1.0000 </r>
       <r>    2.6087    1.0000 </r>
       <r>    6.0155    1.0000 </r>
       <r>    6.2828    1.0000 </r>
       <r>    6.5486    1.0000 </r>
       <r>    6.7362    1.0000 </r>
       <r>    7.1504    1.0000 </r>
       <r>    7.7567    0.7056 </r>
       <r>   10.0239    0.0000 </r>
       <r>   10.6900    0.0000 </r>
       <r>   14.5087    0.0000 </r>
       <r>   15.3414    0.0000 </r>
      </set>
      <set comment="kpoint 26">
       <r>    0.4669    1.0000 </r>
       <r>    2.7703    1.0000 </r>
       <r>    2.7703    1.0000 </r>
       <r>    3.2215    1.0000 </r>
       <r>    3.2215    1.0000 </r>
       <r>    3.4182    1.0000 </r>
       <r>    6.6893    1.0000 </r>
       <r>    6.6893    1.0000 </r>
       <r>    7.1954    1.0000 </r>
       <r>    7.3631    1.0045 </r>
       <r>    7.3631    0.8148 </r>
       <r>   14.5878    0.0000 </r>
       <r>   16.1239    0.0000 </r>
       <r>   16.1239    0.0000 </r>
      </set>
      <set comment="kpoint 27">
       <r>    1.1822    1.0000 </r>
       <r>    2.5313    1.0000 </r>
       <r>    2.9375    1.0000 </r>
       <r>    3.1358    1.0000 </r>
       <r>    3.1794    1.0000 </r>
       <r>    3.6311    1.0000 </r>
       <r>    6.4747    1.0000 </r>
       <r>    6.6409    1.0000 </r>
       <r>    7.0150    1.0000 </r>
       <r>    7.5300    1.0034 </r>
       <r>    8.2672   -0.0037 </r>
       <r>   13.1452    0.0000 </r>
       <r>   15.7196    0.0000 </r>
       <r>   18.0282    0.0000 </r>
      </set>
      <set comment="kpoint 28">
       <r>    1.6240    1.0000 </r>
       <r>    1.9899    1.0000 </r>
       <r>    3.0489    1.0000 </r>
       <r>    3.0922    1.0000 </r>
       <r>    3.7047    1.0000 </r>
       <r>    4.0461    1.0000 </r>
       <r>    6.2832    1.0000 </r>
       <r>    6.2843    1.0000 </r>
       <r>    7.2084    1.0000 </r>
       <r>    7.3425    1.0208 </r>
       <r>    9.5129   -0.0152 </r>
       <r>   11.1219    0.0000 </r>
       <r>   16.8607    0.0000 </r>
       <r>   18.7125    0.0000 </r>
      </set>
      <set comment="kpoint 29">
       <r>    1.6368    1.0000 </r>
       <r>    2.1011    1.0000 </r>
       <r>    2.7816    1.0000 </r>
       <r>    3.1409    1.0000 </r>
       <r>    3.5100    1.0000 </r>
       <r>    3.9503    1.0000 </r>
       <r>    6.6103    1.0000 </r>
       <r>    6.7154    1.0000 </r>
       <r>    7.0130    1.0000 </r>
       <r>    7.5153    1.0157 </r>
       <r>    9.4409   -0.0124 </r>
       <r>   14.0676    0.0000 </r>
       <r>   14.1381    0.0000 </r>
       <r>   18.1554    0.0000 </r>
      </set>
      <set comment="kpoint 30">
       <r>    1.7009    1.0000 </r>
       <r>    1.7915    1.0000 </r>
       <r>    2.7707    1.0000 </r>
       <r>    2.9462    1.0000 </r>
       <r>    4.2259    1.0000 </r>
       <r>    4.4605    1.0000 </r>
       <r>    6.5957    1.0000 </r>
       <r>    6.6703    1.0000 </r>
       <r>    7.1776    1.0000 </r>
       <r>    7.3730    1.0263 </r>
       <r>   10.6707    0.0000 </r>
       <r>   12.1820    0.0000 </r>
       <r>   15.2266    0.0000 </r>
       <r>   16.9158    0.0000 </r>
      </set>
      <set comment="kpoint 31">
       <r>    1.6383    1.0000 </r>
       <r>    1.6389    1.0000 </r>
       <r>    2.5536    1.0000 </r>
       <r>    2.6514    1.0000 </r>
       <r>    5.0914    1.0000 </r>
       <r>    5.1723    1.0000 </r>
       <r>    6.7823    1.0000 </r>
       <r>    6.8385    1.0000 </r>
       <r>    7.1724    1.0000 </r>
       <r>    7.3008    1.0272 </r>
       <r>   11.7281    0.0000 </r>
       <r>   12.6420    0.0000 </r>
       <r>   14.0556    0.0000 </r>
       <r>   15.0492    0.0000 </r>
      </set>
      <set comment="kpoint 32">
       <r>    2.0749    1.0000 </r>
       <r>    2.6151    1.0000 </r>
       <r>    2.7981    1.0000 </r>
       <r>    2.7981    1.0000 </r>
       <r>    3.6155    1.0000 </r>
       <r>    3.6155    1.0000 </r>
       <r>    6.9806    1.0000 </r>
       <r>    6.9806    1.0000 </r>
       <r>    7.0585    1.0000 </r>
       <r>    7.0585    1.0000 </r>
       <r>   10.7431   -0.0056 </r>
       <r>   13.8627    0.0000 </r>
       <r>   15.9746    0.0000 </r>
       <r>   15.9747    0.0000 </r>
      </set>
      <set comment="kpoint 33">
       <r>    2.0389    1.0000 </r>
       <r>    2.2467    1.0000 </r>
       <r>    2.9431    1.0000 </r>
       <r>    3.2353    1.0000 </r>
       <r>    3.6415    1.0000 </r>
       <r>    4.0147    1.0000 </r>
       <r>    6.9155    1.0000 </r>
       <r>    6.9293    1.0000 </r>
       <r>    7.1629    1.0000 </r>
       <r>    7.2015    1.0000 </r>
       <r>   11.9770    0.0000 </r>
       <r>   13.2342    0.0000 </r>
       <r>   15.1386    0.0000 </r>
       <r>   16.2368    0.0000 </r>
      </set>
      <set comment="kpoint 34">
       <r>    2.2165    1.0000 </r>
       <r>    2.4887    1.0000 </r>
       <r>    2.6644    1.0000 </r>
       <r>    2.9774    1.0000 </r>
       <r>    4.0736    1.0000 </r>
       <r>    4.2225    1.0000 </r>
       <r>    7.0439    1.0000 </r>
       <r>    7.0574    1.0000 </r>
       <r>    7.1946    1.0000 </r>
       <r>    7.2117    1.0000 </r>
       <r>   12.9742    0.0000 </r>
       <r>   13.5263    0.0000 </r>
       <r>   14.7167    0.0000 </r>
       <r>   15.1346    0.0000 </r>
      </set>
      <set comment="kpoint 35">
       <r>    2.5992    1.0000 </r>
       <r>    2.9483    1.0000 </r>
       <r>    2.9483    1.0000 </r>
       <r>    3.4620    1.0000 </r>
       <r>    3.4620    1.0000 </r>
       <r>    3.5473    1.0000 </r>
       <r>    7.2049    1.0000 </r>
       <r>    7.2049    1.0000 </r>
       <r>    7.2058    1.0000 </r>
       <r>    7.2058    1.0000 </r>
       <r>   13.1530    0.0000 </r>
       <r>   13.1820    0.0000 </r>
       <r>   15.9813    0.0000 </r>
       <r>   16.8175    0.0000 </r>
      </set>
     </set>
    </set>
   </array>
  </eigenvalues>
  <separator name="orbital magnetization" >
   <v name="MAGDIPOLOUT">      0.00000000      0.00000000      0.00000000</v>
  </separator>
  <dos>
   <i name="efermi">      7.88617583 </i>
   <total>
    <array>
     <dimension dim="1">gridpoints</dimension>
     <dimension dim="2">spin</dimension>
     <field>energy</field>
     <field>total</field>
     <field>integrated</field>
     <set>
      <set comment="spin 1">
       <r>    -4.2347     0.0000     0.0000 </r>
       <r>    -4.1351     0.0000     0.0000 </r>
       <r>    -4.0355     0.0000     0.0000 </r>
       <r>    -3.9359     0.0000     0.0000 </r>
       <r>    -3.8364     0.0000     0.0000 </r>
       <r>    -3.7368     0.0000     0.0000 </r>
       <r>    -3.6372     0.0000     0.0000 </r>
       <r>    -3.5376     0.0000     0.0000 </r>
       <r>    -3.4381     0.0000     0.0000 </r>
       <r>    -3.3385     0.0000     0.0000 </r>
       <r>    -3.2389     0.0000     0.0000 </r>
       <r>    -3.1393     0.0000     0.0000 </r>
       <r>    -3.0398     0.0000     0.0000 </r>
       <r>    -2.9402     0.0000     0.0000 </r>
       <r>    -2.8406     0.0000     0.0000 </r>
       <r>    -2.7410     0.0000     0.0000 </r>
       <r>    -2.6415     0.0000     0.0000 </r>
       <r>    -2.5419     0.0000     0.0000 </r>
       <r>    -2.4423     0.0000     0.0000 </r>
       <r>    -2.3427     0.0000     0.0000 </r>
       <r>    -2.2431     0.0000     0.0000 </r>
       <r>    -2.1436     0.0050     0.0002 </r>
       <r>    -2.0440     0.0217     0.0014 </r>
       <r>    -1.9444     0.0501     0.0049 </r>
       <r>    -1.8448     0.0746     0.0112 </r>
       <r>    -1.7453     0.0866     0.0193 </r>
       <r>    -1.6457     0.0896     0.0281 </r>
       <r>    -1.5461     0.0964     0.0373 </r>
       <r>    -1.4465     0.1082     0.0474 </r>
       <r>    -1.3470     0.1223     0.0589 </r>
       <r>    -1.2474     0.1371     0.0718 </r>
       <r>    -1.1478     0.1517     0.0862 </r>
       <r>    -1.0482     0.1613     0.1019 </r>
       <r>    -0.9487     0.1673     0.1182 </r>
       <r>    -0.8491     0.1773     0.1353 </r>
       <r>    -0.7495     0.1898     0.1536 </r>
       <r>    -0.6499     0.2015     0.1731 </r>
       <r>    -0.5504     0.2132     0.1937 </r>
       <r>    -0.4508     0.2251     0.2155 </r>
       <r>    -0.3512     0.2373     0.2385 </r>
       <r>    -0.2516     0.2533     0.2629 </r>
       <r>    -0.1521     0.2742     0.2891 </r>
       <r>    -0.0525     0.2984     0.3176 </r>
       <r>     0.0471     0.3231     0.3486 </r>
       <r>     0.1467     0.3469     0.3819 </r>
       <r>     0.2462     0.3705     0.4177 </r>
       <r>     0.3458     0.3942     0.4557 </r>
       <r>     0.4454     0.4382     0.4967 </r>
       <r>     0.5450     0.5087     0.5437 </r>
       <r>     0.6445     0.5837     0.5982 </r>
       <r>     0.7441     0.7055     0.6612 </r>
       <r>     0.8437     1.1884     0.7579 </r>
       <r>     0.9433     1.6252     0.9050 </r>
       <r>     1.0428     1.6528     1.0705 </r>
       <r>     1.1424     1.6553     1.2304 </r>
       <r>     1.2420     1.8983     1.4079 </r>
       <r>     1.3416     1.5249     1.6345 </r>
       <r>     1.4411     1.6602     1.7928 </r>
       <r>     1.5407     1.7747     1.9636 </r>
       <r>     1.6403     1.9808     2.1469 </r>
       <r>     1.7399     2.1791     2.3614 </r>
       <r>     1.8394     2.6102     2.5961 </r>
       <r>     1.9390     2.9879     2.8834 </r>
       <r>     2.0386     3.0534     3.1876 </r>
       <r>     2.1382     3.6177     3.5060 </r>
       <r>     2.2377     2.5088     3.8084 </r>
       <r>     2.3373     1.6399     4.0083 </r>
       <r>     2.4369     1.1651     4.1459 </r>
       <r>     2.5365     0.8842     4.2470 </r>
       <r>     2.6360     2.7536     4.4862 </r>
       <r>     2.7356     3.4450     4.7862 </r>
       <r>     2.8352     4.5447     5.2293 </r>
       <r>     2.9348     3.9121     5.6523 </r>
       <r>     3.0343     4.1953     6.0624 </r>
       <r>     3.1339     4.9727     6.5176 </r>
       <r>     3.2335     3.2756     7.0010 </r>
       <r>     3.3331     2.0338     7.2481 </r>
       <r>     3.4326     1.7851     7.4363 </r>
       <r>     3.5322     1.7872     7.6171 </r>
       <r>     3.6318     2.1263     7.8125 </r>
       <r>     3.7314     3.2475     8.0675 </r>
       <r>     3.8309     3.4528     8.3993 </r>
       <r>     3.9305     4.3354     8.7841 </r>
       <r>     4.0301     6.0564     9.2713 </r>
       <r>     4.1297     3.4182     9.7508 </r>
       <r>     4.2292     2.5660    10.0513 </r>
       <r>     4.3288     2.4086    10.3016 </r>
       <r>     4.4284     2.1461    10.5270 </r>
       <r>     4.5280     1.9555    10.7288 </r>
       <r>     4.6275     1.6088    10.9103 </r>
       <r>     4.7271     1.5238    11.0663 </r>
       <r>     4.8267     1.4282    11.2134 </r>
       <r>     4.9263     1.3147    11.3503 </r>
       <r>     5.0258     1.1889    11.4746 </r>
       <r>     5.1254     1.0496    11.5862 </r>
       <r>     5.2250     1.2338    11.7043 </r>
       <r>     5.3246     1.0236    11.8148 </r>
       <r>     5.4241     1.1566    11.9220 </r>
       <r>     5.5237     1.3758    12.0463 </r>
       <r>     5.6233     1.7309    12.1998 </r>
       <r>     5.7229     2.0908    12.3908 </r>
       <r>     5.8224     2.3583    12.6110 </r>
       <r>     5.9220     2.7148    12.8632 </r>
       <r>     6.0216     3.1551    13.1540 </r>
       <r>     6.1212     3.6814    13.4941 </r>
       <r>     6.2207     3.8458    13.8738 </r>
       <r>     6.3203     3.7696    14.2546 </r>
       <r>     6.4199     3.7099    14.6259 </r>
       <r>     6.5195     4.6359    15.0010 </r>
       <r>     6.6190     3.7924    15.4190 </r>
       <r>     6.7186     3.5640    15.7971 </r>
       <r>     6.8182     3.4295    16.1509 </r>
       <r>     6.9178     3.0140    16.4622 </r>
       <r>     7.0173     4.8665    16.8074 </r>
       <r>     7.1169     5.2622    17.2893 </r>
       <r>     7.2165     6.7896    18.1850 </r>
       <r>     7.3161     3.6255    18.6902 </r>
       <r>     7.4156     3.0528    19.0326 </r>
       <r>     7.5152     2.4771    19.3086 </r>
       <r>     7.6148     1.4969    19.5004 </r>
       <r>     7.7144     2.2643    19.6733 </r>
       <r>     7.8139     1.7041    19.8779 </r>
       <r>     7.9135     1.6654    20.0457 </r>
       <r>     8.0131     1.6146    20.2090 </r>
       <r>     8.1127     1.7314    20.3698 </r>
       <r>     8.2122     1.9707    20.5682 </r>
       <r>     8.3118     1.5604    20.7356 </r>
       <r>     8.4114     1.4060    20.8860 </r>
       <r>     8.5110     1.0642    21.0096 </r>
       <r>     8.6105     0.8292    21.1032 </r>
       <r>     8.7101     0.7083    21.1789 </r>
       <r>     8.8097     0.7105    21.2481 </r>
       <r>     8.9093     0.7012    21.3185 </r>
       <r>     9.0088     0.6426    21.3861 </r>
       <r>     9.1084     0.5822    21.4471 </r>
       <r>     9.2080     0.5570    21.5035 </r>
       <r>     9.3076     0.5637    21.5591 </r>
       <r>     9.4071     0.5781    21.6159 </r>
       <r>     9.5067     0.5974    21.6744 </r>
       <r>     9.6063     0.5885    21.7335 </r>
       <r>     9.7059     0.5783    21.7916 </r>
       <r>     9.8054     0.5682    21.8487 </r>
       <r>     9.9050     0.5582    21.9048 </r>
       <r>    10.0046     0.5478    21.9596 </r>
       <r>    10.1042     0.5404    22.0136 </r>
       <r>    10.2037     0.5385    22.0673 </r>
       <r>    10.3033     0.5363    22.1208 </r>
       <r>    10.4029     0.5340    22.1741 </r>
       <r>    10.5025     0.5317    22.2272 </r>
       <r>    10.6020     0.5294    22.2800 </r>
       <r>    10.7016     0.5116    22.3323 </r>
       <r>    10.8012     0.5096    22.3831 </r>
       <r>    10.9008     0.5072    22.4338 </r>
       <r>    11.0003     0.5044    22.4841 </r>
       <r>    11.0999     0.5012    22.5342 </r>
       <r>    11.1995     0.4991    22.5840 </r>
       <r>    11.2991     0.4972    22.6336 </r>
       <r>    11.3986     0.5050    22.6831 </r>
       <r>    11.4982     0.5148    22.7343 </r>
       <r>    11.5978     0.5072    22.7852 </r>
       <r>    11.6974     0.5002    22.8353 </r>
       <r>    11.7969     0.4970    22.8850 </r>
       <r>    11.8965     0.4907    22.9342 </r>
       <r>    11.9961     0.4852    22.9828 </r>
       <r>    12.0957     0.4764    23.0307 </r>
       <r>    12.1952     0.4678    23.0777 </r>
       <r>    12.2948     0.4673    23.1242 </r>
       <r>    12.3944     0.4690    23.1708 </r>
       <r>    12.4940     0.4714    23.2177 </r>
       <r>    12.5935     0.4741    23.2647 </r>
       <r>    12.6931     0.4841    23.3125 </r>
       <r>    12.7927     0.4870    23.3608 </r>
       <r>    12.8923     0.4894    23.4095 </r>
       <r>    12.9918     0.6307    23.4609 </r>
       <r>    13.0914     0.5553    23.5198 </r>
       <r>    13.1910     0.4873    23.5747 </r>
       <r>    13.2906     0.6106    23.6316 </r>
       <r>    13.3901     0.6042    23.6926 </r>
       <r>    13.4897     0.5345    23.7498 </r>
       <r>    13.5893     0.3036    23.7883 </r>
       <r>    13.6889     0.2742    23.8171 </r>
       <r>    13.7884     0.2453    23.8429 </r>
       <r>    13.8880     0.2169    23.8660 </r>
       <r>    13.9876     0.1827    23.8859 </r>
       <r>    14.0872     0.2168    23.9042 </r>
       <r>    14.1867     0.2498    23.9272 </r>
       <r>    14.2863     0.2947    23.9543 </r>
       <r>    14.3859     0.3460    23.9861 </r>
       <r>    14.4855     0.4104    24.0235 </r>
       <r>    14.5850     0.5938    24.0742 </r>
       <r>    14.6846     0.7364    24.1414 </r>
       <r>    14.7842     0.7512    24.2115 </r>
       <r>    14.8838     0.8122    24.2895 </r>
       <r>    14.9833     0.8612    24.3729 </r>
       <r>    15.0829     1.1701    24.4693 </r>
       <r>    15.1825     1.1003    24.5825 </r>
       <r>    15.2821     0.9417    24.6842 </r>
       <r>    15.3816     1.0022    24.7801 </r>
       <r>    15.4812     0.8790    24.8799 </r>
       <r>    15.5808     0.8028    24.9637 </r>
       <r>    15.6804     0.8092    25.0438 </r>
       <r>    15.7799     0.8245    25.1251 </r>
       <r>    15.8795     0.8244    25.2074 </r>
       <r>    15.9791     0.7988    25.2884 </r>
       <r>    16.0787     0.7181    25.3670 </r>
       <r>    16.1782     0.6996    25.4370 </r>
       <r>    16.2778     0.6905    25.5064 </r>
       <r>    16.3774     0.6751    25.5743 </r>
       <r>    16.4770     0.6616    25.6409 </r>
       <r>    16.5765     0.6500    25.7061 </r>
       <r>    16.6761     0.6447    25.7705 </r>
       <r>    16.7757     0.6359    25.8345 </r>
       <r>    16.8753     0.5914    25.8982 </r>
       <r>    16.9748     0.5664    25.9554 </r>
       <r>    17.0744     0.5621    26.0116 </r>
       <r>    17.1740     0.5554    26.0673 </r>
       <r>    17.2736     0.5484    26.1222 </r>
       <r>    17.3731     0.5421    26.1765 </r>
       <r>    17.4727     0.5425    26.2305 </r>
       <r>    17.5723     0.5431    26.2845 </r>
       <r>    17.6719     0.5309    26.3385 </r>
       <r>    17.7714     0.5318    26.3914 </r>
       <r>    17.8710     0.5345    26.4445 </r>
       <r>    17.9706     0.5444    26.4982 </r>
       <r>    18.0702     0.6052    26.5541 </r>
       <r>    18.1697     0.5307    26.6119 </r>
       <r>    18.2693     0.5286    26.6647 </r>
       <r>    18.3689     0.5219    26.7170 </r>
       <r>    18.4685     0.5112    26.7685 </r>
       <r>    18.5680     0.5043    26.8191 </r>
       <r>    18.6676     0.4966    26.8689 </r>
       <r>    18.7672     0.4890    26.9179 </r>
       <r>    18.8668     0.4826    26.9663 </r>
       <r>    18.9663     0.4777    27.0141 </r>
       <r>    19.0659     0.4734    27.0615 </r>
       <r>    19.1655     0.4698    27.1084 </r>
       <r>    19.2651     0.4667    27.1550 </r>
       <r>    19.3646     0.4644    27.2014 </r>
       <r>    19.4642     0.4626    27.2475 </r>
       <r>    19.5638     0.4800    27.2943 </r>
       <r>    19.6634     0.4703    27.3416 </r>
       <r>    19.7629     0.4599    27.3879 </r>
       <r>    19.8625     0.4483    27.4332 </r>
       <r>    19.9621     0.4382    27.4773 </r>
       <r>    20.0617     0.3801    27.5177 </r>
       <r>    20.1612     0.3659    27.5548 </r>
       <r>    20.2608     0.3524    27.5906 </r>
       <r>    20.3604     0.3384    27.6250 </r>
       <r>    20.4600     0.3238    27.6579 </r>
       <r>    20.5596     0.3088    27.6894 </r>
       <r>    20.6591     0.2791    27.7188 </r>
       <r>    20.7587     0.2633    27.7458 </r>
       <r>    20.8583     0.2473    27.7713 </r>
       <r>    20.9579     0.2309    27.7951 </r>
       <r>    21.0574     0.2153    27.8173 </r>
       <r>    21.1570     0.2045    27.8382 </r>
       <r>    21.2566     0.1855    27.8576 </r>
       <r>    21.3562     0.1678    27.8752 </r>
       <r>    21.4557     0.1514    27.8911 </r>
       <r>    21.5553     0.1369    27.9054 </r>
       <r>    21.6549     0.1218    27.9183 </r>
       <r>    21.7545     0.1086    27.9297 </r>
       <r>    21.8540     0.0970    27.9399 </r>
       <r>    21.9536     0.0870    27.9491 </r>
       <r>    22.0532     0.0786    27.9573 </r>
       <r>    22.1528     0.0718    27.9648 </r>
       <r>    22.2523     0.0527    27.9708 </r>
       <r>    22.3519     0.0468    27.9758 </r>
       <r>    22.4515     0.0412    27.9802 </r>
       <r>    22.5511     0.0358    27.9840 </r>
       <r>    22.6506     0.0308    27.9873 </r>
       <r>    22.7502     0.0260    27.9901 </r>
       <r>    22.8498     0.0216    27.9925 </r>
       <r>    22.9494     0.0177    27.9945 </r>
       <r>    23.0489     0.0146    27.9961 </r>
       <r>    23.1485     0.0116    27.9974 </r>
       <r>    23.2481     0.0088    27.9984 </r>
       <r>    23.3477     0.0063    27.9991 </r>
       <r>    23.4472     0.0039    27.9996 </r>
       <r>    23.5468     0.0018    27.9999 </r>
       <r>    23.6464     0.0000    28.0000 </r>
       <r>    23.7460     0.0000    28.0000 </r>
       <r>    23.8455     0.0000    28.0000 </r>
       <r>    23.9451     0.0000    28.0000 </r>
       <r>    24.0447     0.0000    28.0000 </r>
       <r>    24.1443     0.0000    28.0000 </r>
       <r>    24.2438     0.0000    28.0000 </r>
       <r>    24.3434     0.0000    28.0000 </r>
       <r>    24.4430     0.0000    28.0000 </r>
       <r>    24.5426     0.0000    28.0000 </r>
       <r>    24.6421     0.0000    28.0000 </r>
       <r>    24.7417     0.0000    28.0000 </r>
       <r>    24.8413     0.0000    28.0000 </r>
       <r>    24.9409     0.0000    28.0000 </r>
       <r>    25.0404     0.0000    28.0000 </r>
       <r>    25.1400     0.0000    28.0000 </r>
       <r>    25.2396     0.0000    28.0000 </r>
       <r>    25.3392     0.0000    28.0000 </r>
       <r>    25.4387     0.0000    28.0000 </r>
       <r>    25.5383     0.0000    28.0000 </r>
       <r>    25.6379     0.0000    28.0000 </r>
      </set>
     </set>
    </array>
   </total>
  </dos>
 </calculation>
 <structure name="finalpos" >
  <crystal>
   <varray name="basis" >
    <v>       3.10000000       0.00000000       0.00000000 </v>
    <v>       0.00000000       3.10000000       0.00000000 </v>
    <v>       0.00000000       0.00000000       3.10000000 </v>
   </varray>
   <i name="volume">     29.79100000 </i>
   <varray name="rec_basis" >
    <v>       0.32258065       0.00000000       0.00000000 </v>
    <v>       0.00000000       0.32258065       0.00000000 </v>
    <v>       0.00000000       0.00000000       0.32258065 </v>
   </varray>
  </crystal>
  <varray name="positions" >
   <v>       0.00000000       0.00000000       0.00000000 </v>
   <v>       0.50000000       0.50000000       0.50000000 </v>
  </varray>
 </structure>
</modeling>
