unknown system                          
   1.00000000000000     
     3.905268    0.000000    0.000000
     0.000000    3.905268    0.000000
     0.000000    0.000000    3.905268
   Sr   Ti   O 
     1     1     3
Direct
  0.000000  0.000000  0.000000
  0.500000  0.500000  0.500000
  0.500000  0.500000  0.000000
  0.500000  0.000000  0.500000
  0.000000  0.500000  0.500000
 
   40   40   40
  193.33      193.29      192.27      187.94      177.85      160.67      137.00      109.36      81.341      56.367    
  36.659      22.778      13.908      8.5884      5.5460      3.8732      2.9813      2.5268      2.3159      2.2345    
  2.2152      2.2345      2.3159      2.5268      2.9813      3.8732      5.5460      8.5884      13.908      22.778    
  36.659      56.367      81.341      109.36      137.00      160.67      177.85      187.94      192.27      193.29    
  193.29      193.10      191.64      186.75      176.13      158.59      134.83      107.35      79.682      55.141    
  35.849      22.298      13.651      8.4645      5.4954      3.8554      2.9687      2.5016      2.2701      2.1705    
  2.1439      2.1705      2.2701      2.5016      2.9687      3.8554      5.4954      8.4645      13.651      22.298    
  35.849      55.141      79.682      107.35      134.83      158.59      176.13      186.75      191.64      193.10    
  192.27      191.64      189.03      182.64      170.65      152.25      128.34      101.44      74.855      51.609    
  33.532      20.935      12.927      8.1234      5.3719      3.8434      3.0033      2.5445      2.3021      2.1880    
  2.1553      2.1880      2.3021      2.5445      3.0033      3.8434      5.3719      8.1234      12.927      20.935    
  33.532      51.609      74.855      101.44      128.34      152.25      170.65      182.64      189.03      191.64    
  187.94      186.75      182.64      174.36      160.70      141.43      117.72      92.025      67.325      46.190    
  30.030      18.903      11.864      7.6447      5.2349      3.9030      3.1820      2.8023      2.6148      2.5345    
  2.5134      2.5345      2.6148      2.8023      3.1820      3.9030      5.2349      7.6447      11.864      18.903    
  30.030      46.190      67.325      92.025      117.72      141.43      160.70      174.36      182.64      186.75    
  177.85      176.13      170.65      160.70      145.80      126.26      103.50      79.849      57.857      39.534    
  25.815      16.502      10.635      7.1307      5.1413      4.0570      3.4922      3.2206      3.1100      3.0778    
  3.0732      3.0778      3.1100      3.2206      3.4922      4.0570      5.1413      7.1307      10.635      16.502    
  25.815      39.534      57.857      79.849      103.50      126.26      145.80      160.70      170.65      176.13    
  160.67      158.59      152.25      141.43      126.26      107.50      86.733      66.035      47.454      32.419    
  21.417      14.053      9.4306      6.6927      5.1563      4.3358      3.9249      3.7415      3.6777      3.6666    
  3.6676      3.6666      3.6777      3.7415      3.9249      4.3358      5.1563      6.6927      9.4306      14.053    
  21.417      32.419      47.454      66.035      86.733      107.50      126.26      141.43      152.25      158.59    
  137.00      134.83      128.34      117.72      103.50      86.733      68.967      51.950      37.199      25.610    
  17.319      11.833      8.4244      6.4497      5.3849      4.8610      4.6414      4.5810      4.5911      4.6178    
  4.6302      4.6178      4.5911      4.5810      4.6414      4.8610      5.3849      6.4497      8.4244      11.833    
  17.319      25.610      37.199      51.950      68.967      86.733      103.50      117.72      128.34      134.83    
  109.36      107.35      101.44      92.025      79.849      66.035      51.950      38.944      28.037      19.706    
  13.866      10.054      7.7653      6.5291      5.9695      5.8197      5.8985      6.0812      6.2778      6.4235    
  6.4768      6.4235      6.2778      6.0812      5.8985      5.8197      5.9695      6.5291      7.7653      10.054    
  13.866      19.706      28.037      38.944      51.950      66.035      79.849      92.025      101.44      107.35    
  81.341      79.682      74.855      67.325      57.857      47.454      37.199      28.037      20.585      15.040    
  11.233      8.8590      7.5759      7.0636      7.0657      7.3894      7.8863      8.4326      8.9191      9.2538    
  9.3730      9.2538      8.9191      8.4326      7.8863      7.3894      7.0657      7.0636      7.5759      8.8590    
  11.233      15.040      20.585      28.037      37.199      47.454      57.857      67.325      74.855      79.682    
  56.367      55.141      51.609      46.190      39.534      32.419      25.610      19.706      15.040      11.666    
  9.4856      8.3211      7.9571      8.1900      8.8443      9.7669      10.815      11.845      12.715      13.299    
  13.504      13.299      12.715      11.845      10.815      9.7669      8.8443      8.1900      7.9571      8.3211    
  9.4856      11.666      15.040      19.706      25.610      32.419      39.534      46.190      51.609      55.141    
  36.659      35.849      33.532      30.030      25.815      21.417      17.319      13.866      11.233      9.4856    
  8.5924      8.4649      8.9906      10.051      11.524      13.278      15.157      16.967      18.491      19.514    
  19.875      19.514      18.491      16.967      15.157      13.278      11.524      10.051      8.9906      8.4649    
  8.5924      9.4856      11.233      13.866      17.319      21.417      25.815      30.030      33.532      35.849    
  22.778      22.298      20.935      18.903      16.502      14.053      11.833      10.054      8.8590      8.3211    
  8.4649      9.2817      10.742      12.801      15.401      18.439      21.736      24.992      27.800      29.720    
  30.404      29.720      27.800      24.992      21.736      18.439      15.401      12.801      10.742      9.2817    
  8.4649      8.3211      8.8590      10.054      11.833      14.053      16.502      18.903      20.935      22.298    
  13.908      13.651      12.927      11.864      10.635      9.4306      8.4244      7.7653      7.5759      7.9571    
  8.9906      10.742      13.268      16.632      20.882      25.990      31.734      37.596      42.781      46.383    
  47.676      46.383      42.781      37.596      31.734      25.990      20.882      16.632      13.268      10.742    
  8.9906      7.9571      7.5759      7.7653      8.4244      9.4306      10.635      11.864      12.927      13.651    
  8.5884      8.4645      8.1234      7.6447      7.1307      6.6927      6.4497      6.5291      7.0636      8.1900    
  10.051      12.801      16.632      21.786      28.526      36.963      46.785      57.054      66.262      72.739    
  75.092      72.739      66.262      57.054      46.785      36.963      28.526      21.786      16.632      12.801    
  10.051      8.1900      7.0636      6.5291      6.4497      6.6927      7.1307      7.6447      8.1234      8.4645    
  5.5460      5.4954      5.3719      5.2349      5.1413      5.1563      5.3849      5.9695      7.0657      8.8443    
  11.524      15.401      20.882      28.526      38.963      52.524      68.692      86.157      102.66      114.72    
  119.17      114.72      102.66      86.157      68.692      52.524      38.963      28.526      20.882      15.401    
  11.524      8.8443      7.0657      5.9695      5.3849      5.1563      5.1413      5.2349      5.3719      5.4954    
  3.8732      3.8554      3.8434      3.9030      4.0570      4.3358      4.8610      5.8197      7.3894      9.7669    
  13.278      18.439      25.990      36.963      52.524      73.290      99.430      129.38      158.10      178.95    
  186.58      178.95      158.10      129.38      99.430      73.290      52.524      36.963      25.990      18.439    
  13.278      9.7669      7.3894      5.8197      4.8610      4.3358      4.0570      3.9030      3.8434      3.8554    
  2.9813      2.9687      3.0033      3.1820      3.4922      3.9249      4.6414      5.8985      7.8863      10.815    
  15.157      21.736      31.734      46.785      68.692      99.430      140.29      187.04      230.67      261.41    
  272.44      261.41      230.67      187.04      140.29      99.430      68.692      46.785      31.734      21.736    
  15.157      10.815      7.8863      5.8985      4.6414      3.9249      3.4922      3.1820      3.0033      2.9687    
  2.5268      2.5016      2.5445      2.8023      3.2206      3.7415      4.5810      6.0812      8.4326      11.845    
  16.967      24.992      37.596      57.054      86.157      129.38      187.04      250.89      307.73      345.96    
  359.28      345.96      307.73      250.89      187.04      129.38      86.157      57.054      37.596      24.992    
  16.967      11.845      8.4326      6.0812      4.5810      3.7415      3.2206      2.8023      2.5445      2.5016    
  2.3159      2.2701      2.3021      2.6148      3.1100      3.6777      4.5911      6.2778      8.9191      12.715    
  18.491      27.800      42.781      66.262      102.66      158.10      230.67      307.73      372.61      413.81    
  427.61      413.81      372.61      307.73      230.67      158.10      102.66      66.262      42.781      27.800    
  18.491      12.715      8.9191      6.2778      4.5911      3.6777      3.1100      2.6148      2.3021      2.2701    
  2.2345      2.1705      2.1880      2.5345      3.0778      3.6666      4.6178      6.4235      9.2538      13.299    
  19.514      29.720      46.383      72.739      114.72      178.95      261.41      345.96      413.81      454.59    
  467.70      454.59      413.81      345.96      261.41      178.95      114.72      72.739      46.383      29.720    
  19.514      13.299      9.2538      6.4235      4.6178      3.6666      3.0778      2.5345      2.1880      2.1705    
  2.2152      2.1439      2.1553      2.5134      3.0732      3.6676      4.6302      6.4768      9.3730      13.504    
  19.875      30.404      47.676      75.092      119.17      186.58      272.44      359.28      427.61      467.70    
  480.34      467.70      427.61      359.28      272.44      186.58      119.17      75.092      47.676      30.404    
  19.875      13.504      9.3730      6.4768      4.6302      3.6676      3.0732      2.5134      2.1553      2.1439    
  2.2345      2.1705      2.1880      2.5345      3.0778      3.6666      4.6178      6.4235      9.2538      13.299    
  19.514      29.720      46.383      72.739      114.72      178.95      261.41      345.96      413.81      454.59    
  467.70      454.59      413.81      345.96      261.41      178.95      114.72      72.739      46.383      29.720    
  19.514      13.299      9.2538      6.4235      4.6178      3.6666      3.0778      2.5345      2.1880      2.1705    
  2.3159      2.2701      2.3021      2.6148      3.1100      3.6777      4.5911      6.2778      8.9191      12.715    
  18.491      27.800      42.781      66.262      102.66      158.10      230.67      307.73      372.61      413.81    
  427.61      413.81      372.61      307.73      230.67      158.10      102.66      66.262      42.781      27.800    
  18.491      12.715      8.9191      6.2778      4.5911      3.6777      3.1100      2.6148      2.3021      2.2701    
  2.5268      2.5016      2.5445      2.8023      3.2206      3.7415      4.5810      6.0812      8.4326      11.845    
  16.967      24.992      37.596      57.054      86.157      129.38      187.04      250.89      307.73      345.96    
  359.28      345.96      307.73      250.89      187.04      129.38      86.157      57.054      37.596      24.992    
  16.967      11.845      8.4326      6.0812      4.5810      3.7415      3.2206      2.8023      2.5445      2.5016    
  2.9813      2.9687      3.0033      3.1820      3.4922      3.9249      4.6414      5.8985      7.8863      10.815    
  15.157      21.736      31.734      46.785      68.692      99.430      140.29      187.04      230.67      261.41    
  272.44      261.41      230.67      187.04      140.29      99.430      68.692      46.785      31.734      21.736    
  15.157      10.815      7.8863      5.8985      4.6414      3.9249      3.4922      3.1820      3.0033      2.9687    
  3.8732      3.8554      3.8434      3.9030      4.0570      4.3358      4.8610      5.8197      7.3894      9.7669    
  13.278      18.439      25.990      36.963      52.524      73.290      99.430      129.38      158.10      178.95    
  186.58      178.95      158.10      129.38      99.430      73.290      52.524      36.963      25.990      18.439    
  13.278      9.7669      7.3894      5.8197      4.8610      4.3358      4.0570      3.9030      3.8434      3.8554    
  5.5460      5.4954      5.3719      5.2349      5.1413      5.1563      5.3849      5.9695      7.0657      8.8443    
  11.524      15.401      20.882      28.526      38.963      52.524      68.692      86.157      102.66      114.72    
  119.17      114.72      102.66      86.157      68.692      52.524      38.963      28.526      20.882      15.401    
  11.524      8.8443      7.0657      5.9695      5.3849      5.1563      5.1413      5.2349      5.3719      5.4954    
  8.5884      8.4645      8.1234      7.6447      7.1307      6.6927      6.4497      6.5291      7.0636      8.1900    
  10.051      12.801      16.632      21.786      28.526      36.963      46.785      57.054      66.262      72.739    
  75.092      72.739      66.262      57.054      46.785      36.963      28.526      21.786      16.632      12.801    
  10.051      8.1900      7.0636      6.5291      6.4497      6.6927      7.1307      7.6447      8.1234      8.4645    
  13.908      13.651      12.927      11.864      10.635      9.4306      8.4244      7.7653      7.5759      7.9571    
  8.9906      10.742      13.268      16.632      20.882      25.990      31.734      37.596      42.781      46.383    
  47.676      46.383      42.781      37.596      31.734      25.990      20.882      16.632      13.268      10.742    
  8.9906      7.9571      7.5759      7.7653      8.4244      9.4306      10.635      11.864      12.927      13.651    
  22.778      22.298      20.935      18.903      16.502      14.053      11.833      10.054      8.8590      8.3211    
  8.4649      9.2817      10.742      12.801      15.401      18.439      21.736      24.992      27.800      29.720    
  30.404      29.720      27.800      24.992      21.736      18.439      15.401      12.801      10.742      9.2817    
  8.4649      8.3211      8.8590      10.054      11.833      14.053      16.502      18.903      20.935      22.298    
  36.659      35.849      33.532      30.030      25.815      21.417      17.319      13.866      11.233      9.4856    
  8.5924      8.4649      8.9906      10.051      11.524      13.278      15.157      16.967      18.491      19.514    
  19.875      19.514      18.491      16.967      15.157      13.278      11.524      10.051      8.9906      8.4649    
  8.5924      9.4856      11.233      13.866      17.319      21.417      25.815      30.030      33.532      35.849    
  56.367      55.141      51.609      46.190      39.534      32.419      25.610      19.706      15.040      11.666    
  9.4856      8.3211      7.9571      8.1900      8.8443      9.7669      10.815      11.845      12.715      13.299    
  13.504      13.299      12.715      11.845      10.815      9.7669      8.8443      8.1900      7.9571      8.3211    
  9.4856      11.666      15.040      19.706      25.610      32.419      39.534      46.190      51.609      55.141    
  81.341      79.682      74.855      67.325      57.857      47.454      37.199      28.037      20.585      15.040    
  11.233      8.8590      7.5759      7.0636      7.0657      7.3894      7.8863      8.4326      8.9191      9.2538    
  9.3730      9.2538      8.9191      8.4326      7.8863      7.3894      7.0657      7.0636      7.5759      8.8590    
  11.233      15.040      20.585      28.037      37.199      47.454      57.857      67.325      74.855      79.682    
  109.36      107.35      101.44      92.025      79.849      66.035      51.950      38.944      28.037      19.706    
  13.866      10.054      7.7653      6.5291      5.9695      5.8197      5.8985      6.0812      6.2778      6.4235    
  6.4768      6.4235      6.2778      6.0812      5.8985      5.8197      5.9695      6.5291      7.7653      10.054    
  13.866      19.706      28.037      38.944      51.950      66.035      79.849      92.025      101.44      107.35    
  137.00      134.83      128.34      117.72      103.50      86.733      68.967      51.950      37.199      25.610    
  17.319      11.833      8.4244      6.4497      5.3849      4.8610      4.6414      4.5810      4.5911      4.6178    
  4.6302      4.6178      4.5911      4.5810      4.6414      4.8610      5.3849      6.4497      8.4244      11.833    
  17.319      25.610      37.199      51.950      68.967      86.733      103.50      117.72      128.34      134.83    
  160.67      158.59      152.25      141.43      126.26      107.50      86.733      66.035      47.454      32.419    
  21.417      14.053      9.4306      6.6927      5.1563      4.3358      3.9249      3.7415      3.6777      3.6666    
  3.6676      3.6666      3.6777      3.7415      3.9249      4.3358      5.1563      6.6927      9.4306      14.053    
  21.417      32.419      47.454      66.035      86.733      107.50      126.26      141.43      152.25      158.59    
  177.85      176.13      170.65      160.70      145.80      126.26      103.50      79.849      57.857      39.534    
  25.815      16.502      10.635      7.1307      5.1413      4.0570      3.4922      3.2206      3.1100      3.0778    
  3.0732      3.0778      3.1100      3.2206      3.4922      4.0570      5.1413      7.1307      10.635      16.502    
  25.815      39.534      57.857      79.849      103.50      126.26      145.80      160.70      170.65      176.13    
  187.94      186.75      182.64      174.36      160.70      141.43      117.72      92.025      67.325      46.190    
  30.030      18.903      11.864      7.6447      5.2349      3.9030      3.1820      2.8023      2.6148      2.5345    
  2.5134      2.5345      2.6148      2.8023      3.1820      3.9030      5.2349      7.6447      11.864      18.903    
  30.030      46.190      67.325      92.025      117.72      141.43      160.70      174.36      182.64      186.75    
  192.27      191.64      189.03      182.64      170.65      152.25      128.34      101.44      74.855      51.609    
  33.532      20.935      12.927      8.1234      5.3719      3.8434      3.0033      2.5445      2.3021      2.1880    
  2.1553      2.1880      2.3021      2.5445      3.0033      3.8434      5.3719      8.1234      12.927      20.935    
  33.532      51.609      74.855      101.44      128.34      152.25      170.65      182.64      189.03      191.64    
  193.29      193.10      191.64      186.75      176.13      158.59      134.83      107.35      79.682      55.141    
  35.849      22.298      13.651      8.4645      5.4954      3.8554      2.9687      2.5016      2.2701      2.1705    
  2.1439      2.1705      2.2701      2.5016      2.9687      3.8554      5.4954      8.4645      13.651      22.298    
  35.849      55.141      79.682      107.35      134.83      158.59      176.13      186.75      191.64      193.10    
  193.29      193.10      191.64      186.75      176.13      158.59      134.83      107.35      79.682      55.141    
  35.849      22.298      13.651      8.4645      5.4954      3.8554      2.9687      2.5016      2.2701      2.1705    
  2.1439      2.1705      2.2701      2.5016      2.9687      3.8554      5.4954      8.4645      13.651      22.298    
  35.849      55.141      79.682      107.35      134.83      158.59      176.13      186.75      191.64      193.10    
  193.10      192.75      190.89      185.47      174.35      156.49      132.66      105.36      78.047      53.939    
  35.057      21.830      13.400      8.3436      5.4467      3.8399      2.9603      2.4837      2.2349      2.1197    
  2.0869      2.1197      2.2349      2.4837      2.9603      3.8399      5.4467      8.3436      13.400      21.830    
  35.057      53.939      78.047      105.36      132.66      156.49      174.35      185.47      190.89      192.75    
  191.64      190.89      187.94      181.11      168.72      150.10      126.20      99.513      73.296      50.476    
  32.793      20.501      12.694      8.0110      5.3272      3.8315      3.0017      2.5387      2.2851      2.1602    
  2.1230      2.1602      2.2851      2.5387      3.0017      3.8315      5.3272      8.0110      12.694      20.501    
  32.793      50.476      73.296      99.513      126.20      150.10      168.72      181.11      187.94      190.89    
  186.75      185.47      181.11      172.52      158.62      139.25      115.63      90.208      65.892      45.168    
  29.372      18.518      11.656      7.5438      5.1940      3.8920      3.1818      2.8007      2.6057      2.5176    
  2.4932      2.5176      2.6057      2.8007      3.1818      3.8920      5.1940      7.5438      11.656      18.518    
  29.372      45.168      65.892      90.208      115.63      139.25      158.62      172.52      181.11      185.47    
  176.13      174.35      168.72      158.62      143.62      124.11      101.54      78.205      56.597      38.655    
  25.257      16.177      10.458      7.0424      5.1031      4.0442      3.4894      3.2180      3.1025      3.0649    
  3.0579      3.0649      3.1025      3.2180      3.4894      4.0442      5.1031      7.0424      10.458      16.177    
  25.257      38.655      56.597      78.205      101.54      124.11      143.62      158.62      168.72      174.35    
  158.59      156.49      150.10      139.25      124.11      105.50      84.983      64.619      46.401      31.701    
  20.967      13.789      9.2835      6.6159      5.1192      4.3197      3.9185      3.7382      3.6738      3.6608    
  3.6609      3.6608      3.6738      3.7382      3.9185      4.3197      5.1192      6.6159      9.2835      13.789    
  20.967      31.701      46.401      64.619      84.983      105.50      124.11      139.25      150.10      156.49    
  134.83      132.66      126.20      115.63      101.54      84.983      67.498      50.802      36.368      25.055    
  16.972      11.624      8.3036      6.3806      5.3444      4.8360      4.6245      4.5679      4.5796      4.6066    
  4.6190      4.6066      4.5796      4.5679      4.6245      4.8360      5.3444      6.3806      8.3036      11.624    
  16.972      25.055      36.368      50.802      67.498      84.983      101.54      115.63      126.20      132.66    
  107.35      105.36      99.513      90.208      78.205      64.619      50.802      38.073      27.421      19.298    
  13.606      9.8922      7.6633      6.4606      5.9177      5.7747      5.8549      6.0363      6.2306      6.3742    
  6.4267      6.3742      6.2306      6.0363      5.8549      5.7747      5.9177      6.4606      7.6633      9.8922    
  13.606      19.298      27.421      38.073      50.802      64.619      78.205      90.208      99.513      105.36    
  79.682      78.047      73.296      65.892      56.597      46.401      36.368      27.421      20.154      14.751    
  11.042      8.7301      7.4823      6.9862      6.9920      7.3118      7.8004      8.3365      8.8133      9.1409    
  9.2575      9.1409      8.8133      8.3365      7.8004      7.3118      6.9920      6.9862      7.4823      8.7301    
  11.042      14.751      20.154      27.421      36.368      46.401      56.597      65.892      73.296      78.047    
  55.141      53.939      50.476      45.168      38.655      31.701      25.055      19.298      14.751      11.463    
  9.3412      8.2099      7.8594      8.0918      8.7361      9.6426      10.671      11.680      12.533      13.103    
  13.304      13.103      12.533      11.680      10.671      9.6426      8.7361      8.0918      7.8594      8.2099    
  9.3412      11.463      14.751      19.298      25.055      31.701      38.655      45.168      50.476      53.939    
  35.849      35.057      32.793      29.372      25.257      20.967      16.972      13.606      11.042      9.3412    
  8.4747      8.3557      8.8748      9.9166      11.362      13.082      14.920      16.689      18.176      19.172    
  19.524      19.172      18.176      16.689      14.920      13.082      11.362      9.9166      8.8748      8.3557    
  8.4747      9.3412      11.042      13.606      16.972      20.967      25.257      29.372      32.793      35.057    
  22.298      21.830      20.501      18.518      16.177      13.789      11.624      9.8922      8.7301      8.2099    
  8.3557      9.1596      10.592      12.611      15.154      18.120      21.331      24.495      27.219      29.078    
  29.740      29.078      27.219      24.495      21.331      18.120      15.154      12.611      10.592      9.1596    
  8.3557      8.2099      8.7301      9.8922      11.624      13.789      16.177      18.518      20.501      21.830    
  13.651      13.400      12.694      11.656      10.458      9.2835      8.3036      7.6633      7.4823      7.8594    
  8.8748      10.592      13.067      16.354      20.497      25.462      31.028      36.696      41.702      45.175    
  46.422      45.175      41.702      36.696      31.028      25.462      20.497      16.354      13.067      10.592    
  8.8748      7.8594      7.4823      7.6633      8.3036      9.2835      10.458      11.656      12.694      13.400    
  8.4645      8.3436      8.0110      7.5438      7.0424      6.6159      6.3806      6.4606      6.9862      8.0918    
  9.9166      12.611      16.354      21.377      27.922      36.086      45.569      55.468      64.336      70.554    
  72.808      70.554      64.336      55.468      45.569      36.086      27.922      21.377      16.354      12.611    
  9.9166      8.0918      6.9862      6.4606      6.3806      6.6159      7.0424      7.5438      8.0110      8.3436    
  5.4954      5.4467      5.3272      5.1940      5.1031      5.1192      5.3444      5.9177      6.9920      8.7361    
  11.362      15.154      20.497      27.922      38.020      51.104      66.676      83.393      99.125      110.60    
  114.83      110.60      99.125      83.393      66.676      51.104      38.020      27.922      20.497      15.154    
  11.362      8.7361      6.9920      5.9177      5.3444      5.1192      5.1031      5.1940      5.3272      5.4467    
  3.8554      3.8399      3.8315      3.8920      4.0442      4.3197      4.8360      5.7747      7.3118      9.6426    
  13.082      18.120      25.462      36.086      51.104      71.089      96.047      124.55      151.90      171.80    
  179.09      171.80      151.90      124.55      96.047      71.089      51.104      36.086      25.462      18.120    
  13.082      9.6426      7.3118      5.7747      4.8360      4.3197      4.0442      3.8920      3.8315      3.8399    
  2.9687      2.9603      3.0017      3.1818      3.4894      3.9185      4.6245      5.8549      7.8004      10.671    
  14.920      21.331      31.028      45.569      66.676      96.047      134.94      179.53      221.32      250.89    
  261.53      250.89      221.32      179.53      134.94      96.047      66.676      45.569      31.028      21.331    
  14.920      10.671      7.8004      5.8549      4.6245      3.9185      3.4894      3.1818      3.0017      2.9603    
  2.5016      2.4837      2.5387      2.8007      3.2180      3.7382      4.5679      6.0363      8.3365      11.680    
  16.689      24.495      36.696      55.468      83.393      124.55      179.53      240.76      295.71      332.97    
  346.01      332.97      295.71      240.76      179.53      124.55      83.393      55.468      36.696      24.495    
  16.689      11.680      8.3365      6.0363      4.5679      3.7382      3.2180      2.8007      2.5387      2.4837    
  2.2701      2.2349      2.2851      2.6057      3.1025      3.6738      4.5796      6.2306      8.8133      12.533    
  18.176      27.219      41.702      64.336      99.125      151.90      221.32      295.71      359.13      399.95    
  413.75      399.95      359.13      295.71      221.32      151.90      99.125      64.336      41.702      27.219    
  18.176      12.533      8.8133      6.2306      4.5796      3.6738      3.1025      2.6057      2.2851      2.2349    
  2.1705      2.1197      2.1602      2.5176      3.0649      3.6608      4.6066      6.3742      9.1409      13.103    
  19.172      29.078      45.175      70.554      110.60      171.80      250.89      332.97      399.95      441.01    
  454.42      441.01      399.95      332.97      250.89      171.80      110.60      70.554      45.175      29.078    
  19.172      13.103      9.1409      6.3742      4.6066      3.6608      3.0649      2.5176      2.1602      2.1197    
  2.1439      2.0869      2.1230      2.4932      3.0579      3.6609      4.6190      6.4267      9.2575      13.304    
  19.524      29.740      46.422      72.808      114.83      179.09      261.53      346.01      413.75      454.42    
  467.48      454.42      413.75      346.01      261.53      179.09      114.83      72.808      46.422      29.740    
  19.524      13.304      9.2575      6.4267      4.6190      3.6609      3.0579      2.4932      2.1230      2.0869    