unknown system                          
   1.00000000000000     
     3.905268    0.000000    0.000000
     0.000000    3.905268    0.000000
     0.000000    0.000000    3.905268
   Sr   Ti   O 
     1     1     3
Direct
  0.000000  0.000000  0.000000
  0.500000  0.500000  0.500000
  0.500000  0.500000  0.000000
  0.500000  0.000000  0.500000
  0.000000  0.500000  0.500000
 
   40   40   40
 0.19332509519E+03 0.19329364856E+03 0.19226799188E+03 0.18794415762E+03 0.17785300572E+03
 0.16066799057E+03 0.13700149997E+03 0.10936439335E+03 0.81341439541E+02 0.56366817800E+02
 0.36658933729E+02 0.22777982448E+02 0.13907707828E+02 0.85884320983E+01 0.55460128386E+01
 0.38732111596E+01 0.29813186425E+01 0.25268146942E+01 0.23159300972E+01 0.22344678755E+01
 0.22151635398E+01 0.22344678755E+01 0.23159300972E+01 0.25268146942E+01 0.29813186425E+01
 0.38732111596E+01 0.55460128386E+01 0.85884320983E+01 0.13907707828E+02 0.22777982448E+02
 0.36658933729E+02 0.56366817800E+02 0.81341439541E+02 0.10936439335E+03 0.13700149997E+03
 0.16066799057E+03 0.17785300572E+03 0.18794415762E+03 0.19226799188E+03 0.19329364856E+03
 0.19329364856E+03 0.19310039891E+03 0.19164218871E+03 0.18675207166E+03 0.17612965386E+03
 0.15859193328E+03 0.13482995665E+03 0.10735433261E+03 0.79681682457E+02 0.55141114346E+02
 0.35848911373E+02 0.22298116830E+02 0.13650914923E+02 0.84644653172E+01 0.54954477298E+01
 0.38554085811E+01 0.29687101317E+01 0.25016195480E+01 0.22701315905E+01 0.21704521707E+01
 0.21439401512E+01 0.21704521707E+01 0.22701315905E+01 0.25016195480E+01 0.29687101317E+01
 0.38554085811E+01 0.54954477298E+01 0.84644653172E+01 0.13650914923E+02 0.22298116830E+02
 0.35848911373E+02 0.55141114346E+02 0.79681682457E+02 0.10735433261E+03 0.13482995665E+03
 0.15859193328E+03 0.17612965386E+03 0.18675207166E+03 0.19164218871E+03 0.19310039891E+03
 0.19226799188E+03 0.19164218871E+03 0.18903134956E+03 0.18264484686E+03 0.17064604934E+03
 0.15224526750E+03 0.12834450138E+03 0.10144279913E+03 0.74855020206E+02 0.51608533571E+02
 0.33532226148E+02 0.20935414944E+02 0.12927357526E+02 0.81234249991E+01 0.53719383369E+01
 0.38433858574E+01 0.30033163228E+01 0.25445223937E+01 0.23021195265E+01 0.21880414973E+01
 0.21552569646E+01 0.21880414973E+01 0.23021195265E+01 0.25445223937E+01 0.30033163228E+01
 0.38433858574E+01 0.53719383369E+01 0.81234249991E+01 0.12927357526E+02 0.20935414944E+02
 0.33532226148E+02 0.51608533571E+02 0.74855020206E+02 0.10144279913E+03 0.12834450138E+03
 0.15224526750E+03 0.17064604934E+03 0.18264484686E+03 0.18903134956E+03 0.19164218871E+03
 0.18794415762E+03 0.18675207166E+03 0.18264484686E+03 0.17435773242E+03 0.16070183406E+03
 0.14143120666E+03 0.11772326793E+03 0.92024987171E+02 0.67324563744E+02 0.46189821592E+02
 0.30030203926E+02 0.18903056998E+02 0.11863779703E+02 0.76446710608E+01 0.52349259805E+01
 0.39029817183E+01 0.31820178562E+01 0.28023266498E+01 0.26147568709E+01 0.25345439621E+01
 0.25133678878E+01 0.25345439621E+01 0.26147568709E+01 0.28023266498E+01 0.31820178562E+01
 0.39029817183E+01 0.52349259805E+01 0.76446710608E+01 0.11863779703E+02 0.18903056998E+02
 0.30030203926E+02 0.46189821592E+02 0.67324563744E+02 0.92024987171E+02 0.11772326793E+03
 0.14143120666E+03 0.16070183406E+03 0.17435773242E+03 0.18264484686E+03 0.18675207166E+03
 0.17785300572E+03 0.17612965386E+03 0.17064604934E+03 0.16070183406E+03 0.14579912044E+03
 0.12625640080E+03 0.10350060234E+03 0.79849236396E+02 0.57856861193E+02 0.39533885945E+02
 0.25814821191E+02 0.16501804931E+02 0.10635305150E+02 0.71307249028E+01 0.51413199614E+01
 0.40570239632E+01 0.34921926311E+01 0.32206229062E+01 0.31100286648E+01 0.30778408373E+01
 0.30731596903E+01 0.30778408373E+01 0.31100286648E+01 0.32206229062E+01 0.34921926311E+01
 0.40570239632E+01 0.51413199614E+01 0.71307249028E+01 0.10635305150E+02 0.16501804931E+02
 0.25814821191E+02 0.39533885945E+02 0.57856861193E+02 0.79849236396E+02 0.10350060234E+03
 0.12625640080E+03 0.14579912044E+03 0.16070183406E+03 0.17064604934E+03 0.17612965386E+03
 0.16066799057E+03 0.15859193328E+03 0.15224526750E+03 0.14143120666E+03 0.12625640080E+03
 0.10750162133E+03 0.86733117178E+02 0.66035063198E+02 0.47454182609E+02 0.32419228303E+02
 0.21416893496E+02 0.14052578000E+02 0.94305749120E+01 0.66927415246E+01 0.51563189184E+01
 0.43358245170E+01 0.39248657396E+01 0.37414687790E+01 0.36777314779E+01 0.36665759109E+01
 0.36675738508E+01 0.36665759109E+01 0.36777314779E+01 0.37414687790E+01 0.39248657396E+01
 0.43358245170E+01 0.51563189184E+01 0.66927415246E+01 0.94305749120E+01 0.14052578000E+02
 0.21416893496E+02 0.32419228303E+02 0.47454182609E+02 0.66035063198E+02 0.86733117178E+02
 0.10750162133E+03 0.12625640080E+03 0.14143120666E+03 0.15224526750E+03 0.15859193328E+03
 0.13700149997E+03 0.13482995665E+03 0.12834450138E+03 0.11772326793E+03 0.10350060234E+03
 0.86733117178E+02 0.68966550323E+02 0.51949989770E+02 0.37198579873E+02 0.25610206497E+02
 0.17318932034E+02 0.11832609286E+02 0.84243593673E+01 0.64497318452E+01 0.53848554247E+01
 0.48609602919E+01 0.46414326208E+01 0.45809606915E+01 0.45911243817E+01 0.46178209372E+01
 0.46301672424E+01 0.46178209372E+01 0.45911243817E+01 0.45809606915E+01 0.46414326208E+01
 0.48609602919E+01 0.53848554247E+01 0.64497318452E+01 0.84243593673E+01 0.11832609286E+02
 0.17318932034E+02 0.25610206497E+02 0.37198579873E+02 0.51949989770E+02 0.68966550323E+02
 0.86733117178E+02 0.10350060234E+03 0.11772326793E+03 0.12834450138E+03 0.13482995665E+03
 0.10936439335E+03 0.10735433261E+03 0.10144279913E+03 0.92024987171E+02 0.79849236396E+02
 0.66035063198E+02 0.51949989770E+02 0.38943674052E+02 0.28036711378E+02 0.19706430658E+02
 0.13865663683E+02 0.10054178865E+02 0.77652861055E+01 0.65291013009E+01 0.59695399761E+01
 0.58196683887E+01 0.58984790287E+01 0.60811653939E+01 0.62778385241E+01 0.64234726961E+01
 0.64768102083E+01 0.64234726961E+01 0.62778385241E+01 0.60811653939E+01 0.58984790287E+01
 0.58196683887E+01 0.59695399761E+01 0.65291013009E+01 0.77652861055E+01 0.10054178865E+02
 0.13865663683E+02 0.19706430658E+02 0.28036711378E+02 0.38943674052E+02 0.51949989770E+02
 0.66035063198E+02 0.79849236396E+02 0.92024987171E+02 0.10144279913E+03 0.10735433261E+03
 0.81341439541E+02 0.79681682457E+02 0.74855020206E+02 0.67324563744E+02 0.57856861193E+02
 0.47454182609E+02 0.37198579873E+02 0.28036711378E+02 0.20585229242E+02 0.15040010305E+02
 0.11233389853E+02 0.88590234736E+01 0.75758973414E+01 0.70636448683E+01 0.70657167055E+01
 0.73894076670E+01 0.78863275846E+01 0.84326297548E+01 0.89191351439E+01 0.92538086880E+01
 0.93730186284E+01 0.92538086880E+01 0.89191351439E+01 0.84326297548E+01 0.78863275846E+01
 0.73894076670E+01 0.70657167055E+01 0.70636448683E+01 0.75758973414E+01 0.88590234736E+01
 0.11233389853E+02 0.15040010305E+02 0.20585229242E+02 0.28036711378E+02 0.37198579873E+02
 0.47454182609E+02 0.57856861193E+02 0.67324563744E+02 0.74855020206E+02 0.79681682457E+02
 0.56366817800E+02 0.55141114346E+02 0.51608533571E+02 0.46189821592E+02 0.39533885945E+02
 0.32419228303E+02 0.25610206497E+02 0.19706430658E+02 0.15040010305E+02 0.11665563032E+02
 0.94855994282E+01 0.83211264802E+01 0.79570649061E+01 0.81899961211E+01 0.88442805467E+01
 0.97669477202E+01 0.10814859040E+02 0.11845045331E+02 0.12715478219E+02 0.13298708594E+02
 0.13504126425E+02 0.13298708594E+02 0.12715478219E+02 0.11845045331E+02 0.10814859040E+02
 0.97669477202E+01 0.88442805467E+01 0.81899961211E+01 0.79570649061E+01 0.83211264802E+01
 0.94855994282E+01 0.11665563032E+02 0.15040010305E+02 0.19706430658E+02 0.25610206497E+02
 0.32419228303E+02 0.39533885945E+02 0.46189821592E+02 0.51608533571E+02 0.55141114346E+02
 0.36658933729E+02 0.35848911373E+02 0.33532226148E+02 0.30030203926E+02 0.25814821191E+02
 0.21416893496E+02 0.17318932034E+02 0.13865663683E+02 0.11233389853E+02 0.94855994282E+01
 0.85923688499E+01 0.84649441522E+01 0.89905515196E+01 0.10050629993E+02 0.11523933872E+02
 0.13278299498E+02 0.15156681460E+02 0.16967381426E+02 0.18491306792E+02 0.19513842025E+02
 0.19874612439E+02 0.19513842025E+02 0.18491306792E+02 0.16967381426E+02 0.15156681460E+02
 0.13278299498E+02 0.11523933872E+02 0.10050629993E+02 0.89905515196E+01 0.84649441522E+01
 0.85923688499E+01 0.94855994282E+01 0.11233389853E+02 0.13865663683E+02 0.17318932034E+02
 0.21416893496E+02 0.25814821191E+02 0.30030203926E+02 0.33532226148E+02 0.35848911373E+02
 0.22777982448E+02 0.22298116830E+02 0.20935414944E+02 0.18903056998E+02 0.16501804931E+02
 0.14052578000E+02 0.11832609286E+02 0.10054178865E+02 0.88590234736E+01 0.83211264802E+01
 0.84649441522E+01 0.92817389684E+01 0.10741663630E+02 0.12801309865E+02 0.15400537930E+02
 0.18439277835E+02 0.21736060698E+02 0.24992313596E+02 0.27800451296E+02 0.29719805641E+02
 0.30403633576E+02 0.29719805641E+02 0.27800451296E+02 0.24992313596E+02 0.21736060698E+02
 0.18439277835E+02 0.15400537930E+02 0.12801309865E+02 0.10741663630E+02 0.92817389684E+01
 0.84649441522E+01 0.83211264802E+01 0.88590234736E+01 0.10054178865E+02 0.11832609286E+02
 0.14052578000E+02 0.16501804931E+02 0.18903056998E+02 0.20935414944E+02 0.22298116830E+02
 0.13907707828E+02 0.13650914923E+02 0.12927357526E+02 0.11863779703E+02 0.10635305150E+02
 0.94305749120E+01 0.84243593673E+01 0.77652861055E+01 0.75758973414E+01 0.79570649061E+01
 0.89905515196E+01 0.10741663630E+02 0.13268309111E+02 0.16631569405E+02 0.20881746696E+02
 0.25990263429E+02 0.31733908303E+02 0.37596473100E+02 0.42780959185E+02 0.46382666700E+02
 0.47675998538E+02 0.46382666700E+02 0.42780959185E+02 0.37596473100E+02 0.31733908303E+02
 0.25990263429E+02 0.20881746696E+02 0.16631569405E+02 0.13268309111E+02 0.10741663630E+02
 0.89905515196E+01 0.79570649061E+01 0.75758973414E+01 0.77652861055E+01 0.84243593673E+01
 0.94305749120E+01 0.10635305150E+02 0.11863779703E+02 0.12927357526E+02 0.13650914923E+02
 0.85884320983E+01 0.84644653172E+01 0.81234249991E+01 0.76446710608E+01 0.71307249028E+01
 0.66927415246E+01 0.64497318452E+01 0.65291013009E+01 0.70636448683E+01 0.81899961211E+01
 0.10050629993E+02 0.12801309865E+02 0.16631569405E+02 0.21786139946E+02 0.28526382740E+02
 0.36962711767E+02 0.46784659167E+02 0.57054097048E+02 0.66261764434E+02 0.72738990049E+02
 0.75091539594E+02 0.72738990049E+02 0.66261764434E+02 0.57054097048E+02 0.46784659167E+02
 0.36962711767E+02 0.28526382740E+02 0.21786139946E+02 0.16631569405E+02 0.12801309865E+02
 0.10050629993E+02 0.81899961211E+01 0.70636448683E+01 0.65291013009E+01 0.64497318452E+01
 0.66927415246E+01 0.71307249028E+01 0.76446710608E+01 0.81234249991E+01 0.84644653172E+01
 0.55460128386E+01 0.54954477298E+01 0.53719383369E+01 0.52349259805E+01 0.51413199614E+01
 0.51563189184E+01 0.53848554247E+01 0.59695399761E+01 0.70657167055E+01 0.88442805467E+01
 0.11523933872E+02 0.15400537930E+02 0.20881746696E+02 0.28526382740E+02 0.38962956268E+02
 0.52524347048E+02 0.68692481841E+02 0.86156805774E+02 0.10266431109E+03 0.11472493196E+03
 0.11916798792E+03 0.11472493196E+03 0.10266431109E+03 0.86156805774E+02 0.68692481841E+02
 0.52524347048E+02 0.38962956268E+02 0.28526382740E+02 0.20881746696E+02 0.15400537930E+02
 0.11523933872E+02 0.88442805467E+01 0.70657167055E+01 0.59695399761E+01 0.53848554247E+01
 0.51563189184E+01 0.51413199614E+01 0.52349259805E+01 0.53719383369E+01 0.54954477298E+01
 0.38732111596E+01 0.38554085811E+01 0.38433858574E+01 0.39029817183E+01 0.40570239632E+01
 0.43358245170E+01 0.48609602919E+01 0.58196683887E+01 0.73894076670E+01 0.97669477202E+01
 0.13278299498E+02 0.18439277835E+02 0.25990263429E+02 0.36962711767E+02 0.52524347048E+02
 0.73290483853E+02 0.99429923809E+02 0.12938059566E+03 0.15809645960E+03 0.17895360031E+03
 0.18658203788E+03 0.17895360031E+03 0.15809645960E+03 0.12938059566E+03 0.99429923809E+02
 0.73290483853E+02 0.52524347048E+02 0.36962711767E+02 0.25990263429E+02 0.18439277835E+02
 0.13278299498E+02 0.97669477202E+01 0.73894076670E+01 0.58196683887E+01 0.48609602919E+01
 0.43358245170E+01 0.40570239632E+01 0.39029817183E+01 0.38433858574E+01 0.38554085811E+01
 0.29813186425E+01 0.29687101317E+01 0.30033163228E+01 0.31820178562E+01 0.34921926311E+01
 0.39248657396E+01 0.46414326208E+01 0.58984790287E+01 0.78863275846E+01 0.10814859040E+02
 0.15156681460E+02 0.21736060698E+02 0.31733908303E+02 0.46784659167E+02 0.68692481841E+02
 0.99429923809E+02 0.14028573731E+03 0.18703756394E+03 0.23066765196E+03 0.26140997304E+03
 0.27243963787E+03 0.26140997304E+03 0.23066765196E+03 0.18703756394E+03 0.14028573731E+03
 0.99429923809E+02 0.68692481841E+02 0.46784659167E+02 0.31733908303E+02 0.21736060698E+02
 0.15156681460E+02 0.10814859040E+02 0.78863275846E+01 0.58984790287E+01 0.46414326208E+01
 0.39248657396E+01 0.34921926311E+01 0.31820178562E+01 0.30033163228E+01 0.29687101317E+01
 0.25268146942E+01 0.25016195480E+01 0.25445223937E+01 0.28023266498E+01 0.32206229062E+01
 0.37414687790E+01 0.45809606915E+01 0.60811653939E+01 0.84326297548E+01 0.11845045331E+02
 0.16967381426E+02 0.24992313596E+02 0.37596473100E+02 0.57054097048E+02 0.86156805774E+02
 0.12938059566E+03 0.18703756394E+03 0.25089042992E+03 0.30772649120E+03 0.34595853018E+03
 0.35927744483E+03 0.34595853018E+03 0.30772649120E+03 0.25089042992E+03 0.18703756394E+03
 0.12938059566E+03 0.86156805774E+02 0.57054097048E+02 0.37596473100E+02 0.24992313596E+02
 0.16967381426E+02 0.11845045331E+02 0.84326297548E+01 0.60811653939E+01 0.45809606915E+01
 0.37414687790E+01 0.32206229062E+01 0.28023266498E+01 0.25445223937E+01 0.25016195480E+01
 0.23159300972E+01 0.22701315905E+01 0.23021195265E+01 0.26147568709E+01 0.31100286648E+01
 0.36777314779E+01 0.45911243817E+01 0.62778385241E+01 0.89191351439E+01 0.12715478219E+02
 0.18491306792E+02 0.27800451296E+02 0.42780959185E+02 0.66261764434E+02 0.10266431109E+03
 0.15809645960E+03 0.23066765196E+03 0.30772649120E+03 0.37261198403E+03 0.41381106830E+03
 0.42760950810E+03 0.41381106830E+03 0.37261198403E+03 0.30772649120E+03 0.23066765196E+03
 0.15809645960E+03 0.10266431109E+03 0.66261764434E+02 0.42780959185E+02 0.27800451296E+02
 0.18491306792E+02 0.12715478219E+02 0.89191351439E+01 0.62778385241E+01 0.45911243817E+01
 0.36777314779E+01 0.31100286648E+01 0.26147568709E+01 0.23021195265E+01 0.22701315905E+01
 0.22344678755E+01 0.21704521707E+01 0.21880414973E+01 0.25345439621E+01 0.30778408373E+01
 0.36665759109E+01 0.46178209372E+01 0.64234726961E+01 0.92538086880E+01 0.13298708594E+02
 0.19513842025E+02 0.29719805641E+02 0.46382666700E+02 0.72738990049E+02 0.11472493196E+03
 0.17895360031E+03 0.26140997304E+03 0.34595853018E+03 0.41381106830E+03 0.45459194725E+03
 0.46770017607E+03 0.45459194725E+03 0.41381106830E+03 0.34595853018E+03 0.26140997304E+03
 0.17895360031E+03 0.11472493196E+03 0.72738990049E+02 0.46382666700E+02 0.29719805641E+02
 0.19513842025E+02 0.13298708594E+02 0.92538086880E+01 0.64234726961E+01 0.46178209372E+01
 0.36665759109E+01 0.30778408373E+01 0.25345439621E+01 0.21880414973E+01 0.21704521707E+01
 0.22151635398E+01 0.21439401512E+01 0.21552569646E+01 0.25133678878E+01 0.30731596903E+01
 0.36675738508E+01 0.46301672424E+01 0.64768102083E+01 0.93730186284E+01 0.13504126425E+02
 0.19874612439E+02 0.30403633576E+02 0.47675998538E+02 0.75091539594E+02 0.11916798792E+03
 0.18658203788E+03 0.27243963787E+03 0.35927744483E+03 0.42760950810E+03 0.46770017607E+03
 0.48033976618E+03 0.46770017607E+03 0.42760950810E+03 0.35927744483E+03 0.27243963787E+03
 0.18658203788E+03 0.11916798792E+03 0.75091539594E+02 0.47675998538E+02 0.30403633576E+02
 0.19874612439E+02 0.13504126425E+02 0.93730186284E+01 0.64768102083E+01 0.46301672424E+01
 0.36675738508E+01 0.30731596903E+01 0.25133678878E+01 0.21552569646E+01 0.21439401512E+01
 0.22344678755E+01 0.21704521707E+01 0.21880414973E+01 0.25345439621E+01 0.30778408373E+01
 0.36665759109E+01 0.46178209372E+01 0.64234726961E+01 0.92538086880E+01 0.13298708594E+02
 0.19513842025E+02 0.29719805641E+02 0.46382666700E+02 0.72738990049E+02 0.11472493196E+03
 0.17895360031E+03 0.26140997304E+03 0.34595853018E+03 0.41381106830E+03 0.45459194725E+03
 0.46770017607E+03 0.45459194725E+03 0.41381106830E+03 0.34595853018E+03 0.26140997304E+03
 0.17895360031E+03 0.11472493196E+03 0.72738990049E+02 0.46382666700E+02 0.29719805641E+02
 0.19513842025E+02 0.13298708594E+02 0.92538086880E+01 0.64234726961E+01 0.46178209372E+01
 0.36665759109E+01 0.30778408373E+01 0.25345439621E+01 0.21880414973E+01 0.21704521707E+01
 0.23159300972E+01 0.22701315905E+01 0.23021195265E+01 0.26147568709E+01 0.31100286648E+01
 0.36777314779E+01 0.45911243817E+01 0.62778385241E+01 0.89191351439E+01 0.12715478219E+02
 0.18491306792E+02 0.27800451296E+02 0.42780959185E+02 0.66261764434E+02 0.10266431109E+03
 0.15809645960E+03 0.23066765196E+03 0.30772649120E+03 0.37261198403E+03 0.41381106830E+03
 0.42760950810E+03 0.41381106830E+03 0.37261198403E+03 0.30772649120E+03 0.23066765196E+03
 0.15809645960E+03 0.10266431109E+03 0.66261764434E+02 0.42780959185E+02 0.27800451296E+02
 0.18491306792E+02 0.12715478219E+02 0.89191351439E+01 0.62778385241E+01 0.45911243817E+01
 0.36777314779E+01 0.31100286648E+01 0.26147568709E+01 0.23021195265E+01 0.22701315905E+01
 0.25268146942E+01 0.25016195480E+01 0.25445223937E+01 0.28023266498E+01 0.32206229062E+01
 0.37414687790E+01 0.45809606915E+01 0.60811653939E+01 0.84326297548E+01 0.11845045331E+02
 0.16967381426E+02 0.24992313596E+02 0.37596473100E+02 0.57054097048E+02 0.86156805774E+02
 0.12938059566E+03 0.18703756394E+03 0.25089042992E+03 0.30772649120E+03 0.34595853018E+03
 0.35927744483E+03 0.34595853018E+03 0.30772649120E+03 0.25089042992E+03 0.18703756394E+03
 0.12938059566E+03 0.86156805774E+02 0.57054097048E+02 0.37596473100E+02 0.24992313596E+02
 0.16967381426E+02 0.11845045331E+02 0.84326297548E+01 0.60811653939E+01 0.45809606915E+01
 0.37414687790E+01 0.32206229062E+01 0.28023266498E+01 0.25445223937E+01 0.25016195480E+01
 0.29813186425E+01 0.29687101317E+01 0.30033163228E+01 0.31820178562E+01 0.34921926311E+01
 0.39248657396E+01 0.46414326208E+01 0.58984790287E+01 0.78863275846E+01 0.10814859040E+02
 0.15156681460E+02 0.21736060698E+02 0.31733908303E+02 0.46784659167E+02 0.68692481841E+02
 0.99429923809E+02 0.14028573731E+03 0.18703756394E+03 0.23066765196E+03 0.26140997304E+03
 0.27243963787E+03 0.26140997304E+03 0.23066765196E+03 0.18703756394E+03 0.14028573731E+03
 0.99429923809E+02 0.68692481841E+02 0.46784659167E+02 0.31733908303E+02 0.21736060698E+02
 0.15156681460E+02 0.10814859040E+02 0.78863275846E+01 0.58984790287E+01 0.46414326208E+01
 0.39248657396E+01 0.34921926311E+01 0.31820178562E+01 0.30033163228E+01 0.29687101317E+01
 0.38732111596E+01 0.38554085811E+01 0.38433858574E+01 0.39029817183E+01 0.40570239632E+01
 0.43358245170E+01 0.48609602919E+01 0.58196683887E+01 0.73894076670E+01 0.97669477202E+01
 0.13278299498E+02 0.18439277835E+02 0.25990263429E+02 0.36962711767E+02 0.52524347048E+02
 0.73290483853E+02 0.99429923809E+02 0.12938059566E+03 0.15809645960E+03 0.17895360031E+03
 0.18658203788E+03 0.17895360031E+03 0.15809645960E+03 0.12938059566E+03 0.99429923809E+02
 0.73290483853E+02 0.52524347048E+02 0.36962711767E+02 0.25990263429E+02 0.18439277835E+02
 0.13278299498E+02 0.97669477202E+01 0.73894076670E+01 0.58196683887E+01 0.48609602919E+01
 0.43358245170E+01 0.40570239632E+01 0.39029817183E+01 0.38433858574E+01 0.38554085811E+01
 0.55460128386E+01 0.54954477298E+01 0.53719383369E+01 0.52349259805E+01 0.51413199614E+01
 0.51563189184E+01 0.53848554247E+01 0.59695399761E+01 0.70657167055E+01 0.88442805467E+01
 0.11523933872E+02 0.15400537930E+02 0.20881746696E+02 0.28526382740E+02 0.38962956268E+02
 0.52524347048E+02 0.68692481841E+02 0.86156805774E+02 0.10266431109E+03 0.11472493196E+03
 0.11916798792E+03 0.11472493196E+03 0.10266431109E+03 0.86156805774E+02 0.68692481841E+02
 0.52524347048E+02 0.38962956268E+02 0.28526382740E+02 0.20881746696E+02 0.15400537930E+02
 0.11523933872E+02 0.88442805467E+01 0.70657167055E+01 0.59695399761E+01 0.53848554247E+01
 0.51563189184E+01 0.51413199614E+01 0.52349259805E+01 0.53719383369E+01 0.54954477298E+01
 0.85884320983E+01 0.84644653172E+01 0.81234249991E+01 0.76446710608E+01 0.71307249028E+01
 0.66927415246E+01 0.64497318452E+01 0.65291013009E+01 0.70636448683E+01 0.81899961211E+01
 0.10050629993E+02 0.12801309865E+02 0.16631569405E+02 0.21786139946E+02 0.28526382740E+02
 0.36962711767E+02 0.46784659167E+02 0.57054097048E+02 0.66261764434E+02 0.72738990049E+02
 0.75091539594E+02 0.72738990049E+02 0.66261764434E+02 0.57054097048E+02 0.46784659167E+02
 0.36962711767E+02 0.28526382740E+02 0.21786139946E+02 0.16631569405E+02 0.12801309865E+02
 0.10050629993E+02 0.81899961211E+01 0.70636448683E+01 0.65291013009E+01 0.64497318452E+01
 0.66927415246E+01 0.71307249028E+01 0.76446710608E+01 0.81234249991E+01 0.84644653172E+01
 0.13907707828E+02 0.13650914923E+02 0.12927357526E+02 0.11863779703E+02 0.10635305150E+02
 0.94305749120E+01 0.84243593673E+01 0.77652861055E+01 0.75758973414E+01 0.79570649061E+01
 0.89905515196E+01 0.10741663630E+02 0.13268309111E+02 0.16631569405E+02 0.20881746696E+02
 0.25990263429E+02 0.31733908303E+02 0.37596473100E+02 0.42780959185E+02 0.46382666700E+02
 0.47675998538E+02 0.46382666700E+02 0.42780959185E+02 0.37596473100E+02 0.31733908303E+02
 0.25990263429E+02 0.20881746696E+02 0.16631569405E+02 0.13268309111E+02 0.10741663630E+02
 0.89905515196E+01 0.79570649061E+01 0.75758973414E+01 0.77652861055E+01 0.84243593673E+01
 0.94305749120E+01 0.10635305150E+02 0.11863779703E+02 0.12927357526E+02 0.13650914923E+02
 0.22777982448E+02 0.22298116830E+02 0.20935414944E+02 0.18903056998E+02 0.16501804931E+02
 0.14052578000E+02 0.11832609286E+02 0.10054178865E+02 0.88590234736E+01 0.83211264802E+01
 0.84649441522E+01 0.92817389684E+01 0.10741663630E+02 0.12801309865E+02 0.15400537930E+02
 0.18439277835E+02 0.21736060698E+02 0.24992313596E+02 0.27800451296E+02 0.29719805641E+02
 0.30403633576E+02 0.29719805641E+02 0.27800451296E+02 0.24992313596E+02 0.21736060698E+02
 0.18439277835E+02 0.15400537930E+02 0.12801309865E+02 0.10741663630E+02 0.92817389684E+01
 0.84649441522E+01 0.83211264802E+01 0.88590234736E+01 0.10054178865E+02 0.11832609286E+02
 0.14052578000E+02 0.16501804931E+02 0.18903056998E+02 0.20935414944E+02 0.22298116830E+02
 0.36658933729E+02 0.35848911373E+02 0.33532226148E+02 0.30030203926E+02 0.25814821191E+02
 0.21416893496E+02 0.17318932034E+02 0.13865663683E+02 0.11233389853E+02 0.94855994282E+01
 0.85923688499E+01 0.84649441522E+01 0.89905515196E+01 0.10050629993E+02 0.11523933872E+02
 0.13278299498E+02 0.15156681460E+02 0.16967381426E+02 0.18491306792E+02 0.19513842025E+02
 0.19874612439E+02 0.19513842025E+02 0.18491306792E+02 0.16967381426E+02 0.15156681460E+02
 0.13278299498E+02 0.11523933872E+02 0.10050629993E+02 0.89905515196E+01 0.84649441522E+01
 0.85923688499E+01 0.94855994282E+01 0.11233389853E+02 0.13865663683E+02 0.17318932034E+02
 0.21416893496E+02 0.25814821191E+02 0.30030203926E+02 0.33532226148E+02 0.35848911373E+02
 0.56366817800E+02 0.55141114346E+02 0.51608533571E+02 0.46189821592E+02 0.39533885945E+02
 0.32419228303E+02 0.25610206497E+02 0.19706430658E+02 0.15040010305E+02 0.11665563032E+02
 0.94855994282E+01 0.83211264802E+01 0.79570649061E+01 0.81899961211E+01 0.88442805467E+01
 0.97669477202E+01 0.10814859040E+02 0.11845045331E+02 0.12715478219E+02 0.13298708594E+02
 0.13504126425E+02 0.13298708594E+02 0.12715478219E+02 0.11845045331E+02 0.10814859040E+02
 0.97669477202E+01 0.88442805467E+01 0.81899961211E+01 0.79570649061E+01 0.83211264802E+01
 0.94855994282E+01 0.11665563032E+02 0.15040010305E+02 0.19706430658E+02 0.25610206497E+02
 0.32419228303E+02 0.39533885945E+02 0.46189821592E+02 0.51608533571E+02 0.55141114346E+02
 0.81341439541E+02 0.79681682457E+02 0.74855020206E+02 0.67324563744E+02 0.57856861193E+02
 0.47454182609E+02 0.37198579873E+02 0.28036711378E+02 0.20585229242E+02 0.15040010305E+02
 0.11233389853E+02 0.88590234736E+01 0.75758973414E+01 0.70636448683E+01 0.70657167055E+01
 0.73894076670E+01 0.78863275846E+01 0.84326297548E+01 0.89191351439E+01 0.92538086880E+01
 0.93730186284E+01 0.92538086880E+01 0.89191351439E+01 0.84326297548E+01 0.78863275846E+01
 0.73894076670E+01 0.70657167055E+01 0.70636448683E+01 0.75758973414E+01 0.88590234736E+01
 0.11233389853E+02 0.15040010305E+02 0.20585229242E+02 0.28036711378E+02 0.37198579873E+02
 0.47454182609E+02 0.57856861193E+02 0.67324563744E+02 0.74855020206E+02 0.79681682457E+02
 0.10936439335E+03 0.10735433261E+03 0.10144279913E+03 0.92024987171E+02 0.79849236396E+02
 0.66035063198E+02 0.51949989770E+02 0.38943674052E+02 0.28036711378E+02 0.19706430658E+02
 0.13865663683E+02 0.10054178865E+02 0.77652861055E+01 0.65291013009E+01 0.59695399761E+01
 0.58196683887E+01 0.58984790287E+01 0.60811653939E+01 0.62778385241E+01 0.64234726961E+01
 0.64768102083E+01 0.64234726961E+01 0.62778385241E+01 0.60811653939E+01 0.58984790287E+01
 0.58196683887E+01 0.59695399761E+01 0.65291013009E+01 0.77652861055E+01 0.10054178865E+02
 0.13865663683E+02 0.19706430658E+02 0.28036711378E+02 0.38943674052E+02 0.51949989770E+02
 0.66035063198E+02 0.79849236396E+02 0.92024987171E+02 0.10144279913E+03 0.10735433261E+03
 0.13700149997E+03 0.13482995665E+03 0.12834450138E+03 0.11772326793E+03 0.10350060234E+03
 0.86733117178E+02 0.68966550323E+02 0.51949989770E+02 0.37198579873E+02 0.25610206497E+02
 0.17318932034E+02 0.11832609286E+02 0.84243593673E+01 0.64497318452E+01 0.53848554247E+01
 0.48609602919E+01 0.46414326208E+01 0.45809606915E+01 0.45911243817E+01 0.46178209372E+01
 0.46301672424E+01 0.46178209372E+01 0.45911243817E+01 0.45809606915E+01 0.46414326208E+01
 0.48609602919E+01 0.53848554247E+01 0.64497318452E+01 0.84243593673E+01 0.11832609286E+02
 0.17318932034E+02 0.25610206497E+02 0.37198579873E+02 0.51949989770E+02 0.68966550323E+02
 0.86733117178E+02 0.10350060234E+03 0.11772326793E+03 0.12834450138E+03 0.13482995665E+03
 0.16066799057E+03 0.15859193328E+03 0.15224526750E+03 0.14143120666E+03 0.12625640080E+03
 0.10750162133E+03 0.86733117178E+02 0.66035063198E+02 0.47454182609E+02 0.32419228303E+02
 0.21416893496E+02 0.14052578000E+02 0.94305749120E+01 0.66927415246E+01 0.51563189184E+01
 0.43358245170E+01 0.39248657396E+01 0.37414687790E+01 0.36777314779E+01 0.36665759109E+01
 0.36675738508E+01 0.36665759109E+01 0.36777314779E+01 0.37414687790E+01 0.39248657396E+01
 0.43358245170E+01 0.51563189184E+01 0.66927415246E+01 0.94305749120E+01 0.14052578000E+02
 0.21416893496E+02 0.32419228303E+02 0.47454182609E+02 0.66035063198E+02 0.86733117178E+02
 0.10750162133E+03 0.12625640080E+03 0.14143120666E+03 0.15224526750E+03 0.15859193328E+03
 0.17785300572E+03 0.17612965386E+03 0.17064604934E+03 0.16070183406E+03 0.14579912044E+03
 0.12625640080E+03 0.10350060234E+03 0.79849236396E+02 0.57856861193E+02 0.39533885945E+02
 0.25814821191E+02 0.16501804931E+02 0.10635305150E+02 0.71307249028E+01 0.51413199614E+01
 0.40570239632E+01 0.34921926311E+01 0.32206229062E+01 0.31100286648E+01 0.30778408373E+01
 0.30731596903E+01 0.30778408373E+01 0.31100286648E+01 0.32206229062E+01 0.34921926311E+01
 0.40570239632E+01 0.51413199614E+01 0.71307249028E+01 0.10635305150E+02 0.16501804931E+02
 0.25814821191E+02 0.39533885945E+02 0.57856861193E+02 0.79849236396E+02 0.10350060234E+03
 0.12625640080E+03 0.14579912044E+03 0.16070183406E+03 0.17064604934E+03 0.17612965386E+03
 0.18794415762E+03 0.18675207166E+03 0.18264484686E+03 0.17435773242E+03 0.16070183406E+03
 0.14143120666E+03 0.11772326793E+03 0.92024987171E+02 0.67324563744E+02 0.46189821592E+02
 0.30030203926E+02 0.18903056998E+02 0.11863779703E+02 0.76446710608E+01 0.52349259805E+01
 0.39029817183E+01 0.31820178562E+01 0.28023266498E+01 0.26147568709E+01 0.25345439621E+01
 0.25133678878E+01 0.25345439621E+01 0.26147568709E+01 0.28023266498E+01 0.31820178562E+01
 0.39029817183E+01 0.52349259805E+01 0.76446710608E+01 0.11863779703E+02 0.18903056998E+02
 0.30030203926E+02 0.46189821592E+02 0.67324563744E+02 0.92024987171E+02 0.11772326793E+03
 0.14143120666E+03 0.16070183406E+03 0.17435773242E+03 0.18264484686E+03 0.18675207166E+03
 0.19226799188E+03 0.19164218871E+03 0.18903134956E+03 0.18264484686E+03 0.17064604934E+03
 0.15224526750E+03 0.12834450138E+03 0.10144279913E+03 0.74855020206E+02 0.51608533571E+02
 0.33532226148E+02 0.20935414944E+02 0.12927357526E+02 0.81234249991E+01 0.53719383369E+01
 0.38433858574E+01 0.30033163228E+01 0.25445223937E+01 0.23021195265E+01 0.21880414973E+01
 0.21552569646E+01 0.21880414973E+01 0.23021195265E+01 0.25445223937E+01 0.30033163228E+01
 0.38433858574E+01 0.53719383369E+01 0.81234249991E+01 0.12927357526E+02 0.20935414944E+02
 0.33532226148E+02 0.51608533571E+02 0.74855020206E+02 0.10144279913E+03 0.12834450138E+03
 0.15224526750E+03 0.17064604934E+03 0.18264484686E+03 0.18903134956E+03 0.19164218871E+03
 0.19329364856E+03 0.19310039891E+03 0.19164218871E+03 0.18675207166E+03 0.17612965386E+03
 0.15859193328E+03 0.13482995665E+03 0.10735433261E+03 0.79681682457E+02 0.55141114346E+02
 0.35848911373E+02 0.22298116830E+02 0.13650914923E+02 0.84644653172E+01 0.54954477298E+01
 0.38554085811E+01 0.29687101317E+01 0.25016195480E+01 0.22701315905E+01 0.21704521707E+01
 0.21439401512E+01 0.21704521707E+01 0.22701315905E+01 0.25016195480E+01 0.29687101317E+01
 0.38554085811E+01 0.54954477298E+01 0.84644653172E+01 0.13650914923E+02 0.22298116830E+02
 0.35848911373E+02 0.55141114346E+02 0.79681682457E+02 0.10735433261E+03 0.13482995665E+03
 0.15859193328E+03 0.17612965386E+03 0.18675207166E+03 0.19164218871E+03 0.19310039891E+03
 0.19329364856E+03 0.19310039891E+03 0.19164218871E+03 0.18675207166E+03 0.17612965386E+03
 0.15859193328E+03 0.13482995665E+03 0.10735433261E+03 0.79681682457E+02 0.55141114346E+02
 0.35848911373E+02 0.22298116830E+02 0.13650914923E+02 0.84644653172E+01 0.54954477298E+01
 0.38554085811E+01 0.29687101317E+01 0.25016195480E+01 0.22701315905E+01 0.21704521707E+01
 0.21439401512E+01 0.21704521707E+01 0.22701315905E+01 0.25016195480E+01 0.29687101317E+01