   5   5   0   0
  0.1191194E+02  0.3905268E-09  0.3905268E-09  0.3905268E-09  0.5000000E-15
  1.000000000000000E-004
  CAR 
 unknown system                          
     12.70351877    -32.11853779  301      2.61855605      1.00000000
    -32.119  0.0000E+00  0.0000E+00
    -31.969  0.0000E+00  0.0000E+00
    -31.820  0.0000E+00  0.0000E+00
    -31.670  0.0000E+00  0.0000E+00
    -31.521  0.0000E+00  0.0000E+00
    -31.372  0.0000E+00  0.0000E+00
    -31.222  0.0000E+00  0.0000E+00
    -31.073  0.0000E+00  0.0000E+00
    -30.923  0.0000E+00  0.0000E+00
    -30.774  0.0000E+00  0.0000E+00
    -30.624  0.0000E+00  0.0000E+00
    -30.475  0.0000E+00  0.0000E+00
    -30.326  0.0000E+00  0.0000E+00
    -30.176  0.0000E+00  0.0000E+00
    -30.027  0.1576E+02  0.1945E+01
    -29.877  0.0000E+00  0.2000E+01
    -29.728  0.0000E+00  0.2000E+01
    -29.579  0.0000E+00  0.2000E+01
    -29.429  0.0000E+00  0.2000E+01
    -29.280  0.0000E+00  0.2000E+01
    -29.130  0.0000E+00  0.2000E+01
    -28.981  0.0000E+00  0.2000E+01
    -28.832  0.0000E+00  0.2000E+01
    -28.682  0.0000E+00  0.2000E+01
    -28.533  0.0000E+00  0.2000E+01
    -28.383  0.0000E+00  0.2000E+01
    -28.234  0.0000E+00  0.2000E+01
    -28.085  0.0000E+00  0.2000E+01
    -27.935  0.0000E+00  0.2000E+01
    -27.786  0.0000E+00  0.2000E+01
    -27.636  0.0000E+00  0.2000E+01
    -27.487  0.0000E+00  0.2000E+01
    -27.338  0.0000E+00  0.2000E+01
    -27.188  0.0000E+00  0.2000E+01
    -27.039  0.0000E+00  0.2000E+01
    -26.889  0.0000E+00  0.2000E+01
    -26.740  0.0000E+00  0.2000E+01
    -26.590  0.0000E+00  0.2000E+01
    -26.441  0.0000E+00  0.2000E+01
    -26.292  0.0000E+00  0.2000E+01
    -26.142  0.0000E+00  0.2000E+01
    -25.993  0.0000E+00  0.2000E+01
    -25.843  0.0000E+00  0.2000E+01
    -25.694  0.0000E+00  0.2000E+01
    -25.545  0.0000E+00  0.2000E+01
    -25.395  0.0000E+00  0.2000E+01
    -25.246  0.0000E+00  0.2000E+01
    -25.096  0.0000E+00  0.2000E+01
    -24.947  0.0000E+00  0.2000E+01
    -24.798  0.0000E+00  0.2000E+01
    -24.648  0.0000E+00  0.2000E+01
    -24.499  0.0000E+00  0.2000E+01
    -24.349  0.0000E+00  0.2000E+01
    -24.200  0.0000E+00  0.2000E+01
    -24.051  0.0000E+00  0.2000E+01
    -23.901  0.0000E+00  0.2000E+01
    -23.752  0.0000E+00  0.2000E+01
    -23.602  0.0000E+00  0.2000E+01
    -23.453  0.0000E+00  0.2000E+01
    -23.304  0.0000E+00  0.2000E+01
    -23.154  0.0000E+00  0.2000E+01
    -23.005  0.0000E+00  0.2000E+01
    -22.855  0.0000E+00  0.2000E+01
    -22.706  0.0000E+00  0.2000E+01
    -22.556  0.0000E+00  0.2000E+01
    -22.407  0.0000E+00  0.2000E+01
    -22.258  0.0000E+00  0.2000E+01
    -22.108  0.0000E+00  0.2000E+01
    -21.959  0.0000E+00  0.2000E+01
    -21.809  0.0000E+00  0.2000E+01
    -21.660  0.0000E+00  0.2000E+01
    -21.511  0.0000E+00  0.2000E+01
    -21.361  0.0000E+00  0.2000E+01
    -21.212  0.0000E+00  0.2000E+01
    -21.062  0.0000E+00  0.2000E+01
    -20.913  0.0000E+00  0.2000E+01
    -20.764  0.0000E+00  0.2000E+01
    -20.614  0.0000E+00  0.2000E+01
    -20.465  0.0000E+00  0.2000E+01
    -20.315  0.0000E+00  0.2000E+01
    -20.166  0.0000E+00  0.2000E+01
    -20.017  0.0000E+00  0.2000E+01
    -19.867  0.0000E+00  0.2000E+01
    -19.718  0.0000E+00  0.2000E+01
    -19.568  0.0000E+00  0.2000E+01
    -19.419  0.0000E+00  0.2000E+01
    -19.270  0.0000E+00  0.2000E+01
    -19.120  0.0000E+00  0.2000E+01
    -18.971  0.0000E+00  0.2000E+01
    -18.821  0.0000E+00  0.2000E+01
    -18.672  0.0000E+00  0.2000E+01
    -18.523  0.0000E+00  0.2000E+01
    -18.373  0.0000E+00  0.2000E+01
    -18.224  0.0000E+00  0.2000E+01
    -18.074  0.0000E+00  0.2000E+01
    -17.925  0.0000E+00  0.2000E+01
    -17.775  0.0000E+00  0.2000E+01
    -17.626  0.0000E+00  0.2000E+01
    -17.477  0.0000E+00  0.2000E+01
    -17.327  0.0000E+00  0.2000E+01
    -17.178  0.0000E+00  0.2000E+01
    -17.028  0.0000E+00  0.2000E+01
    -16.879  0.0000E+00  0.2000E+01
    -16.730  0.0000E+00  0.2000E+01
    -16.580  0.0000E+00  0.2000E+01
    -16.431  0.0000E+00  0.2000E+01
    -16.281  0.0000E+00  0.2000E+01
    -16.132  0.0000E+00  0.2000E+01
    -15.983  0.0000E+00  0.2000E+01
    -15.833  0.0000E+00  0.2000E+01
    -15.684  0.0000E+00  0.2000E+01
    -15.534  0.0000E+00  0.2000E+01
    -15.385  0.0000E+00  0.2000E+01
    -15.236  0.0000E+00  0.2000E+01
    -15.086  0.0000E+00  0.2000E+01
    -14.937  0.1084E+01  0.2036E+01
    -14.787  0.4134E+01  0.2568E+01
    -14.638  0.2750E+01  0.3034E+01
    -14.489  0.1894E+01  0.3365E+01
    -14.339  0.1776E+01  0.3622E+01
    -14.190  0.8524E+00  0.3808E+01
    -14.040  0.1281E+01  0.3916E+01
    -13.891  0.1063E+02  0.4639E+01
    -13.741  0.2898E+02  0.7124E+01
    -13.592  0.0000E+00  0.8000E+01
    -13.443  0.0000E+00  0.8000E+01
    -13.293  0.0000E+00  0.8000E+01
    -13.144  0.0000E+00  0.8000E+01
    -12.994  0.0000E+00  0.8000E+01
    -12.845  0.0000E+00  0.8000E+01
    -12.696  0.0000E+00  0.8000E+01
    -12.546  0.0000E+00  0.8000E+01
    -12.397  0.0000E+00  0.8000E+01
    -12.247  0.2656E+01  0.8224E+01
    -12.098  0.2541E+02  0.9835E+01
    -11.949  0.9755E+01  0.1138E+02
    -11.799  0.7983E+01  0.1266E+02
    -11.650  0.2599E+01  0.1391E+02
    -11.500  0.0000E+00  0.1400E+02
    -11.351  0.0000E+00  0.1400E+02
    -11.202  0.0000E+00  0.1400E+02
    -11.052  0.0000E+00  0.1400E+02
    -10.903  0.0000E+00  0.1400E+02
    -10.753  0.0000E+00  0.1400E+02
    -10.604  0.0000E+00  0.1400E+02
    -10.455  0.0000E+00  0.1400E+02
    -10.305  0.0000E+00  0.1400E+02
    -10.156  0.0000E+00  0.1400E+02
    -10.006  0.0000E+00  0.1400E+02
     -9.857  0.0000E+00  0.1400E+02
     -9.708  0.0000E+00  0.1400E+02
     -9.558  0.0000E+00  0.1400E+02
     -9.409  0.0000E+00  0.1400E+02
     -9.259  0.0000E+00  0.1400E+02
     -9.110  0.0000E+00  0.1400E+02
     -8.960  0.0000E+00  0.1400E+02
     -8.811  0.0000E+00  0.1400E+02
     -8.662  0.0000E+00  0.1400E+02
     -8.512  0.0000E+00  0.1400E+02
     -8.363  0.0000E+00  0.1400E+02
     -8.213  0.0000E+00  0.1400E+02
     -8.064  0.0000E+00  0.1400E+02
     -7.915  0.0000E+00  0.1400E+02
     -7.765  0.0000E+00  0.1400E+02
     -7.616  0.0000E+00  0.1400E+02
     -7.466  0.0000E+00  0.1400E+02
     -7.317  0.0000E+00  0.1400E+02
     -7.168  0.0000E+00  0.1400E+02
     -7.018  0.0000E+00  0.1400E+02
     -6.869  0.0000E+00  0.1400E+02
     -6.719  0.0000E+00  0.1400E+02
     -6.570  0.0000E+00  0.1400E+02
     -6.421  0.0000E+00  0.1400E+02
     -6.271  0.0000E+00  0.1400E+02
     -6.122  0.0000E+00  0.1400E+02
     -5.972  0.0000E+00  0.1400E+02
     -5.823  0.0000E+00  0.1400E+02
     -5.674  0.0000E+00  0.1400E+02
     -5.524  0.0000E+00  0.1400E+02
     -5.375  0.0000E+00  0.1400E+02
     -5.225  0.0000E+00  0.1400E+02
     -5.076  0.0000E+00  0.1400E+02
     -4.926  0.0000E+00  0.1400E+02
     -4.777  0.0000E+00  0.1400E+02
     -4.628  0.0000E+00  0.1400E+02
     -4.478  0.0000E+00  0.1400E+02
     -4.329  0.0000E+00  0.1400E+02
     -4.179  0.0000E+00  0.1400E+02
     -4.030  0.0000E+00  0.1400E+02
     -3.881  0.0000E+00  0.1400E+02
     -3.731  0.0000E+00  0.1400E+02
     -3.582  0.0000E+00  0.1400E+02
     -3.432  0.0000E+00  0.1400E+02
     -3.283  0.0000E+00  0.1400E+02
     -3.134  0.0000E+00  0.1400E+02
     -2.984  0.0000E+00  0.1400E+02
     -2.835  0.0000E+00  0.1400E+02
     -2.685  0.0000E+00  0.1400E+02
     -2.536  0.0000E+00  0.1400E+02
     -2.387  0.0000E+00  0.1400E+02
     -2.237  0.0000E+00  0.1400E+02
     -2.088  0.0000E+00  0.1400E+02
     -1.938  0.0000E+00  0.1400E+02
     -1.789  0.4141E+01  0.1426E+02
     -1.640  0.6105E+01  0.1513E+02
     -1.490  0.3890E+01  0.1567E+02
     -1.341  0.4238E+01  0.1647E+02
     -1.191  0.3297E+01  0.1700E+02
     -1.042  0.3842E+01  0.1753E+02
     -0.893  0.4710E+01  0.1823E+02
     -0.743  0.5034E+01  0.1898E+02
     -0.594  0.5358E+01  0.1976E+02
     -0.444  0.6633E+01  0.2067E+02
     -0.295  0.9681E+01  0.2187E+02
     -0.145  0.3526E+01  0.2280E+02
      0.004  0.2790E+01  0.2329E+02
      0.153  0.2311E+01  0.2367E+02
      0.303  0.1883E+01  0.2399E+02
      0.452  0.1993E+01  0.2427E+02
      0.602  0.2960E+01  0.2465E+02
      0.751  0.3248E+01  0.2511E+02
      0.900  0.2615E+01  0.2561E+02
      1.050  0.1262E+01  0.2582E+02
      1.199  0.2858E+01  0.2611E+02
      1.349  0.6389E+01  0.2675E+02
      1.498  0.8088E+01  0.2773E+02
      1.647  0.5894E+01  0.2876E+02
      1.797  0.5788E+01  0.2963E+02
      1.946  0.4288E+01  0.3039E+02
      2.096  0.3264E+01  0.3094E+02
      2.245  0.2406E+01  0.3139E+02
      2.394  0.1852E+01  0.3170E+02
      2.544  0.8523E+00  0.3198E+02
      2.693  0.0000E+00  0.3200E+02
      2.843  0.0000E+00  0.3200E+02
      2.992  0.0000E+00  0.3200E+02
      3.141  0.0000E+00  0.3200E+02
      3.291  0.0000E+00  0.3200E+02
      3.440  0.0000E+00  0.3200E+02
      3.590  0.0000E+00  0.3200E+02
      3.739  0.0000E+00  0.3200E+02
      3.889  0.0000E+00  0.3200E+02
      4.038  0.0000E+00  0.3200E+02
      4.187  0.0000E+00  0.3200E+02
      4.337  0.0000E+00  0.3200E+02
      4.486  0.2252E+00  0.3202E+02
      4.636  0.6320E+00  0.3208E+02
      4.785  0.1071E+01  0.3221E+02
      4.934  0.1567E+01  0.3243E+02
      5.084  0.1425E+01  0.3265E+02
      5.233  0.1507E+01  0.3287E+02
      5.383  0.1711E+01  0.3311E+02
      5.532  0.1921E+01  0.3338E+02
      5.681  0.2907E+01  0.3372E+02
      5.831  0.3206E+01  0.3418E+02
      5.980  0.3608E+01  0.3469E+02
      6.130  0.4160E+01  0.3527E+02
      6.279  0.5204E+01  0.3642E+02
      6.428  0.3791E+01  0.3707E+02
      6.578  0.2472E+01  0.3755E+02
      6.727  0.1043E+01  0.3785E+02
      6.877  0.6016E-01  0.3790E+02
      7.026  0.5680E-01  0.3791E+02
      7.175  0.5353E-01  0.3792E+02
      7.325  0.5036E-01  0.3792E+02
      7.474  0.4728E-01  0.3793E+02
      7.624  0.4429E-01  0.3794E+02
      7.773  0.4140E-01  0.3794E+02
      7.922  0.3859E-01  0.3795E+02
      8.072  0.3688E-01  0.3796E+02
      8.221  0.5531E-01  0.3796E+02
      8.371  0.1012E+00  0.3797E+02
      8.520  0.1580E+00  0.3799E+02
      8.670  0.1860E+00  0.3802E+02
      8.819  0.2031E+00  0.3805E+02
      8.968  0.2331E+00  0.3808E+02
      9.118  0.2765E+00  0.3812E+02
      9.267  0.3346E+00  0.3816E+02
      9.417  0.4079E+00  0.3822E+02
      9.566  0.5406E+00  0.3829E+02
      9.715  0.6714E+00  0.3838E+02
      9.865  0.1002E+01  0.3851E+02
     10.014  0.1519E+01  0.3870E+02
     10.164  0.1603E+01  0.3893E+02
     10.313  0.1923E+01  0.3919E+02
     10.462  0.2904E+01  0.3951E+02
     10.612  0.1782E+01  0.3994E+02
     10.761  0.0000E+00  0.4000E+02
     10.911  0.0000E+00  0.4000E+02
     11.060  0.0000E+00  0.4000E+02
     11.209  0.0000E+00  0.4000E+02
     11.359  0.0000E+00  0.4000E+02
     11.508  0.0000E+00  0.4000E+02
     11.658  0.0000E+00  0.4000E+02
     11.807  0.0000E+00  0.4000E+02
     11.956  0.0000E+00  0.4000E+02
     12.106  0.0000E+00  0.4000E+02
     12.255  0.0000E+00  0.4000E+02
     12.405  0.0000E+00  0.4000E+02
     12.554  0.0000E+00  0.4000E+02
     12.704  0.0000E+00  0.4000E+02
