       N       E                     dE             d eps       ncg     rms          rms(c)
DAV:   1     0.300137360516E+03    0.30014E+03   -0.14484E+04   800   0.144E+03
DAV:   2    -0.188713921079E+02   -0.31901E+03   -0.30645E+03  1080   0.351E+02
DAV:   3    -0.491723853663E+02   -0.30301E+02   -0.30093E+02   980   0.122E+02
DAV:   4    -0.501990241680E+02   -0.10266E+01   -0.10253E+01  1276   0.217E+01
DAV:   5    -0.502236952411E+02   -0.24671E-01   -0.24664E-01  1060   0.264E+00    0.182E+01
RMM:   6    -0.404011135291E+02    0.98226E+01   -0.58375E+01   865   0.441E+01    0.621E+00
RMM:   7    -0.398107172312E+02    0.59040E+00   -0.15175E+00   950   0.101E+01    0.321E+00
RMM:   8    -0.397273599758E+02    0.83357E-01   -0.92377E-01   954   0.744E+00    0.814E-01
RMM:   9    -0.397135530773E+02    0.13807E-01   -0.56230E-02  1106   0.190E+00    0.576E-01
RMM:  10    -0.397094079082E+02    0.41452E-02   -0.11883E-01   976   0.197E+00    0.290E-01
RMM:  11    -0.397080529807E+02    0.13549E-02   -0.11657E-02  1068   0.622E-01    0.754E-02
RMM:  12    -0.397089205132E+02   -0.86753E-03   -0.85603E-03  1082   0.484E-01    0.164E-01
RMM:  13    -0.397085572408E+02    0.36327E-03   -0.61767E-03  1048   0.421E-01    0.607E-02
RMM:  14    -0.397085359621E+02    0.21279E-04   -0.13514E-03   989   0.202E-01    0.223E-02
RMM:  15    -0.397085605954E+02   -0.24633E-04   -0.42245E-04   881   0.710E-02    0.166E-02
RMM:  16    -0.397085637501E+02   -0.31548E-05   -0.11611E-04   826   0.475E-02    0.759E-03
RMM:  17    -0.397085692482E+02   -0.54980E-05   -0.53914E-05   711   0.330E-02
   1 F= -.39708569E+02 E0= -.39708569E+02  d E =0.000000E+00
