 vasp.5.4.4.18Apr17-6-g9f103f2a35 (build Jun 30 2017 11:15:00) complex          
  
 executed on    STALLO_VASP_5.4.4 date 2019.11.06  13:07:38
 running on    4 total cores
 distrk:  each k-point on    4 cores,    1 groups
 distr:  one band on NCORES_PER_BAND=   2 cores,    2 groups


--------------------------------------------------------------------------------------------------------


 INCAR:
 POTCAR:   PAW_PBE Sr_sv 07Sep2000                
 POTCAR:   PAW_PBE Ti 08Apr2002                   
 POTCAR:   PAW_PBE O 08Apr2002                    
 POTCAR:   PAW_PBE Sr_sv 07Sep2000                
   VRHFIN =Sr: 4s4p5s                                                           
   LEXCH  = PE                                                                  
   EATOM  =   842.4562 eV,   61.9188 Ry                                         
                                                                                
   TITEL  = PAW_PBE Sr_sv 07Sep2000                                             
   LULTRA =        F    use ultrasoft PP ?                                      
   IUNSCR =        1    unscreen: 0-lin 1-nonlin 2-no                           
   RPACOR =    2.200    partial core radius                                     
   POMASS =   87.620; ZVAL   =   10.000    mass and valenz                      
   RCORE  =    2.500    outmost cutoff radius                                   
   RWIGS  =    4.040; RWIGS  =    2.138    wigner-seitz radius (au A)           
   ENMAX  =  229.282; ENMIN  =  171.961 eV                                      
   RCLOC  =    2.201    cutoff for local pot                                    
   LCOR   =        T    correct aug charges                                     
   LPAW   =        T    paw PP                                                  
   EAUG   =  366.804                                                            
   DEXC   =     .000                                                            
   RMAX   =    3.045    core radius for proj-oper                               
   RAUG   =    1.300    factor for augmentation sphere                          
   RDEP   =    2.562    radius for radial grids                                 
   QCUT   =   -4.105; QGAM   =    8.210    optimization parameters              
                                                                                
   Description                                                                  
     l     E      TYP  RCUT    TYP  RCUT                                        
     0   .000     23  2.480                                                     
     0   .000     23  2.480                                                     
     1   .000     23  2.500                                                     
     1   .000     23  2.500                                                     
     2   .000     23  2.500                                                     
     2   .000     23  2.500                                                     
  local pseudopotential read in
  partial core-charges read in
  atomic valenz-charges read in
  non local Contribution for L=           0  read in
    real space projection operators read in
  non local Contribution for L=           0  read in
    real space projection operators read in
  non local Contribution for L=           1  read in
    real space projection operators read in
  non local Contribution for L=           1  read in
    real space projection operators read in
  non local Contribution for L=           2  read in
    real space projection operators read in
  non local Contribution for L=           2  read in
    real space projection operators read in
    PAW grid and wavefunctions read in
 
   number of l-projection  operators is LMAX  =           6
   number of lm-projection operators is LMMAX =          18
 
 POTCAR:   PAW_PBE Ti 08Apr2002                   
   VRHFIN =Ti: d3 s1                                                            
   LEXCH  = PE                                                                  
   EATOM  =    94.7929 eV,    6.9671 Ry                                         
                                                                                
   TITEL  = PAW_PBE Ti 08Apr2002                                                
   LULTRA =        F    use ultrasoft PP ?                                      
   IUNSCR =        1    unscreen: 0-lin 1-nonlin 2-no                           
   RPACOR =    2.200    partial core radius                                     
   POMASS =   47.880; ZVAL   =    4.000    mass and valenz                      
   RCORE  =    2.800    outmost cutoff radius                                   
   RWIGS  =    2.500; RWIGS  =    1.323    wigner-seitz radius (au A)           
   ENMAX  =  178.330; ENMIN  =  133.747 eV                                      
   RCLOC  =    2.215    cutoff for local pot                                    
   LCOR   =        T    correct aug charges                                     
   LPAW   =        T    paw PP                                                  
   EAUG   =  328.883                                                            
   DEXC   =    -.043                                                            
   RMAX   =    3.453    core radius for proj-oper                               
   RAUG   =    1.300    factor for augmentation sphere                          
   RDEP   =    2.885    radius for radial grids                                 
   QCUT   =   -3.620; QGAM   =    7.241    optimization parameters              
                                                                                
   Description                                                                  
     l     E      TYP  RCUT    TYP  RCUT                                        
     2   .000     23  2.800                                                     
     2   .000     23  2.800                                                     
     0   .000     23  2.800                                                     
     0  1.500     23  2.800                                                     
     1  -.400     23  2.800                                                     
     3   .000      7   .000                                                     
  local pseudopotential read in
  partial core-charges read in
  atomic valenz-charges read in
  non local Contribution for L=           2  read in
    real space projection operators read in
  non local Contribution for L=           2  read in
    real space projection operators read in
  non local Contribution for L=           0  read in
    real space projection operators read in
  non local Contribution for L=           0  read in
    real space projection operators read in
  non local Contribution for L=           1  read in
    real space projection operators read in
    PAW grid and wavefunctions read in
 
   number of l-projection  operators is LMAX  =           5
   number of lm-projection operators is LMMAX =          15
 
 POTCAR:   PAW_PBE O 08Apr2002                    
   VRHFIN =O: s2p4                                                              
   LEXCH  = PE                                                                  
   EATOM  =   432.3788 eV,   31.7789 Ry                                         
                                                                                
   TITEL  = PAW_PBE O 08Apr2002                                                 
   LULTRA =        F    use ultrasoft PP ?                                      
   IUNSCR =        0    unscreen: 0-lin 1-nonlin 2-no                           
   RPACOR =     .000    partial core radius                                     
   POMASS =   16.000; ZVAL   =    6.000    mass and valenz                      
   RCORE  =    1.520    outmost cutoff radius                                   
   RWIGS  =    1.550; RWIGS  =     .820    wigner-seitz radius (au A)           
   ENMAX  =  400.000; ENMIN  =  300.000 eV                                      
   ICORE  =        2    local potential                                         
   LCOR   =        T    correct aug charges                                     
   LPAW   =        T    paw PP                                                  
   EAUG   =  605.392                                                            
   DEXC   =     .000                                                            
   RMAX   =    2.264    core radius for proj-oper                               
   RAUG   =    1.300    factor for augmentation sphere                          
   RDEP   =    1.550    radius for radial grids                                 
   QCUT   =   -5.520; QGAM   =   11.041    optimization parameters              
                                                                                
   Description                                                                  
     l     E      TYP  RCUT    TYP  RCUT                                        
     0   .000     23  1.200                                                     
     0  -.700     23  1.200                                                     
     1   .000     23  1.520                                                     
     1   .600     23  1.520                                                     
     2   .000      7  1.500                                                     
  local pseudopotential read in
  atomic valenz-charges read in
  non local Contribution for L=           0  read in
    real space projection operators read in
  non local Contribution for L=           0  read in
    real space projection operators read in
  non local Contribution for L=           1  read in
    real space projection operators read in
  non local Contribution for L=           1  read in
    real space projection operators read in
    PAW grid and wavefunctions read in
 
   number of l-projection  operators is LMAX  =           4
   number of lm-projection operators is LMMAX =           8
 
 PAW_PBE Sr_sv 07Sep2000                :
 energy of atom  1       EATOM= -842.4562
 kinetic energy error for atom=    0.0019 (will be added to EATOM!!)
 PAW_PBE Ti 08Apr2002                   :
 energy of atom  2       EATOM=  -94.7929
 kinetic energy error for atom=    0.0002 (will be added to EATOM!!)
 PAW_PBE O 08Apr2002                    :
 energy of atom  3       EATOM= -432.3788
 kinetic energy error for atom=    0.0389 (will be added to EATOM!!)
 
 
 POSCAR: ICSD_CollCode262269                     
  positions in direct lattice
  No initial velocities read in
 exchange correlation table for  LEXCH =        8
   RHO(1)=    0.500       N(1)  =     2000
   RHO(2)=  100.500       N(2)  =     4000
 


--------------------------------------------------------------------------------------------------------


 ion  position               nearest neighbor table
   1  0.000  0.000  0.000-   3 2.76   4 2.76   5 2.76   4 2.76   5 2.76   3 2.76   5 2.76   5 2.76
                             3 2.76   4 2.76   4 2.76   3 2.76   2 3.38   2 3.38   2 3.38   2 3.38
   2  0.500  0.500  0.500-   3 1.95   4 1.95   5 1.95   3 1.95   4 1.95   5 1.95   1 3.38   1 3.38
                             1 3.38   1 3.38   1 3.38   1 3.38   1 3.38   1 3.38
   3  0.500  0.500  0.000-   2 1.95   2 1.95   1 2.76   1 2.76   1 2.76   1 2.76
   4  0.500  0.000  0.500-   2 1.95   2 1.95   1 2.76   1 2.76   1 2.76   1 2.76
   5  0.000  0.500  0.500-   2 1.95   2 1.95   1 2.76   1 2.76   1 2.76   1 2.76
 
  LATTYP: Found a simple cubic cell.
 ALAT       =     3.9052680000
  
  Lattice vectors:
  
 A1 = (   3.9052680000,   0.0000000000,   0.0000000000)
 A2 = (   0.0000000000,   3.9052680000,   0.0000000000)
 A3 = (   0.0000000000,   0.0000000000,   3.9052680000)


Analysis of symmetry for initial positions (statically):
=====================================================================
 Subroutine PRICEL returns:
 Original cell was already a primitive cell.
 

 Routine SETGRP: Setting up the symmetry group for a 
 simple cubic supercell.


 Subroutine GETGRP returns: Found 48 space group operations
 (whereof 48 operations were pure point group operations)
 out of a pool of 48 trial point group operations.


The static configuration has the point symmetry O_h .


Analysis of symmetry for dynamics (positions and initial velocities):
=====================================================================
 Subroutine PRICEL returns:
 Original cell was already a primitive cell.
 

 Routine SETGRP: Setting up the symmetry group for a 
 simple cubic supercell.


 Subroutine GETGRP returns: Found 48 space group operations
 (whereof 48 operations were pure point group operations)
 out of a pool of 48 trial point group operations.


The dynamic configuration has the point symmetry O_h .


 Subroutine INISYM returns: Found 48 space group operations
 (whereof 48 operations are pure point group operations),
 and found     1 'primitive' translations

 
 
 KPOINTS: k-density: 4.0                          

Automatic generation of k-mesh.
Space group operators:
 irot       det(A)        alpha          n_x          n_y          n_z        tau_x        tau_y        tau_z
    1     1.000000     0.000000     1.000000     0.000000     0.000000     0.000000     0.000000     0.000000
    2    -1.000000     0.000000     1.000000     0.000000     0.000000     0.000000     0.000000     0.000000
    3     1.000000   120.000000    -0.577350    -0.577350    -0.577350     0.000000     0.000000     0.000000
    4    -1.000000   120.000000    -0.577350    -0.577350    -0.577350     0.000000     0.000000     0.000000
    5     1.000000   120.000000     0.577350     0.577350     0.577350     0.000000     0.000000     0.000000
    6    -1.000000   120.000000     0.577350     0.577350     0.577350     0.000000     0.000000     0.000000
    7     1.000000    90.000000     0.000000     0.000000    -1.000000     0.000000     0.000000     0.000000
    8    -1.000000    90.000000     0.000000     0.000000    -1.000000     0.000000     0.000000     0.000000
    9     1.000000   180.000000     0.000000     0.707107     0.707107     0.000000     0.000000     0.000000
   10    -1.000000   180.000000     0.000000     0.707107     0.707107     0.000000     0.000000     0.000000
   11     1.000000    90.000000     0.000000     1.000000     0.000000     0.000000     0.000000     0.000000
   12    -1.000000    90.000000     0.000000     1.000000     0.000000     0.000000     0.000000     0.000000
   13     1.000000   180.000000     0.000000     0.000000     1.000000     0.000000     0.000000     0.000000
   14    -1.000000   180.000000     0.000000     0.000000     1.000000     0.000000     0.000000     0.000000
   15     1.000000   120.000000    -0.577350     0.577350     0.577350     0.000000     0.000000     0.000000
   16    -1.000000   120.000000    -0.577350     0.577350     0.577350     0.000000     0.000000     0.000000
   17     1.000000   120.000000    -0.577350     0.577350    -0.577350     0.000000     0.000000     0.000000
   18    -1.000000   120.000000    -0.577350     0.577350    -0.577350     0.000000     0.000000     0.000000
   19     1.000000    90.000000     0.000000     0.000000     1.000000     0.000000     0.000000     0.000000
   20    -1.000000    90.000000     0.000000     0.000000     1.000000     0.000000     0.000000     0.000000
   21     1.000000    90.000000    -1.000000     0.000000     0.000000     0.000000     0.000000     0.000000
   22    -1.000000    90.000000    -1.000000     0.000000     0.000000     0.000000     0.000000     0.000000
   23     1.000000   180.000000     0.707107     0.000000     0.707107     0.000000     0.000000     0.000000
   24    -1.000000   180.000000     0.707107     0.000000     0.707107     0.000000     0.000000     0.000000
   25     1.000000   120.000000     0.577350    -0.577350     0.577350     0.000000     0.000000     0.000000
   26    -1.000000   120.000000     0.577350    -0.577350     0.577350     0.000000     0.000000     0.000000
   27     1.000000   120.000000    -0.577350    -0.577350     0.577350     0.000000     0.000000     0.000000
   28    -1.000000   120.000000    -0.577350    -0.577350     0.577350     0.000000     0.000000     0.000000
   29     1.000000   180.000000     1.000000     0.000000     0.000000     0.000000     0.000000     0.000000
   30    -1.000000   180.000000     1.000000     0.000000     0.000000     0.000000     0.000000     0.000000
   31     1.000000    90.000000     0.000000    -1.000000     0.000000     0.000000     0.000000     0.000000
   32    -1.000000    90.000000     0.000000    -1.000000     0.000000     0.000000     0.000000     0.000000
   33     1.000000   180.000000     0.707107     0.707107     0.000000     0.000000     0.000000     0.000000
   34    -1.000000   180.000000     0.707107     0.707107     0.000000     0.000000     0.000000     0.000000
   35     1.000000    90.000000     1.000000     0.000000     0.000000     0.000000     0.000000     0.000000
   36    -1.000000    90.000000     1.000000     0.000000     0.000000     0.000000     0.000000     0.000000
   37     1.000000   120.000000     0.577350    -0.577350    -0.577350     0.000000     0.000000     0.000000
   38    -1.000000   120.000000     0.577350    -0.577350    -0.577350     0.000000     0.000000     0.000000
   39     1.000000   180.000000     0.000000     1.000000     0.000000     0.000000     0.000000     0.000000
   40    -1.000000   180.000000     0.000000     1.000000     0.000000     0.000000     0.000000     0.000000
   41     1.000000   120.000000     0.577350     0.577350    -0.577350     0.000000     0.000000     0.000000
   42    -1.000000   120.000000     0.577350     0.577350    -0.577350     0.000000     0.000000     0.000000
   43     1.000000   180.000000     0.000000    -0.707107     0.707107     0.000000     0.000000     0.000000
   44    -1.000000   180.000000     0.000000    -0.707107     0.707107     0.000000     0.000000     0.000000
   45     1.000000   180.000000     0.707107    -0.707107     0.000000     0.000000     0.000000     0.000000
   46    -1.000000   180.000000     0.707107    -0.707107     0.000000     0.000000     0.000000     0.000000
   47     1.000000   180.000000     0.707107     0.000000    -0.707107     0.000000     0.000000     0.000000
   48    -1.000000   180.000000     0.707107     0.000000    -0.707107     0.000000     0.000000     0.000000
 
 Subroutine IBZKPT returns following result:
 ===========================================
 
 Found     20 irreducible k-points:
 
 Following reciprocal coordinates:
            Coordinates               Weight
  0.000000  0.000000  0.000000      1.000000
  0.142857  0.000000  0.000000      6.000000
  0.285714  0.000000  0.000000      6.000000
  0.428571  0.000000  0.000000      6.000000
  0.142857  0.142857  0.000000     12.000000
  0.285714  0.142857  0.000000     24.000000
  0.428571  0.142857  0.000000     24.000000
  0.285714  0.285714  0.000000     12.000000
  0.428571  0.285714  0.000000     24.000000
  0.428571  0.428571  0.000000     12.000000
  0.142857  0.142857  0.142857      8.000000
  0.285714  0.142857  0.142857     24.000000
  0.428571  0.142857  0.142857     24.000000
  0.285714  0.285714  0.142857     24.000000
  0.428571  0.285714  0.142857     48.000000
  0.428571  0.428571  0.142857     24.000000
  0.285714  0.285714  0.285714      8.000000
  0.428571  0.285714  0.285714     24.000000
  0.428571  0.428571  0.285714     24.000000
  0.428571  0.428571  0.428571      8.000000
 
 Following cartesian coordinates:
            Coordinates               Weight
  0.000000  0.000000  0.000000      1.000000
  0.036581  0.000000  0.000000      6.000000
  0.073161  0.000000  0.000000      6.000000
  0.109742  0.000000  0.000000      6.000000
  0.036581  0.036581  0.000000     12.000000
  0.073161  0.036581  0.000000     24.000000
  0.109742  0.036581  0.000000     24.000000
  0.073161  0.073161  0.000000     12.000000
  0.109742  0.073161  0.000000     24.000000
  0.109742  0.109742  0.000000     12.000000
  0.036581  0.036581  0.036581      8.000000
  0.073161  0.036581  0.036581     24.000000
  0.109742  0.036581  0.036581     24.000000
  0.073161  0.073161  0.036581     24.000000
  0.109742  0.073161  0.036581     48.000000
  0.109742  0.109742  0.036581     24.000000
  0.073161  0.073161  0.073161      8.000000
  0.109742  0.073161  0.073161     24.000000
  0.109742  0.109742  0.073161     24.000000
  0.109742  0.109742  0.109742      8.000000
 
 TETIRR: Found    163 inequivalent tetrahedra from     2058


--------------------------------------------------------------------------------------------------------




 Dimension of arrays:
   k-points           NKPTS =     20   k-points in BZ     NKDIM =     20   number of bands    NBANDS=     20
   number of dos      NEDOS =    301   number of ions     NIONS =      5
   non local maximal  LDIM  =      6   non local SUM 2l+1 LMDIM =     18
   total plane-waves  NPLWV =   8000
   max r-space proj   IRMAX =      1   max aug-charges    IRDMAX=   9475
   dimension x,y,z NGX =    20 NGY =   20 NGZ =   20
   dimension x,y,z NGXF=    40 NGYF=   40 NGZF=   40
   support grid    NGXF=    40 NGYF=   40 NGZF=   40
   ions per type =               1   1   3
   NGX,Y,Z   is equivalent  to a cutoff of   8.51,  8.51,  8.51 a.u.
   NGXF,Y,Z  is equivalent  to a cutoff of  17.03, 17.03, 17.03 a.u.

 SYSTEM =  unknown system                          
 POSCAR =  ICSD_CollCode262269                     

 Startparameter for this run:
   NWRITE =      2    write-flag & timer
   PREC   = normal    normal or accurate (medium, high low for compatibility)
   ISTART =      0    job   : 0-new  1-cont  2-samecut
   ICHARG =      2    charge: 1-file 2-atom 10-const
   ISPIN  =      1    spin polarized calculation?
   LNONCOLLINEAR =      F non collinear calculations
   LSORBIT =      F    spin-orbit coupling
   INIWAV =      1    electr: 0-lowe 1-rand  2-diag
   LASPH  =      F    aspherical Exc in radial PAW
   METAGGA=      F    non-selfconsistent MetaGGA calc.

 Electronic Relaxation 1
   ENCUT  =  450.0 eV  33.07 Ry    5.75 a.u.   6.75  6.75  6.75*2*pi/ulx,y,z
   ENINI  =  450.0     initial cutoff
   ENAUG  =  605.4 eV  augmentation charge cutoff
   NELM   =     60;   NELMIN=  4; NELMDL= -5     # of ELM steps 
   EDIFF  = 0.1E-04   stopping-criterion for ELM
   LREAL  =      F    real-space projection
   NLSPLINE    = F    spline interpolate recip. space projectors
   LCOMPAT=      F    compatible to vasp.4.4
   GGA_COMPAT  = T    GGA compatible to vasp.4.4-vasp.4.6
   LMAXPAW     = -100 max onsite density
   LMAXMIX     =    2 max onsite mixed and CHGCAR
   VOSKOWN=      0    Vosko Wilk Nusair interpolation
   ROPT   =    0.00000   0.00000   0.00000
 Ionic relaxation
   EDIFFG = 0.1E-03   stopping-criterion for IOM
   NSW    =      0    number of steps for IOM
   NBLOCK =      1;   KBLOCK =      1    inner block; outer block 
   IBRION =     -1    ionic relax: 0-MD 1-quasi-New 2-CG
   NFREE  =      0    steps in history (QN), initial steepest desc. (CG)
   ISIF   =      2    stress and relaxation
   IWAVPR =     10    prediction:  0-non 1-charg 2-wave 3-comb
   ISYM   =      2    0-nonsym 1-usesym 2-fastsym
   LCORR  =      T    Harris-Foulkes like correction to forces

   POTIM  = 0.5000    time-step for ionic-motion
   TEIN   =    0.0    initial temperature
   TEBEG  =    0.0;   TEEND  =   0.0 temperature during run
   SMASS  =  -3.00    Nose mass-parameter (am)
   estimated Nose-frequenzy (Omega)   =  0.10E-29 period in steps =****** mass=  -0.349E-27a.u.
   SCALEE = 1.0000    scale energy and forces
   NPACO  =    256;   APACO  = 16.0  distance and # of slots for P.C.
   PSTRESS=    0.0 pullay stress

  Mass of Ions in am
   POMASS =  87.62 47.88 16.00
  Ionic Valenz
   ZVAL   =  10.00  4.00  6.00
  Atomic Wigner-Seitz radii
   RWIGS  =  -1.00 -1.00 -1.00
  virtual crystal weights 
   VCA    =   1.00  1.00  1.00
   NELECT =      32.0000    total number of electrons
   NUPDOWN=      -1.0000    fix difference up-down

 DOS related values:
   EMIN   =  10.00;   EMAX   =-10.00  energy-range for DOS
   EFERMI =   0.00
   ISMEAR =    -5;   SIGMA  =   0.20  broadening in eV -4-tet -1-fermi 0-gaus

 Electronic relaxation 2 (details)
   IALGO  =     68    algorithm
   LDIAG  =      T    sub-space diagonalisation (order eigenvalues)
   LSUBROT=      F    optimize rotation matrix (better conditioning)
   TURBO    =      0    0=normal 1=particle mesh
   IRESTART =      0    0=no restart 2=restart with 2 vectors
   NREBOOT  =      0    no. of reboots
   NMIN     =      0    reboot dimension
   EREF     =   0.00    reference energy to select bands
   IMIX   =      4    mixing-type and parameters
     AMIX     =   0.40;   BMIX     =  1.00
     AMIX_MAG =   1.60;   BMIX_MAG =  1.00
     AMIN     =   0.10
     WC   =   100.;   INIMIX=   1;  MIXPRE=   1;  MAXMIX= -45

 Intra band minimization:
   WEIMIN = 0.0000     energy-eigenvalue tresh-hold
   EBREAK =  0.13E-06  absolut break condition
   DEPER  =   0.30     relativ break condition  

   TIME   =   0.40     timestep for ELM

  volume/ion in A,a.u.               =      11.91        80.39
  Fermi-wavevector in a.u.,A,eV,Ry     =   1.330885  2.515009 24.099399  1.771256
  Thomas-Fermi vector in A             =   2.459938
 
 Write flags
   LWAVE        =      F    write WAVECAR
   LDOWNSAMPLE  =      F    k-point downsampling of WAVECAR
   LCHARG       =      T    write CHGCAR
   LVTOT        =      F    write LOCPOT, total local potential
   LVHAR        =      F    write LOCPOT, Hartree potential only
   LELF         =      F    write electronic localiz. function (ELF)
   LORBIT       =      0    0 simple, 1 ext, 2 COOP (PROOUT), +10 PAW based schemes


 Dipole corrections
   LMONO  =      F    monopole corrections only (constant potential shift)
   LDIPOL =      F    correct potential (dipole corrections)
   IDIPOL =      0    1-x, 2-y, 3-z, 4-all directions 
   EPSILON=  1.0000000 bulk dielectric constant

 Exchange correlation treatment:
   GGA     =    --    GGA type
   LEXCH   =     8    internal setting for exchange type
   VOSKOWN=      0    Vosko Wilk Nusair interpolation
   LHFCALC =     F    Hartree Fock is set to
   LHFONE  =     F    Hartree Fock one center treatment
   AEXX    =    0.0000 exact exchange contribution

 Linear response parameters
   LEPSILON=     F    determine dielectric tensor
   LRPA    =     F    only Hartree local field effects (RPA)
   LNABLA  =     F    use nabla operator in PAW spheres
   LVEL    =     F    velocity operator in full k-point grid
   LINTERFAST=   F  fast interpolation
   KINTER  =     0    interpolate to denser k-point grid
   CSHIFT  =0.1000    complex shift for real part using Kramers Kronig
   OMEGAMAX=  -1.0    maximum frequency
   DEG_THRESHOLD= 0.2000000E-02 threshold for treating states as degnerate
   RTIME   =   -0.100 relaxation time in fs
  (WPLASMAI=    0.000 imaginary part of plasma frequency in eV, 0.658/RTIME)
   DFIELD  = 0.0000000 0.0000000 0.0000000 field for delta impulse in time
 
 Orbital magnetization related:
   ORBITALMAG=     F  switch on orbital magnetization
   LCHIMAG   =     F  perturbation theory with respect to B field
   DQ        =  0.001000  dq finite difference perturbation B field
   LLRAUG    =     F  two centre corrections for induced B field



--------------------------------------------------------------------------------------------------------


 Static calculation
 charge density and potential will be updated during run
 non-spin polarized calculation
 RMM-DIIS sequential band-by-band and
  variant of blocked Davidson during initial phase
 perform sub-space diagonalisation
    before iterative eigenvector-optimisation
 modified Broyden-mixing scheme, WC =      100.0
 initial mixing is a Kerker type mixing with AMIX =  0.4000 and BMIX =      1.0000
 Hartree-type preconditioning will be used
 using additional bands            4
 reciprocal scheme for non local part
 use partial core corrections
 calculate Harris-corrections to forces 
   (improved forces if not selfconsistent)
 use gradient corrections 
 use of overlap-Matrix (Vanderbilt PP)
 Fermi weights with tetrahedron method with Bloechl corrections


--------------------------------------------------------------------------------------------------------


  energy-cutoff  :      450.00
  volume of cell :       59.56
      direct lattice vectors                 reciprocal lattice vectors
     3.905268000  0.000000000  0.000000000     0.256064373  0.000000000  0.000000000
     0.000000000  3.905268000  0.000000000     0.000000000  0.256064373  0.000000000
     0.000000000  0.000000000  3.905268000     0.000000000  0.000000000  0.256064373

  length of vectors
     3.905268000  3.905268000  3.905268000     0.256064373  0.256064373  0.256064373


 
 k-points in units of 2pi/SCALE and weight: k-density: 4.0                          
   0.00000000  0.00000000  0.00000000       0.003
   0.03658062  0.00000000  0.00000000       0.017
   0.07316125  0.00000000  0.00000000       0.017
   0.10974187  0.00000000  0.00000000       0.017
   0.03658062  0.03658062  0.00000000       0.035
   0.07316125  0.03658062  0.00000000       0.070
   0.10974187  0.03658062  0.00000000       0.070
   0.07316125  0.07316125  0.00000000       0.035
   0.10974187  0.07316125  0.00000000       0.070
   0.10974187  0.10974187  0.00000000       0.035
   0.03658062  0.03658062  0.03658062       0.023
   0.07316125  0.03658062  0.03658062       0.070
   0.10974187  0.03658062  0.03658062       0.070
   0.07316125  0.07316125  0.03658062       0.070
   0.10974187  0.07316125  0.03658062       0.140
   0.10974187  0.10974187  0.03658062       0.070
   0.07316125  0.07316125  0.07316125       0.023
   0.10974187  0.07316125  0.07316125       0.070
   0.10974187  0.10974187  0.07316125       0.070
   0.10974187  0.10974187  0.10974187       0.023
 
 k-points in reciprocal lattice and weights: k-density: 4.0                          
   0.00000000  0.00000000  0.00000000       0.003
   0.14285714  0.00000000  0.00000000       0.017
   0.28571429  0.00000000  0.00000000       0.017
   0.42857143  0.00000000  0.00000000       0.017
   0.14285714  0.14285714  0.00000000       0.035
   0.28571429  0.14285714  0.00000000       0.070
   0.42857143  0.14285714  0.00000000       0.070
   0.28571429  0.28571429  0.00000000       0.035
   0.42857143  0.28571429  0.00000000       0.070
   0.42857143  0.42857143  0.00000000       0.035
   0.14285714  0.14285714  0.14285714       0.023
   0.28571429  0.14285714  0.14285714       0.070
   0.42857143  0.14285714  0.14285714       0.070
   0.28571429  0.28571429  0.14285714       0.070
   0.42857143  0.28571429  0.14285714       0.140
   0.42857143  0.42857143  0.14285714       0.070
   0.28571429  0.28571429  0.28571429       0.023
   0.42857143  0.28571429  0.28571429       0.070
   0.42857143  0.42857143  0.28571429       0.070
   0.42857143  0.42857143  0.42857143       0.023
 
 position of ions in fractional coordinates (direct lattice) 
   0.00000000  0.00000000  0.00000000
   0.50000000  0.50000000  0.50000000
   0.50000000  0.50000000  0.00000000
   0.50000000  0.00000000  0.50000000
   0.00000000  0.50000000  0.50000000
 
 position of ions in cartesian coordinates  (Angst):
   0.00000000  0.00000000  0.00000000
   1.95263400  1.95263400  1.95263400
   1.95263400  1.95263400  0.00000000
   1.95263400  0.00000000  1.95263400
   0.00000000  1.95263400  1.95263400
 


--------------------------------------------------------------------------------------------------------


 k-point  1 :   0.0000 0.0000 0.0000  plane waves:    1309
 k-point  2 :   0.1429 0.0000 0.0000  plane waves:    1297
 k-point  3 :   0.2857 0.0000 0.0000  plane waves:    1294
 k-point  4 :   0.4286 0.0000 0.0000  plane waves:    1282
 k-point  5 :   0.1429 0.1429 0.0000  plane waves:    1301
 k-point  6 :   0.2857 0.1429 0.0000  plane waves:    1287
 k-point  7 :   0.4286 0.1429 0.0000  plane waves:    1288
 k-point  8 :   0.2857 0.2857 0.0000  plane waves:    1294
 k-point  9 :   0.4286 0.2857 0.0000  plane waves:    1290
 k-point 10 :   0.4286 0.4286 0.0000  plane waves:    1288
 k-point 11 :   0.1429 0.1429 0.1429  plane waves:    1292
 k-point 12 :   0.2857 0.1429 0.1429  plane waves:    1290
 k-point 13 :   0.4286 0.1429 0.1429  plane waves:    1285
 k-point 14 :   0.2857 0.2857 0.1429  plane waves:    1294
 k-point 15 :   0.4286 0.2857 0.1429  plane waves:    1294
 k-point 16 :   0.4286 0.4286 0.1429  plane waves:    1283
 k-point 17 :   0.2857 0.2857 0.2857  plane waves:    1280
 k-point 18 :   0.4286 0.2857 0.2857  plane waves:    1292
 k-point 19 :   0.4286 0.4286 0.2857  plane waves:    1297
 k-point 20 :   0.4286 0.4286 0.4286  plane waves:    1307

 maximum and minimum number of plane-waves per node :       659      633

 maximum number of plane-waves:      1309
 maximum index in each direction: 
   IXMAX=    6   IYMAX=    6   IZMAX=    6
   IXMIN=   -7   IYMIN=   -7   IZMIN=   -7


 parallel 3D FFT for wavefunctions:
    minimum data exchange during FFTs selected (reduces bandwidth)
 parallel 3D FFT for charge:
    minimum data exchange during FFTs selected (reduces bandwidth)


 total amount of memory used by VASP MPI-rank0    39859. kBytes
=======================================================================

   base      :      30000. kBytes
   nonl-proj :       5702. kBytes
   fftplans  :        685. kBytes
   grid      :       1225. kBytes
   one-center:         46. kBytes
   wavefun   :       2201. kBytes
 
     INWAV:  cpu time    0.0010: real time    0.0002
 Broyden mixing: mesh for mixing (old mesh)
   NGX = 13   NGY = 13   NGZ = 13
  (NGX  = 40   NGY  = 40   NGZ  = 40)
  gives a total of   2197 points

 initial charge density was supplied:
 charge density of overlapping atoms calculated
 number of electron      32.0000000 magnetization 
 keeping initial charge density in first step


--------------------------------------------------------------------------------------------------------


 Maximum index for augmentation-charges         2267 (set IRDMAX)


--------------------------------------------------------------------------------------------------------


 First call to EWALD:  gamma=   0.454
 Maximum number of real-space cells 3x 3x 3
 Maximum number of reciprocal cells 3x 3x 3

    FEWALD:  cpu time    0.0010: real time    0.0015


--------------------------------------- Iteration      1(   1)  ---------------------------------------


    POTLOK:  cpu time    0.0120: real time    0.0473
    SETDIJ:  cpu time    0.0040: real time    0.0038
     EDDAV:  cpu time    0.1840: real time    0.1847
 BZINTS: Fermi energy: 18.798664; 32.000000 electrons
         Band energy:  86.542453;  BLOECHL correction: -0.126514
       DOS:  cpu time    0.0060: real time    0.0054
    --------------------------------------------
      LOOP:  cpu time    0.2060: real time    0.2413

 eigenvalue-minimisations  :   800
 total energy-change (2. order) : 0.3001374E+03  (-0.1448355E+04)
 number of electron      32.0000000 magnetization 
 augmentation part       32.0000000 magnetization 

 Free energy of the ion-electron system (eV)
  ---------------------------------------------------
  alpha Z        PSCENC =       185.39985751
  Ewald energy   TEWEN  =     -1934.07799583
  -Hartree energ DENC   =      -403.14003403
  -exchange      EXHF   =         0.00000000
  -V(xc)+E(xc)   XCENC  =        82.31807242
  PAW double counting   =      1333.61297253    -1284.78446064
  entropy T*S    EENTRO =         0.00000000
  eigenvalues    EBANDS =        86.54245251
  atomic energy  EATOM  =      2234.26649606
  Solvation  Ediel_sol  =         0.00000000
  ---------------------------------------------------
  free energy    TOTEN  =       300.13736052 eV

  energy without entropy =      300.13736052  energy(sigma->0) =      300.13736052


--------------------------------------------------------------------------------------------------------




--------------------------------------- Iteration      1(   2)  ---------------------------------------


     EDDAV:  cpu time    0.2370: real time    0.2371
 BZINTS: Fermi energy:  8.538942; 32.000000 electrons
         Band energy:-232.466300;  BLOECHL correction: -0.003299
       DOS:  cpu time    0.0050: real time    0.0048
    --------------------------------------------
      LOOP:  cpu time    0.2420: real time    0.2419

 eigenvalue-minimisations  :  1080
 total energy-change (2. order) :-0.3190088E+03  (-0.3064477E+03)
 number of electron      32.0000000 magnetization 
 augmentation part       32.0000000 magnetization 

 Free energy of the ion-electron system (eV)
  ---------------------------------------------------
  alpha Z        PSCENC =       185.39985751
  Ewald energy   TEWEN  =     -1934.07799583
  -Hartree energ DENC   =      -403.14003403
  -exchange      EXHF   =         0.00000000
  -V(xc)+E(xc)   XCENC  =        82.31807242
  PAW double counting   =      1333.61297253    -1284.78446064
  entropy T*S    EENTRO =         0.00000000
  eigenvalues    EBANDS =      -232.46630012
  atomic energy  EATOM  =      2234.26649606
  Solvation  Ediel_sol  =         0.00000000
  ---------------------------------------------------
  free energy    TOTEN  =       -18.87139211 eV

  energy without entropy =      -18.87139211  energy(sigma->0) =      -18.87139211


--------------------------------------------------------------------------------------------------------




--------------------------------------- Iteration      1(   3)  ---------------------------------------


     EDDAV:  cpu time    0.2140: real time    0.2186
 BZINTS: Fermi energy: -0.016271; 32.000000 electrons
         Band energy:-262.767293;  BLOECHL correction:  0.000000
       DOS:  cpu time    0.0010: real time    0.0013
    --------------------------------------------
      LOOP:  cpu time    0.2150: real time    0.2199

 eigenvalue-minimisations  :   980
 total energy-change (2. order) :-0.3030099E+02  (-0.3009310E+02)
 number of electron      32.0000000 magnetization 
 augmentation part       32.0000000 magnetization 

 Free energy of the ion-electron system (eV)
  ---------------------------------------------------
  alpha Z        PSCENC =       185.39985751
  Ewald energy   TEWEN  =     -1934.07799583
  -Hartree energ DENC   =      -403.14003403
  -exchange      EXHF   =         0.00000000
  -V(xc)+E(xc)   XCENC  =        82.31807242
  PAW double counting   =      1333.61297253    -1284.78446064
  entropy T*S    EENTRO =         0.00000000
  eigenvalues    EBANDS =      -262.76729337
  atomic energy  EATOM  =      2234.26649606
  Solvation  Ediel_sol  =         0.00000000
  ---------------------------------------------------
  free energy    TOTEN  =       -49.17238537 eV

  energy without entropy =      -49.17238537  energy(sigma->0) =      -49.17238537


--------------------------------------------------------------------------------------------------------




--------------------------------------- Iteration      1(   4)  ---------------------------------------


     EDDAV:  cpu time    0.2720: real time    0.2872
 BZINTS: Fermi energy: -0.434920; 32.000000 electrons
         Band energy:-263.793932;  BLOECHL correction:  0.000000
       DOS:  cpu time    0.0000: real time    0.0010
    --------------------------------------------
      LOOP:  cpu time    0.2720: real time    0.2883

 eigenvalue-minimisations  :  1276
 total energy-change (2. order) :-0.1026639E+01  (-0.1025332E+01)
 number of electron      32.0000000 magnetization 
 augmentation part       32.0000000 magnetization 

 Free energy of the ion-electron system (eV)
  ---------------------------------------------------
  alpha Z        PSCENC =       185.39985751
  Ewald energy   TEWEN  =     -1934.07799583
  -Hartree energ DENC   =      -403.14003403
  -exchange      EXHF   =         0.00000000
  -V(xc)+E(xc)   XCENC  =        82.31807242
  PAW double counting   =      1333.61297253    -1284.78446064
  entropy T*S    EENTRO =         0.00000000
  eigenvalues    EBANDS =      -263.79393218
  atomic energy  EATOM  =      2234.26649606
  Solvation  Ediel_sol  =         0.00000000
  ---------------------------------------------------
  free energy    TOTEN  =       -50.19902417 eV

  energy without entropy =      -50.19902417  energy(sigma->0) =      -50.19902417


--------------------------------------------------------------------------------------------------------




--------------------------------------- Iteration      1(   5)  ---------------------------------------


     EDDAV:  cpu time    0.2300: real time    0.2293
 BZINTS: Fermi energy: -0.475868; 32.000000 electrons
         Band energy:-263.818603;  BLOECHL correction:  0.000000
       DOS:  cpu time    0.0010: real time    0.0009
    CHARGE:  cpu time    0.0120: real time    0.0124
    MIXING:  cpu time    0.0000: real time    0.0004
    --------------------------------------------
      LOOP:  cpu time    0.2430: real time    0.2429

 eigenvalue-minimisations  :  1060
 total energy-change (2. order) :-0.2467107E-01  (-0.2466436E-01)
 number of electron      32.0000186 magnetization 
 augmentation part        3.3960669 magnetization 

 Broyden mixing:
  rms(total) = 0.18212E+01    rms(broyden)= 0.18206E+01
  rms(prec ) = 0.47563E+01
  weight for this iteration     100.00

 Free energy of the ion-electron system (eV)
  ---------------------------------------------------
  alpha Z        PSCENC =       185.39985751
  Ewald energy   TEWEN  =     -1934.07799583
  -Hartree energ DENC   =      -403.14003403
  -exchange      EXHF   =         0.00000000
  -V(xc)+E(xc)   XCENC  =        82.31807242
  PAW double counting   =      1333.61297253    -1284.78446064
  entropy T*S    EENTRO =         0.00000000
  eigenvalues    EBANDS =      -263.81860325
  atomic energy  EATOM  =      2234.26649606
  Solvation  Ediel_sol  =         0.00000000
  ---------------------------------------------------
  free energy    TOTEN  =       -50.22369524 eV

  energy without entropy =      -50.22369524  energy(sigma->0) =      -50.22369524


--------------------------------------------------------------------------------------------------------




--------------------------------------- Iteration      1(   6)  ---------------------------------------


    POTLOK:  cpu time    0.0100: real time    0.0096
    SETDIJ:  cpu time    0.0040: real time    0.0036
    EDDIAG:  cpu time    0.0400: real time    0.0402
  RMM-DIIS:  cpu time    0.1280: real time    0.1281
    ORTHCH:  cpu time    0.0050: real time    0.0050
 BZINTS: Fermi energy:  3.279040; 32.000000 electrons
         Band energy:-201.001391;  BLOECHL correction:  0.000000
       DOS:  cpu time    0.0010: real time    0.0011
    CHARGE:  cpu time    0.0120: real time    0.0121
    MIXING:  cpu time    0.0010: real time    0.0004
    --------------------------------------------
      LOOP:  cpu time    0.2010: real time    0.2000

 eigenvalue-minimisations  :   865
 total energy-change (2. order) : 0.9822582E+01  (-0.5837480E+01)
 number of electron      32.0000133 magnetization 
 augmentation part        3.4800007 magnetization 

 Broyden mixing:
  rms(total) = 0.62143E+00    rms(broyden)= 0.62011E+00
  rms(prec ) = 0.11310E+01
  weight for this iteration     100.00

 eigenvalues of (default mixing * dielectric matrix)
  average eigenvalue GAMMA=   0.7972
  0.7972

 Free energy of the ion-electron system (eV)
  ---------------------------------------------------
  alpha Z        PSCENC =       185.39985751
  Ewald energy   TEWEN  =     -1934.07799583
  -Hartree energ DENC   =      -457.70938777
  -exchange      EXHF   =         0.00000000
  -V(xc)+E(xc)   XCENC  =        87.10032676
  PAW double counting   =      1488.92184728    -1443.30086636
  entropy T*S    EENTRO =         0.00000000
  eigenvalues    EBANDS =      -201.00139117
  atomic energy  EATOM  =      2234.26649606
  Solvation  Ediel_sol  =         0.00000000
  ---------------------------------------------------
  free energy    TOTEN  =       -40.40111353 eV

  energy without entropy =      -40.40111353  energy(sigma->0) =      -40.40111353


--------------------------------------------------------------------------------------------------------




--------------------------------------- Iteration      1(   7)  ---------------------------------------


    POTLOK:  cpu time    0.0090: real time    0.0096
    SETDIJ:  cpu time    0.0030: real time    0.0036
    EDDIAG:  cpu time    0.0400: real time    0.0404
  RMM-DIIS:  cpu time    0.1390: real time    0.1394
    ORTHCH:  cpu time    0.0060: real time    0.0051
 BZINTS: Fermi energy:  2.722252; 32.000000 electrons
         Band energy:-210.444509;  BLOECHL correction:  0.000000
       DOS:  cpu time    0.0010: real time    0.0010
    CHARGE:  cpu time    0.0120: real time    0.0121
    MIXING:  cpu time    0.0010: real time    0.0004
    --------------------------------------------
      LOOP:  cpu time    0.2110: real time    0.2116

 eigenvalue-minimisations  :   950
 total energy-change (2. order) : 0.5903963E+00  (-0.1517541E+00)
 number of electron      32.0000138 magnetization 
 augmentation part        3.3957776 magnetization 

 Broyden mixing:
  rms(total) = 0.32090E+00    rms(broyden)= 0.32082E+00
  rms(prec ) = 0.56561E+00
  weight for this iteration     100.00

 eigenvalues of (default mixing * dielectric matrix)
  average eigenvalue GAMMA=   1.7063
  0.8838  2.5288

 Free energy of the ion-electron system (eV)
  ---------------------------------------------------
  alpha Z        PSCENC =       185.39985751
  Ewald energy   TEWEN  =     -1934.07799583
  -Hartree energ DENC   =      -445.52419385
  -exchange      EXHF   =         0.00000000
  -V(xc)+E(xc)   XCENC  =        86.23861250
  PAW double counting   =      1500.16691791    -1455.83590222
  entropy T*S    EENTRO =         0.00000000
  eigenvalues    EBANDS =      -210.44450931
  atomic energy  EATOM  =      2234.26649606
  Solvation  Ediel_sol  =         0.00000000
  ---------------------------------------------------
  free energy    TOTEN  =       -39.81071723 eV

  energy without entropy =      -39.81071723  energy(sigma->0) =      -39.81071723


--------------------------------------------------------------------------------------------------------




--------------------------------------- Iteration      1(   8)  ---------------------------------------


    POTLOK:  cpu time    0.0090: real time    0.0095
    SETDIJ:  cpu time    0.0030: real time    0.0036
    EDDIAG:  cpu time    0.0410: real time    0.0402
  RMM-DIIS:  cpu time    0.1380: real time    0.1384
    ORTHCH:  cpu time    0.0050: real time    0.0050
 BZINTS: Fermi energy:  2.391277; 32.000000 electrons
         Band energy:-216.571832;  BLOECHL correction:  0.000000
       DOS:  cpu time    0.0010: real time    0.0010
    CHARGE:  cpu time    0.0120: real time    0.0121
    MIXING:  cpu time    0.0010: real time    0.0004
    --------------------------------------------
      LOOP:  cpu time    0.2100: real time    0.2102

 eigenvalue-minimisations  :   954
 total energy-change (2. order) : 0.8335726E-01  (-0.9237660E-01)
 number of electron      32.0000141 magnetization 
 augmentation part        3.4545253 magnetization 

 Broyden mixing:
  rms(total) = 0.81437E-01    rms(broyden)= 0.81263E-01
  rms(prec ) = 0.18549E+00
  weight for this iteration     100.00

 eigenvalues of (default mixing * dielectric matrix)
  average eigenvalue GAMMA=   1.3301
  2.3006  0.8448  0.8448

 Free energy of the ion-electron system (eV)
  ---------------------------------------------------
  alpha Z        PSCENC =       185.39985751
  Ewald energy   TEWEN  =     -1934.07799583
  -Hartree energ DENC   =      -436.95230361
  -exchange      EXHF   =         0.00000000
  -V(xc)+E(xc)   XCENC  =        85.89847450
  PAW double counting   =      1549.69675201    -1507.38680824
  entropy T*S    EENTRO =         0.00000000
  eigenvalues    EBANDS =      -216.57183237
  atomic energy  EATOM  =      2234.26649606
  Solvation  Ediel_sol  =         0.00000000
  ---------------------------------------------------
  free energy    TOTEN  =       -39.72735998 eV

  energy without entropy =      -39.72735998  energy(sigma->0) =      -39.72735998


--------------------------------------------------------------------------------------------------------




--------------------------------------- Iteration      1(   9)  ---------------------------------------


    POTLOK:  cpu time    0.0090: real time    0.0095
    SETDIJ:  cpu time    0.0030: real time    0.0036
    EDDIAG:  cpu time    0.0400: real time    0.0402
  RMM-DIIS:  cpu time    0.1620: real time    0.1616
    ORTHCH:  cpu time    0.0050: real time    0.0049
 BZINTS: Fermi energy:  2.550430; 32.000000 electrons
         Band energy:-214.758854;  BLOECHL correction:  0.000000
       DOS:  cpu time    0.0010: real time    0.0010
    CHARGE:  cpu time    0.0120: real time    0.0120
    MIXING:  cpu time    0.0010: real time    0.0004
    --------------------------------------------
      LOOP:  cpu time    0.2330: real time    0.2333

 eigenvalue-minimisations  :  1106
 total energy-change (2. order) : 0.1380690E-01  (-0.5623044E-02)
 number of electron      32.0000140 magnetization 
 augmentation part        3.4461596 magnetization 

 Broyden mixing:
  rms(total) = 0.57557E-01    rms(broyden)= 0.57551E-01
  rms(prec ) = 0.12807E+00
  weight for this iteration     100.00

 eigenvalues of (default mixing * dielectric matrix)
  average eigenvalue GAMMA=   1.5112
  0.9105  0.9105  2.1119  2.1119

 Free energy of the ion-electron system (eV)
  ---------------------------------------------------
  alpha Z        PSCENC =       185.39985751
  Ewald energy   TEWEN  =     -1934.07799583
  -Hartree energ DENC   =      -438.72883931
  -exchange      EXHF   =         0.00000000
  -V(xc)+E(xc)   XCENC  =        86.02674052
  PAW double counting   =      1557.51454818    -1515.35550599
  entropy T*S    EENTRO =         0.00000000
  eigenvalues    EBANDS =      -214.75885421
  atomic energy  EATOM  =      2234.26649606
  Solvation  Ediel_sol  =         0.00000000
  ---------------------------------------------------
  free energy    TOTEN  =       -39.71355308 eV

  energy without entropy =      -39.71355308  energy(sigma->0) =      -39.71355308


--------------------------------------------------------------------------------------------------------




--------------------------------------- Iteration      1(  10)  ---------------------------------------


    POTLOK:  cpu time    0.0090: real time    0.0101
    SETDIJ:  cpu time    0.0040: real time    0.0036
    EDDIAG:  cpu time    0.0400: real time    0.0403
  RMM-DIIS:  cpu time    0.1400: real time    0.1402
    ORTHCH:  cpu time    0.0050: real time    0.0050
 BZINTS: Fermi energy:  2.700978; 32.000000 electrons
         Band energy:-211.621474;  BLOECHL correction:  0.000000
       DOS:  cpu time    0.0010: real time    0.0010
    CHARGE:  cpu time    0.0120: real time    0.0121
    MIXING:  cpu time    0.0010: real time    0.0005
    --------------------------------------------
      LOOP:  cpu time    0.2120: real time    0.2129

 eigenvalue-minimisations  :   976
 total energy-change (2. order) : 0.4145169E-02  (-0.1188294E-01)
 number of electron      32.0000139 magnetization 
 augmentation part        3.4152483 magnetization 

 Broyden mixing:
  rms(total) = 0.28951E-01    rms(broyden)= 0.28898E-01
  rms(prec ) = 0.57245E-01
  weight for this iteration     100.00

 eigenvalues of (default mixing * dielectric matrix)
  average eigenvalue GAMMA=   1.4074
  2.4816  0.8959  1.0578  1.3007  1.3007

 Free energy of the ion-electron system (eV)
  ---------------------------------------------------
  alpha Z        PSCENC =       185.39985751
  Ewald energy   TEWEN  =     -1934.07799583
  -Hartree energ DENC   =      -442.13135937
  -exchange      EXHF   =         0.00000000
  -V(xc)+E(xc)   XCENC  =        86.23259164
  PAW double counting   =      1563.92161553    -1521.69913902
  entropy T*S    EENTRO =         0.00000000
  eigenvalues    EBANDS =      -211.62147442
  atomic energy  EATOM  =      2234.26649606
  Solvation  Ediel_sol  =         0.00000000
  ---------------------------------------------------
  free energy    TOTEN  =       -39.70940791 eV

  energy without entropy =      -39.70940791  energy(sigma->0) =      -39.70940791


--------------------------------------------------------------------------------------------------------




--------------------------------------- Iteration      1(  11)  ---------------------------------------


    POTLOK:  cpu time    0.0090: real time    0.0096
    SETDIJ:  cpu time    0.0040: real time    0.0036
    EDDIAG:  cpu time    0.0400: real time    0.0406
  RMM-DIIS:  cpu time    0.1560: real time    0.1553
    ORTHCH:  cpu time    0.0050: real time    0.0050
 BZINTS: Fermi energy:  2.599359; 32.000000 electrons
         Band energy:-212.472977;  BLOECHL correction:  0.000000
       DOS:  cpu time    0.0000: real time    0.0009
    CHARGE:  cpu time    0.0130: real time    0.0122
    MIXING:  cpu time    0.0000: real time    0.0005
    --------------------------------------------
      LOOP:  cpu time    0.2270: real time    0.2277

 eigenvalue-minimisations  :  1068
 total energy-change (2. order) : 0.1354927E-02  (-0.1165728E-02)
 number of electron      32.0000139 magnetization 
 augmentation part        3.4181161 magnetization 

 Broyden mixing:
  rms(total) = 0.75379E-02    rms(broyden)= 0.75371E-02
  rms(prec ) = 0.16233E-01
  weight for this iteration     100.00

 eigenvalues of (default mixing * dielectric matrix)
  average eigenvalue GAMMA=   1.5410
  2.2187  2.0957  2.0957  0.8819  0.9771  0.9771

 Free energy of the ion-electron system (eV)
  ---------------------------------------------------
  alpha Z        PSCENC =       185.39985751
  Ewald energy   TEWEN  =     -1934.07799583
  -Hartree energ DENC   =      -441.20657420
  -exchange      EXHF   =         0.00000000
  -V(xc)+E(xc)   XCENC  =        86.18547948
  PAW double counting   =      1564.82358581    -1522.62592434
  entropy T*S    EENTRO =         0.00000000
  eigenvalues    EBANDS =      -212.47297747
  atomic energy  EATOM  =      2234.26649606
  Solvation  Ediel_sol  =         0.00000000
  ---------------------------------------------------
  free energy    TOTEN  =       -39.70805298 eV

  energy without entropy =      -39.70805298  energy(sigma->0) =      -39.70805298


--------------------------------------------------------------------------------------------------------




--------------------------------------- Iteration      1(  12)  ---------------------------------------


    POTLOK:  cpu time    0.0090: real time    0.0097
    SETDIJ:  cpu time    0.0040: real time    0.0036
    EDDIAG:  cpu time    0.0410: real time    0.0410
  RMM-DIIS:  cpu time    0.1540: real time    0.1541
    ORTHCH:  cpu time    0.0040: real time    0.0049
 BZINTS: Fermi energy:  2.577284; 32.000000 electrons
         Band energy:-213.097808;  BLOECHL correction:  0.000000
       DOS:  cpu time    0.0010: real time    0.0010
    CHARGE:  cpu time    0.0120: real time    0.0120
    MIXING:  cpu time    0.0020: real time    0.0005
    --------------------------------------------
      LOOP:  cpu time    0.2270: real time    0.2269

 eigenvalue-minimisations  :  1082
 total energy-change (2. order) :-0.8675325E-03  (-0.8560267E-03)
 number of electron      32.0000139 magnetization 
 augmentation part        3.4181233 magnetization 

 Broyden mixing:
  rms(total) = 0.16391E-01    rms(broyden)= 0.16384E-01
  rms(prec ) = 0.36774E-01
  weight for this iteration     100.00

 eigenvalues of (default mixing * dielectric matrix)
  average eigenvalue GAMMA=   1.5433
  2.8454  2.0187  1.6444  1.2426  1.2426  0.9048  0.9048

 Free energy of the ion-electron system (eV)
  ---------------------------------------------------
  alpha Z        PSCENC =       185.39985751
  Ewald energy   TEWEN  =     -1934.07799583
  -Hartree energ DENC   =      -440.66776471
  -exchange      EXHF   =         0.00000000
  -V(xc)+E(xc)   XCENC  =        86.14790468
  PAW double counting   =      1563.29449255    -1520.97410323
  entropy T*S    EENTRO =         0.00000000
  eigenvalues    EBANDS =      -213.09780753
  atomic energy  EATOM  =      2234.26649606
  Solvation  Ediel_sol  =         0.00000000
  ---------------------------------------------------
  free energy    TOTEN  =       -39.70892051 eV

  energy without entropy =      -39.70892051  energy(sigma->0) =      -39.70892051


--------------------------------------------------------------------------------------------------------




--------------------------------------- Iteration      1(  13)  ---------------------------------------


    POTLOK:  cpu time    0.0090: real time    0.0095
    SETDIJ:  cpu time    0.0040: real time    0.0035
    EDDIAG:  cpu time    0.0400: real time    0.0403
  RMM-DIIS:  cpu time    0.1500: real time    0.1502
    ORTHCH:  cpu time    0.0040: real time    0.0049
 BZINTS: Fermi energy:  2.616790; 32.000000 electrons
         Band energy:-212.423743;  BLOECHL correction:  0.000000
       DOS:  cpu time    0.0010: real time    0.0009
    CHARGE:  cpu time    0.0120: real time    0.0120
    MIXING:  cpu time    0.0010: real time    0.0005
    --------------------------------------------
      LOOP:  cpu time    0.2210: real time    0.2219

 eigenvalue-minimisations  :  1048
 total energy-change (2. order) : 0.3632724E-03  (-0.6176653E-03)
 number of electron      32.0000139 magnetization 
 augmentation part        3.4172277 magnetization 

 Broyden mixing:
  rms(total) = 0.60711E-02    rms(broyden)= 0.60587E-02
  rms(prec ) = 0.16189E-01
  weight for this iteration     100.00

 eigenvalues of (default mixing * dielectric matrix)
  average eigenvalue GAMMA=   1.5603
  2.5497  2.2598  2.2598  1.2849  1.2849  1.2135  0.8150  0.8150

 Free energy of the ion-electron system (eV)
  ---------------------------------------------------
  alpha Z        PSCENC =       185.39985751
  Ewald energy   TEWEN  =     -1934.07799583
  -Hartree energ DENC   =      -441.37141670
  -exchange      EXHF   =         0.00000000
  -V(xc)+E(xc)   XCENC  =        86.19981298
  PAW double counting   =      1565.33709077    -1523.03865947
  entropy T*S    EENTRO =         0.00000000
  eigenvalues    EBANDS =      -212.42374255
  atomic energy  EATOM  =      2234.26649606
  Solvation  Ediel_sol  =         0.00000000
  ---------------------------------------------------
  free energy    TOTEN  =       -39.70855724 eV

  energy without entropy =      -39.70855724  energy(sigma->0) =      -39.70855724


--------------------------------------------------------------------------------------------------------




--------------------------------------- Iteration      1(  14)  ---------------------------------------


    POTLOK:  cpu time    0.0090: real time    0.0095
    SETDIJ:  cpu time    0.0040: real time    0.0037
    EDDIAG:  cpu time    0.0400: real time    0.0413
  RMM-DIIS:  cpu time    0.1460: real time    0.1458
    ORTHCH:  cpu time    0.0050: real time    0.0047
 BZINTS: Fermi energy:  2.615484; 32.000000 electrons
         Band energy:-212.532514;  BLOECHL correction:  0.000000
       DOS:  cpu time    0.0010: real time    0.0009
    CHARGE:  cpu time    0.0110: real time    0.0113
    MIXING:  cpu time    0.0010: real time    0.0005
    --------------------------------------------
      LOOP:  cpu time    0.2170: real time    0.2176

 eigenvalue-minimisations  :   989
 total energy-change (2. order) : 0.2127869E-04  (-0.1351406E-03)
 number of electron      32.0000139 magnetization 
 augmentation part        3.4131018 magnetization 

 Broyden mixing:
  rms(total) = 0.22334E-02    rms(broyden)= 0.22322E-02
  rms(prec ) = 0.60638E-02
  weight for this iteration     100.00

 eigenvalues of (default mixing * dielectric matrix)
  average eigenvalue GAMMA=   1.6272
  3.4163  2.6829  2.6829  1.2169  1.2169  1.0481  0.8948  0.7432  0.7432

 Free energy of the ion-electron system (eV)
  ---------------------------------------------------
  alpha Z        PSCENC =       185.39985751
  Ewald energy   TEWEN  =     -1934.07799583
  -Hartree energ DENC   =      -441.26687336
  -exchange      EXHF   =         0.00000000
  -V(xc)+E(xc)   XCENC  =        86.18808567
  PAW double counting   =      1565.03623176    -1522.72182409
  entropy T*S    EENTRO =         0.00000000
  eigenvalues    EBANDS =      -212.53251367
  atomic energy  EATOM  =      2234.26649606
  Solvation  Ediel_sol  =         0.00000000
  ---------------------------------------------------
  free energy    TOTEN  =       -39.70853596 eV

  energy without entropy =      -39.70853596  energy(sigma->0) =      -39.70853596


--------------------------------------------------------------------------------------------------------




--------------------------------------- Iteration      1(  15)  ---------------------------------------


    POTLOK:  cpu time    0.0090: real time    0.0097
    SETDIJ:  cpu time    0.0030: real time    0.0034
    EDDIAG:  cpu time    0.0400: real time    0.0399
  RMM-DIIS:  cpu time    0.1330: real time    0.1326
    ORTHCH:  cpu time    0.0040: real time    0.0049
 BZINTS: Fermi energy:  2.617006; 32.000000 electrons
         Band energy:-212.511002;  BLOECHL correction:  0.000000
       DOS:  cpu time    0.0010: real time    0.0009
    CHARGE:  cpu time    0.0120: real time    0.0120
    MIXING:  cpu time    0.0010: real time    0.0006
    --------------------------------------------
      LOOP:  cpu time    0.2030: real time    0.2039

 eigenvalue-minimisations  :   881
 total energy-change (2. order) :-0.2463327E-04  (-0.4224491E-04)
 number of electron      32.0000139 magnetization 
 augmentation part        3.4132133 magnetization 

 Broyden mixing:
  rms(total) = 0.16599E-02    rms(broyden)= 0.16592E-02
  rms(prec ) = 0.37214E-02
  weight for this iteration     100.00

 eigenvalues of (default mixing * dielectric matrix)
  average eigenvalue GAMMA=   1.5374
  2.9883  2.9883  2.4487  1.2198  1.2198  0.9757  0.9757  0.9931  0.8717  0.6935

 Free energy of the ion-electron system (eV)
  ---------------------------------------------------
  alpha Z        PSCENC =       185.39985751
  Ewald energy   TEWEN  =     -1934.07799583
  -Hartree energ DENC   =      -441.30658332
  -exchange      EXHF   =         0.00000000
  -V(xc)+E(xc)   XCENC  =        86.19168458
  PAW double counting   =      1565.10517513    -1522.77619303
  entropy T*S    EENTRO =         0.00000000
  eigenvalues    EBANDS =      -212.51100168
  atomic energy  EATOM  =      2234.26649606
  Solvation  Ediel_sol  =         0.00000000
  ---------------------------------------------------
  free energy    TOTEN  =       -39.70856060 eV

  energy without entropy =      -39.70856060  energy(sigma->0) =      -39.70856060


--------------------------------------------------------------------------------------------------------




--------------------------------------- Iteration      1(  16)  ---------------------------------------


    POTLOK:  cpu time    0.0090: real time    0.0094
    SETDIJ:  cpu time    0.0040: real time    0.0036
    EDDIAG:  cpu time    0.0400: real time    0.0403
  RMM-DIIS:  cpu time    0.1230: real time    0.1227
    ORTHCH:  cpu time    0.0040: real time    0.0047
 BZINTS: Fermi energy:  2.618129; 32.000000 electrons
         Band energy:-212.549854;  BLOECHL correction:  0.000000
       DOS:  cpu time    0.0010: real time    0.0008
    CHARGE:  cpu time    0.0110: real time    0.0113
    MIXING:  cpu time    0.0010: real time    0.0006
    --------------------------------------------
      LOOP:  cpu time    0.1930: real time    0.1935

 eigenvalue-minimisations  :   826
 total energy-change (2. order) :-0.3154764E-05  (-0.1161077E-04)
 number of electron      32.0000139 magnetization 
 augmentation part        3.4133053 magnetization 

 Broyden mixing:
  rms(total) = 0.75912E-03    rms(broyden)= 0.75905E-03
  rms(prec ) = 0.16127E-02
  weight for this iteration     100.00

 eigenvalues of (default mixing * dielectric matrix)
  average eigenvalue GAMMA=   1.6381
  3.5372  2.9319  2.7387  1.7655  1.2359  1.2359  1.1542  0.9440  0.9440  0.7659
  0.7659

 Free energy of the ion-electron system (eV)
  ---------------------------------------------------
  alpha Z        PSCENC =       185.39985751
  Ewald energy   TEWEN  =     -1934.07799583
  -Hartree energ DENC   =      -441.28100739
  -exchange      EXHF   =         0.00000000
  -V(xc)+E(xc)   XCENC  =        86.18995126
  PAW double counting   =      1564.98784622    -1522.64385738
  entropy T*S    EENTRO =         0.00000000
  eigenvalues    EBANDS =      -212.54985420
  atomic energy  EATOM  =      2234.26649606
  Solvation  Ediel_sol  =         0.00000000
  ---------------------------------------------------
  free energy    TOTEN  =       -39.70856375 eV

  energy without entropy =      -39.70856375  energy(sigma->0) =      -39.70856375


--------------------------------------------------------------------------------------------------------




--------------------------------------- Iteration      1(  17)  ---------------------------------------


    POTLOK:  cpu time    0.0090: real time    0.0089
    SETDIJ:  cpu time    0.0030: real time    0.0034
    EDDIAG:  cpu time    0.0380: real time    0.0381
  RMM-DIIS:  cpu time    0.1030: real time    0.1025
    ORTHCH:  cpu time    0.0040: real time    0.0047
 BZINTS: Fermi energy:  2.618556; 32.000000 electrons
         Band energy:-212.548045;  BLOECHL correction:  0.000000
       DOS:  cpu time    0.0010: real time    0.0008
    --------------------------------------------
      LOOP:  cpu time    0.1580: real time    0.1583

 eigenvalue-minimisations  :   711
 total energy-change (2. order) :-0.5498042E-05  (-0.5391366E-05)
 number of electron      32.0000139 magnetization 
 augmentation part        3.4133053 magnetization 

 Free energy of the ion-electron system (eV)
  ---------------------------------------------------
  alpha Z        PSCENC =       185.39985751
  Ewald energy   TEWEN  =     -1934.07799583
  -Hartree energ DENC   =      -441.29368892
  -exchange      EXHF   =         0.00000000
  -V(xc)+E(xc)   XCENC  =        86.19066201
  PAW double counting   =      1565.04821253    -1522.69406755
  entropy T*S    EENTRO =         0.00000000
  eigenvalues    EBANDS =      -212.54804505
  atomic energy  EATOM  =      2234.26649606
  Solvation  Ediel_sol  =         0.00000000
  ---------------------------------------------------
  free energy    TOTEN  =       -39.70856925 eV

  energy without entropy =      -39.70856925  energy(sigma->0) =      -39.70856925


--------------------------------------------------------------------------------------------------------




 average (electrostatic) potential at core
  the test charge radii are     1.1929  1.2598  0.7215
  (the norm of the test charge is              1.0000)
       1 -36.1335       2 -26.7960       3 -71.0693       4 -71.0693       5 -71.0693
 
 
 
 E-fermi :   2.6186     XC(G=0): -11.1496     alpha+bet :-12.6354


 k-point     1 :       0.0000    0.0000    0.0000
  band No.  band energies     occupation 
      1     -30.0812      2.00000
      2     -14.8187      2.00000
      3     -13.8110      2.00000
      4     -13.8110      2.00000
      5     -12.1446      2.00000
      6     -12.1446      2.00000
      7     -12.1446      2.00000
      8      -0.2124      2.00000
      9      -0.2124      2.00000
     10      -0.2124      2.00000
     11       1.4743      2.00000
     12       1.4743      2.00000
     13       1.4743      2.00000
     14       2.3139      2.00000
     15       2.3139      2.00000
     16       2.3139      2.00000
     17       4.3437      0.00000
     18       4.3437      0.00000
     19       4.3437      0.00000
     20       8.0317      0.00000

 k-point     2 :       0.1429    0.0000    0.0000
  band No.  band energies     occupation 
      1     -30.0768      2.00000
      2     -14.8308      2.00000
      3     -13.8331      2.00000
      4     -13.8033      2.00000
      5     -12.1355      2.00000
      6     -12.1355      2.00000
      7     -12.0097      2.00000
      8      -0.4772      2.00000
      9      -0.2259      2.00000
     10      -0.2259      2.00000
     11       1.2057      2.00000
     12       1.2057      2.00000
     13       1.2984      2.00000
     14       1.7126      2.00000
     15       2.1879      2.00000
     16       2.1879      2.00000
     17       4.3726      0.00000
     18       4.7931      0.00000
     19       4.7931      0.00000
     20       8.3752      0.00000

 k-point     3 :       0.2857    0.0000    0.0000
  band No.  band energies     occupation 
      1     -30.0668      2.00000
      2     -14.9157      2.00000
      3     -13.7861      2.00000
      4     -13.7673      2.00000
      5     -12.1150      2.00000
      6     -12.1150      2.00000
      7     -11.7552      2.00000
      8      -1.1013      2.00000
      9      -0.2454      2.00000
     10      -0.2454      2.00000
     11       0.6876      2.00000
     12       0.6876      2.00000
     13       0.7710      2.00000
     14       0.9459      2.00000
     15       2.0294      2.00000
     16       2.0294      2.00000
     17       4.4394      0.00000
     18       5.6033      0.00000
     19       5.6033      0.00000
     20       9.1935      0.00000

 k-point     4 :       0.4286    0.0000    0.0000
  band No.  band energies     occupation 
      1     -30.0588      2.00000
      2     -15.0163      2.00000
      3     -13.7721      2.00000
      4     -13.6372      2.00000
      5     -12.0983      2.00000
      6     -12.0983      2.00000
      7     -11.5839      2.00000
      8      -1.6322      2.00000
      9      -0.2342      2.00000
     10      -0.2342      2.00000
     11       0.2357      2.00000
     12       0.3148      2.00000
     13       0.3148      2.00000
     14       0.6954      2.00000
     15       1.9406      2.00000
     16       1.9406      2.00000
     17       4.4948      0.00000
     18       6.1693      0.00000
     19       6.1693      0.00000
     20       9.8471      0.00000

 k-point     5 :       0.1429    0.1429    0.0000
  band No.  band energies     occupation 
      1     -30.0725      2.00000
      2     -14.8171      2.00000
      3     -13.8675      2.00000
      4     -13.7974      2.00000
      5     -12.1262      2.00000
      6     -12.0619      2.00000
      7     -11.9645      2.00000
      8      -0.6391      2.00000
      9      -0.3447      2.00000
     10      -0.2380      2.00000
     11       0.6702      2.00000
     12       1.0026      2.00000
     13       1.4787      2.00000
     14       1.5337      2.00000
     15       1.8731      2.00000
     16       2.0072      2.00000
     17       4.7593      0.00000
     18       4.8635      0.00000
     19       5.0439      0.00000
     20       8.6861      0.00000

 k-point     6 :       0.2857    0.1429    0.0000
  band No.  band energies     occupation 
      1     -30.0628      2.00000
      2     -14.8459      2.00000
      3     -13.8584      2.00000
      4     -13.7582      2.00000
      5     -12.1049      2.00000
      6     -12.0291      2.00000
      7     -11.7710      2.00000
      8      -1.1556      2.00000
      9      -0.5113      2.00000
     10      -0.2540      2.00000
     11      -0.0002      2.00000
     12       0.5611      2.00000
     13       0.8985      2.00000
     14       1.4575      2.00000
     15       1.6926      2.00000
     16       1.7840      2.00000
     17       4.8520      0.00000
     18       5.6138      0.00000
     19       5.6694      0.00000
     20       9.5273      0.00000

 k-point     7 :       0.4286    0.1429    0.0000
  band No.  band energies     occupation 
      1     -30.0551      2.00000
      2     -14.9165      2.00000
      3     -13.7733      2.00000
      4     -13.7199      2.00000
      5     -12.0878      2.00000
      6     -12.0180      2.00000
      7     -11.6274      2.00000
      8      -1.6466      2.00000
      9      -0.6975      2.00000
     10      -0.3577      2.00000
     11      -0.2372      2.00000
     12       0.2142      2.00000
     13       0.5964      2.00000
     14       1.3945      2.00000
     15       1.5413      2.00000
     16       1.6705      2.00000
     17       4.8944      0.00000
     18       6.1701      0.00000
     19       6.1907      0.00000
     20      10.0108      0.00000

 k-point     8 :       0.2857    0.2857    0.0000
  band No.  band energies     occupation 
      1     -30.0538      2.00000
      2     -14.7099      2.00000
      3     -13.9766      2.00000
      4     -13.7271      2.00000
      5     -12.0823      2.00000
      6     -11.8897      2.00000
      7     -11.7778      2.00000
      8      -1.3895      2.00000
      9      -0.9241      2.00000
     10      -0.7784      2.00000
     11      -0.2668      2.00000
     12       0.2643      2.00000
     13       0.8653      2.00000
     14       1.2140      2.00000
     15       1.4252      2.00000
     16       2.0052      2.00000
     17       5.5646      0.00000
     18       5.6888      0.00000
     19       5.9816      0.00000
     20      10.0472      0.00000

 k-point     9 :       0.4286    0.2857    0.0000
  band No.  band energies     occupation 
      1     -30.0466      2.00000
      2     -14.6538      2.00000
      3     -13.9367      2.00000
      4     -13.7600      2.00000
      5     -12.0640      2.00000
      6     -11.8632      2.00000
      7     -11.7086      2.00000
      8      -1.7014      2.00000
      9      -1.4440      2.00000
     10      -0.9953      2.00000
     11      -0.2465      2.00000
     12      -0.0047      2.00000
     13       0.8292      2.00000
     14       1.1403      2.00000
     15       1.2338      2.00000
     16       2.1271      2.00000
     17       5.6415      0.00000
     18       6.1737      0.00000
     19       6.3555      0.00000
     20      10.4190      0.00000

 k-point    10 :       0.4286    0.4286    0.0000
  band No.  band energies     occupation 
      1     -30.0398      2.00000
      2     -14.3537      2.00000
      3     -14.0508      2.00000
      4     -13.8902      2.00000
      5     -12.0447      2.00000
      6     -11.7596      2.00000
      7     -11.7449      2.00000
      8      -1.9198      2.00000
      9      -1.7917      2.00000
     10      -1.4972      2.00000
     11      -0.2489      2.00000
     12      -0.1825      2.00000
     13       0.9729      2.00000
     14       1.0070      2.00000
     15       1.0860      2.00000
     16       2.4516      2.00000
     17       6.1652      0.00000
     18       6.1869      0.00000
     19       6.6037      0.00000
     20      10.5908      0.00000

 k-point    11 :       0.1429    0.1429    0.1429
  band No.  band energies     occupation 
      1     -30.0683      2.00000
      2     -14.7867      2.00000
      3     -13.8443      2.00000
      4     -13.8443      2.00000
      5     -12.0780      2.00000
      6     -12.0780      2.00000
      7     -11.9018      2.00000
      8      -0.8060      2.00000
      9      -0.3503      2.00000
     10      -0.3503      2.00000
     11       0.5653      2.00000
     12       0.5653      2.00000
     13       1.1621      2.00000
     14       1.6717      2.00000
     15       1.8181      2.00000
     16       1.8181      2.00000
     17       5.0094      0.00000
     18       5.1016      0.00000
     19       5.1016      0.00000
     20       9.0048      0.00000

 k-point    12 :       0.2857    0.1429    0.1429
  band No.  band energies     occupation 
      1     -30.0589      2.00000
      2     -14.7744      2.00000
      3     -13.8558      2.00000
      4     -13.7900      2.00000
      5     -12.1166      2.00000
      6     -11.9924      2.00000
      7     -11.7681      2.00000
      8      -1.2227      2.00000
      9      -0.6262      2.00000
     10      -0.3646      2.00000
     11      -0.0150      2.00000
     12       0.0413      2.00000
     13       0.8851      2.00000
     14       1.5610      2.00000
     15       1.6517      2.00000
     16       1.6881      2.00000
     17       5.1242      0.00000
     18       5.6928      0.00000
     19       5.7002      0.00000
     20       9.5947      0.00000

 k-point    13 :       0.4286    0.1429    0.1429
  band No.  band energies     occupation 
      1     -30.0514      2.00000
      2     -14.8171      2.00000
      3     -13.7804      2.00000
      4     -13.7440      2.00000
      5     -12.1504      2.00000
      6     -11.9290      2.00000
      7     -11.6765      2.00000
      8      -1.6583      2.00000
      9      -0.8516      2.00000
     10      -0.4511      2.00000
     11      -0.3922      2.00000
     12      -0.2340      2.00000
     13       0.9722      2.00000
     14       1.3057      2.00000
     15       1.5142      2.00000
     16       1.6008      2.00000
     17       5.1732      0.00000
     18       6.2004      0.00000
     19       6.2167      0.00000
     20      10.1967      0.00000

 k-point    14 :       0.2857    0.2857    0.1429
  band No.  band energies     occupation 
      1     -30.0501      2.00000
      2     -14.6293      2.00000
      3     -13.9264      2.00000
      4     -13.7475      2.00000
      5     -12.1215      2.00000
      6     -11.9548      2.00000
      7     -11.7499      2.00000
      8      -1.4317      2.00000
      9      -0.9193      2.00000
     10      -0.7185      2.00000
     11      -0.4870      2.00000
     12      -0.1037      2.00000
     13       0.4445      2.00000
     14       1.4960      2.00000
     15       1.5564      2.00000
     16       2.0147      2.00000
     17       5.6985      0.00000
     18       5.7942      0.00000
     19       6.0197      0.00000
     20      10.1333      0.00000

 k-point    15 :       0.4286    0.2857    0.1429
  band No.  band energies     occupation 
      1     -30.0430      2.00000
      2     -14.5568      2.00000
      3     -13.9015      2.00000
      4     -13.7309      2.00000
      5     -12.1583      2.00000
      6     -11.8717      2.00000
      7     -11.7636      2.00000
      8      -1.6989      2.00000
      9      -1.3767      2.00000
     10      -0.9855      2.00000
     11      -0.5075      2.00000
     12      -0.3619      2.00000
     13       0.4676      2.00000
     14       1.3905      2.00000
     15       1.4887      2.00000
     16       2.1364      2.00000
     17       5.7851      0.00000
     18       6.2459      0.00000
     19       6.3908      0.00000
     20      10.6662      0.00000

 k-point    16 :       0.4286    0.4286    0.1429
  band No.  band energies     occupation 
      1     -30.0363      2.00000
      2     -14.2593      2.00000
      3     -13.9842      2.00000
      4     -13.8286      2.00000
      5     -12.1277      2.00000
      6     -11.8587      2.00000
      7     -11.8164      2.00000
      8      -1.8244      2.00000
      9      -1.7278      2.00000
     10      -1.4935      2.00000
     11      -0.5226      2.00000
     12      -0.4646      2.00000
     13       0.3318      2.00000
     14       1.4302      2.00000
     15       1.4741      2.00000
     16       2.4659      2.00000
     17       6.2629      0.00000
     18       6.2830      0.00000
     19       6.6426      0.00000
     20      10.4627      0.00000

 k-point    17 :       0.2857    0.2857    0.2857
  band No.  band energies     occupation 
      1     -30.0417      2.00000
      2     -14.4463      2.00000
      3     -13.7996      2.00000
      4     -13.7996      2.00000
      5     -12.1148      2.00000
      6     -12.1148      2.00000
      7     -11.7664      2.00000
      8      -1.5218      2.00000
      9      -0.9077      2.00000
     10      -0.9077      2.00000
     11      -0.5679      2.00000
     12      -0.5679      2.00000
     13      -0.5442      2.00000
     14       1.8036      2.00000
     15       1.8036      2.00000
     16       2.1438      2.00000
     17       6.0706      0.00000
     18       6.1192      0.00000
     19       6.1192      0.00000
     20      10.3835      0.00000

 k-point    18 :       0.4286    0.2857    0.2857
  band No.  band energies     occupation 
      1     -30.0349      2.00000
      2     -14.3066      2.00000
      3     -13.8359      2.00000
      4     -13.6780      2.00000
      5     -12.2637      2.00000
      6     -12.0092      2.00000
      7     -11.8672      2.00000
      8      -1.7000      2.00000
      9      -1.3098      2.00000
     10      -1.0011      2.00000
     11      -0.8962      2.00000
     12      -0.8242      2.00000
     13      -0.4354      2.00000
     14       1.8337      2.00000
     15       1.9676      2.00000
     16       2.2463      2.00000
     17       6.1675      0.00000
     18       6.4576      0.00000
     19       6.4821      0.00000
     20      10.5797      0.00000

 k-point    19 :       0.4286    0.4286    0.2857
  band No.  band energies     occupation 
      1     -30.0284      2.00000
      2     -14.0240      2.00000
      3     -13.8087      2.00000
      4     -13.6907      2.00000
      5     -12.2846      2.00000
      6     -12.1067      2.00000
      7     -12.0127      2.00000
      8      -1.7920      2.00000
      9      -1.4848      2.00000
     10      -1.4138      2.00000
     11      -0.9410      2.00000
     12      -0.8505      2.00000
     13      -0.7458      2.00000
     14       2.0570      2.00000
     15       2.0931      2.00000
     16       2.5021      2.00000
     17       6.5269      0.00000
     18       6.5390      0.00000
     19       6.7318      0.00000
     20      10.0794      0.00000

 k-point    20 :       0.4286    0.4286    0.4286
  band No.  band energies     occupation 
      1     -30.0221      2.00000
      2     -13.7671      2.00000
      3     -13.6226      2.00000
      4     -13.6226      2.00000
      5     -12.3500      2.00000
      6     -12.3500      2.00000
      7     -12.2366      2.00000
      8      -1.8802      2.00000
      9      -1.4769      2.00000
     10      -1.4769      2.00000
     11      -1.1752      2.00000
     12      -1.0674      2.00000
     13      -1.0674      2.00000
     14       2.4693      2.00000
     15       2.4693      2.00000
     16       2.5568      2.00000
     17       6.8030      0.00000
     18       6.8090      0.00000
     19       9.7855      0.00000
     20       9.8223      0.00000


--------------------------------------------------------------------------------------------------------


 soft charge-density along one line, spin component           1
         0         1         2         3         4         5         6         7         8         9
 total charge-density along one line
 
 pseudopotential strength for first ion, spin component:           1
-11.348  -7.402   0.000  -0.000  -0.000  -0.000   0.000   0.000
 -7.402  -5.734   0.000  -0.000  -0.000  -0.000   0.000   0.000
  0.000   0.000 -14.873   0.000   0.000   0.103  -0.000  -0.000
 -0.000  -0.000   0.000 -14.873   0.000  -0.000   0.103  -0.000
 -0.000  -0.000   0.000   0.000 -14.873  -0.000  -0.000   0.103
 -0.000  -0.000   0.103  -0.000  -0.000   0.037  -0.000  -0.000
  0.000   0.000  -0.000   0.103  -0.000  -0.000   0.037  -0.000
  0.000   0.000  -0.000  -0.000   0.103  -0.000  -0.000   0.037
  0.000   0.000  -0.000  -0.000   0.000   0.000   0.000  -0.000
  0.000   0.000  -0.000   0.000  -0.000   0.000  -0.000   0.000
  0.000   0.000  -0.000  -0.000   0.000   0.000   0.000  -0.000
  0.000   0.000  -0.000  -0.000  -0.000   0.000   0.000   0.000
  0.000   0.000  -0.000  -0.000  -0.000   0.000   0.000   0.000
  0.000   0.000  -0.000  -0.000   0.000  -0.000  -0.000   0.000
  0.000   0.000  -0.000   0.000  -0.000  -0.000  -0.000  -0.000
  0.000   0.000  -0.000  -0.000   0.000  -0.000  -0.000  -0.000
  0.000   0.000  -0.000  -0.000  -0.000  -0.000  -0.000  -0.000
  0.000   0.000  -0.000  -0.000  -0.000   0.000  -0.000  -0.000
 total augmentation occupancy for first ion, spin component:           1
  2.106  -0.227   0.000   0.000   0.000   0.000   0.000   0.000  -0.000   0.000  -0.000  -0.000  -0.000   0.000   0.000  -0.000
 -0.227   0.472   0.000   0.000   0.000   0.000   0.000   0.000  -0.000   0.000   0.000  -0.000   0.000  -0.000   0.000   0.000
  0.000   0.000   2.025   0.000   0.000   0.067   0.000   0.000   0.000   0.000   0.000   0.000   0.000   0.000   0.000   0.000
  0.000   0.000   0.000   2.025  -0.000  -0.000   0.067  -0.000   0.000   0.000   0.000   0.000   0.000   0.000   0.000   0.000
  0.000   0.000   0.000  -0.000   2.025  -0.000   0.000   0.067   0.000   0.000   0.000   0.000   0.000   0.000   0.000   0.000
  0.000   0.000   0.067  -0.000  -0.000   0.296  -0.000   0.000   0.000   0.000   0.000   0.000   0.000   0.000   0.000   0.000
  0.000   0.000   0.000   0.067   0.000   0.000   0.296  -0.000   0.000   0.000   0.000   0.000   0.000   0.000   0.000   0.000
  0.000   0.000   0.000  -0.000   0.067   0.000   0.000   0.296   0.000   0.000   0.000   0.000   0.000   0.000   0.000   0.000
 -0.000   0.000   0.000   0.000   0.000   0.000   0.000   0.000   0.094  -0.000  -0.000  -0.000   0.000  -0.425   0.000   0.000
  0.000  -0.000   0.000   0.000   0.000   0.000   0.000   0.000   0.000   0.094   0.000   0.000   0.000  -0.000  -0.425   0.000
 -0.000   0.000   0.000   0.000   0.000   0.000   0.000   0.000  -0.000  -0.000   0.063   0.000   0.000   0.000  -0.000  -0.276
 -0.000  -0.000   0.000   0.000   0.000   0.000   0.000   0.000   0.000   0.000  -0.000   0.094   0.000  -0.000  -0.000   0.000
 -0.000  -0.000   0.000   0.000   0.000   0.000   0.000   0.000  -0.000   0.000  -0.000  -0.000   0.063   0.000  -0.000   0.000
  0.000  -0.000   0.000   0.000   0.000   0.000   0.000   0.000  -0.425  -0.000   0.000  -0.000  -0.000   2.039   0.000   0.000
 -0.000   0.000   0.000   0.000   0.000   0.000   0.000   0.000  -0.000  -0.425   0.000   0.000   0.000   0.000   2.039  -0.000
 -0.000   0.000   0.000   0.000   0.000   0.000   0.000   0.000   0.000   0.000  -0.276   0.000   0.000   0.000  -0.000   1.274
  0.000  -0.000   0.000   0.000   0.000   0.000   0.000   0.000  -0.000   0.000   0.000  -0.425   0.000   0.000  -0.000  -0.000
  0.000   0.000   0.000   0.000   0.000   0.000   0.000   0.000  -0.000   0.000   0.000   0.000  -0.276   0.000  -0.000   0.000


------------------------ aborting loop because EDIFF is reached ----------------------------------------


    CHARGE:  cpu time    0.0110: real time    0.0116
    FORLOC:  cpu time    0.0010: real time    0.0011
    FORNL :  cpu time    0.0400: real time    0.0396
    STRESS:  cpu time    0.1520: real time    0.1526
    FORCOR:  cpu time    0.0100: real time    0.0091
    FORHAR:  cpu time    0.0010: real time    0.0023
    MIXING:  cpu time    0.0010: real time    0.0006
    OFIELD:  cpu time    0.0000: real time    0.0000

  FORCE on cell =-STRESS in cart. coord.  units (eV):
  Direction    XX          YY          ZZ          XY          YZ          ZX
  --------------------------------------------------------------------------------------
  Alpha Z   185.39986   185.39986   185.39986
  Ewald    -644.69310  -644.69310  -644.69310     0.00000    -0.00000    -0.00000
  Hartree   147.08737   147.08737   147.08737    -0.00000    -0.00000    -0.00000
  E(xc)    -145.39195  -145.39195  -145.39195     0.00000     0.00000     0.00000
  Local      -9.90455    -9.90455    -9.90455     0.00000     0.00000     0.00000
  n-local  -123.52202  -119.33318  -114.89677    -0.47874    -0.41239    -0.30411
  augment    28.91453    28.91453    28.91453    -0.00000     0.00000    -0.00000
  Kinetic   550.25314   562.42079   566.82951    -2.56801    -2.76081    -1.78459
  Fock        0.00000     0.00000     0.00000     0.00000     0.00000     0.00000
  -------------------------------------------------------------------------------------
  Total       1.99598     1.99598     1.99598     0.00000     0.00000    -0.00000
  in kB      53.69249    53.69249    53.69249     0.00000     0.00000    -0.00000
  external pressure =       53.69 kB  Pullay stress =        0.00 kB


 VOLUME and BASIS-vectors are now :
 -----------------------------------------------------------------------------
  energy-cutoff  :      450.00
  volume of cell :       59.56
      direct lattice vectors                 reciprocal lattice vectors
     3.905268000  0.000000000  0.000000000     0.256064373  0.000000000  0.000000000
     0.000000000  3.905268000  0.000000000     0.000000000  0.256064373  0.000000000
     0.000000000  0.000000000  3.905268000     0.000000000  0.000000000  0.256064373

  length of vectors
     3.905268000  3.905268000  3.905268000     0.256064373  0.256064373  0.256064373


 FORCES acting on ions
    electron-ion (+dipol)            ewald-force                    non-local-force                 convergence-correction
 -----------------------------------------------------------------------------------------------
   0.618E-14 0.597E-14 0.302E-14   -.987E-14 0.226E-14 -.502E-14   0.000E+00 0.000E+00 0.000E+00   -.103E-13 -.684E-15 -.277E-13
   -.132E-13 -.406E-12 0.950E-13   0.387E-14 0.424E-14 -.122E-14   0.000E+00 0.000E+00 0.000E+00   0.511E-14 0.305E-14 0.130E-13
   0.621E-13 0.236E-12 -.256E-12   0.648E-14 0.208E-14 -.144E-14   0.000E+00 0.000E+00 0.000E+00   -.389E-14 0.102E-13 -.284E-13
   0.609E-13 0.111E-13 0.772E-12   0.284E-14 -.378E-14 0.434E-14   0.000E+00 0.000E+00 0.000E+00   -.623E-14 -.104E-13 0.183E-13
   0.975E-14 0.650E-13 0.559E-13   -.327E-14 -.425E-14 0.433E-14   0.000E+00 0.000E+00 0.000E+00   -.195E-13 0.834E-14 0.267E-13
 -----------------------------------------------------------------------------------------------
   0.126E-12 -.886E-13 0.670E-12   0.432E-16 0.547E-15 0.100E-14   0.000E+00 0.000E+00 0.000E+00   -.348E-13 0.105E-13 0.191E-14
 
 
 POSITION                                       TOTAL-FORCE (eV/Angst)
 -----------------------------------------------------------------------------------
      0.00000      0.00000      0.00000         0.000000      0.000000      0.000000
      1.95263      1.95263      1.95263         0.000000      0.000000      0.000000
      1.95263      1.95263      0.00000         0.000000      0.000000      0.000000
      1.95263      0.00000      1.95263         0.000000      0.000000      0.000000
      0.00000      1.95263      1.95263         0.000000      0.000000      0.000000
 -----------------------------------------------------------------------------------
    total drift:                                0.000000     -0.000000      0.000000


--------------------------------------------------------------------------------------------------------



  FREE ENERGIE OF THE ION-ELECTRON SYSTEM (eV)
  ---------------------------------------------------
  free  energy   TOTEN  =       -39.70856925 eV

  energy  without entropy=      -39.70856925  energy(sigma->0) =      -39.70856925
 


--------------------------------------------------------------------------------------------------------


    POTLOK:  cpu time    0.0120: real time    0.0119


--------------------------------------------------------------------------------------------------------


     LOOP+:  cpu time    3.9904: real time    4.1920
    4ORBIT:  cpu time    0.0000: real time    0.0000
 BZINTS: Fermi energy:  2.618556; 32.000000 electrons
         Band energy:-212.548045;  BLOECHL correction:  0.000000

 total amount of memory used by VASP MPI-rank0    39859. kBytes
=======================================================================

   base      :      30000. kBytes
   nonl-proj :       5702. kBytes
   fftplans  :        685. kBytes
   grid      :       1225. kBytes
   one-center:         46. kBytes
   wavefun   :       2201. kBytes
 
  
  
 General timing and accounting informations for this job:
 ========================================================
  
                  Total CPU time used (sec):        4.681
                            User time (sec):        4.580
                          System time (sec):        0.101
                         Elapsed time (sec):        7.124
  
                   Maximum memory used (kb):       37264.
                   Average memory used (kb):           0.
  
                          Minor page faults:        12950
                          Major page faults:           39
                 Voluntary context switches:         2549
