<?xml version="1.0" encoding="ISO-8859-1"?>
<modeling>
 <generator>
  <i name="program" type="string">vasp </i>
  <i name="version" type="string">5.4.4.18Apr17-6-g9f103f2a35  </i>
  <i name="subversion" type="string">(build Jun 30 2017 11:15:00) complex            parallel </i>
  <i name="platform" type="string">STALLO_VASP_5.4.4 </i>
  <i name="date" type="string">2019 11 06 </i>
  <i name="time" type="string">13:07:38 </i>
 </generator>
 <incar>
  <i type="string" name="PREC">normal    ! low/normal/accurate</i>
  <i type="string" name="ALGO"> Fast      ! Algorithm for electronic re</i>
  <i type="int" name="ISPIN">     1</i>
  <i type="int" name="NELMIN">     4</i>
  <i name="EDIFF">      0.00001000</i>
  <i type="int" name="NSW">     0</i>
  <i name="ENCUT">    450.00000000</i>
  <i type="logical" name="LREAL"> F  </i>
  <i type="int" name="ISMEAR">    -5</i>
  <i name="SIGMA">      0.20000000</i>
  <i type="logical" name="LWAVE"> F  </i>
  <v type="int" name="KPOINT_BSE">    -1     0     0     0</v>
 </incar>
 <structure name="primitive_cell" >
  <crystal>
   <varray name="basis" >
    <v>       3.90526800       0.00000000       0.00000000 </v>
    <v>       0.00000000       3.90526800       0.00000000 </v>
    <v>       0.00000000       0.00000000       3.90526800 </v>
   </varray>
   <i name="volume">     59.55970368 </i>
   <varray name="rec_basis" >
    <v>       0.25606437       0.00000000       0.00000000 </v>
    <v>       0.00000000       0.25606437       0.00000000 </v>
    <v>       0.00000000       0.00000000       0.25606437 </v>
   </varray>
  </crystal>
  <varray name="positions" >
   <v>       0.00000000       0.00000000       0.00000000 </v>
   <v>      -0.50000000      -0.50000000       0.00000000 </v>
   <v>      -0.50000000       0.00000000      -0.50000000 </v>
   <v>       0.00000000      -0.50000000      -0.50000000 </v>
   <v>      -0.50000000      -0.50000000      -0.50000000 </v>
  </varray>
 </structure>
 <varray name="primitive_index" >
  <v type="int" >        1 </v>
  <v type="int" >        3 </v>
  <v type="int" >        4 </v>
  <v type="int" >        5 </v>
  <v type="int" >        2 </v>
 </varray>
 <kpoints>
  <generation param="Gamma">
   <v type="int" name="divisions">       7        7        7 </v>
   <v name="usershift">      0.00000000       0.00000000       0.00000000 </v>
   <v name="genvec1">      0.14285714       0.00000000       0.00000000 </v>
   <v name="genvec2">      0.00000000       0.14285714       0.00000000 </v>
   <v name="genvec3">      0.00000000       0.00000000       0.14285714 </v>
   <v name="shift">      0.00000000       0.00000000       0.00000000 </v>
  </generation>
  <varray name="kpointlist" >
   <v>       0.00000000       0.00000000       0.00000000 </v>
   <v>       0.14285714       0.00000000       0.00000000 </v>
   <v>       0.28571429       0.00000000       0.00000000 </v>
   <v>       0.42857143       0.00000000       0.00000000 </v>
   <v>       0.14285714       0.14285714       0.00000000 </v>
   <v>       0.28571429       0.14285714       0.00000000 </v>
   <v>       0.42857143       0.14285714       0.00000000 </v>
   <v>       0.28571429       0.28571429       0.00000000 </v>
   <v>       0.42857143       0.28571429       0.00000000 </v>
   <v>       0.42857143       0.42857143       0.00000000 </v>
   <v>       0.14285714       0.14285714       0.14285714 </v>
   <v>       0.28571429       0.14285714       0.14285714 </v>
   <v>       0.42857143       0.14285714       0.14285714 </v>
   <v>       0.28571429       0.28571429       0.14285714 </v>
   <v>       0.42857143       0.28571429       0.14285714 </v>
   <v>       0.42857143       0.42857143       0.14285714 </v>
   <v>       0.28571429       0.28571429       0.28571429 </v>
   <v>       0.42857143       0.28571429       0.28571429 </v>
   <v>       0.42857143       0.42857143       0.28571429 </v>
   <v>       0.42857143       0.42857143       0.42857143 </v>
  </varray>
  <varray name="weights" >
   <v>       0.00291545 </v>
   <v>       0.01749271 </v>
   <v>       0.01749271 </v>
   <v>       0.01749271 </v>
   <v>       0.03498542 </v>
   <v>       0.06997085 </v>
   <v>       0.06997085 </v>
   <v>       0.03498542 </v>
   <v>       0.06997085 </v>
   <v>       0.03498542 </v>
   <v>       0.02332362 </v>
   <v>       0.06997085 </v>
   <v>       0.06997085 </v>
   <v>       0.06997085 </v>
   <v>       0.13994169 </v>
   <v>       0.06997085 </v>
   <v>       0.02332362 </v>
   <v>       0.06997085 </v>
   <v>       0.06997085 </v>
   <v>       0.02332362 </v>
  </varray>
  <varray name="tetrahedronlist"  type="int" >
   <v type="int" >       12        1        2        2        5 </v>
   <v type="int" >       12        2        2        5        5 </v>
   <v type="int" >       12        2        5        5       11 </v>
   <v type="int" >       12        2        3        5        6 </v>
   <v type="int" >       12        2        5        5        6 </v>
   <v type="int" >       12        5        5        6       11 </v>
   <v type="int" >       12        3        5        6        6 </v>
   <v type="int" >       24        5        6        6       12 </v>
   <v type="int" >       24        5        6       11       12 </v>
   <v type="int" >       12        3        4        6        7 </v>
   <v type="int" >       12        3        6        6        7 </v>
   <v type="int" >       12        6        6        7       12 </v>
   <v type="int" >       12        4        6        7        7 </v>
   <v type="int" >       12        6        7        7       13 </v>
   <v type="int" >       12        6        7       12       13 </v>
   <v type="int" >        6        4        4        7        7 </v>
   <v type="int" >       12        4        7        7        7 </v>
   <v type="int" >       12        7        7        7       13 </v>
   <v type="int" >        6        7        7       13       13 </v>
   <v type="int" >       12        5        6        8       11 </v>
   <v type="int" >       12        6        8       11       12 </v>
   <v type="int" >       12        8       11       12       14 </v>
   <v type="int" >       12        6        7        9       12 </v>
   <v type="int" >       12        6        8        9       12 </v>
   <v type="int" >       12        8        9       12       14 </v>
   <v type="int" >       12        7        9       12       13 </v>
   <v type="int" >       12        9       12       13       15 </v>
   <v type="int" >       12        9       12       14       15 </v>
   <v type="int" >       12        7        7        9       13 </v>
   <v type="int" >       12        7        9        9       13 </v>
   <v type="int" >       12        9        9       13       15 </v>
   <v type="int" >       12        7        9       13       13 </v>
   <v type="int" >       12        9       13       13       15 </v>
   <v type="int" >       12        9       13       15       15 </v>
   <v type="int" >       12        6        7        8       13 </v>
   <v type="int" >       12        7        8        9       13 </v>
   <v type="int" >       12        8        9       13       15 </v>
   <v type="int" >       12        6        8       12       13 </v>
   <v type="int" >       12        8       12       13       14 </v>
   <v type="int" >       12        8       13       14       15 </v>
   <v type="int" >       12        6        6        8       12 </v>
   <v type="int" >       12        6        8       12       14 </v>
   <v type="int" >       12        6       11       12       12 </v>
   <v type="int" >       12        6       12       12       14 </v>
   <v type="int" >       12        2        3        5       11 </v>
   <v type="int" >       12        3        5        6       11 </v>
   <v type="int" >       12        3        6       11       12 </v>
   <v type="int" >       12        8        9       10       14 </v>
   <v type="int" >       12        9       10       14       15 </v>
   <v type="int" >       12       10       14       15       16 </v>
   <v type="int" >       24        9        9       10       15 </v>
   <v type="int" >       12        9       10       10       15 </v>
   <v type="int" >       12       10       10       15       16 </v>
   <v type="int" >       12        9       10       15       15 </v>
   <v type="int" >       12       10       15       15       16 </v>
   <v type="int" >       12       10       15       16       16 </v>
   <v type="int" >       12        8        9        9       15 </v>
   <v type="int" >       12        9       10       15       16 </v>
   <v type="int" >       12        8        9       14       15 </v>
   <v type="int" >       12        9       14       15       15 </v>
   <v type="int" >       24        9       15       15       16 </v>
   <v type="int" >       12        6        7        8       14 </v>
   <v type="int" >       12        7        8        9       14 </v>
   <v type="int" >       12        7        9       14       15 </v>
   <v type="int" >       12        6        7       12       14 </v>
   <v type="int" >       12        7       12       13       14 </v>
   <v type="int" >       12        7       13       14       15 </v>
   <v type="int" >       12        3        4        6       12 </v>
   <v type="int" >       12        4        6        7       12 </v>
   <v type="int" >       12        4        7       12       13 </v>
   <v type="int" >       12       10       10       10       16 </v>
   <v type="int" >       12       10       10       16       16 </v>
   <v type="int" >       12       10       16       16       16 </v>
   <v type="int" >       12        9        9       10       16 </v>
   <v type="int" >       12        9       10       10       16 </v>
   <v type="int" >       12        9       10       16       16 </v>
   <v type="int" >       12        9        9       15       16 </v>
   <v type="int" >       12        9       15       16       16 </v>
   <v type="int" >       12        7        7        9       15 </v>
   <v type="int" >       12        7        9        9       15 </v>
   <v type="int" >       12        7        9       15       15 </v>
   <v type="int" >       12        7        7       13       15 </v>
   <v type="int" >       12        7       13       13       15 </v>
   <v type="int" >       12        7       13       15       15 </v>
   <v type="int" >       12        4        4        7       13 </v>
   <v type="int" >       12        4        7        7       13 </v>
   <v type="int" >       12        4        7       13       13 </v>
   <v type="int" >       12        8        9       10       16 </v>
   <v type="int" >       12        8        9       15       16 </v>
   <v type="int" >       12        8       14       15       16 </v>
   <v type="int" >       12        6        7        9       15 </v>
   <v type="int" >       12        6        8        9       15 </v>
   <v type="int" >       12        6        8       14       15 </v>
   <v type="int" >       12        6        7       13       15 </v>
   <v type="int" >       12        6       12       13       15 </v>
   <v type="int" >       12        6       12       14       15 </v>
   <v type="int" >       12        3        4        7       13 </v>
   <v type="int" >       12        3        6        7       13 </v>
   <v type="int" >       12        3        6       12       13 </v>
   <v type="int" >       12        5        6        8       14 </v>
   <v type="int" >       12        5        6       12       14 </v>
   <v type="int" >       12        5       11       12       14 </v>
   <v type="int" >       12        2        3        6       12 </v>
   <v type="int" >       12        2        5        6       12 </v>
   <v type="int" >       12        2        5       11       12 </v>
   <v type="int" >       12        1        2        5       11 </v>
   <v type="int" >       12       11       12       12       14 </v>
   <v type="int" >       12       12       12       14       14 </v>
   <v type="int" >       12       12       14       14       17 </v>
   <v type="int" >       12       12       13       14       15 </v>
   <v type="int" >       12       12       14       14       15 </v>
   <v type="int" >       12       14       14       15       17 </v>
   <v type="int" >       12       13       14       15       15 </v>
   <v type="int" >       24       14       15       15       18 </v>
   <v type="int" >       24       14       15       17       18 </v>
   <v type="int" >        6       13       13       15       15 </v>
   <v type="int" >       12       13       15       15       15 </v>
   <v type="int" >       12       15       15       15       18 </v>
   <v type="int" >        6       15       15       18       18 </v>
   <v type="int" >       12       14       15       16       17 </v>
   <v type="int" >       12       15       16       17       18 </v>
   <v type="int" >       12       16       17       18       19 </v>
   <v type="int" >       24       15       15       16       18 </v>
   <v type="int" >       12       15       16       16       18 </v>
   <v type="int" >       12       16       16       18       19 </v>
   <v type="int" >       12       15       16       18       18 </v>
   <v type="int" >       12       16       18       18       19 </v>
   <v type="int" >       12       16       18       19       19 </v>
   <v type="int" >       12       15       16       18       19 </v>
   <v type="int" >       12       15       17       18       18 </v>
   <v type="int" >       24       15       18       18       19 </v>
   <v type="int" >       12       12       13       14       17 </v>
   <v type="int" >       12       13       14       15       17 </v>
   <v type="int" >       12       13       15       17       18 </v>
   <v type="int" >       12       16       16       16       19 </v>
   <v type="int" >       12       16       16       19       19 </v>
   <v type="int" >       12       16       19       19       19 </v>
   <v type="int" >       12       15       15       16       19 </v>
   <v type="int" >       12       15       16       16       19 </v>
   <v type="int" >       12       15       16       19       19 </v>
   <v type="int" >       12       15       15       18       19 </v>
   <v type="int" >       12       15       18       19       19 </v>
   <v type="int" >       12       13       13       15       18 </v>
   <v type="int" >       12       13       15       15       18 </v>
   <v type="int" >       12       13       15       18       18 </v>
   <v type="int" >       12       14       15       16       19 </v>
   <v type="int" >       12       14       15       18       19 </v>
   <v type="int" >       12       14       17       18       19 </v>
   <v type="int" >       12       12       13       15       18 </v>
   <v type="int" >       12       12       14       15       18 </v>
   <v type="int" >       12       12       14       17       18 </v>
   <v type="int" >       12       11       12       14       17 </v>
   <v type="int" >       12       17       18       18       19 </v>
   <v type="int" >       18       18       18       19       19 </v>
   <v type="int" >       24       18       19       19       20 </v>
   <v type="int" >       12       18       19       19       19 </v>
   <v type="int" >       24       19       19       19       20 </v>
   <v type="int" >       18       19       19       20       20 </v>
   <v type="int" >       12       19       20       20       20 </v>
   <v type="int" >       12       18       18       19       20 </v>
   <v type="int" >       12       18       19       20       20 </v>
   <v type="int" >       12       17       18       19       20 </v>
   <v type="int" >        6       20       20       20       20 </v>
  </varray>
  <i name="volumeweight">      0.00048591 </i>
 </kpoints>
 <parameters>
  <separator name="general" >
   <i type="string" name="SYSTEM">unknown system</i>
   <i type="logical" name="LCOMPAT"> F  </i>
  </separator>
  <separator name="electronic" >
   <i type="string" name="PREC">normal</i>
   <i name="ENMAX">    450.00000000</i>
   <i name="ENAUG">    605.39200000</i>
   <i name="EDIFF">      0.00001000</i>
   <i type="int" name="IALGO">    68</i>
   <i type="int" name="IWAVPR">    10</i>
   <i type="int" name="NBANDS">    20</i>
   <i name="NELECT">     32.00000000</i>
   <i type="int" name="TURBO">     0</i>
   <i type="int" name="IRESTART">     0</i>
   <i type="int" name="NREBOOT">     0</i>
   <i type="int" name="NMIN">     0</i>
   <i name="EREF">      0.00000000</i>
   <separator name="electronic smearing" >
    <i type="int" name="ISMEAR">    -5</i>
    <i name="SIGMA">      0.20000000</i>
    <i name="KSPACING">      0.50000000</i>
    <i type="logical" name="KGAMMA"> T  </i>
   </separator>
   <separator name="electronic projectors" >
    <i type="logical" name="LREAL"> F  </i>
    <v name="ROPT">      0.00000000      0.00000000      0.00000000</v>
    <i type="int" name="LMAXPAW">  -100</i>
    <i type="int" name="LMAXMIX">     2</i>
    <i type="logical" name="NLSPLINE"> F  </i>
   </separator>
   <separator name="electronic startup" >
    <i type="int" name="ISTART">     0</i>
    <i type="int" name="ICHARG">     2</i>
    <i type="int" name="INIWAV">     1</i>
   </separator>
   <separator name="electronic spin" >
    <i type="int" name="ISPIN">     1</i>
    <i type="logical" name="LNONCOLLINEAR"> F  </i>
    <v name="MAGMOM">      1.00000000      1.00000000      1.00000000      1.00000000      1.00000000</v>
    <i name="NUPDOWN">     -1.00000000</i>
    <i type="logical" name="LSORBIT"> F  </i>
    <v name="SAXIS">      0.00000000      0.00000000      1.00000000</v>
    <i type="logical" name="LSPIRAL"> F  </i>
    <v name="QSPIRAL">      0.00000000      0.00000000      0.00000000</v>
    <i type="logical" name="LZEROZ"> F  </i>
   </separator>
   <separator name="electronic exchange-correlation" >
    <i type="logical" name="LASPH"> F  </i>
    <i type="logical" name="LMETAGGA"> F  </i>
   </separator>
   <separator name="electronic convergence" >
    <i type="int" name="NELM">    60</i>
    <i type="int" name="NELMDL">    -5</i>
    <i type="int" name="NELMIN">     4</i>
    <i name="ENINI">    450.00000000</i>
    <separator name="electronic convergence detail" >
     <i type="logical" name="LDIAG"> T  </i>
     <i type="logical" name="LSUBROT"> F  </i>
     <i name="WEIMIN">      0.00000000</i>
     <i name="EBREAK">      0.00000013</i>
     <i name="DEPER">      0.30000000</i>
     <i type="int" name="NRMM">     4</i>
     <i name="TIME">      0.40000000</i>
    </separator>
   </separator>
   <separator name="electronic mixer" >
    <i name="AMIX">      0.40000000</i>
    <i name="BMIX">      1.00000000</i>
    <i name="AMIN">      0.10000000</i>
    <i name="AMIX_MAG">      1.60000000</i>
    <i name="BMIX_MAG">      1.00000000</i>
    <separator name="electronic mixer details" >
     <i type="int" name="IMIX">     4</i>
     <i type="logical" name="MIXFIRST"> F  </i>
     <i type="int" name="MAXMIX">   -45</i>
     <i name="WC">    100.00000000</i>
     <i type="int" name="INIMIX">     1</i>
     <i type="int" name="MIXPRE">     1</i>
     <i type="int" name="MREMOVE">     5</i>
    </separator>
   </separator>
   <separator name="electronic dipolcorrection" >
    <i type="logical" name="LDIPOL"> F  </i>
    <i type="logical" name="LMONO"> F  </i>
    <i type="int" name="IDIPOL">     0</i>
    <i name="EPSILON">      1.00000000</i>
    <v name="DIPOL">   -100.00000000   -100.00000000   -100.00000000</v>
    <i name="EFIELD">      0.00000000</i>
   </separator>
  </separator>
  <separator name="grids" >
   <i type="int" name="NGX">    20</i>
   <i type="int" name="NGY">    20</i>
   <i type="int" name="NGZ">    20</i>
   <i type="int" name="NGXF">    40</i>
   <i type="int" name="NGYF">    40</i>
   <i type="int" name="NGZF">    40</i>
   <i type="logical" name="ADDGRID"> F  </i>
  </separator>
  <separator name="ionic" >
   <i type="int" name="NSW">     0</i>
   <i type="int" name="IBRION">    -1</i>
   <i type="int" name="MDALGO">     0</i>
   <i type="int" name="ISIF">     2</i>
   <i name="PSTRESS">      0.00000000</i>
   <i name="EDIFFG">      0.00010000</i>
   <i type="int" name="NFREE">     0</i>
   <i name="POTIM">      0.50000000</i>
   <i name="SMASS">     -3.00000000</i>
   <i name="SCALEE">      1.00000000</i>
  </separator>
  <separator name="ionic md" >
   <i name="TEBEG">      0.00010000</i>
   <i name="TEEND">      0.00010000</i>
   <i type="int" name="NBLOCK">     1</i>
   <i type="int" name="KBLOCK">     1</i>
   <i type="int" name="NPACO">   256</i>
   <i name="APACO">     16.00000000</i>
  </separator>
  <separator name="symmetry" >
   <i type="int" name="ISYM">     2</i>
   <i name="SYMPREC">      0.00001000</i>
  </separator>
  <separator name="dos" >
   <i type="int" name="LORBIT">     0</i>
   <v name="RWIGS">     -1.00000000     -1.00000000     -1.00000000</v>
   <i type="int" name="NEDOS">   301</i>
   <i name="EMIN">     10.00000000</i>
   <i name="EMAX">    -10.00000000</i>
   <i name="EFERMI">      0.00000000</i>
  </separator>
  <separator name="writing" >
   <i type="int" name="NWRITE">     2</i>
   <i type="logical" name="LWAVE"> F  </i>
   <i type="logical" name="LDOWNSAMPLE"> F  </i>
   <i type="logical" name="LCHARG"> T  </i>
   <i type="logical" name="LPARD"> F  </i>
   <i type="logical" name="LVTOT"> F  </i>
   <i type="logical" name="LVHAR"> F  </i>
   <i type="logical" name="LELF"> F  </i>
   <i type="logical" name="LOPTICS"> F  </i>
   <v name="STM">      0.00000000      0.00000000      0.00000000      0.00000000      0.00000000      0.00000000      0.00000000</v>
  </separator>
  <separator name="performance" >
   <i type="int" name="NPAR">     2</i>
   <i type="int" name="NSIM">     4</i>
   <i type="int" name="NBLK">    -1</i>
   <i type="logical" name="LPLANE"> T  </i>
   <i type="logical" name="LSCALAPACK"> T  </i>
   <i type="logical" name="LSCAAWARE"> F  </i>
   <i type="logical" name="LSCALU"> F  </i>
   <i type="logical" name="LASYNC"> F  </i>
   <i type="logical" name="LORBITALREAL"> F  </i>
  </separator>
  <separator name="miscellaneous" >
   <i type="int" name="IDIOT">     3</i>
   <i type="int" name="ISPECIAL">     0</i>
   <i type="logical" name="LMUSIC"> F  </i>
   <v name="POMASS">     87.62000000     47.88000000     16.00000000</v>
   <v name="DARWINR">      0.00000000      0.00000000      0.00000000</v>
   <v name="DARWINV">      1.00000000      1.00000000      1.00000000</v>
   <i type="logical" name="LCORR"> T  </i>
  </separator>
  <i type="logical" name="GGA_COMPAT"> T  </i>
  <i type="logical" name="LBERRY"> F  </i>
  <i type="int" name="ICORELEVEL">     0</i>
  <i type="logical" name="LDAU"> F  </i>
  <i type="int" name="I_CONSTRAINED_M">     0</i>
  <separator name="electronic exchange-correlation" >
   <i type="string" name="GGA">--</i>
   <i type="int" name="VOSKOWN">     0</i>
   <i type="logical" name="LHFCALC"> F  </i>
   <i type="string" name="PRECFOCK"></i>
   <i type="logical" name="LSYMGRAD"> F  </i>
   <i type="logical" name="LHFONE"> F  </i>
   <i type="logical" name="LRHFCALC"> F  </i>
   <i type="logical" name="LTHOMAS"> F  </i>
   <i type="logical" name="LMODELHF"> F  </i>
   <i name="ENCUT4O">     -1.00000000</i>
   <i type="int" name="EXXOEP">     0</i>
   <i type="int" name="FOURORBIT">     0</i>
   <i name="AEXX">      0.00000000</i>
   <i name="HFALPHA">      0.00000000</i>
   <i name="MCALPHA">      0.00000000</i>
   <i name="ALDAX">      1.00000000</i>
   <i name="AGGAX">      1.00000000</i>
   <i name="ALDAC">      1.00000000</i>
   <i name="AGGAC">      1.00000000</i>
   <i type="int" name="NKREDX">     1</i>
   <i type="int" name="NKREDY">     1</i>
   <i type="int" name="NKREDZ">     1</i>
   <i type="logical" name="SHIFTRED"> F  </i>
   <i type="logical" name="ODDONLY"> F  </i>
   <i type="logical" name="EVENONLY"> F  </i>
   <i type="int" name="LMAXFOCK">     0</i>
   <i type="int" name="NMAXFOCKAE">     0</i>
   <i type="logical" name="LFOCKAEDFT"> F  </i>
   <i name="HFSCREEN">      0.00000000</i>
   <i name="HFSCREENC">      0.00000000</i>
   <i type="int" name="NBANDSGWLOW">     0</i>
  </separator>
  <separator name="vdW DFT" >
   <i type="logical" name="LUSE_VDW"> F  </i>
   <i name="Zab_VDW">     -0.84910000</i>
   <i name="PARAM1">      0.12340000</i>
   <i name="PARAM2">      1.00000000</i>
   <i name="PARAM3">      0.00000000</i>
  </separator>
  <separator name="model GW" >
   <i type="int" name="MODEL_GW">     0</i>
   <i name="MODEL_EPS0">      7.14716444</i>
   <i name="MODEL_ALPHA">      1.00000000</i>
  </separator>
  <separator name="linear response parameters" >
   <i type="logical" name="LEPSILON"> F  </i>
   <i type="logical" name="LRPA"> F  </i>
   <i type="logical" name="LNABLA"> F  </i>
   <i type="logical" name="LVEL"> F  </i>
   <i type="int" name="KINTER">     0</i>
   <i name="CSHIFT">      0.10000000</i>
   <i name="OMEGAMAX">     -1.00000000</i>
   <i name="DEG_THRESHOLD">      0.00200000</i>
   <i name="RTIME">     -0.10000000</i>
   <i name="WPLASMAI">      0.00000000</i>
   <v name="DFIELD">      0.00000000      0.00000000      0.00000000</v>
   <v name="WPLASMA">      0.00000000      0.00000000      0.00000000      0.00000000      0.00000000      0.00000000      0.00000000      0.00000000      0.00000000</v>
  </separator>
  <separator name="orbital magnetization" >
   <i type="logical" name="NUCIND"> F  </i>
   <v name="MAGPOS">      0.00000000      0.00000000      0.00000000</v>
   <i type="logical" name="LNICSALL"> T  </i>
   <i type="logical" name="ORBITALMAG"> F  </i>
   <i type="logical" name="LMAGBLOCH"> F  </i>
   <i type="logical" name="LCHIMAG"> F  </i>
   <i type="logical" name="LGAUGE"> T  </i>
   <i type="int" name="MAGATOM">     0</i>
   <v name="MAGDIPOL">      0.00000000      0.00000000      0.00000000</v>
   <v name="AVECCONST">      0.00000000      0.00000000      0.00000000</v>
  </separator>
  <separator name="response functions" >
   <i type="logical" name="LADDER"> F  </i>
   <i type="logical" name="LRPAFORCE"> F  </i>
   <i type="logical" name="LFXC"> F  </i>
   <i type="logical" name="LHARTREE"> T  </i>
   <i type="int" name="IBSE">     0</i>
   <v type="int" name="KPOINT">    -1     0     0     0</v>
   <i type="logical" name="LTCTE"> F  </i>
   <i type="logical" name="LTETE"> F  </i>
   <i type="logical" name="LTRIPLET"> F  </i>
   <i type="logical" name="LFXCEPS"> F  </i>
   <i type="logical" name="LFXHEG"> F  </i>
   <i type="int" name="NATURALO">     2</i>
   <i type="logical" name="L2ORDER"> F  </i>
   <i type="logical" name="LMP2LT"> F  </i>
   <i type="logical" name="LUSEW"> F  </i>
   <i name="ENCUTGW">     -2.00000000</i>
   <i name="ENCUTGWSOFT">     -2.00000000</i>
   <i name="ENCUTLF">     -1.00000000</i>
   <i type="int" name="LMAXMP2">    -1</i>
   <i name="SCISSOR">      0.00000000</i>
   <i type="int" name="NOMEGA">     0</i>
   <i type="int" name="NOMEGAR">     0</i>
   <i type="int" name="NBANDSGW">    -1</i>
   <i type="int" name="NBANDSO">    -1</i>
   <i type="int" name="NBANDSV">    -1</i>
   <i type="int" name="NELM">     1</i>
   <i type="int" name="NELMHF">     1</i>
   <i type="int" name="DIM">     3</i>
   <i type="int" name="ANTIRES">     0</i>
   <i name="OMEGAMAX">    -30.00000000</i>
   <i name="OMEGAMIN">    -30.00000000</i>
   <i name="OMEGATL">   -200.00000000</i>
   <i type="int" name="OMEGAGRID">   140</i>
   <i name="CSHIFT">     -0.10000000</i>
   <i type="logical" name="SELFENERGY"> F  </i>
   <i type="logical" name="LSPECTRAL"> F  </i>
   <i type="logical" name="LSPECTRALGW"> F  </i>
   <i type="logical" name="LSINGLES"> F  </i>
   <i type="logical" name="LFERMIGW"> F  </i>
   <i type="logical" name="ODDONLYGW"> F  </i>
   <i type="logical" name="EVENONLYGW"> F  </i>
   <i type="int" name="NKREDLFX">     1</i>
   <i type="int" name="NKREDLFY">     1</i>
   <i type="int" name="NKREDLFZ">     1</i>
   <i type="int" name="MAXMEM">  2800</i>
   <i type="int" name="TELESCOPE">     0</i>
   <i type="int" name="TAUPAR">     1</i>
   <i type="int" name="OMEGAPAR">    -1</i>
   <i name="LAMBDA">      1.00000000</i>
  </separator>
  <separator name="External order field" >
   <i name="OFIELD_KAPPA">      0.00000000</i>
   <v name="OFIELD_K">      0.00000000      0.00000000      0.00000000</v>
   <i name="OFIELD_Q6_NEAR">      0.00000000</i>
   <i name="OFIELD_Q6_FAR">      0.00000000</i>
   <i name="OFIELD_A">      0.00000000</i>
  </separator>
 </parameters>
 <atominfo>
  <atoms>       5 </atoms>
  <types>       3 </types>
  <array name="atoms" >
   <dimension dim="1">ion</dimension>
   <field type="string">element</field>
   <field type="int">atomtype</field>
   <set>
    <rc><c>Sr</c><c>   1</c></rc>
    <rc><c>Ti</c><c>   2</c></rc>
    <rc><c>O </c><c>   3</c></rc>
    <rc><c>O </c><c>   3</c></rc>
    <rc><c>O </c><c>   3</c></rc>
   </set>
  </array>
  <array name="atomtypes" >
   <dimension dim="1">type</dimension>
   <field type="int">atomspertype</field>
   <field type="string">element</field>
   <field>mass</field>
   <field>valence</field>
   <field type="string">pseudopotential</field>
   <set>
    <rc><c>   1</c><c>Sr</c><c>     87.62000000</c><c>     10.00000000</c><c> PAW_PBE Sr_sv 07Sep2000                </c></rc>
    <rc><c>   1</c><c>Ti</c><c>     47.88000000</c><c>      4.00000000</c><c> PAW_PBE Ti 08Apr2002                   </c></rc>
    <rc><c>   3</c><c>O </c><c>     16.00000000</c><c>      6.00000000</c><c> PAW_PBE O 08Apr2002                    </c></rc>
   </set>
  </array>
 </atominfo>
 <structure name="initialpos" >
  <crystal>
   <varray name="basis" >
    <v>       3.90526800       0.00000000       0.00000000 </v>
    <v>       0.00000000       3.90526800       0.00000000 </v>
    <v>       0.00000000       0.00000000       3.90526800 </v>
   </varray>
   <i name="volume">     59.55970368 </i>
   <varray name="rec_basis" >
    <v>       0.25606437       0.00000000       0.00000000 </v>
    <v>       0.00000000       0.25606437       0.00000000 </v>
    <v>       0.00000000       0.00000000       0.25606437 </v>
   </varray>
  </crystal>
  <varray name="positions" >
   <v>       0.00000000       0.00000000       0.00000000 </v>
   <v>       0.50000000       0.50000000       0.50000000 </v>
   <v>       0.50000000       0.50000000       0.00000000 </v>
   <v>       0.50000000       0.00000000       0.50000000 </v>
   <v>       0.00000000       0.50000000       0.50000000 </v>
  </varray>
 </structure>
 <calculation>
  <scstep>
   <time name="dav">    0.18    0.18</time>
   <time name="total">    0.21    0.24</time>
   <energy>
    <i name="alphaZ">    185.39985751 </i>
    <i name="ewald">  -1934.07799583 </i>
    <i name="hartreedc">   -403.14003403 </i>
    <i name="XCdc">     82.31807242 </i>
    <i name="pawpsdc">   1333.61297253 </i>
    <i name="pawaedc">  -1284.78446064 </i>
    <i name="eentropy">      0.00000000 </i>
    <i name="bandstr">     86.54245251 </i>
    <i name="atom">   2234.26649606 </i>
    <i name="e_fr_energy">    300.13736052 </i>
    <i name="e_wo_entrp">    300.13736052 </i>
    <i name="e_0_energy">    300.13736052 </i>
   </energy>
  </scstep>
  <scstep>
   <time name="dav">    0.24    0.24</time>
   <time name="total">    0.24    0.24</time>
   <energy>
    <i name="e_fr_energy">    -18.87139211 </i>
    <i name="e_wo_entrp">    -18.87139211 </i>
    <i name="e_0_energy">    -18.87139211 </i>
   </energy>
  </scstep>
  <scstep>
   <time name="dav">    0.21    0.22</time>
   <time name="total">    0.21    0.22</time>
   <energy>
    <i name="e_fr_energy">    -49.17238537 </i>
    <i name="e_wo_entrp">    -49.17238537 </i>
    <i name="e_0_energy">    -49.17238537 </i>
   </energy>
  </scstep>
  <scstep>
   <time name="dav">    0.27    0.29</time>
   <time name="total">    0.27    0.29</time>
   <energy>
    <i name="e_fr_energy">    -50.19902417 </i>
    <i name="e_wo_entrp">    -50.19902417 </i>
    <i name="e_0_energy">    -50.19902417 </i>
   </energy>
  </scstep>
  <scstep>
   <time name="dav">    0.23    0.23</time>
   <time name="total">    0.24    0.24</time>
   <energy>
    <i name="e_fr_energy">    -50.22369524 </i>
    <i name="e_wo_entrp">    -50.22369524 </i>
    <i name="e_0_energy">    -50.22369524 </i>
   </energy>
  </scstep>
  <scstep>
   <time name="diag">    0.04    0.04</time>
   <time name="diis">    0.13    0.13</time>
   <time name="orth">    0.00    0.00</time>
   <time name="total">    0.20    0.20</time>
   <energy>
    <i name="e_fr_energy">    -40.40111353 </i>
    <i name="e_wo_entrp">    -40.40111353 </i>
    <i name="e_0_energy">    -40.40111353 </i>
   </energy>
  </scstep>
  <scstep>
   <time name="diag">    0.04    0.04</time>
   <time name="diis">    0.14    0.14</time>
   <time name="orth">    0.01    0.01</time>
   <time name="total">    0.21    0.21</time>
   <energy>
    <i name="e_fr_energy">    -39.81071723 </i>
    <i name="e_wo_entrp">    -39.81071723 </i>
    <i name="e_0_energy">    -39.81071723 </i>
   </energy>
  </scstep>
  <scstep>
   <time name="diag">    0.04    0.04</time>
   <time name="diis">    0.14    0.14</time>
   <time name="orth">    0.00    0.00</time>
   <time name="total">    0.21    0.21</time>
   <energy>
    <i name="e_fr_energy">    -39.72735998 </i>
    <i name="e_wo_entrp">    -39.72735998 </i>
    <i name="e_0_energy">    -39.72735998 </i>
   </energy>
  </scstep>
  <scstep>
   <time name="diag">    0.04    0.04</time>
   <time name="diis">    0.16    0.16</time>
   <time name="orth">    0.00    0.00</time>
   <time name="total">    0.23    0.23</time>
   <energy>
    <i name="e_fr_energy">    -39.71355308 </i>
    <i name="e_wo_entrp">    -39.71355308 </i>
    <i name="e_0_energy">    -39.71355308 </i>
   </energy>
  </scstep>
  <scstep>
   <time name="diag">    0.04    0.04</time>
   <time name="diis">    0.14    0.14</time>
   <time name="orth">    0.00    0.01</time>
   <time name="total">    0.21    0.21</time>
   <energy>
    <i name="e_fr_energy">    -39.70940791 </i>
    <i name="e_wo_entrp">    -39.70940791 </i>
    <i name="e_0_energy">    -39.70940791 </i>
   </energy>
  </scstep>
  <scstep>
   <time name="diag">    0.04    0.04</time>
   <time name="diis">    0.16    0.16</time>
   <time name="orth">    0.00    0.00</time>
   <time name="total">    0.23    0.23</time>
   <energy>
    <i name="e_fr_energy">    -39.70805298 </i>
    <i name="e_wo_entrp">    -39.70805298 </i>
    <i name="e_0_energy">    -39.70805298 </i>
   </energy>
  </scstep>
  <scstep>
   <time name="diag">    0.04    0.04</time>
   <time name="diis">    0.15    0.15</time>
   <time name="orth">    0.00    0.00</time>
   <time name="total">    0.23    0.23</time>
   <energy>
    <i name="e_fr_energy">    -39.70892051 </i>
    <i name="e_wo_entrp">    -39.70892051 </i>
    <i name="e_0_energy">    -39.70892051 </i>
   </energy>
  </scstep>
  <scstep>
   <time name="diag">    0.04    0.04</time>
   <time name="diis">    0.15    0.15</time>
   <time name="orth">    0.00    0.00</time>
   <time name="total">    0.22    0.22</time>
   <energy>
    <i name="e_fr_energy">    -39.70855724 </i>
    <i name="e_wo_entrp">    -39.70855724 </i>
    <i name="e_0_energy">    -39.70855724 </i>
   </energy>
  </scstep>
  <scstep>
   <time name="diag">    0.04    0.04</time>
   <time name="diis">    0.15    0.15</time>
   <time name="orth">    0.00    0.00</time>
   <time name="total">    0.22    0.22</time>
   <energy>
    <i name="e_fr_energy">    -39.70853596 </i>
    <i name="e_wo_entrp">    -39.70853596 </i>
    <i name="e_0_energy">    -39.70853596 </i>
   </energy>
  </scstep>
  <scstep>
   <time name="diag">    0.04    0.04</time>
   <time name="diis">    0.13    0.13</time>
   <time name="orth">    0.00    0.00</time>
   <time name="total">    0.20    0.20</time>
   <energy>
    <i name="e_fr_energy">    -39.70856060 </i>
    <i name="e_wo_entrp">    -39.70856060 </i>
    <i name="e_0_energy">    -39.70856060 </i>
   </energy>
  </scstep>
  <scstep>
   <time name="diag">    0.04    0.04</time>
   <time name="diis">    0.12    0.12</time>
   <time name="orth">    0.00    0.00</time>
   <time name="total">    0.19    0.19</time>
   <energy>
    <i name="e_fr_energy">    -39.70856375 </i>
    <i name="e_wo_entrp">    -39.70856375 </i>
    <i name="e_0_energy">    -39.70856375 </i>
   </energy>
  </scstep>
  <scstep>
   <time name="diag">    0.04    0.04</time>
   <time name="diis">    0.10    0.10</time>
   <time name="orth">    0.00    0.00</time>
   <time name="total">    0.16    0.16</time>
   <energy>
    <i name="alphaZ">    185.39985751 </i>
    <i name="ewald">  -1934.07799583 </i>
    <i name="hartreedc">   -441.29368892 </i>
    <i name="XCdc">     86.19066201 </i>
    <i name="pawpsdc">   1565.04821253 </i>
    <i name="pawaedc">  -1522.69406755 </i>
    <i name="eentropy">      0.00000000 </i>
    <i name="bandstr">   -212.54804505 </i>
    <i name="atom">   2234.26649606 </i>
    <i name="e_fr_energy">    -39.70856925 </i>
    <i name="e_wo_entrp">    -39.70856925 </i>
    <i name="e_0_energy">    -39.70856925 </i>
   </energy>
  </scstep>
  <structure>
   <crystal>
    <varray name="basis" >
     <v>       3.90526800       0.00000000       0.00000000 </v>
     <v>       0.00000000       3.90526800       0.00000000 </v>
     <v>       0.00000000       0.00000000       3.90526800 </v>
    </varray>
    <i name="volume">     59.55970368 </i>
    <varray name="rec_basis" >
     <v>       0.25606437       0.00000000       0.00000000 </v>
     <v>       0.00000000       0.25606437       0.00000000 </v>
     <v>       0.00000000       0.00000000       0.25606437 </v>
    </varray>
   </crystal>
   <varray name="positions" >
    <v>       0.00000000       0.00000000       0.00000000 </v>
    <v>       0.50000000       0.50000000       0.50000000 </v>
    <v>       0.50000000       0.50000000       0.00000000 </v>
    <v>       0.50000000       0.00000000       0.50000000 </v>
    <v>       0.00000000       0.50000000       0.50000000 </v>
   </varray>
  </structure>
  <varray name="forces" >
   <v>       0.00000000       0.00000000       0.00000000 </v>
   <v>       0.00000000       0.00000000       0.00000000 </v>
   <v>       0.00000000       0.00000000       0.00000000 </v>
   <v>       0.00000000       0.00000000       0.00000000 </v>
   <v>       0.00000000       0.00000000       0.00000000 </v>
  </varray>
  <varray name="stress" >
   <v>      53.69249343       0.00000000      -0.00000000 </v>
   <v>       0.00000000      53.69249343       0.00000000 </v>
   <v>       0.00000000       0.00000000      53.69249343 </v>
  </varray>
  <energy>
   <i name="e_fr_energy">    -39.70856925 </i>
   <i name="e_wo_entrp">    -39.70856925 </i>
   <i name="e_0_energy">      0.00000000 </i>
  </energy>
  <time name="totalsc">    3.99    4.19</time>
  <eigenvalues>
   <array>
    <dimension dim="1">band</dimension>
    <dimension dim="2">kpoint</dimension>
    <dimension dim="3">spin</dimension>
    <field>eigene</field>
    <field>occ</field>
    <set>
     <set comment="spin 1">
      <set comment="kpoint 1">
       <r>  -30.0812    1.0000 </r>
       <r>  -14.8187    1.0000 </r>
       <r>  -13.8110    1.0000 </r>
       <r>  -13.8110    1.0000 </r>
       <r>  -12.1446    1.0000 </r>
       <r>  -12.1446    1.0000 </r>
       <r>  -12.1446    1.0000 </r>
       <r>   -0.2124    1.0000 </r>
       <r>   -0.2124    1.0000 </r>
       <r>   -0.2124    1.0000 </r>
       <r>    1.4743    1.0000 </r>
       <r>    1.4743    1.0000 </r>
       <r>    1.4743    1.0000 </r>
       <r>    2.3139    1.0000 </r>
       <r>    2.3139    1.0000 </r>
       <r>    2.3139    1.0000 </r>
       <r>    4.3437    0.0000 </r>
       <r>    4.3437    0.0000 </r>
       <r>    4.3437    0.0000 </r>
       <r>    8.0317    0.0000 </r>
      </set>
      <set comment="kpoint 2">
       <r>  -30.0768    1.0000 </r>
       <r>  -14.8308    1.0000 </r>
       <r>  -13.8331    1.0000 </r>
       <r>  -13.8033    1.0000 </r>
       <r>  -12.1355    1.0000 </r>
       <r>  -12.1355    1.0000 </r>
       <r>  -12.0097    1.0000 </r>
       <r>   -0.4772    1.0000 </r>
       <r>   -0.2259    1.0000 </r>
       <r>   -0.2259    1.0000 </r>
       <r>    1.2057    1.0000 </r>
       <r>    1.2057    1.0000 </r>
       <r>    1.2984    1.0000 </r>
       <r>    1.7126    1.0000 </r>
       <r>    2.1879    1.0000 </r>
       <r>    2.1879    1.0000 </r>
       <r>    4.3726    0.0000 </r>
       <r>    4.7931    0.0000 </r>
       <r>    4.7931    0.0000 </r>
       <r>    8.3752    0.0000 </r>
      </set>
      <set comment="kpoint 3">
       <r>  -30.0668    1.0000 </r>
       <r>  -14.9157    1.0000 </r>
       <r>  -13.7861    1.0000 </r>
       <r>  -13.7673    1.0000 </r>
       <r>  -12.1150    1.0000 </r>
       <r>  -12.1150    1.0000 </r>
       <r>  -11.7552    1.0000 </r>
       <r>   -1.1013    1.0000 </r>
       <r>   -0.2454    1.0000 </r>
       <r>   -0.2454    1.0000 </r>
       <r>    0.6876    1.0000 </r>
       <r>    0.6876    1.0000 </r>
       <r>    0.7710    1.0000 </r>
       <r>    0.9459    1.0000 </r>
       <r>    2.0294    1.0000 </r>
       <r>    2.0294    1.0000 </r>
       <r>    4.4394    0.0000 </r>
       <r>    5.6033    0.0000 </r>
       <r>    5.6033    0.0000 </r>
       <r>    9.1935    0.0000 </r>
      </set>
      <set comment="kpoint 4">
       <r>  -30.0588    1.0000 </r>
       <r>  -15.0163    1.0000 </r>
       <r>  -13.7721    1.0000 </r>
       <r>  -13.6372    1.0000 </r>
       <r>  -12.0983    1.0000 </r>
       <r>  -12.0983    1.0000 </r>
       <r>  -11.5839    1.0000 </r>
       <r>   -1.6322    1.0000 </r>
       <r>   -0.2342    1.0000 </r>
       <r>   -0.2342    1.0000 </r>
       <r>    0.2357    1.0000 </r>
       <r>    0.3148    1.0000 </r>
       <r>    0.3148    1.0000 </r>
       <r>    0.6954    1.0000 </r>
       <r>    1.9406    1.0000 </r>
       <r>    1.9406    1.0000 </r>
       <r>    4.4948    0.0000 </r>
       <r>    6.1693    0.0000 </r>
       <r>    6.1693    0.0000 </r>
       <r>    9.8471    0.0000 </r>
      </set>
      <set comment="kpoint 5">
       <r>  -30.0725    1.0000 </r>
       <r>  -14.8171    1.0000 </r>
       <r>  -13.8675    1.0000 </r>
       <r>  -13.7974    1.0000 </r>
       <r>  -12.1262    1.0000 </r>
       <r>  -12.0619    1.0000 </r>
       <r>  -11.9645    1.0000 </r>
       <r>   -0.6391    1.0000 </r>
       <r>   -0.3447    1.0000 </r>
       <r>   -0.2380    1.0000 </r>
       <r>    0.6702    1.0000 </r>
       <r>    1.0026    1.0000 </r>
       <r>    1.4787    1.0000 </r>
       <r>    1.5337    1.0000 </r>
       <r>    1.8731    1.0000 </r>
       <r>    2.0072    1.0000 </r>
       <r>    4.7593    0.0000 </r>
       <r>    4.8635    0.0000 </r>
       <r>    5.0439    0.0000 </r>
       <r>    8.6861    0.0000 </r>
      </set>
      <set comment="kpoint 6">
       <r>  -30.0628    1.0000 </r>
       <r>  -14.8459    1.0000 </r>
       <r>  -13.8584    1.0000 </r>
       <r>  -13.7582    1.0000 </r>
       <r>  -12.1049    1.0000 </r>
       <r>  -12.0291    1.0000 </r>
       <r>  -11.7710    1.0000 </r>
       <r>   -1.1556    1.0000 </r>
       <r>   -0.5113    1.0000 </r>
       <r>   -0.2540    1.0000 </r>
       <r>   -0.0002    1.0000 </r>
       <r>    0.5611    1.0000 </r>
       <r>    0.8985    1.0000 </r>
       <r>    1.4575    1.0000 </r>
       <r>    1.6926    1.0000 </r>
       <r>    1.7840    1.0000 </r>
       <r>    4.8520    0.0000 </r>
       <r>    5.6138    0.0000 </r>
       <r>    5.6694    0.0000 </r>
       <r>    9.5273    0.0000 </r>
      </set>
      <set comment="kpoint 7">
       <r>  -30.0551    1.0000 </r>
       <r>  -14.9165    1.0000 </r>
       <r>  -13.7733    1.0000 </r>
       <r>  -13.7199    1.0000 </r>
       <r>  -12.0878    1.0000 </r>
       <r>  -12.0180    1.0000 </r>
       <r>  -11.6274    1.0000 </r>
       <r>   -1.6466    1.0000 </r>
       <r>   -0.6975    1.0000 </r>
       <r>   -0.3577    1.0000 </r>
       <r>   -0.2372    1.0000 </r>
       <r>    0.2142    1.0000 </r>
       <r>    0.5964    1.0000 </r>
       <r>    1.3945    1.0000 </r>
       <r>    1.5413    1.0000 </r>
       <r>    1.6705    1.0000 </r>
       <r>    4.8944    0.0000 </r>
       <r>    6.1701    0.0000 </r>
       <r>    6.1907    0.0000 </r>
       <r>   10.0108    0.0000 </r>
      </set>
      <set comment="kpoint 8">
       <r>  -30.0538    1.0000 </r>
       <r>  -14.7099    1.0000 </r>
       <r>  -13.9766    1.0000 </r>
       <r>  -13.7271    1.0000 </r>
       <r>  -12.0823    1.0000 </r>
       <r>  -11.8897    1.0000 </r>
       <r>  -11.7778    1.0000 </r>
       <r>   -1.3895    1.0000 </r>
       <r>   -0.9241    1.0000 </r>
       <r>   -0.7784    1.0000 </r>
       <r>   -0.2668    1.0000 </r>
       <r>    0.2643    1.0000 </r>
       <r>    0.8653    1.0000 </r>
       <r>    1.2140    1.0000 </r>
       <r>    1.4252    1.0000 </r>
       <r>    2.0052    1.0000 </r>
       <r>    5.5646    0.0000 </r>
       <r>    5.6888    0.0000 </r>
       <r>    5.9816    0.0000 </r>
       <r>   10.0472    0.0000 </r>
      </set>
      <set comment="kpoint 9">
       <r>  -30.0466    1.0000 </r>
       <r>  -14.6538    1.0000 </r>
       <r>  -13.9367    1.0000 </r>
       <r>  -13.7600    1.0000 </r>
       <r>  -12.0640    1.0000 </r>
       <r>  -11.8632    1.0000 </r>
       <r>  -11.7086    1.0000 </r>
       <r>   -1.7014    1.0000 </r>
       <r>   -1.4440    1.0000 </r>
       <r>   -0.9953    1.0000 </r>
       <r>   -0.2465    1.0000 </r>
       <r>   -0.0047    1.0000 </r>
       <r>    0.8292    1.0000 </r>
       <r>    1.1403    1.0000 </r>
       <r>    1.2338    1.0000 </r>
       <r>    2.1271    1.0000 </r>
       <r>    5.6415    0.0000 </r>
       <r>    6.1737    0.0000 </r>
       <r>    6.3555    0.0000 </r>
       <r>   10.4190    0.0000 </r>
      </set>
      <set comment="kpoint 10">
       <r>  -30.0398    1.0000 </r>
       <r>  -14.3537    1.0000 </r>
       <r>  -14.0508    1.0000 </r>
       <r>  -13.8902    1.0000 </r>
       <r>  -12.0447    1.0000 </r>
       <r>  -11.7596    1.0000 </r>
       <r>  -11.7449    1.0000 </r>
       <r>   -1.9198    1.0000 </r>
       <r>   -1.7917    1.0000 </r>
       <r>   -1.4972    1.0000 </r>
       <r>   -0.2489    1.0000 </r>
       <r>   -0.1825    1.0000 </r>
       <r>    0.9729    1.0000 </r>
       <r>    1.0070    1.0000 </r>
       <r>    1.0860    1.0000 </r>
       <r>    2.4516    1.0000 </r>
       <r>    6.1652    0.0000 </r>
       <r>    6.1869    0.0000 </r>
       <r>    6.6037    0.0000 </r>
       <r>   10.5908    0.0000 </r>
      </set>
      <set comment="kpoint 11">
       <r>  -30.0683    1.0000 </r>
       <r>  -14.7867    1.0000 </r>
       <r>  -13.8443    1.0000 </r>
       <r>  -13.8443    1.0000 </r>
       <r>  -12.0780    1.0000 </r>
       <r>  -12.0780    1.0000 </r>
       <r>  -11.9018    1.0000 </r>
       <r>   -0.8060    1.0000 </r>
       <r>   -0.3503    1.0000 </r>
       <r>   -0.3503    1.0000 </r>
       <r>    0.5653    1.0000 </r>
       <r>    0.5653    1.0000 </r>
       <r>    1.1621    1.0000 </r>
       <r>    1.6717    1.0000 </r>
       <r>    1.8181    1.0000 </r>
       <r>    1.8181    1.0000 </r>
       <r>    5.0094    0.0000 </r>
       <r>    5.1016    0.0000 </r>
       <r>    5.1016    0.0000 </r>
       <r>    9.0048    0.0000 </r>
      </set>
      <set comment="kpoint 12">
       <r>  -30.0589    1.0000 </r>
       <r>  -14.7744    1.0000 </r>
       <r>  -13.8558    1.0000 </r>
       <r>  -13.7900    1.0000 </r>
       <r>  -12.1166    1.0000 </r>
       <r>  -11.9924    1.0000 </r>
       <r>  -11.7681    1.0000 </r>
       <r>   -1.2227    1.0000 </r>
       <r>   -0.6262    1.0000 </r>
       <r>   -0.3646    1.0000 </r>
       <r>   -0.0150    1.0000 </r>
       <r>    0.0413    1.0000 </r>
       <r>    0.8851    1.0000 </r>
       <r>    1.5610    1.0000 </r>
       <r>    1.6517    1.0000 </r>
       <r>    1.6881    1.0000 </r>
       <r>    5.1242    0.0000 </r>
       <r>    5.6928    0.0000 </r>
       <r>    5.7002    0.0000 </r>
       <r>    9.5947    0.0000 </r>
      </set>
      <set comment="kpoint 13">
       <r>  -30.0514    1.0000 </r>
       <r>  -14.8171    1.0000 </r>
       <r>  -13.7804    1.0000 </r>
       <r>  -13.7440    1.0000 </r>
       <r>  -12.1504    1.0000 </r>
       <r>  -11.9290    1.0000 </r>
       <r>  -11.6765    1.0000 </r>
       <r>   -1.6583    1.0000 </r>
       <r>   -0.8516    1.0000 </r>
       <r>   -0.4511    1.0000 </r>
       <r>   -0.3922    1.0000 </r>
       <r>   -0.2340    1.0000 </r>
       <r>    0.9722    1.0000 </r>
       <r>    1.3057    1.0000 </r>
       <r>    1.5142    1.0000 </r>
       <r>    1.6008    1.0000 </r>
       <r>    5.1732    0.0000 </r>
       <r>    6.2004    0.0000 </r>
       <r>    6.2167    0.0000 </r>
       <r>   10.1967    0.0000 </r>
      </set>
      <set comment="kpoint 14">
       <r>  -30.0501    1.0000 </r>
       <r>  -14.6293    1.0000 </r>
       <r>  -13.9264    1.0000 </r>
       <r>  -13.7475    1.0000 </r>
       <r>  -12.1215    1.0000 </r>
       <r>  -11.9548    1.0000 </r>
       <r>  -11.7499    1.0000 </r>
       <r>   -1.4317    1.0000 </r>
       <r>   -0.9193    1.0000 </r>
       <r>   -0.7185    1.0000 </r>
       <r>   -0.4870    1.0000 </r>
       <r>   -0.1037    1.0000 </r>
       <r>    0.4445    1.0000 </r>
       <r>    1.4960    1.0000 </r>
       <r>    1.5564    1.0000 </r>
       <r>    2.0147    1.0000 </r>
       <r>    5.6985    0.0000 </r>
       <r>    5.7942    0.0000 </r>
       <r>    6.0197    0.0000 </r>
       <r>   10.1333    0.0000 </r>
      </set>
      <set comment="kpoint 15">
       <r>  -30.0430    1.0000 </r>
       <r>  -14.5568    1.0000 </r>
       <r>  -13.9015    1.0000 </r>
       <r>  -13.7309    1.0000 </r>
       <r>  -12.1583    1.0000 </r>
       <r>  -11.8717    1.0000 </r>
       <r>  -11.7636    1.0000 </r>
       <r>   -1.6989    1.0000 </r>
       <r>   -1.3767    1.0000 </r>
       <r>   -0.9855    1.0000 </r>
       <r>   -0.5075    1.0000 </r>
       <r>   -0.3619    1.0000 </r>
       <r>    0.4676    1.0000 </r>
       <r>    1.3905    1.0000 </r>
       <r>    1.4887    1.0000 </r>
       <r>    2.1364    1.0000 </r>
       <r>    5.7851    0.0000 </r>
       <r>    6.2459    0.0000 </r>
       <r>    6.3908    0.0000 </r>
       <r>   10.6662    0.0000 </r>
      </set>
      <set comment="kpoint 16">
       <r>  -30.0363    1.0000 </r>
       <r>  -14.2593    1.0000 </r>
       <r>  -13.9842    1.0000 </r>
       <r>  -13.8286    1.0000 </r>
       <r>  -12.1277    1.0000 </r>
       <r>  -11.8587    1.0000 </r>
       <r>  -11.8164    1.0000 </r>
       <r>   -1.8244    1.0000 </r>
       <r>   -1.7278    1.0000 </r>
       <r>   -1.4935    1.0000 </r>
       <r>   -0.5226    1.0000 </r>
       <r>   -0.4646    1.0000 </r>
       <r>    0.3318    1.0000 </r>
       <r>    1.4302    1.0000 </r>
       <r>    1.4741    1.0000 </r>
       <r>    2.4659    1.0000 </r>
       <r>    6.2629    0.0000 </r>
       <r>    6.2830    0.0000 </r>
       <r>    6.6426    0.0000 </r>
       <r>   10.4627    0.0000 </r>
      </set>
      <set comment="kpoint 17">
       <r>  -30.0417    1.0000 </r>
       <r>  -14.4463    1.0000 </r>
       <r>  -13.7996    1.0000 </r>
       <r>  -13.7996    1.0000 </r>
       <r>  -12.1148    1.0000 </r>
       <r>  -12.1148    1.0000 </r>
       <r>  -11.7664    1.0000 </r>
       <r>   -1.5218    1.0000 </r>
       <r>   -0.9077    1.0000 </r>
       <r>   -0.9077    1.0000 </r>
       <r>   -0.5679    1.0000 </r>
       <r>   -0.5679    1.0000 </r>
       <r>   -0.5442    1.0000 </r>
       <r>    1.8036    1.0000 </r>
       <r>    1.8036    1.0000 </r>
       <r>    2.1438    1.0000 </r>
       <r>    6.0706    0.0000 </r>
       <r>    6.1192    0.0000 </r>
       <r>    6.1192    0.0000 </r>
       <r>   10.3835    0.0000 </r>
      </set>
      <set comment="kpoint 18">
       <r>  -30.0349    1.0000 </r>
       <r>  -14.3066    1.0000 </r>
       <r>  -13.8359    1.0000 </r>
       <r>  -13.6780    1.0000 </r>
       <r>  -12.2637    1.0000 </r>
       <r>  -12.0092    1.0000 </r>
       <r>  -11.8672    1.0000 </r>
       <r>   -1.7000    1.0000 </r>
       <r>   -1.3098    1.0000 </r>
       <r>   -1.0011    1.0000 </r>
       <r>   -0.8962    1.0000 </r>
       <r>   -0.8242    1.0000 </r>
       <r>   -0.4354    1.0000 </r>
       <r>    1.8337    1.0000 </r>
       <r>    1.9676    1.0000 </r>
       <r>    2.2463    1.0000 </r>
       <r>    6.1675    0.0000 </r>
       <r>    6.4576    0.0000 </r>
       <r>    6.4821    0.0000 </r>
       <r>   10.5797    0.0000 </r>
      </set>
      <set comment="kpoint 19">
       <r>  -30.0284    1.0000 </r>
       <r>  -14.0240    1.0000 </r>
       <r>  -13.8087    1.0000 </r>
       <r>  -13.6907    1.0000 </r>
       <r>  -12.2846    1.0000 </r>
       <r>  -12.1067    1.0000 </r>
       <r>  -12.0127    1.0000 </r>
       <r>   -1.7920    1.0000 </r>
       <r>   -1.4848    1.0000 </r>
       <r>   -1.4138    1.0000 </r>
       <r>   -0.9410    1.0000 </r>
       <r>   -0.8505    1.0000 </r>
       <r>   -0.7458    1.0000 </r>
       <r>    2.0570    1.0000 </r>
       <r>    2.0931    1.0000 </r>
       <r>    2.5021    1.0000 </r>
       <r>    6.5269    0.0000 </r>
       <r>    6.5390    0.0000 </r>
       <r>    6.7318    0.0000 </r>
       <r>   10.0794    0.0000 </r>
      </set>
      <set comment="kpoint 20">
       <r>  -30.0221    1.0000 </r>
       <r>  -13.7671    1.0000 </r>
       <r>  -13.6226    1.0000 </r>
       <r>  -13.6226    1.0000 </r>
       <r>  -12.3500    1.0000 </r>
       <r>  -12.3500    1.0000 </r>
       <r>  -12.2366    1.0000 </r>
       <r>   -1.8802    1.0000 </r>
       <r>   -1.4769    1.0000 </r>
       <r>   -1.4769    1.0000 </r>
       <r>   -1.1752    1.0000 </r>
       <r>   -1.0674    1.0000 </r>
       <r>   -1.0674    1.0000 </r>
       <r>    2.4693    1.0000 </r>
       <r>    2.4693    1.0000 </r>
       <r>    2.5568    1.0000 </r>
       <r>    6.8030    0.0000 </r>
       <r>    6.8090    0.0000 </r>
       <r>    9.7855    0.0000 </r>
       <r>    9.8223    0.0000 </r>
      </set>
     </set>
    </set>
   </array>
  </eigenvalues>
  <separator name="orbital magnetization" >
   <v name="MAGDIPOLOUT">      0.00000000      0.00000000      0.00000000</v>
  </separator>
  <dos>
   <i name="efermi">      2.61855605 </i>
   <total>
    <array>
     <dimension dim="1">gridpoints</dimension>
     <dimension dim="2">spin</dimension>
     <field>energy</field>
     <field>total</field>
     <field>integrated</field>
     <set>
      <set comment="spin 1">
       <r>   -32.1185     0.0000     0.0000 </r>
       <r>   -31.9691     0.0000     0.0000 </r>
       <r>   -31.8197     0.0000     0.0000 </r>
       <r>   -31.6703     0.0000     0.0000 </r>
       <r>   -31.5209     0.0000     0.0000 </r>
       <r>   -31.3715     0.0000     0.0000 </r>
       <r>   -31.2221     0.0000     0.0000 </r>
       <r>   -31.0727     0.0000     0.0000 </r>
       <r>   -30.9233     0.0000     0.0000 </r>
       <r>   -30.7739     0.0000     0.0000 </r>
       <r>   -30.6245     0.0000     0.0000 </r>
       <r>   -30.4751     0.0000     0.0000 </r>
       <r>   -30.3257     0.0000     0.0000 </r>
       <r>   -30.1762     0.0000     0.0000 </r>
       <r>   -30.0268    15.7583     1.9454 </r>
       <r>   -29.8774     0.0000     2.0000 </r>
       <r>   -29.7280     0.0000     2.0000 </r>
       <r>   -29.5786     0.0000     2.0000 </r>
       <r>   -29.4292     0.0000     2.0000 </r>
       <r>   -29.2798     0.0000     2.0000 </r>
       <r>   -29.1304     0.0000     2.0000 </r>
       <r>   -28.9810     0.0000     2.0000 </r>
       <r>   -28.8316     0.0000     2.0000 </r>
       <r>   -28.6822     0.0000     2.0000 </r>
       <r>   -28.5328     0.0000     2.0000 </r>
       <r>   -28.3834     0.0000     2.0000 </r>
       <r>   -28.2340     0.0000     2.0000 </r>
       <r>   -28.0846     0.0000     2.0000 </r>
       <r>   -27.9351     0.0000     2.0000 </r>
       <r>   -27.7857     0.0000     2.0000 </r>
       <r>   -27.6363     0.0000     2.0000 </r>
       <r>   -27.4869     0.0000     2.0000 </r>
       <r>   -27.3375     0.0000     2.0000 </r>
       <r>   -27.1881     0.0000     2.0000 </r>
       <r>   -27.0387     0.0000     2.0000 </r>
       <r>   -26.8893     0.0000     2.0000 </r>
       <r>   -26.7399     0.0000     2.0000 </r>
       <r>   -26.5905     0.0000     2.0000 </r>
       <r>   -26.4411     0.0000     2.0000 </r>
       <r>   -26.2917     0.0000     2.0000 </r>
       <r>   -26.1423     0.0000     2.0000 </r>
       <r>   -25.9929     0.0000     2.0000 </r>
       <r>   -25.8434     0.0000     2.0000 </r>
       <r>   -25.6940     0.0000     2.0000 </r>
       <r>   -25.5446     0.0000     2.0000 </r>
       <r>   -25.3952     0.0000     2.0000 </r>
       <r>   -25.2458     0.0000     2.0000 </r>
       <r>   -25.0964     0.0000     2.0000 </r>
       <r>   -24.9470     0.0000     2.0000 </r>
       <r>   -24.7976     0.0000     2.0000 </r>
       <r>   -24.6482     0.0000     2.0000 </r>
       <r>   -24.4988     0.0000     2.0000 </r>
       <r>   -24.3494     0.0000     2.0000 </r>
       <r>   -24.2000     0.0000     2.0000 </r>
       <r>   -24.0506     0.0000     2.0000 </r>
       <r>   -23.9012     0.0000     2.0000 </r>
       <r>   -23.7518     0.0000     2.0000 </r>
       <r>   -23.6023     0.0000     2.0000 </r>
       <r>   -23.4529     0.0000     2.0000 </r>
       <r>   -23.3035     0.0000     2.0000 </r>
       <r>   -23.1541     0.0000     2.0000 </r>
       <r>   -23.0047     0.0000     2.0000 </r>
       <r>   -22.8553     0.0000     2.0000 </r>
       <r>   -22.7059     0.0000     2.0000 </r>
       <r>   -22.5565     0.0000     2.0000 </r>
       <r>   -22.4071     0.0000     2.0000 </r>
       <r>   -22.2577     0.0000     2.0000 </r>
       <r>   -22.1083     0.0000     2.0000 </r>
       <r>   -21.9589     0.0000     2.0000 </r>
       <r>   -21.8095     0.0000     2.0000 </r>
       <r>   -21.6601     0.0000     2.0000 </r>
       <r>   -21.5107     0.0000     2.0000 </r>
       <r>   -21.3612     0.0000     2.0000 </r>
       <r>   -21.2118     0.0000     2.0000 </r>
       <r>   -21.0624     0.0000     2.0000 </r>
       <r>   -20.9130     0.0000     2.0000 </r>
       <r>   -20.7636     0.0000     2.0000 </r>
       <r>   -20.6142     0.0000     2.0000 </r>
       <r>   -20.4648     0.0000     2.0000 </r>
       <r>   -20.3154     0.0000     2.0000 </r>
       <r>   -20.1660     0.0000     2.0000 </r>
       <r>   -20.0166     0.0000     2.0000 </r>
       <r>   -19.8672     0.0000     2.0000 </r>
       <r>   -19.7178     0.0000     2.0000 </r>
       <r>   -19.5684     0.0000     2.0000 </r>
       <r>   -19.4190     0.0000     2.0000 </r>
       <r>   -19.2695     0.0000     2.0000 </r>
       <r>   -19.1201     0.0000     2.0000 </r>
       <r>   -18.9707     0.0000     2.0000 </r>
       <r>   -18.8213     0.0000     2.0000 </r>
       <r>   -18.6719     0.0000     2.0000 </r>
       <r>   -18.5225     0.0000     2.0000 </r>
       <r>   -18.3731     0.0000     2.0000 </r>
       <r>   -18.2237     0.0000     2.0000 </r>
       <r>   -18.0743     0.0000     2.0000 </r>
       <r>   -17.9249     0.0000     2.0000 </r>
       <r>   -17.7755     0.0000     2.0000 </r>
       <r>   -17.6261     0.0000     2.0000 </r>
       <r>   -17.4767     0.0000     2.0000 </r>
       <r>   -17.3273     0.0000     2.0000 </r>
       <r>   -17.1779     0.0000     2.0000 </r>
       <r>   -17.0284     0.0000     2.0000 </r>
       <r>   -16.8790     0.0000     2.0000 </r>
       <r>   -16.7296     0.0000     2.0000 </r>
       <r>   -16.5802     0.0000     2.0000 </r>
       <r>   -16.4308     0.0000     2.0000 </r>
       <r>   -16.2814     0.0000     2.0000 </r>
       <r>   -16.1320     0.0000     2.0000 </r>
       <r>   -15.9826     0.0000     2.0000 </r>
       <r>   -15.8332     0.0000     2.0000 </r>
       <r>   -15.6838     0.0000     2.0000 </r>
       <r>   -15.5344     0.0000     2.0000 </r>
       <r>   -15.3850     0.0000     2.0000 </r>
       <r>   -15.2356     0.0000     2.0000 </r>
       <r>   -15.0862     0.0000     2.0000 </r>
       <r>   -14.9367     1.0840     2.0362 </r>
       <r>   -14.7873     4.1342     2.5681 </r>
       <r>   -14.6379     2.7503     3.0343 </r>
       <r>   -14.4885     1.8942     3.3650 </r>
       <r>   -14.3391     1.7763     3.6218 </r>
       <r>   -14.1897     0.8524     3.8078 </r>
       <r>   -14.0403     1.2808     3.9158 </r>
       <r>   -13.8909    10.6292     4.6391 </r>
       <r>   -13.7415    28.9836     7.1238 </r>
       <r>   -13.5921     0.0000     8.0000 </r>
       <r>   -13.4427     0.0000     8.0000 </r>
       <r>   -13.2933     0.0000     8.0000 </r>
       <r>   -13.1439     0.0000     8.0000 </r>
       <r>   -12.9945     0.0000     8.0000 </r>
       <r>   -12.8451     0.0000     8.0000 </r>
       <r>   -12.6956     0.0000     8.0000 </r>
       <r>   -12.5462     0.0000     8.0000 </r>
       <r>   -12.3968     0.0000     8.0000 </r>
       <r>   -12.2474     2.6564     8.2243 </r>
       <r>   -12.0980    25.4149     9.8354 </r>
       <r>   -11.9486     9.7545    11.3797 </r>
       <r>   -11.7992     7.9826    12.6641 </r>
       <r>   -11.6498     2.5992    13.9086 </r>
       <r>   -11.5004     0.0000    14.0000 </r>
       <r>   -11.3510     0.0000    14.0000 </r>
       <r>   -11.2016     0.0000    14.0000 </r>
       <r>   -11.0522     0.0000    14.0000 </r>
       <r>   -10.9028     0.0000    14.0000 </r>
       <r>   -10.7534     0.0000    14.0000 </r>
       <r>   -10.6040     0.0000    14.0000 </r>
       <r>   -10.4545     0.0000    14.0000 </r>
       <r>   -10.3051     0.0000    14.0000 </r>
       <r>   -10.1557     0.0000    14.0000 </r>
       <r>   -10.0063     0.0000    14.0000 </r>
       <r>    -9.8569     0.0000    14.0000 </r>
       <r>    -9.7075     0.0000    14.0000 </r>
       <r>    -9.5581     0.0000    14.0000 </r>
       <r>    -9.4087     0.0000    14.0000 </r>
       <r>    -9.2593     0.0000    14.0000 </r>
       <r>    -9.1099     0.0000    14.0000 </r>
       <r>    -8.9605     0.0000    14.0000 </r>
       <r>    -8.8111     0.0000    14.0000 </r>
       <r>    -8.6617     0.0000    14.0000 </r>
       <r>    -8.5123     0.0000    14.0000 </r>
       <r>    -8.3628     0.0000    14.0000 </r>
       <r>    -8.2134     0.0000    14.0000 </r>
       <r>    -8.0640     0.0000    14.0000 </r>
       <r>    -7.9146     0.0000    14.0000 </r>
       <r>    -7.7652     0.0000    14.0000 </r>
       <r>    -7.6158     0.0000    14.0000 </r>
       <r>    -7.4664     0.0000    14.0000 </r>
       <r>    -7.3170     0.0000    14.0000 </r>
       <r>    -7.1676     0.0000    14.0000 </r>
       <r>    -7.0182     0.0000    14.0000 </r>
       <r>    -6.8688     0.0000    14.0000 </r>
       <r>    -6.7194     0.0000    14.0000 </r>
       <r>    -6.5700     0.0000    14.0000 </r>
       <r>    -6.4206     0.0000    14.0000 </r>
       <r>    -6.2712     0.0000    14.0000 </r>
       <r>    -6.1217     0.0000    14.0000 </r>
       <r>    -5.9723     0.0000    14.0000 </r>
       <r>    -5.8229     0.0000    14.0000 </r>
       <r>    -5.6735     0.0000    14.0000 </r>
       <r>    -5.5241     0.0000    14.0000 </r>
       <r>    -5.3747     0.0000    14.0000 </r>
       <r>    -5.2253     0.0000    14.0000 </r>
       <r>    -5.0759     0.0000    14.0000 </r>
       <r>    -4.9265     0.0000    14.0000 </r>
       <r>    -4.7771     0.0000    14.0000 </r>
       <r>    -4.6277     0.0000    14.0000 </r>
       <r>    -4.4783     0.0000    14.0000 </r>
       <r>    -4.3289     0.0000    14.0000 </r>
       <r>    -4.1795     0.0000    14.0000 </r>
       <r>    -4.0300     0.0000    14.0000 </r>
       <r>    -3.8806     0.0000    14.0000 </r>
       <r>    -3.7312     0.0000    14.0000 </r>
       <r>    -3.5818     0.0000    14.0000 </r>
       <r>    -3.4324     0.0000    14.0000 </r>
       <r>    -3.2830     0.0000    14.0000 </r>
       <r>    -3.1336     0.0000    14.0000 </r>
       <r>    -2.9842     0.0000    14.0000 </r>
       <r>    -2.8348     0.0000    14.0000 </r>
       <r>    -2.6854     0.0000    14.0000 </r>
       <r>    -2.5360     0.0000    14.0000 </r>
       <r>    -2.3866     0.0000    14.0000 </r>
       <r>    -2.2372     0.0000    14.0000 </r>
       <r>    -2.0878     0.0000    14.0000 </r>
       <r>    -1.9384     0.0000    14.0000 </r>
       <r>    -1.7889     4.1410    14.2631 </r>
       <r>    -1.6395     6.1051    15.1319 </r>
       <r>    -1.4901     3.8904    15.6730 </r>
       <r>    -1.3407     4.2384    16.4702 </r>
       <r>    -1.1913     3.2972    16.9979 </r>
       <r>    -1.0419     3.8417    17.5315 </r>
       <r>    -0.8925     4.7103    18.2251 </r>
       <r>    -0.7431     5.0338    18.9819 </r>
       <r>    -0.5937     5.3579    19.7570 </r>
       <r>    -0.4443     6.6334    20.6654 </r>
       <r>    -0.2949     9.6813    21.8666 </r>
       <r>    -0.1455     3.5260    22.7999 </r>
       <r>     0.0039     2.7898    23.2887 </r>
       <r>     0.1533     2.3115    23.6679 </r>
       <r>     0.3027     1.8831    23.9929 </r>
       <r>     0.4522     1.9931    24.2685 </r>
       <r>     0.6016     2.9600    24.6480 </r>
       <r>     0.7510     3.2482    25.1123 </r>
       <r>     0.9004     2.6149    25.6110 </r>
       <r>     1.0498     1.2618    25.8240 </r>
       <r>     1.1992     2.8578    26.1075 </r>
       <r>     1.3486     6.3887    26.7515 </r>
       <r>     1.4980     8.0878    27.7346 </r>
       <r>     1.6474     5.8940    28.7550 </r>
       <r>     1.7968     5.7878    29.6324 </r>
       <r>     1.9462     4.2876    30.3905 </r>
       <r>     2.0956     3.2641    30.9444 </r>
       <r>     2.2450     2.4056    31.3891 </r>
       <r>     2.3944     1.8515    31.7043 </r>
       <r>     2.5439     0.8523    31.9845 </r>
       <r>     2.6933     0.0000    32.0000 </r>
       <r>     2.8427     0.0000    32.0000 </r>
       <r>     2.9921     0.0000    32.0000 </r>
       <r>     3.1415     0.0000    32.0000 </r>
       <r>     3.2909     0.0000    32.0000 </r>
       <r>     3.4403     0.0000    32.0000 </r>
       <r>     3.5897     0.0000    32.0000 </r>
       <r>     3.7391     0.0000    32.0000 </r>
       <r>     3.8885     0.0000    32.0000 </r>
       <r>     4.0379     0.0000    32.0000 </r>
       <r>     4.1873     0.0000    32.0000 </r>
       <r>     4.3367     0.0000    32.0000 </r>
       <r>     4.4861     0.2252    32.0168 </r>
       <r>     4.6355     0.6320    32.0804 </r>
       <r>     4.7850     1.0713    32.2061 </r>
       <r>     4.9344     1.5673    32.4261 </r>
       <r>     5.0838     1.4247    32.6524 </r>
       <r>     5.2332     1.5070    32.8662 </r>
       <r>     5.3826     1.7106    33.1065 </r>
       <r>     5.5320     1.9210    33.3777 </r>
       <r>     5.6814     2.9067    33.7162 </r>
       <r>     5.8308     3.2061    34.1799 </r>
       <r>     5.9802     3.6082    34.6885 </r>
       <r>     6.1296     4.1604    35.2665 </r>
       <r>     6.2790     5.2038    36.4234 </r>
       <r>     6.4284     3.7908    37.0731 </r>
       <r>     6.5778     2.4719    37.5539 </r>
       <r>     6.7272     1.0427    37.8481 </r>
       <r>     6.8767     0.0602    37.8985 </r>
       <r>     7.0261     0.0568    37.9073 </r>
       <r>     7.1755     0.0535    37.9155 </r>
       <r>     7.3249     0.0504    37.9233 </r>
       <r>     7.4743     0.0473    37.9306 </r>
       <r>     7.6237     0.0443    37.9374 </r>
       <r>     7.7731     0.0414    37.9438 </r>
       <r>     7.9225     0.0386    37.9498 </r>
       <r>     8.0719     0.0369    37.9554 </r>
       <r>     8.2213     0.0553    37.9619 </r>
       <r>     8.3707     0.1012    37.9733 </r>
       <r>     8.5201     0.1580    37.9930 </r>
       <r>     8.6695     0.1860    38.0190 </r>
       <r>     8.8189     0.2031    38.0479 </r>
       <r>     8.9683     0.2331    38.0804 </r>
       <r>     9.1178     0.2765    38.1182 </r>
       <r>     9.2672     0.3346    38.1637 </r>
       <r>     9.4166     0.4079    38.2190 </r>
       <r>     9.5660     0.5406    38.2873 </r>
       <r>     9.7154     0.6714    38.3785 </r>
       <r>     9.8648     1.0025    38.5057 </r>
       <r>    10.0142     1.5191    38.6984 </r>
       <r>    10.1636     1.6033    38.9283 </r>
       <r>    10.3130     1.9227    39.1911 </r>
       <r>    10.4624     2.9042    39.5148 </r>
       <r>    10.6118     1.7824    39.9390 </r>
       <r>    10.7612     0.0000    40.0000 </r>
       <r>    10.9106     0.0000    40.0000 </r>
       <r>    11.0600     0.0000    40.0000 </r>
       <r>    11.2095     0.0000    40.0000 </r>
       <r>    11.3589     0.0000    40.0000 </r>
       <r>    11.5083     0.0000    40.0000 </r>
       <r>    11.6577     0.0000    40.0000 </r>
       <r>    11.8071     0.0000    40.0000 </r>
       <r>    11.9565     0.0000    40.0000 </r>
       <r>    12.1059     0.0000    40.0000 </r>
       <r>    12.2553     0.0000    40.0000 </r>
       <r>    12.4047     0.0000    40.0000 </r>
       <r>    12.5541     0.0000    40.0000 </r>
       <r>    12.7035     0.0000    40.0000 </r>
      </set>
     </set>
    </array>
   </total>
  </dos>
 </calculation>
 <structure name="finalpos" >
  <crystal>
   <varray name="basis" >
    <v>       3.90526800       0.00000000       0.00000000 </v>
    <v>       0.00000000       3.90526800       0.00000000 </v>
    <v>       0.00000000       0.00000000       3.90526800 </v>
   </varray>
   <i name="volume">     59.55970368 </i>
   <varray name="rec_basis" >
    <v>       0.25606437       0.00000000       0.00000000 </v>
    <v>       0.00000000       0.25606437       0.00000000 </v>
    <v>       0.00000000       0.00000000       0.25606437 </v>
   </varray>
  </crystal>
  <varray name="positions" >
   <v>       0.00000000       0.00000000       0.00000000 </v>
   <v>       0.50000000       0.50000000       0.50000000 </v>
   <v>       0.50000000       0.50000000       0.00000000 </v>
   <v>       0.50000000       0.00000000       0.50000000 </v>
   <v>       0.00000000       0.50000000       0.50000000 </v>
  </varray>
 </structure>
</modeling>
