unknown system                          
   1.00000000000000     
     5.581684    0.000000    0.000000
     0.000000    3.946846    0.000000
     0.000000    0.000000   23.163367
   O    Sr   Ti
    12     4     4
Direct
  0.199014  0.500000  0.213458
  0.534050  0.000000  0.251990
  0.296034  0.500000  0.327672
  0.794481  0.500000  0.310377
  0.013624  0.000000  0.378552
  0.736548  0.500000  0.432902
  0.236548  0.500000  0.446613
  0.513624  0.000000  0.500963
  0.294481  0.500000  0.569138
  0.796034  0.500000  0.551842
  0.034050  0.000000  0.627525
  0.699014  0.500000  0.666057
  0.991059  0.000000  0.257471
  0.494017  0.000000  0.381886
  0.994017  0.000000  0.497628
  0.491059  0.000000  0.622044
  0.458168  0.500000  0.258529
  0.983005  0.500000  0.377322
  0.483005  0.500000  0.502193
  0.958168  0.500000  0.620986
 
   32   24  128
 0.43687E-13 0.34972E-13 0.63394E-13 0.30315E-12 0.21977E-11 0.17630E-12 0.22576E-12 0.18154E-12 0.27007E-12 0.44309E-12
 0.60404E-12 0.50321E-12 0.20539E-14 0.11991E-10 0.27338E-11 0.23975E-12 0.73497E-13 0.50154E-13 0.78049E-13 0.31969E-12
 0.25057E-11 0.68072E-10 0.20595E-12 0.15114E-12 0.18738E-12 0.13865E-12 0.14894E-12 0.16254E-12 0.57176E-13 0.70147E-11
 0.10433E-11 0.12204E-12 0.63977E-13 0.51459E-13 0.94313E-13 0.46674E-12 0.32080E-11 0.10325E-13 0.30426E-12 0.24541E-12
 0.37574E-12 0.69792E-12 0.11258E-11 0.97111E-12 0.22932E-12 0.16431E-10 0.42857E-11 0.35422E-12 0.10647E-12 0.72609E-13
 0.11346E-12 0.47939E-12 0.38746E-11 0.77614E-10 0.39330E-12 0.30889E-12 0.37712E-12 0.24455E-12 0.27406E-12 0.31419E-12
 0.29976E-14 0.10131E-10 0.16460E-11 0.18230E-12 0.21494E-12 0.17097E-12 0.32546E-12 0.18229E-11 0.11377E-10 0.98865E-12
 0.55245E-12 0.44826E-12 0.76334E-12 0.20254E-11 0.56882E-11 0.70096E-11 0.86537E-11 0.38594E-10 0.19242E-10 0.12640E-11
 0.35499E-12 0.23692E-12 0.38336E-12 0.18021E-11 0.14669E-10 0.17621E-10 0.21681E-11 0.29270E-11 0.30683E-11 0.12742E-11
 0.14385E-11 0.21064E-11 0.34222E-11 0.28323E-10 0.71902E-11 0.64954E-12 0.19654E-11 0.15486E-11 0.32093E-11 0.20370E-10
 0.27960E-11 0.37494E-11 0.84385E-12 0.68769E-12 0.12535E-11 0.45202E-11 0.27012E-10 0.11570E-09 0.38589E-09 0.38503E-12
 0.21467E-09 0.10607E-10 0.26791E-11 0.17278E-11 0.28936E-11 0.15648E-10 0.14745E-09 0.32202E-10 0.14279E-10 0.12774E-09
 0.72158E-10 0.71471E-11 0.68846E-11 0.20723E-10 0.14984E-09 0.21380E-11 0.11524E-09 0.67438E-11 0.80672E-10 0.52420E-10
 0.95356E-10 0.88188E-10 0.10017E-09 0.39780E-11 0.97468E-12 0.71952E-12 0.13695E-11 0.57207E-11 0.41733E-10 0.47523E-09
 0.11330E-07 0.16841E-06 0.12703E-07 0.19804E-08 0.23217E-09 0.12233E-09 0.26347E-09 0.30778E-08 0.36810E-08 0.70894E-10
 0.33759E-10 0.15022E-08 0.28714E-09 0.11274E-10 0.10108E-10 0.51518E-10 0.12969E-08 0.66886E-07 0.31193E-09 0.43228E-09
 0.18937E-07 0.25709E-06 0.16856E-06 0.64766E-06 0.94756E-10 0.43653E-11 0.11407E-11 0.79034E-12 0.14878E-11 0.61313E-11
 0.41517E-10 0.51889E-09 0.12072E-07 0.25033E-05 0.11997E-07 0.95817E-10 0.12219E-11 0.14821E-13 0.19268E-11 0.81750E-10
 0.22485E-04 0.69891E-10 0.50802E-10 0.16892E-08 0.30237E-09 0.11927E-10 0.90634E-11 0.51685E-10 0.15273E-08 0.38334E-06
 0.14282E-04 0.55593E-07 0.11199E-05 0.64663E-04 0.25367E-06 0.27311E-03 0.16087E-09 0.69191E-11 0.15182E-11 0.10928E-11
 0.22090E-11 0.95880E-11 0.63309E-10 0.62689E-09 0.17849E-07 0.20081E-05 0.14465E-07 0.12505E-09 0.11234E-10 0.42409E-11
 0.55494E-11 0.66241E-10 0.89689E-05 0.12629E-09 0.58217E-10 0.20479E-08 0.49095E-09 0.18190E-10 0.12881E-10 0.59716E-10
 0.18139E-08 0.51377E-06 0.57577E-03 0.29530E-05 0.16358E-04 0.12907E-04 0.76342E-06 0.48451E-06 0.16959E-09 0.61830E-11
 0.17281E-11 0.13628E-11 0.21450E-11 0.89478E-11 0.73139E-10 0.69534E-09 0.18937E-07 0.12284E-05 0.13605E-07 0.18538E-09
 0.16731E-10 0.61110E-11 0.99589E-11 0.12306E-09 0.34033E-03 0.11640E-09 0.86792E-10 0.20169E-07 0.35920E-09 0.16184E-10
 0.14753E-10 0.65449E-10 0.18591E-08 0.25522E-06 0.22368E-05 0.74171E-06 0.93705E-05 0.33683E-05 0.23425E-06 0.21076E-05
 0.35080E-08 0.71494E-09 0.21927E-09 0.28872E-09 0.11556E-08 0.10525E-08 0.21167E-09 0.76875E-09 0.28731E-07 0.49368E-05
 0.13016E-07 0.19237E-09 0.19078E-10 0.75358E-11 0.11796E-10 0.12147E-09 0.54141E-05 0.32454E-09 0.15059E-09 0.15878E-09
 0.86991E-09 0.89456E-08 0.70555E-09 0.97676E-09 0.82640E-08 0.36173E-06 0.12970E-05 0.81847E-06 0.62531E-07 0.36840E-07
 0.38824E-07 0.46347E-08 0.58406E-10 0.18084E-09 0.44665E-09 0.72159E-09 0.93401E-09 0.39034E-09 0.18035E-10 0.82860E-11
 0.98511E-10 0.46200E-07 0.53393E-08 0.17268E-09 0.17854E-10 0.74589E-11 0.11198E-10 0.18478E-09 0.24086E-08 0.15011E-09
 0.25846E-09 0.35644E-09 0.59223E-09 0.57920E-09 0.10182E-09 0.22553E-10 0.16870E-09 0.35957E-07 0.29953E-07 0.23313E-07
 0.78147E-09 0.88906E-09 0.32958E-08 0.14497E-09 0.29196E-09 0.97718E-09 0.22339E-08 0.37708E-08 0.57116E-08 0.32339E-08
 0.15915E-09 0.94500E-11 0.59287E-11 0.56994E-09 0.40536E-09 0.91469E-10 0.14819E-10 0.67393E-11 0.13140E-10 0.45177E-09
 0.19830E-09 0.46132E-09 0.95683E-09 0.15646E-08 0.28940E-08 0.35755E-08 0.78269E-09 0.11253E-09 0.17854E-10 0.16516E-08
 0.38831E-09 0.49590E-09 0.80974E-10 0.92437E-10 0.21014E-08 0.63238E-10 0.58777E-09 0.19762E-08 0.44888E-08 0.76163E-08
 0.11415E-07 0.72230E-08 0.46686E-09 0.27846E-10 0.25539E-11 0.62299E-10 0.57735E-10 0.28934E-10 0.85454E-11 0.43646E-11
 0.13900E-10 0.10722E-09 0.43995E-09 0.11126E-08 0.22592E-08 0.36774E-08 0.64458E-08 0.75311E-08 0.18618E-08 0.27558E-09
 0.35575E-10 0.19244E-09 0.44941E-10 0.51430E-10 0.39809E-10 0.44684E-10 0.16979E-08 0.85787E-10 0.77172E-09 0.25590E-08
 0.57757E-08 0.98312E-08 0.14857E-07 0.97871E-08 0.67340E-09 0.40283E-10 0.35891E-11 0.34624E-10 0.33065E-10 0.17875E-10
 0.67135E-11 0.35073E-11 0.16085E-10 0.85260E-10 0.56812E-09 0.14348E-08 0.29306E-08 0.48123E-08 0.84152E-08 0.98966E-08
 0.25424E-08 0.37878E-09 0.48858E-10 0.11138E-09 0.26123E-10 0.24619E-10 0.80967E-10 0.92669E-10 0.17520E-08 0.64559E-10
 0.60670E-09 0.20249E-08 0.45877E-08 0.77997E-08 0.11802E-07 0.75135E-08 0.47560E-09 0.28142E-10 0.25795E-11 0.64068E-10
 0.58618E-10 0.28913E-10 0.86195E-11 0.43687E-11 0.15288E-10 0.13935E-09 0.43633E-09 0.10862E-08 0.22283E-08 0.36614E-08
 0.64975E-08 0.77435E-08 0.19176E-08 0.28233E-09 0.36420E-10 0.20383E-09 0.45277E-10 0.51320E-10 0.78018E-09 0.88233E-09
 0.42267E-08 0.13117E-09 0.25426E-09 0.88691E-09 0.20550E-08 0.34454E-08 0.50220E-08 0.27848E-08 0.14904E-09 0.90921E-11
 0.56945E-11 0.50285E-09 0.40528E-09 0.90345E-10 0.14653E-10 0.67081E-11 0.12122E-10 0.20172E-09 0.20585E-09 0.50844E-09
 0.10087E-08 0.15905E-08 0.28073E-08 0.32120E-08 0.70249E-09 0.10279E-09 0.16226E-10 0.12365E-08 0.38761E-09 0.49984E-09
 0.63840E-07 0.34699E-07 0.37209E-07 0.11787E-07 0.14363E-09 0.30319E-09 0.67324E-09 0.11119E-08 0.17652E-08 0.78991E-09
 0.23752E-10 0.98716E-11 0.12325E-09 0.90759E-07 0.54054E-08 0.18371E-09 0.18284E-10 0.76138E-11 0.11530E-10 0.44491E-09
 0.18255E-08 0.87517E-10 0.19830E-09 0.32966E-09 0.68746E-09 0.98470E-09 0.16420E-09 0.34419E-10 0.28853E-09 0.25226E-06
 0.27746E-07 0.23306E-07 0.72566E-05 0.79880E-05 0.23258E-06 0.14794E-04 0.21132E-09 0.28918E-10 0.12559E-10 0.15011E-10
 0.18537E-10 0.34665E-10 0.52699E-10 0.27652E-09 0.10532E-07 0.62480E-05 0.13576E-07 0.19940E-09 0.19563E-10 0.76124E-11
 0.12038E-10 0.12087E-09 0.17479E-06 0.26170E-07 0.19715E-08 0.33256E-09 0.20193E-09 0.10964E-09 0.63995E-10 0.13685E-09
 0.16344E-08 0.35736E-06 0.15226E-05 0.78952E-06 0.33325E-05 0.77600E-05 0.17558E-06 0.79329E-06 0.15523E-09 0.72273E-11
 0.25628E-11 0.21521E-11 0.29844E-11 0.10517E-10 0.83925E-10 0.83620E-09 0.19757E-07 0.96616E-06 0.14750E-07 0.20510E-09
 0.18283E-10 0.65969E-11 0.10867E-10 0.13337E-09 0.24025E-04 0.10628E-09 0.48930E-10 0.13596E-08 0.15124E-08 0.24485E-10
 0.18945E-10 0.74876E-10 0.18370E-08 0.25413E-06 0.53978E-05 0.29922E-05 0.12375E-05 0.13633E-02 0.37272E-06 0.71948E-06
 0.13310E-09 0.67223E-11 0.15410E-11 0.11114E-11 0.22163E-11 0.91684E-11 0.55773E-10 0.55897E-09 0.16493E-07 0.54486E-06
 0.84852E-08 0.11777E-09 0.11760E-10 0.45040E-11 0.56752E-11 0.58331E-10 0.34371E-05 0.13468E-09 0.55130E-10 0.18643E-08
 0.51325E-09 0.18279E-10 0.12407E-10 0.57034E-10 0.16976E-08 0.22377E-06 0.37064E-05 0.12246E-05 0.26140E-06 0.65042E-08
 0.19696E-07 0.48607E-06 0.96790E-10 0.46270E-11 0.11887E-11 0.82353E-12 0.15585E-11 0.64347E-11 0.42809E-10 0.52503E-09
 0.17062E-07 0.72797E-03 0.84309E-08 0.15269E-09 0.39013E-11 0.51070E-13 0.39949E-11 0.84208E-10 0.16082E-05 0.61094E-10
 0.47870E-10 0.15283E-08 0.35107E-09 0.12564E-10 0.91646E-11 0.51311E-10 0.16257E-08 0.39377E-06 0.35578E-05 0.54864E-06
 0.75222E-10 0.58807E-10 0.13223E-09 0.30111E-10 0.87083E-10 0.40384E-11 0.97045E-12 0.72599E-12 0.13801E-11 0.57035E-11
 0.41783E-10 0.43615E-09 0.89694E-08 0.18163E-06 0.11095E-10 0.11037E-09 0.36033E-10 0.22988E-10 0.33042E-10 0.92409E-10
 0.89623E-08 0.62012E-10 0.35628E-10 0.14113E-08 0.30734E-09 0.11371E-10 0.10255E-10 0.50185E-10 0.12471E-08 0.55692E-07
 0.39457E-11 0.28178E-09 0.19774E-11 0.15324E-11 0.31255E-11 0.21779E-10 0.68268E-11 0.38142E-11 0.85290E-12 0.69480E-12
 0.12673E-11 0.45824E-11 0.27349E-10 0.12256E-09 0.37725E-09 0.50215E-12 0.38114E-09 0.13617E-10 0.32572E-11 0.20825E-11
 0.36152E-11 0.21696E-10 0.13285E-09 0.25283E-10 0.14469E-10 0.12509E-09 0.72269E-10 0.72641E-11 0.69846E-11 0.21399E-10
 0.14960E-09 0.27969E-11 0.13077E-09 0.69389E-11 0.21450E-12 0.17147E-12 0.32724E-12 0.18041E-11 0.88390E-11 0.87580E-12
 0.55334E-12 0.44645E-12 0.76341E-12 0.20371E-11 0.57195E-11 0.70128E-11 0.85094E-11 0.35931E-10 0.17824E-10 0.12072E-11
 0.34134E-12 0.22815E-12 0.36671E-12 0.17027E-11 0.14908E-10 0.30192E-10 0.21332E-11 0.29324E-11 0.30707E-11 0.12729E-11
 0.14344E-11 0.21019E-11 0.33213E-11 0.26594E-10 0.70766E-11 0.64626E-12 0.64282E-13 0.51625E-13 0.94091E-13 0.46790E-12
 0.34042E-11 0.11435E-13 0.30292E-12 0.24521E-12 0.37456E-12 0.69561E-12 0.11263E-11 0.97033E-12 0.23226E-12 0.16743E-10
 0.43581E-11 0.35821E-12 0.10775E-12 0.73413E-13 0.11496E-12 0.48583E-12 0.38601E-11 0.58903E-10 0.39402E-12 0.30878E-12
 0.37711E-12 0.24424E-12 0.27417E-12 0.31436E-12 0.29976E-14 0.10287E-10 0.16515E-11 0.18241E-12 0.73877E-09 0.70026E-09
 0.39757E-09 0.11312E-09 0.22655E-10 0.17620E-11 0.31436E-12 0.27754E-12 0.35577E-12 0.54448E-12 0.71002E-12 0.93009E-12
 0.17066E-11 0.59165E-09 0.10934E-08 0.45044E-08 0.73503E-08 0.75377E-08 0.47191E-08 0.15557E-08 0.37935E-09 0.55885E-11
 0.18319E-12 0.25888E-12 0.18678E-12 0.18309E-12 0.19612E-12 0.29715E-12 0.11149E-11 0.40539E-10 0.13675E-09 0.47252E-09
 0.59621E-09 0.56599E-09 0.31989E-09 0.89743E-10 0.19089E-10 0.22999E-11 0.47237E-12 0.39498E-12 0.52531E-12 0.90725E-12
 0.13106E-11 0.18230E-11 0.26861E-11 0.50214E-09 0.83524E-09 0.35756E-08 0.58854E-08 0.60497E-08 0.37649E-08 0.12138E-08
 0.28990E-09 0.69503E-11 0.32885E-12 0.49824E-12 0.35175E-12 0.32248E-12 0.33579E-12 0.56022E-12 0.16092E-11 0.73712E-10
 0.10730E-09 0.37903E-09 0.30890E-09 0.29564E-09 0.16583E-09 0.44432E-10 0.41574E-10 0.42438E-11 0.12155E-11 0.87191E-12
 0.13547E-11 0.34133E-11 0.77955E-11 0.14974E-10 0.17046E-10 0.22654E-08 0.34126E-09 0.16610E-08 0.28280E-08 0.29280E-08
 0.17745E-08 0.52736E-09 0.12902E-09 0.16486E-10 0.27970E-11 0.41841E-11 0.28097E-11 0.18732E-11 0.18101E-11 0.39335E-11
 0.73954E-11 0.42265E-09 0.51611E-10 0.19298E-09 0.10294E-09 0.98223E-10 0.55369E-10 0.28818E-10 0.92731E-09 0.85127E-11
 0.21328E-11 0.14019E-11 0.24476E-11 0.88397E-11 0.43116E-10 0.24141E-09 0.82995E-09 0.49159E-07 0.18810E-09 0.53015E-09
 0.89416E-09 0.92890E-09 0.54966E-09 0.14720E-09 0.11138E-08 0.65034E-10 0.60863E-10 0.19990E-09 0.48267E-10 0.95967E-11
 0.88122E-11 0.37414E-10 0.21579E-09 0.13175E-07 0.11118E-09 0.66878E-10 0.11924E-09 0.96682E-10 0.40575E-09 0.83782E-08
 0.26381E-09 0.12295E-10 0.26563E-11 0.18479E-11 0.33145E-11 0.12356E-10 0.76063E-10 0.71914E-09 0.16950E-07 0.44282E-06
 0.47889E-08 0.20368E-09 0.44209E-10 0.47463E-10 0.40674E-10 0.18302E-09 0.65890E-07 0.29888E-09 0.17647E-09 0.35897E-07
 0.18675E-09 0.15417E-10 0.14247E-10 0.70859E-10 0.20346E-08 0.13694E-06 0.30524E-07 0.82617E-09 0.12140E-06 0.16700E-06
 0.34558E-06 0.80823E-06 0.30125E-09 0.13722E-10 0.28739E-11 0.20545E-11 0.37770E-11 0.14278E-10 0.88280E-10 0.78896E-09
 0.25163E-07 0.59184E-06 0.14653E-07 0.39241E-09 0.98840E-10 0.53493E-10 0.37899E-10 0.16019E-09 0.21100E-03 0.38626E-09
 0.16338E-09 0.85755E-07 0.21009E-09 0.16519E-10 0.16238E-10 0.76264E-10 0.23294E-08 0.29088E-06 0.13670E-05 0.24843E-03
 0.22681E-05 0.84560E-05 0.48281E-05 0.47531E-06 0.31231E-09 0.13356E-10 0.30802E-11 0.21482E-11 0.37181E-11 0.14168E-10
 0.95573E-10 0.10466E-08 0.37729E-07 0.75504E-04 0.21874E-07 0.36692E-09 0.35212E-10 0.13605E-10 0.21379E-10 0.19505E-09
 0.10759E-05 0.31360E-09 0.16236E-09 0.10062E-06 0.17418E-09 0.14299E-10 0.14912E-10 0.77706E-10 0.23037E-08 0.60686E-06
 0.25368E-05 0.32544E-06 0.21754E-03 0.16497E-05 0.46007E-05 0.60257E-05 0.33373E-09 0.17358E-10 0.36302E-11 0.23571E-11
 0.46847E-11 0.17512E-10 0.10181E-09 0.10832E-08 0.29322E-07 0.11286E-04 0.26314E-07 0.34245E-09 0.31217E-10 0.11932E-10
 0.16904E-10 0.14944E-09 0.96481E-06 0.35966E-09 0.11693E-09 0.50110E-08 0.23240E-09 0.16644E-10 0.14074E-10 0.77624E-10
 0.23853E-08 0.13144E-05 0.98509E-04 0.69746E-06 0.62152E-03 0.12078E-05 0.13146E-05 0.21643E-06 0.37683E-10 0.55735E-11
 0.58259E-11 0.56792E-11 0.76834E-11 0.66383E-11 0.29355E-12 0.80761E-10 0.19474E-07 0.50395E-05 0.33546E-07 0.37585E-09
 0.31615E-10 0.11354E-10 0.16001E-10 0.15458E-09 0.29589E-07 0.78306E-08 0.87754E-09 0.18286E-09 0.10276E-09 0.50184E-10
 0.23503E-10 0.11836E-10 0.55397E-09 0.52012E-06 0.23794E-04 0.77377E-06 0.72474E-07 0.20055E-06 0.15545E-06 0.45699E-08
 0.59457E-10 0.76973E-11 0.24673E-11 0.24595E-11 0.81567E-11 0.19757E-10 0.54557E-11 0.40073E-11 0.19662E-11 0.37490E-07
 0.94293E-08 0.33036E-09 0.32127E-10 0.11885E-10 0.16814E-10 0.49875E-10 0.45792E-09 0.48601E-10 0.10053E-10 0.60545E-11
 0.11589E-10 0.31486E-10 0.21458E-10 0.26093E-10 0.17193E-09 0.40189E-08 0.42341E-07 0.29290E-07 0.14208E-08 0.15826E-08
 0.84819E-09 0.12389E-09 0.40466E-11 0.62121E-12 0.23656E-12 0.24052E-12 0.64963E-12 0.16621E-11 0.86724E-12 0.79161E-12
 0.27438E-11 0.64910E-10 0.77131E-09 0.14760E-09 0.22678E-10 0.93865E-11 0.92086E-11 0.16488E-09 0.50993E-10 0.64623E-11
 0.13525E-11 0.79967E-12 0.12562E-11 0.26294E-11 0.23530E-11 0.29201E-11 0.16074E-10 0.16355E-10 0.96263E-09 0.97658E-09
 0.16412E-09 0.18544E-09 0.23434E-10 0.34976E-10 0.11731E-11 0.19273E-12 0.77563E-13 0.80713E-13 0.21634E-12 0.58854E-12
 0.34300E-12 0.30334E-12 0.11484E-11 0.58866E-12 0.12037E-09 0.46986E-10 0.12105E-10 0.61219E-11 0.24504E-11 0.84420E-09
 0.13467E-10 0.17185E-11 0.40759E-12 0.25668E-12 0.40387E-12 0.87114E-12 0.86564E-12 0.10348E-11 0.50092E-11 0.21662E-10
 0.11566E-09 0.12957E-09 0.83367E-10 0.96715E-10 0.33529E-11 0.20759E-10 0.75331E-12 0.12812E-12 0.52611E-13 0.54901E-13
 0.14491E-12 0.39767E-12 0.24666E-12 0.21791E-12 0.81413E-12 0.17241E-11 0.62872E-10 0.30038E-10 0.90131E-11 0.50038E-11
 0.92401E-12 0.42865E-09 0.87611E-11 0.11584E-11 0.28164E-12 0.17877E-12 0.27653E-12 0.58620E-12 0.59977E-12 0.71612E-12
 0.33021E-11 0.16737E-10 0.55693E-10 0.69097E-10 0.16452E-09 0.18536E-09 0.23915E-10 0.33521E-10 0.11364E-11 0.18795E-12
 0.75884E-13 0.78715E-13 0.20854E-12 0.56345E-12 0.33566E-12 0.29983E-12 0.11340E-11 0.57588E-12 0.11968E-09 0.47633E-10
 0.12165E-10 0.61887E-11 0.22982E-11 0.38544E-09 0.13478E-10 0.17556E-11 0.41232E-12 0.25713E-12 0.39935E-12 0.84374E-12
 0.83708E-12 0.10082E-11 0.48652E-11 0.20961E-10 0.11501E-09 0.13034E-09 0.14044E-08 0.15850E-08 0.81252E-09 0.15761E-09
 0.46451E-11 0.68788E-12 0.25782E-12 0.26418E-12 0.74657E-12 0.19638E-11 0.93697E-12 0.82757E-12 0.28903E-11 0.70848E-10
 0.75751E-09 0.14472E-09 0.22627E-10 0.93317E-11 0.98194E-11 0.10746E-08 0.50808E-10 0.59205E-11 0.12951E-11 0.79368E-12
 0.13106E-11 0.29735E-11 0.26631E-11 0.32228E-11 0.18173E-10 0.18675E-10 0.95895E-09 0.95380E-09 0.81617E-07 0.19930E-06
 0.13871E-06 0.71197E-09 0.25160E-10 0.44559E-11 0.16114E-11 0.15604E-11 0.40668E-11 0.88241E-11 0.39206E-11 0.32568E-11
 0.14335E-11 0.29616E-07 0.10519E-07 0.33228E-09 0.32384E-10 0.11922E-10 0.16795E-10 0.20843E-10 0.46865E-09 0.79727E-10
 0.12484E-10 0.62828E-11 0.94067E-11 0.17078E-10 0.12365E-10 0.16397E-10 0.81906E-10 0.24970E-08 0.50718E-07 0.33486E-07
 0.10622E-04 0.11806E-05 0.82772E-06 0.19671E-06 0.27640E-09 0.11704E-09 0.99637E-10 0.11148E-09 0.47989E-09 0.20785E-09
 0.13596E-11 0.24758E-09 0.38500E-07 0.15183E-05 0.27152E-07 0.35394E-09 0.30309E-10 0.11034E-10 0.15438E-10 0.15359E-09
 0.23731E-07 0.10407E-09 0.10492E-09 0.12935E-09 0.73419E-09 0.48417E-08 0.28570E-09 0.81311E-10 0.23365E-08 0.38467E-06
 0.14115E-03 0.46032E-06 0.59232E-04 0.16448E-05 0.33047E-05 0.28789E-03 0.41348E-09 0.15987E-10 0.26116E-11 0.15992E-11
 0.36360E-11 0.16152E-10 0.99438E-10 0.10931E-08 0.41301E-07 0.20679E-04 0.32750E-07 0.33356E-09 0.29581E-10 0.11276E-10
 0.15781E-10 0.14120E-09 0.10367E-05 0.38854E-09 0.22009E-09 0.89557E-07 0.96350E-10 0.11794E-10 0.11288E-10 0.69516E-10
 0.26142E-08 0.26807E-05 0.12550E-03 0.61292E-06 0.94500E-06 0.69331E-05 0.18081E-04 0.60192E-06 0.32862E-09 0.12904E-10
 0.29029E-11 0.20321E-11 0.35664E-11 0.13959E-10 0.96954E-10 0.97616E-09 0.26107E-07 0.39454E-04 0.25082E-07 0.35394E-09
 0.32728E-10 0.12644E-10 0.20467E-10 0.21080E-09 0.12067E-05 0.30574E-09 0.17626E-09 0.14453E-06 0.16288E-09 0.13975E-10
 0.15085E-10 0.78492E-10 0.22891E-08 0.87267E-06 0.30271E-05 0.24549E-06 0.18749E-05 0.13693E-06 0.14389E-06 0.60536E-05
 0.33328E-09 0.13627E-10 0.28571E-11 0.20372E-11 0.37528E-11 0.14496E-10 0.94643E-10 0.92571E-09 0.27178E-07 0.69669E-06
 0.26104E-07 0.27008E-09 0.32970E-10 0.16306E-10 0.18859E-10 0.16174E-09 0.56415E-02 0.42026E-09 0.16534E-09 0.83397E-07
 0.19683E-09 0.16153E-10 0.16325E-10 0.78003E-10 0.22743E-08 0.37705E-06 0.73730E-05 0.37636E-06 0.14342E-09 0.95627E-10
 0.33239E-09 0.82021E-07 0.27696E-09 0.11552E-10 0.25841E-11 0.17811E-11 0.31656E-11 0.11737E-10 0.70427E-10 0.68688E-09
 0.16700E-07 0.27433E-06 0.16879E-05 0.65369E-08 0.29400E-09 0.26260E-09 0.36127E-09 0.56023E-08 0.76147E-07 0.35831E-09
 0.16761E-09 0.44722E-07 0.17308E-09 0.14997E-10 0.13818E-10 0.70538E-10 0.19794E-08 0.14768E-06 0.41198E-05 0.16689E-08
 0.10131E-09 0.98320E-10 0.56215E-10 0.26422E-10 0.22550E-09 0.86165E-11 0.21702E-11 0.14278E-11 0.24975E-11 0.90447E-11
 0.44637E-10 0.24209E-09 0.88155E-09 0.11646E-07 0.12754E-09 0.40184E-09 0.73138E-09 0.76594E-09 0.43501E-09 0.10769E-09
 0.11466E-08 0.79206E-10 0.60447E-10 0.20288E-09 0.48780E-10 0.96284E-11 0.88965E-11 0.37343E-10 0.21826E-09 0.51381E-08
 0.99027E-10 0.64032E-10 0.30986E-09 0.29558E-09 0.16536E-09 0.45055E-10 0.63923E-10 0.46030E-11 0.11859E-11 0.85814E-12
 0.13281E-11 0.33337E-11 0.76423E-11 0.14827E-10 0.17233E-10 0.37376E-08 0.36280E-09 0.17469E-08 0.29453E-08 0.30472E-08
 0.18588E-08 0.55745E-09 0.12863E-09 0.13809E-10 0.28294E-11 0.41791E-11 0.28014E-11 0.18577E-11 0.17955E-11 0.39125E-11
 0.75516E-11 0.51770E-09 0.52476E-10 0.19446E-09 0.59573E-09 0.56602E-09 0.32011E-09 0.89448E-10 0.17401E-10 0.21484E-11
 0.47659E-12 0.39727E-12 0.52774E-12 0.91144E-12 0.13129E-11 0.18242E-11 0.26615E-11 0.45637E-09 0.82341E-09 0.35310E-08
 0.58233E-08 0.59865E-08 0.37200E-08 0.11973E-08 0.29009E-09 0.73989E-11 0.32913E-12 0.49832E-12 0.35161E-12 0.32248E-12
 0.33540E-12 0.56000E-12 0.15900E-11 0.70870E-10 0.10690E-09 0.37832E-09 0.45242E-13 0.36360E-13 0.65781E-13 0.31797E-12
 0.17194E-11 0.12623E-12 0.73241E-12 0.58434E-12 0.72561E-12 0.10171E-11 0.13126E-11 0.12307E-11 0.57815E-12 0.66090E-11
 0.24852E-11 0.20933E-12 0.64615E-13 0.43854E-13 0.67557E-13 0.27917E-12 0.19698E-11 0.20315E-10 0.30209E-12 0.24153E-12
 0.29675E-12 0.28150E-12 0.32643E-12 0.40534E-12 0.10081E-12 0.42866E-11 0.10661E-11 0.12373E-12 0.65892E-13 0.53346E-13
 0.97367E-13 0.48417E-12 0.23334E-11 0.59963E-12 0.10687E-11 0.83701E-12 0.10971E-11 0.17524E-11 0.26091E-11 0.25664E-11
 0.18399E-11 0.83685E-11 0.38879E-11 0.30914E-12 0.93481E-13 0.63283E-13 0.98532E-13 0.41789E-12 0.29995E-11 0.19078E-10
 0.63813E-12 0.51811E-12 0.59135E-12 0.50172E-12 0.58295E-12 0.76933E-12 0.46180E-12 0.57405E-11 0.16687E-11 0.18374E-12
 0.21916E-12 0.17564E-12 0.33101E-12 0.18192E-11 0.54960E-11 0.59601E-11 0.24060E-11 0.18193E-11 0.27523E-11 0.63317E-11
 0.15469E-10 0.22415E-10 0.27782E-10 0.11706E-10 0.17412E-10 0.11012E-11 0.31247E-12 0.20750E-12 0.33279E-12 0.15732E-11
 0.10869E-10 0.10951E-11 0.55388E-11 0.56896E-11 0.44120E-11 0.25189E-11 0.28744E-11 0.48408E-11 0.84639E-11 0.10651E-10
 0.70600E-11 0.64454E-12 0.18874E-11 0.14970E-11 0.29653E-11 0.14863E-10 0.10483E-10 0.17651E-10 0.41596E-11 0.29825E-11
 0.49959E-11 0.16380E-10 0.81454E-10 0.36960E-09 0.14068E-08 0.15749E-09 0.15590E-09 0.88202E-11 0.23126E-11 0.14905E-11
 0.24664E-11 0.13013E-10 0.67290E-10 0.21838E-09 0.14386E-09 0.45359E-09 0.59510E-10 0.11972E-10 0.12968E-10 0.44833E-10
 0.29373E-09 0.58708E-10 0.85199E-10 0.60730E-11 0.58045E-10 0.37928E-10 0.37646E-10 0.38319E-08 0.51788E-09 0.23165E-10
 0.52700E-11 0.35672E-11 0.61260E-11 0.22613E-10 0.13989E-09 0.14056E-08 0.62020E-07 0.19278E-05 0.66074E-07 0.10714E-08
 0.19001E-09 0.10177E-09 0.20271E-09 0.11553E-08 0.24576E-07 0.14589E-08 0.92649E-09 0.37744E-05 0.14229E-09 0.17197E-10
 0.18563E-10 0.10532E-09 0.32066E-08 0.40043E-06 0.36513E-06 0.17312E-09 0.19282E-07 0.59654E-07 0.10046E-05 0.43717E-06
 0.55172E-09 0.25126E-10 0.58856E-11 0.39437E-11 0.66756E-11 0.23907E-10 0.14468E-09 0.14923E-08 0.38264E-07 0.31250E-05
 0.64307E-07 0.37974E-09 0.15727E-10 0.37212E-11 0.12551E-10 0.23408E-09 0.42706E-06 0.16141E-08 0.13489E-08 0.69377E-06
 0.14664E-09 0.17791E-10 0.18626E-10 0.11298E-09 0.36246E-08 0.35758E-05 0.31109E-01 0.71210E-07 0.47075E-05 0.66807E-06
 0.33868E-06 0.15461E-04 0.72648E-09 0.32497E-10 0.70369E-11 0.47921E-11 0.83284E-11 0.30687E-10 0.18406E-09 0.18053E-08
 0.57266E-07 0.39742E-02 0.10142E-06 0.63168E-09 0.50226E-10 0.18035E-10 0.24829E-10 0.24110E-09 0.12560E-05 0.17579E-08
 0.14366E-08 0.38401E-05 0.19359E-09 0.22312E-10 0.23270E-10 0.13741E-09 0.50657E-08 0.79526E-05 0.84392E-05 0.15700E-05
 0.51040E-06 0.16085E-05 0.12409E-05 0.27250E-06 0.73582E-09 0.30909E-10 0.70333E-11 0.49434E-11 0.80472E-11 0.30110E-10
 0.18844E-09 0.17386E-08 0.59880E-07 0.12594E-04 0.52926E-07 0.69057E-09 0.62214E-10 0.22389E-10 0.31629E-10 0.29624E-09
 0.19904E-05 0.21058E-08 0.32830E-08 0.11741E-06 0.16440E-09 0.20311E-10 0.24199E-10 0.14272E-09 0.50907E-08 0.76575E-06
 0.53480E-05 0.35728E-06 0.10408E-05 0.41240E-05 0.11147E-04 0.35738E-05 0.10859E-07 0.88466E-09 0.34011E-09 0.48865E-09
 0.94453E-09 0.84023E-09 0.31657E-09 0.15582E-08 0.10098E-06 0.52922E-05 0.73550E-07 0.87738E-09 0.78043E-10 0.28340E-10
 0.38176E-10 0.31461E-09 0.14157E-06 0.85949E-09 0.27017E-09 0.25311E-09 0.14613E-08 0.58283E-08 0.53908E-09 0.91507E-09
 0.16156E-07 0.63664E-05 0.53431E-05 0.49162E-06 0.91326E-07 0.11568E-06 0.15357E-05 0.99549E-08 0.10209E-09 0.23850E-09
 0.51951E-09 0.80362E-09 0.10360E-08 0.48589E-09 0.30220E-10 0.11265E-10 0.21379E-09 0.27566E-06 0.21474E-07 0.75832E-09
 0.75887E-10 0.28487E-10 0.36277E-10 0.29844E-09 0.19965E-08 0.17990E-09 0.30548E-09 0.41419E-09 0.65219E-09 0.60312E-09
 0.11420E-09 0.22200E-10 0.20365E-09 0.88205E-07 0.12517E-06 0.40882E-07 0.23328E-08 0.25310E-08 0.14020E-07 0.17480E-09
 0.39222E-09 0.10972E-08 0.23923E-08 0.39594E-08 0.60545E-08 0.37960E-08 0.20504E-09 0.15257E-10 0.81998E-11 0.14257E-08
 0.15476E-08 0.35167E-09 0.59097E-10 0.24996E-10 0.33944E-10 0.38186E-09 0.26168E-09 0.53240E-09 0.11103E-08 0.18085E-08
 0.32751E-08 0.39593E-08 0.88647E-09 0.13683E-09 0.22852E-10 0.21279E-08 0.15721E-08 0.14566E-08 0.26193E-09 0.29320E-09
 0.28331E-08 0.10607E-09 0.69548E-09 0.21168E-08 0.46718E-08 0.78038E-08 0.11742E-07 0.80438E-08 0.55581E-09 0.37515E-10
 0.50159E-11 0.11234E-09 0.19614E-09 0.10042E-09 0.30178E-10 0.15131E-10 0.25104E-10 0.82329E-10 0.51389E-09 0.12301E-08
 0.25449E-08 0.41397E-08 0.71058E-08 0.81286E-08 0.20538E-08 0.31923E-09 0.45164E-10 0.22106E-09 0.14847E-09 0.17083E-09
 0.12955E-09 0.14368E-09 0.18454E-08 0.12959E-09 0.89103E-09 0.27160E-08 0.59810E-08 0.10039E-07 0.15242E-07 0.10857E-07
 0.79246E-09 0.52373E-10 0.63180E-11 0.56354E-10 0.10170E-09 0.60346E-10 0.21925E-10 0.11674E-10 0.24071E-10 0.63431E-10
 0.65703E-09 0.15832E-08 0.32948E-08 0.54079E-08 0.92768E-08 0.10710E-07 0.28074E-08 0.43694E-09 0.60120E-10 0.12402E-09
 0.75047E-10 0.85277E-10 0.26233E-09 0.29294E-09 0.27972E-08 0.10980E-09 0.71988E-09 0.21717E-08 0.47812E-08 0.80071E-08
 0.12187E-07 0.84347E-08 0.56906E-09 0.38034E-10 0.50804E-11 0.11587E-09 0.19825E-09 0.10047E-09 0.30338E-10 0.15166E-10
 0.27266E-10 0.10512E-09 0.51684E-09 0.12089E-08 0.25219E-08 0.41403E-08 0.72061E-08 0.84257E-08 0.21294E-08 0.32879E-09
 0.46438E-10 0.23514E-09 0.14952E-09 0.17035E-09 0.22895E-08 0.25249E-08 0.14382E-07 0.14825E-09 0.33762E-09 0.99079E-09
 0.21894E-08 0.35921E-08 0.52464E-08 0.31727E-08 0.18874E-09 0.14516E-10 0.77945E-11 0.12479E-08 0.15275E-08 0.34393E-09
 0.57504E-10 0.24514E-10 0.31150E-10 0.18181E-09 0.25504E-09 0.57105E-09 0.11495E-08 0.18075E-08 0.31050E-08 0.34487E-08
 0.77684E-09 0.12261E-09 0.20437E-10 0.16117E-08 0.15669E-08 0.14647E-08 0.10649E-06 0.12493E-06 0.14714E-05 0.58877E-07
 0.26761E-09 0.40892E-09 0.80109E-09 0.12773E-08 0.20848E-08 0.11096E-08 0.42428E-10 0.14036E-10 0.27963E-09 0.81544E-06
 0.24675E-07 0.84907E-09 0.80219E-10 0.29595E-10 0.37455E-10 0.66988E-09 0.24153E-08 0.12213E-09 0.25668E-09 0.41533E-09
 0.84635E-09 0.11843E-08 0.20291E-09 0.36604E-10 0.36859E-09 0.50771E-06 0.12626E-06 0.45094E-07 0.80168E-06 0.82631E-05
 0.10156E-04 0.42383E-03 0.56958E-09 0.38463E-10 0.20018E-10 0.25995E-10 0.19888E-10 0.36903E-10 0.78029E-10 0.56516E-09
 0.33846E-07 0.11413E-04 0.58905E-07 0.82783E-09 0.76592E-10 0.27924E-10 0.38153E-10 0.31177E-09 0.51869E-06 0.92401E-07
 0.17010E-08 0.24652E-09 0.12718E-09 0.70569E-10 0.51467E-10 0.14803E-09 0.37036E-08 0.30670E-05 0.30521E-05 0.34938E-06
 0.15058E-05 0.99251E-06 0.14169E-05 0.38373E-06 0.70100E-09 0.36468E-10 0.10301E-10 0.75892E-11 0.10918E-10 0.35114E-10
 0.21688E-09 0.21334E-08 0.71323E-07 0.28152E-04 0.71195E-07 0.82362E-09 0.70909E-10 0.24818E-10 0.34946E-10 0.32177E-09
 0.26478E-05 0.17935E-08 0.11887E-08 0.92293E-07 0.36525E-09 0.27969E-10 0.29862E-10 0.16273E-09 0.55258E-08 0.13926E-05
 0.20456E-03 0.91219E-06 0.24295E-05 0.68372E-06 0.33069E-06 0.92169E-06 0.60184E-09 0.31340E-10 0.70694E-11 0.48126E-11
 0.82473E-11 0.28948E-10 0.16128E-09 0.15631E-08 0.47905E-07 0.48799E-05 0.46554E-07 0.55481E-09 0.49990E-10 0.18511E-10
 0.25094E-10 0.21361E-09 0.26324E-05 0.19089E-08 0.13755E-08 0.38266E-05 0.19583E-09 0.22360E-10 0.22473E-10 0.12932E-09
 0.42114E-08 0.10277E-05 0.67957E-04 0.68950E-06 0.50884E-06 0.27079E-06 0.71698E-06 0.50543E-06 0.59298E-09 0.27472E-10
 0.62502E-11 0.41785E-11 0.71041E-11 0.25479E-10 0.15238E-09 0.15733E-08 0.57646E-07 0.10201E-05 0.55635E-07 0.60168E-09
 0.44345E-10 0.11305E-10 0.24560E-10 0.24223E-09 0.55059E-06 0.13404E-08 0.12068E-08 0.66089E-06 0.16150E-09 0.18601E-10
 0.19090E-10 0.11728E-09 0.43206E-08 0.29463E-04 0.88552E-04 0.40552E-06 0.42980E-10 0.34534E-10 0.39040E-10 0.76385E-09
 0.42201E-09 0.22750E-10 0.51195E-11 0.35100E-11 0.60177E-11 0.21974E-10 0.13391E-09 0.12112E-08 0.38473E-07 0.12986E-05
 0.87975E-09 0.50720E-10 0.25246E-10 0.17034E-10 0.22936E-10 0.35172E-10 0.16327E-07 0.12298E-08 0.10548E-08 0.38335E-05
 0.14726E-09 0.17327E-10 0.18677E-10 0.10071E-09 0.28706E-08 0.22447E-06 0.54128E-08 0.78728E-10 0.19382E-11 0.15099E-11
 0.29564E-11 0.16949E-10 0.25296E-10 0.18579E-10 0.43028E-11 0.30677E-11 0.51589E-11 0.17245E-10 0.86725E-10 0.40720E-09
 0.14522E-08 0.20092E-09 0.31168E-09 0.11636E-10 0.28648E-11 0.18233E-11 0.31294E-11 0.18715E-10 0.71918E-10 0.17668E-09
 0.14216E-09 0.45429E-09 0.60322E-10 0.12086E-10 0.13037E-10 0.45944E-10 0.29519E-09 0.75069E-10 0.10327E-09 0.64184E-11
 0.21805E-12 0.17525E-12 0.33135E-12 0.17822E-11 0.42054E-11 0.52519E-11 0.23848E-11 0.17892E-11 0.27045E-11 0.62157E-11
 0.15176E-10 0.21957E-10 0.27099E-10 0.10912E-10 0.15915E-10 0.10465E-11 0.29932E-12 0.19906E-12 0.31730E-12 0.14774E-11
 0.10753E-10 0.14513E-11 0.55178E-11 0.56886E-11 0.44062E-11 0.25176E-11 0.28784E-11 0.48650E-11 0.82930E-11 0.10018E-10
 0.68898E-11 0.63832E-12 0.66280E-13 0.53402E-13 0.97200E-13 0.48700E-12 0.24906E-11 0.65759E-12 0.10680E-11 0.84034E-12
 0.11029E-11 0.17654E-11 0.26358E-11 0.25805E-11 0.18635E-11 0.85304E-11 0.39643E-11 0.31286E-12 0.94647E-13 0.64171E-13
 0.99809E-13 0.42411E-12 0.30068E-11 0.16739E-10 0.63782E-12 0.51802E-12 0.59169E-12 0.50102E-12 0.58237E-12 0.76839E-12
 0.46763E-12 0.58316E-11 0.16773E-11 0.18413E-12 0.10252E-08 0.99609E-09 0.59501E-09 0.18410E-09 0.58160E-10 0.33297E-11
 0.14315E-11 0.12182E-11 0.14480E-11 0.20529E-11 0.26668E-11 0.29248E-11 0.32541E-11 0.62676E-09 0.10682E-08 0.43430E-08
 0.68920E-08 0.70244E-08 0.44131E-08 0.14572E-08 0.39498E-09 0.40404E-11 0.52883E-12 0.57770E-12 0.49155E-12 0.46208E-12
 0.48414E-12 0.65886E-12 0.13375E-11 0.56242E-10 0.18517E-09 0.65648E-09 0.83217E-09 0.80991E-09 0.48361E-09 0.14992E-09
 0.55251E-10 0.51108E-11 0.21187E-11 0.17360E-11 0.21608E-11 0.33875E-11 0.48730E-11 0.57181E-11 0.60344E-11 0.54685E-09
 0.83378E-09 0.34801E-08 0.55480E-08 0.56631E-08 0.35391E-08 0.11461E-08 0.31145E-09 0.55308E-11 0.10482E-11 0.11636E-11
 0.94437E-12 0.84181E-12 0.87727E-12 0.12651E-11 0.22750E-11 0.66410E-10 0.14877E-09 0.53195E-09 0.44182E-09 0.43338E-09
 0.26153E-09 0.83485E-10 0.62601E-10 0.14104E-10 0.51524E-11 0.37201E-11 0.53327E-11 0.11850E-10 0.26507E-10 0.43890E-10
 0.51275E-10 0.13780E-08 0.37933E-09 0.16763E-08 0.27176E-08 0.27853E-08 0.17000E-08 0.51385E-09 0.15525E-09 0.19833E-10
 0.10142E-10 0.10857E-10 0.67090E-11 0.43895E-11 0.45865E-11 0.92798E-11 0.15883E-10 0.38270E-09 0.80340E-10 0.28334E-09