       N       E                     dE             d eps       ncg     rms          rms(c)
DAV:   1     0.157711762148E+04    0.15771E+04   -0.54880E+04  1856   0.145E+03
DAV:   2     0.169659177141E+03   -0.14075E+04   -0.13577E+04  2320   0.376E+02
DAV:   3    -0.177716166719E+03   -0.34738E+03   -0.34098E+03  2428   0.185E+02
DAV:   4    -0.199454862663E+03   -0.21739E+02   -0.21678E+02  2416   0.559E+01
DAV:   5    -0.200764168127E+03   -0.13093E+01   -0.13084E+01  3216   0.117E+01    0.373E+01
RMM:   6    -0.163558427570E+03    0.37206E+02   -0.33279E+02  2114   0.534E+01    0.168E+01
RMM:   7    -0.157435793501E+03    0.61226E+01   -0.27002E+01  1983   0.192E+01    0.761E+00
RMM:   8    -0.156783306615E+03    0.65249E+00   -0.26052E+00  2431   0.567E+00    0.443E+00
RMM:   9    -0.156679492299E+03    0.10381E+00   -0.34186E+00  2188   0.668E+00    0.304E+00
RMM:  10    -0.156469460114E+03    0.21003E+00   -0.52108E-01  2681   0.234E+00    0.135E+00
RMM:  11    -0.156437741765E+03    0.31718E-01   -0.43021E-01  2635   0.173E+00    0.536E-01
RMM:  12    -0.156434619318E+03    0.31224E-02   -0.82392E-02  2628   0.847E-01    0.547E-01
RMM:  13    -0.156427831794E+03    0.67875E-02   -0.46256E-02  2759   0.508E-01    0.310E-01
RMM:  14    -0.156425114859E+03    0.27169E-02   -0.20938E-02  2598   0.439E-01    0.145E-01
RMM:  15    -0.156425015017E+03    0.99842E-04   -0.91123E-03  2722   0.277E-01    0.118E-01
RMM:  16    -0.156425165916E+03   -0.15090E-03   -0.35832E-03  2682   0.190E-01    0.723E-02
RMM:  17    -0.156425471714E+03   -0.30580E-03   -0.41138E-03  2484   0.173E-01    0.103E-01
RMM:  18    -0.156425442545E+03    0.29168E-04   -0.12190E-03  2649   0.955E-02    0.300E-02
RMM:  19    -0.156426186040E+03   -0.74349E-03   -0.14568E-03  2626   0.100E-01    0.809E-02
RMM:  20    -0.156426734604E+03   -0.54856E-03   -0.11235E-03  2340   0.944E-02    0.203E-02
RMM:  21    -0.156427020432E+03   -0.28583E-03   -0.97415E-05  2537   0.233E-02    0.157E-02
RMM:  22    -0.156427344418E+03   -0.32399E-03   -0.11454E-04  2359   0.290E-02    0.663E-03
RMM:  23    -0.156427422684E+03   -0.78267E-04   -0.29577E-05  2337   0.119E-02    0.481E-03
RMM:  24    -0.156427459053E+03   -0.36369E-04   -0.10597E-05  2127   0.786E-03    0.187E-03
RMM:  25    -0.156427469132E+03   -0.10079E-04   -0.33618E-06  1594   0.489E-03    0.797E-04
RMM:  26    -0.156427470450E+03   -0.13180E-05   -0.12835E-06  1387   0.365E-03    0.584E-04
RMM:  27    -0.156427470922E+03   -0.47154E-06   -0.76968E-07  1325   0.297E-03
   1 F= -.15642747E+03 E0= -.15642747E+03  d E =-.182617E-10
