PROCAR lm decomposed
# of k-points:   12         # of bands:   76         # of ions:   20

 k-point     1 :    0.00000000 0.00000000 0.00000000     weight = 0.02857143

band     1 # energy  -34.70719366 # occ.  2.00000000
 
ion      s     py     pz     px    dxy    dyz    dz2    dxz  x2-y2    tot
    1  0.000  0.000  0.000  0.000  0.000  0.000  0.000  0.000  0.000  0.000
    2  0.000  0.000  0.000  0.000  0.000  0.000  0.000  0.000  0.000  0.000
    3  0.000  0.000  0.000  0.000  0.000  0.000  0.000  0.000  0.000  0.000
    4  0.000  0.000  0.000  0.000  0.000  0.000  0.000  0.000  0.000  0.000
    5  0.000  0.000  0.000  0.000  0.000  0.000  0.000  0.000  0.000  0.000
    6  0.000  0.000  0.000  0.000  0.000  0.000  0.000  0.000  0.000  0.000
    7  0.000  0.000  0.000  0.000  0.000  0.000  0.000  0.000  0.000  0.000
    8  0.000  0.000  0.000  0.000  0.000  0.000  0.000  0.000  0.000  0.000
    9  0.000  0.000  0.000  0.000  0.000  0.000  0.000  0.000  0.000  0.000
   10  0.000  0.000  0.000  0.000  0.000  0.000  0.000  0.000  0.000  0.000
   11  0.000  0.000  0.000  0.000  0.000  0.000  0.000  0.000  0.000  0.000
   12  0.000  0.000  0.000  0.000  0.000  0.000  0.000  0.000  0.000  0.000
   13  0.001  0.000  0.000  0.000  0.000  0.000  0.000  0.000  0.000  0.001
   14  0.486  0.000  0.000  0.000  0.000  0.000  0.000  0.000  0.000  0.486
   15  0.486  0.000  0.000  0.000  0.000  0.000  0.000  0.000  0.000  0.486
   16  0.001  0.000  0.000  0.000  0.000  0.000  0.000  0.000  0.000  0.001
   17  0.000  0.000  0.000  0.000  0.000  0.000  0.000  0.000  0.000  0.000
   18  0.000  0.000  0.000  0.000  0.000  0.000  0.000  0.000  0.000  0.000
   19  0.000  0.000  0.000  0.000  0.000  0.000  0.000  0.000  0.000  0.000
   20  0.000  0.000  0.000  0.000  0.000  0.000  0.000  0.000  0.000  0.000
tot    0.976  0.000  0.000  0.000  0.000  0.000  0.000  0.000  0.000  0.976
 
band     2 # energy  -34.68405755 # occ.  2.00000000
 
ion      s     py     pz     px    dxy    dyz    dz2    dxz  x2-y2    tot
    1  0.000  0.000  0.000  0.000  0.000  0.000  0.000  0.000  0.000  0.000
    2  0.000  0.000  0.000  0.000  0.000  0.000  0.000  0.000  0.000  0.000
    3  0.000  0.000  0.000  0.000  0.000  0.000  0.000  0.000  0.000  0.000
    4  0.000  0.000  0.000  0.000  0.000  0.000  0.000  0.000  0.000  0.000
    5  0.000  0.000  0.000  0.000  0.000  0.000  0.000  0.000  0.000  0.000
    6  0.000  0.000  0.000  0.000  0.000  0.000  0.000  0.000  0.000  0.000
    7  0.000  0.000  0.000  0.000  0.000  0.000  0.000  0.000  0.000  0.000
    8  0.000  0.000  0.000  0.000  0.000  0.000  0.000  0.000  0.000  0.000
    9  0.000  0.000  0.000  0.000  0.000  0.000  0.000  0.000  0.000  0.000
   10  0.000  0.000  0.000  0.000  0.000  0.000  0.000  0.000  0.000  0.000
   11  0.000  0.000  0.000  0.000  0.000  0.000  0.000  0.000  0.000  0.000
   12  0.000  0.000  0.000  0.000  0.000  0.000  0.000  0.000  0.000  0.000
   13  0.002  0.000  0.000  0.000  0.000  0.000  0.000  0.000  0.000  0.002
   14  0.487  0.000  0.000  0.000  0.000  0.000  0.000  0.000  0.000  0.487
   15  0.487  0.000  0.000  0.000  0.000  0.000  0.000  0.000  0.000  0.487
   16  0.002  0.000  0.000  0.000  0.000  0.000  0.000  0.000  0.000  0.002
   17  0.000  0.000  0.000  0.000  0.000  0.000  0.000  0.000  0.000  0.000
   18  0.000  0.000  0.000  0.000  0.000  0.000  0.000  0.000  0.000  0.000
   19  0.000  0.000  0.000  0.000  0.000  0.000  0.000  0.000  0.000  0.000
   20  0.000  0.000  0.000  0.000  0.000  0.000  0.000  0.000  0.000  0.000
tot    0.977  0.000  0.000  0.000  0.000  0.000  0.000  0.000  0.000  0.978
 
band     3 # energy  -34.55349920 # occ.  2.00000000
 
ion      s     py     pz     px    dxy    dyz    dz2    dxz  x2-y2    tot
    1  0.000  0.000  0.000  0.000  0.000  0.000  0.000  0.000  0.000  0.000
    2  0.000  0.000  0.000  0.000  0.000  0.000  0.000  0.000  0.000  0.000
    3  0.000  0.000  0.000  0.000  0.000  0.000  0.000  0.000  0.000  0.000
    4  0.000  0.000  0.000  0.000  0.000  0.000  0.000  0.000  0.000  0.000
    5  0.000  0.000  0.000  0.000  0.000  0.000  0.000  0.000  0.000  0.000
    6  0.000  0.000  0.000  0.000  0.000  0.000  0.000  0.000  0.000  0.000
    7  0.000  0.000  0.000  0.000  0.000  0.000  0.000  0.000  0.000  0.000
    8  0.000  0.000  0.000  0.000  0.000  0.000  0.000  0.000  0.000  0.000
    9  0.000  0.000  0.000  0.000  0.000  0.000  0.000  0.000  0.000  0.000
   10  0.000  0.000  0.000  0.000  0.000  0.000  0.000  0.000  0.000  0.000
   11  0.000  0.000  0.000  0.000  0.000  0.000  0.000  0.000  0.000  0.000
   12  0.000  0.000  0.000  0.000  0.000  0.000  0.000  0.000  0.000  0.000
   13  0.433  0.000  0.000  0.000  0.000  0.000  0.000  0.000  0.000  0.433
   14  0.001  0.000  0.000  0.000  0.000  0.000  0.000  0.000  0.000  0.001
   15  0.001  0.000  0.000  0.000  0.000  0.000  0.000  0.000  0.000  0.001
   16  0.540  0.000  0.000  0.000  0.000  0.000  0.000  0.000  0.000  0.540
   17  0.000  0.000  0.000  0.000  0.000  0.000  0.000  0.000  0.000  0.000
   18  0.000  0.000  0.000  0.000  0.000  0.000  0.000  0.000  0.000  0.000
   19  0.000  0.000  0.000  0.000  0.000  0.000  0.000  0.000  0.000  0.000
   20  0.000  0.000  0.000  0.000  0.000  0.000  0.000  0.000  0.000  0.000
tot    0.976  0.000  0.000  0.000  0.000  0.000  0.000  0.000  0.000  0.977
 
band     4 # energy  -34.55347541 # occ.  2.00000000
 
ion      s     py     pz     px    dxy    dyz    dz2    dxz  x2-y2    tot
    1  0.000  0.000  0.000  0.000  0.000  0.000  0.000  0.000  0.000  0.000
    2  0.000  0.000  0.000  0.000  0.000  0.000  0.000  0.000  0.000  0.000
    3  0.000  0.000  0.000  0.000  0.000  0.000  0.000  0.000  0.000  0.000
    4  0.000  0.000  0.000  0.000  0.000  0.000  0.000  0.000  0.000  0.000
    5  0.000  0.000  0.000  0.000  0.000  0.000  0.000  0.000  0.000  0.000
    6  0.000  0.000  0.000  0.000  0.000  0.000  0.000  0.000  0.000  0.000
    7  0.000  0.000  0.000  0.000  0.000  0.000  0.000  0.000  0.000  0.000
    8  0.000  0.000  0.000  0.000  0.000  0.000  0.000  0.000  0.000  0.000
    9  0.000  0.000  0.000  0.000  0.000  0.000  0.000  0.000  0.000  0.000
   10  0.000  0.000  0.000  0.000  0.000  0.000  0.000  0.000  0.000  0.000
   11  0.000  0.000  0.000  0.000  0.000  0.000  0.000  0.000  0.000  0.000
   12  0.000  0.000  0.000  0.000  0.000  0.000  0.000  0.000  0.000  0.000
   13  0.540  0.000  0.000  0.000  0.000  0.000  0.000  0.000  0.000  0.540
   14  0.002  0.000  0.000  0.000  0.000  0.000  0.000  0.000  0.000  0.002
   15  0.001  0.000  0.000  0.000  0.000  0.000  0.000  0.000  0.000  0.001
   16  0.433  0.000  0.000  0.000  0.000  0.000  0.000  0.000  0.000  0.433
   17  0.000  0.000  0.000  0.000  0.000  0.000  0.000  0.000  0.000  0.000
   18  0.000  0.000  0.000  0.000  0.000  0.000  0.000  0.000  0.000  0.000
   19  0.000  0.000  0.000  0.000  0.000  0.000  0.000  0.000  0.000  0.000
   20  0.000  0.000  0.000  0.000  0.000  0.000  0.000  0.000  0.000  0.000
tot    0.976  0.000  0.000  0.000  0.000  0.000  0.000  0.000  0.000  0.977
 
band     5 # energy  -19.27838681 # occ.  2.00000000
 
ion      s     py     pz     px    dxy    dyz    dz2    dxz  x2-y2    tot
    1  0.000  0.000  0.000  0.000  0.000  0.000  0.000  0.000  0.000  0.000
    2  0.003  0.000  0.000  0.000  0.000  0.000  0.000  0.000  0.000  0.003
    3  0.087  0.000  0.000  0.000  0.000  0.000  0.000  0.000  0.000  0.087
    4  0.036  0.000  0.000  0.000  0.000  0.000  0.000  0.000  0.000  0.036
    5  0.122  0.000  0.000  0.000  0.000  0.000  0.000  0.000  0.000  0.122
    6  0.101  0.000  0.000  0.000  0.000  0.000  0.000  0.000  0.000  0.101
    7  0.101  0.000  0.000  0.000  0.000  0.000  0.000  0.000  0.000  0.101
    8  0.122  0.000  0.000  0.000  0.000  0.000  0.000  0.000  0.000  0.122
    9  0.036  0.000  0.000  0.000  0.000  0.000  0.000  0.000  0.000  0.036
   10  0.087  0.000  0.000  0.000  0.000  0.000  0.000  0.000  0.000  0.087
   11  0.003  0.000  0.000  0.000  0.000  0.000  0.000  0.000  0.000  0.003
   12  0.000  0.000  0.000  0.000  0.000  0.000  0.000  0.000  0.000  0.000
   13  0.000  0.000  0.010  0.000  0.000  0.000  0.000  0.000  0.000  0.011
   14  0.003  0.000  0.003  0.002  0.000  0.000  0.000  0.000  0.000  0.008
   15  0.003  0.000  0.003  0.002  0.000  0.000  0.000  0.000  0.000  0.008
   16  0.000  0.000  0.010  0.000  0.000  0.000  0.000  0.000  0.000  0.011
   17  0.006  0.000  0.003  0.000  0.000  0.000  0.001  0.001  0.000  0.011
   18  0.051  0.000  0.000  0.000  0.000  0.000  0.000  0.001  0.000  0.052
   19  0.051  0.000  0.000  0.000  0.000  0.000  0.000  0.001  0.000  0.052
   20  0.006  0.000  0.003  0.000  0.000  0.000  0.001  0.001  0.000  0.011
tot    0.816  0.000  0.033  0.004  0.000  0.000  0.003  0.004  0.001  0.862
 
band     6 # energy  -19.23692053 # occ.  2.00000000
 
ion      s     py     pz     px    dxy    dyz    dz2    dxz  x2-y2    tot
    1  0.000  0.000  0.000  0.000  0.000  0.000  0.000  0.000  0.000  0.000
    2  0.010  0.000  0.000  0.000  0.000  0.000  0.000  0.000  0.000  0.010
    3  0.166  0.000  0.000  0.000  0.000  0.000  0.000  0.000  0.000  0.166
    4  0.039  0.000  0.000  0.000  0.000  0.000  0.000  0.000  0.000  0.039
    5  0.105  0.000  0.000  0.000  0.000  0.000  0.000  0.000  0.000  0.105
    6  0.005  0.000  0.000  0.000  0.000  0.000  0.000  0.000  0.000  0.005
    7  0.005  0.000  0.000  0.000  0.000  0.000  0.000  0.000  0.000  0.005
    8  0.105  0.000  0.000  0.000  0.000  0.000  0.000  0.000  0.000  0.105
    9  0.039  0.000  0.000  0.000  0.000  0.000  0.000  0.000  0.000  0.039
   10  0.166  0.000  0.000  0.000  0.000  0.000  0.000  0.000  0.000  0.166
   11  0.010  0.000  0.000  0.000  0.000  0.000  0.000  0.000  0.000  0.010
   12  0.000  0.000  0.000  0.000  0.000  0.000  0.000  0.000  0.000  0.000
   13  0.001  0.000  0.012  0.000  0.000  0.000  0.000  0.000  0.000  0.013
   14  0.001  0.000  0.026  0.011  0.000  0.000  0.000  0.000  0.000  0.039
   15  0.001  0.000  0.026  0.011  0.000  0.000  0.000  0.000  0.000  0.039
   16  0.001  0.000  0.012  0.000  0.000  0.000  0.000  0.000  0.000  0.013
   17  0.012  0.000  0.005  0.001  0.000  0.000  0.002  0.003  0.000  0.024
   18  0.023  0.000  0.003  0.001  0.000  0.000  0.001  0.000  0.003  0.031
   19  0.023  0.000  0.003  0.001  0.000  0.000  0.001  0.000  0.003  0.031
   20  0.012  0.000  0.005  0.001  0.000  0.000  0.002  0.003  0.000  0.024
tot    0.725  0.000  0.093  0.027  0.000  0.000  0.006  0.007  0.006  0.864
 
band     7 # energy  -18.90658014 # occ.  2.00000000
 
ion      s     py     pz     px    dxy    dyz    dz2    dxz  x2-y2    tot
    1  0.002  0.000  0.000  0.000  0.000  0.000  0.000  0.000  0.000  0.002
    2  0.022  0.000  0.000  0.000  0.000  0.000  0.000  0.000  0.000  0.022
    3  0.183  0.000  0.000  0.000  0.000  0.000  0.000  0.000  0.000  0.184
    4  0.010  0.000  0.000  0.000  0.000  0.000  0.000  0.000  0.000  0.010
    5  0.030  0.000  0.000  0.000  0.000  0.000  0.000  0.000  0.000  0.031
    6  0.067  0.000  0.000  0.000  0.000  0.000  0.000  0.000  0.000  0.067
    7  0.067  0.000  0.000  0.000  0.000  0.000  0.000  0.000  0.000  0.067
    8  0.030  0.000  0.000  0.000  0.000  0.000  0.000  0.000  0.000  0.031
    9  0.010  0.000  0.000  0.000  0.000  0.000  0.000  0.000  0.000  0.010
   10  0.183  0.000  0.000  0.000  0.000  0.000  0.000  0.000  0.000  0.184
   11  0.022  0.000  0.000  0.000  0.000  0.000  0.000  0.000  0.000  0.022
   12  0.002  0.000  0.000  0.000  0.000  0.000  0.000  0.000  0.000  0.002
   13  0.000  0.000  0.001  0.000  0.000  0.000  0.000  0.000  0.000  0.001
   14  0.000  0.000  0.064  0.008  0.000  0.000  0.000  0.000  0.000  0.072
   15  0.000  0.000  0.064  0.008  0.000  0.000  0.000  0.000  0.000  0.072
   16  0.000  0.000  0.001  0.000  0.000  0.000  0.000  0.000  0.000  0.001
   17  0.017  0.000  0.005  0.001  0.000  0.000  0.002  0.004  0.000  0.029
   18  0.003  0.000  0.008  0.002  0.000  0.000  0.000  0.000  0.003  0.016
   19  0.003  0.000  0.008  0.002  0.000  0.000  0.000  0.000  0.003  0.016
   20  0.017  0.000  0.005  0.001  0.000  0.000  0.002  0.004  0.000  0.029
tot    0.672  0.000  0.156  0.022  0.000  0.000  0.005  0.007  0.006  0.868
 
band     8 # energy  -18.62393956 # occ.  2.00000000
 
ion      s     py     pz     px    dxy    dyz    dz2    dxz  x2-y2    tot
    1  0.006  0.000  0.000  0.000  0.000  0.000  0.000  0.000  0.000  0.006
    2  0.029  0.000  0.000  0.000  0.000  0.000  0.000  0.000  0.000  0.029
    3  0.080  0.000  0.000  0.000  0.000  0.000  0.000  0.000  0.000  0.080
    4  0.123  0.000  0.000  0.000  0.000  0.000  0.000  0.000  0.000  0.123
    5  0.022  0.000  0.000  0.000  0.000  0.000  0.000  0.000  0.000  0.023
    6  0.052  0.000  0.000  0.000  0.000  0.000  0.000  0.000  0.000  0.052
    7  0.052  0.000  0.000  0.000  0.000  0.000  0.000  0.000  0.000  0.052
    8  0.022  0.000  0.000  0.000  0.000  0.000  0.000  0.000  0.000  0.023
    9  0.123  0.000  0.000  0.000  0.000  0.000  0.000  0.000  0.000  0.123
   10  0.080  0.000  0.000  0.000  0.000  0.000  0.000  0.000  0.000  0.080
   11  0.029  0.000  0.000  0.000  0.000  0.000  0.000  0.000  0.000  0.029
   12  0.006  0.000  0.000  0.000  0.000  0.000  0.000  0.000  0.000  0.006
   13  0.000  0.000  0.012  0.028  0.000  0.000  0.000  0.000  0.000  0.040
   14  0.000  0.000  0.000  0.041  0.000  0.000  0.000  0.000  0.000  0.041
   15  0.000  0.000  0.000  0.041  0.000  0.000  0.000  0.000  0.000  0.041
   16  0.000  0.000  0.012  0.028  0.000  0.000  0.000  0.000  0.000  0.040
   17  0.000  0.000  0.001  0.006  0.000  0.000  0.005  0.003  0.002  0.016
   18  0.008  0.000  0.001  0.011  0.000  0.000  0.000  0.001  0.001  0.022
   19  0.008  0.000  0.001  0.011  0.000  0.000  0.000  0.001  0.001  0.022
   20  0.000  0.000  0.001  0.006  0.000  0.000  0.005  0.003  0.002  0.016
tot    0.641  0.000  0.026  0.173  0.000  0.000  0.010  0.008  0.006  0.865
 
band     9 # energy  -18.57113840 # occ.  2.00000000
 
ion      s     py     pz     px    dxy    dyz    dz2    dxz  x2-y2    tot
    1  0.004  0.000  0.000  0.000  0.000  0.000  0.000  0.000  0.000  0.004
    2  0.080  0.000  0.000  0.000  0.000  0.000  0.000  0.000  0.000  0.081
    3  0.061  0.000  0.000  0.000  0.000  0.000  0.000  0.000  0.000  0.061
    4  0.175  0.000  0.000  0.000  0.000  0.000  0.000  0.000  0.000  0.175
    5  0.001  0.000  0.000  0.000  0.000  0.000  0.000  0.000  0.000  0.001
    6  0.003  0.000  0.000  0.000  0.000  0.000  0.000  0.000  0.000  0.003
    7  0.003  0.000  0.000  0.000  0.000  0.000  0.000  0.000  0.000  0.003
    8  0.001  0.000  0.000  0.000  0.000  0.000  0.000  0.000  0.000  0.001
    9  0.175  0.000  0.000  0.000  0.000  0.000  0.000  0.000  0.000  0.175
   10  0.061  0.000  0.000  0.000  0.000  0.000  0.000  0.000  0.000  0.061
   11  0.081  0.000  0.000  0.000  0.000  0.000  0.000  0.000  0.000  0.081
   12  0.004  0.000  0.000  0.000  0.000  0.000  0.000  0.000  0.000  0.004
   13  0.001  0.000  0.009  0.043  0.000  0.000  0.000  0.000  0.000  0.053
   14  0.000  0.000  0.001  0.013  0.000  0.000  0.000  0.000  0.000  0.014
   15  0.000  0.000  0.001  0.013  0.000  0.000  0.000  0.000  0.000  0.014
   16  0.001  0.000  0.009  0.043  0.000  0.000  0.000  0.000  0.000  0.053
   17  0.001  0.000  0.000  0.007  0.000  0.000  0.006  0.003  0.004  0.022
   18  0.001  0.000  0.004  0.004  0.000  0.000  0.003  0.011  0.000  0.022
   19  0.001  0.000  0.004  0.004  0.000  0.000  0.003  0.011  0.000  0.022
   20  0.001  0.000  0.000  0.007  0.000  0.000  0.006  0.003  0.004  0.022
tot    0.655  0.000  0.029  0.134  0.000  0.000  0.018  0.029  0.008  0.873
 
band    10 # energy  -18.52285880 # occ.  2.00000000
 
ion      s     py     pz     px    dxy    dyz    dz2    dxz  x2-y2    tot
    1  0.006  0.000  0.000  0.000  0.000  0.000  0.000  0.000  0.000  0.006
    2  0.061  0.000  0.000  0.000  0.000  0.000  0.000  0.000  0.000  0.061
    3  0.068  0.000  0.000  0.000  0.000  0.000  0.000  0.000  0.000  0.068
    4  0.022  0.000  0.000  0.000  0.000  0.000  0.000  0.000  0.000  0.022
    5  0.196  0.000  0.000  0.000  0.000  0.000  0.000  0.000  0.000  0.196
    6  0.023  0.000  0.000  0.000  0.000  0.000  0.000  0.000  0.000  0.023
    7  0.023  0.000  0.000  0.000  0.000  0.000  0.000  0.000  0.000  0.023
    8  0.196  0.000  0.000  0.000  0.000  0.000  0.000  0.000  0.000  0.196
    9  0.022  0.000  0.000  0.000  0.000  0.000  0.000  0.000  0.000  0.022
   10  0.068  0.000  0.000  0.000  0.000  0.000  0.000  0.000  0.000  0.068
   11  0.061  0.000  0.000  0.000  0.000  0.000  0.000  0.000  0.000  0.061
   12  0.006  0.000  0.000  0.000  0.000  0.000  0.000  0.000  0.000  0.006
   13  0.000  0.000  0.001  0.002  0.000  0.000  0.000  0.000  0.000  0.004
   14  0.000  0.000  0.000  0.004  0.000  0.000  0.000  0.000  0.000  0.005
   15  0.000  0.000  0.000  0.004  0.000  0.000  0.000  0.000  0.000  0.005
   16  0.000  0.000  0.001  0.002  0.000  0.000  0.000  0.000  0.000  0.004
   17  0.018  0.000  0.001  0.000  0.000  0.000  0.000  0.000  0.001  0.020
   18  0.003  0.000  0.001  0.001  0.000  0.000  0.008  0.002  0.027  0.042
   19  0.003  0.000  0.001  0.001  0.000  0.000  0.008  0.002  0.027  0.042
   20  0.018  0.000  0.001  0.000  0.000  0.000  0.000  0.000  0.000  0.020
tot    0.794  0.000  0.008  0.015  0.000  0.000  0.017  0.005  0.056  0.895
 
band    11 # energy  -18.42319646 # occ.  2.00000000
 
ion      s     py     pz     px    dxy    dyz    dz2    dxz  x2-y2    tot
    1  0.001  0.000  0.000  0.000  0.000  0.000  0.000  0.000  0.000  0.001
    2  0.032  0.000  0.000  0.000  0.000  0.000  0.000  0.000  0.000  0.032
    3  0.027  0.000  0.000  0.000  0.000  0.000  0.000  0.000  0.000  0.027
    4  0.032  0.000  0.000  0.000  0.000  0.000  0.000  0.000  0.000  0.032
    5  0.014  0.000  0.000  0.000  0.000  0.000  0.000  0.000  0.000  0.014
    6  0.246  0.000  0.000  0.000  0.000  0.000  0.000  0.000  0.000  0.247
    7  0.247  0.000  0.000  0.000  0.000  0.000  0.000  0.000  0.000  0.247
    8  0.014  0.000  0.000  0.000  0.000  0.000  0.000  0.000  0.000  0.014
    9  0.032  0.000  0.000  0.000  0.000  0.000  0.000  0.000  0.000  0.032
   10  0.027  0.000  0.000  0.000  0.000  0.000  0.000  0.000  0.000  0.027
   11  0.032  0.000  0.000  0.000  0.000  0.000  0.000  0.000  0.000  0.032
   12  0.001  0.000  0.000  0.000  0.000  0.000  0.000  0.000  0.000  0.001
   13  0.000  0.000  0.000  0.014  0.000  0.000  0.000  0.000  0.000  0.014
   14  0.000  0.000  0.000  0.025  0.000  0.000  0.000  0.001  0.000  0.025
   15  0.000  0.000  0.000  0.025  0.000  0.000  0.000  0.001  0.000  0.025
   16  0.000  0.000  0.000  0.014  0.000  0.000  0.000  0.000  0.000  0.014
   17  0.000  0.000  0.000  0.002  0.000  0.000  0.003  0.001  0.002  0.009
   18  0.003  0.000  0.002  0.004  0.000  0.000  0.002  0.036  0.000  0.047
   19  0.003  0.000  0.002  0.004  0.000  0.000  0.002  0.036  0.000  0.047
   20  0.000  0.000  0.000  0.002  0.000  0.000  0.003  0.001  0.002  0.009
tot    0.713  0.000  0.005  0.090  0.000  0.000  0.009  0.076  0.004  0.898
 
band    12 # energy  -18.34154259 # occ.  2.00000000
 
ion      s     py     pz     px    dxy    dyz    dz2    dxz  x2-y2    tot
    1  0.008  0.000  0.000  0.000  0.000  0.000  0.000  0.000  0.000  0.008
    2  0.007  0.000  0.000  0.000  0.000  0.000  0.000  0.000  0.000  0.007
    3  0.005  0.000  0.000  0.000  0.000  0.000  0.000  0.000  0.000  0.005
    4  0.001  0.000  0.000  0.000  0.000  0.000  0.000  0.000  0.000  0.001
    5  0.187  0.000  0.000  0.000  0.000  0.000  0.000  0.000  0.000  0.187
    6  0.166  0.000  0.000  0.000  0.000  0.000  0.000  0.000  0.000  0.166
    7  0.165  0.000  0.000  0.000  0.000  0.000  0.000  0.000  0.000  0.165
    8  0.187  0.000  0.000  0.000  0.000  0.000  0.000  0.000  0.000  0.187
    9  0.001  0.000  0.000  0.000  0.000  0.000  0.000  0.000  0.000  0.001
   10  0.005  0.000  0.000  0.000  0.000  0.000  0.000  0.000  0.000  0.005
   11  0.007  0.000  0.000  0.000  0.000  0.000  0.000  0.000  0.000  0.007
   12  0.008  0.000  0.000  0.000  0.000  0.000  0.000  0.000  0.000  0.008
   13  0.000  0.000  0.011  0.000  0.000  0.000  0.000  0.000  0.000  0.011
   14  0.000  0.000  0.003  0.005  0.000  0.000  0.000  0.000  0.001  0.008
   15  0.000  0.000  0.003  0.005  0.000  0.000  0.000  0.000  0.001  0.008
   16  0.000  0.000  0.011  0.000  0.000  0.000  0.000  0.000  0.000  0.011
   17  0.003  0.000  0.000  0.000  0.000  0.000  0.000  0.000  0.000  0.003
   18  0.000  0.000  0.005  0.001  0.000  0.000  0.012  0.002  0.037  0.056
   19  0.000  0.000  0.005  0.001  0.000  0.000  0.012  0.002  0.036  0.056
   20  0.003  0.000  0.000  0.000  0.000  0.000  0.000  0.000  0.000  0.003
tot    0.752  0.000  0.038  0.013  0.000  0.000  0.024  0.004  0.074  0.905
 
band    13 # energy  -18.09307099 # occ.  2.00000000
 
ion      s     py     pz     px    dxy    dyz    dz2    dxz  x2-y2    tot
    1  0.040  0.000  0.000  0.000  0.000  0.000  0.000  0.000  0.000  0.041
    2  0.206  0.000  0.000  0.000  0.000  0.000  0.000  0.000  0.000  0.206
    3  0.003  0.000  0.000  0.000  0.000  0.000  0.000  0.000  0.000  0.003
    4  0.062  0.000  0.000  0.000  0.000  0.000  0.000  0.000  0.000  0.062
    5  0.021  0.000  0.000  0.000  0.000  0.000  0.000  0.000  0.000  0.021
    6  0.000  0.000  0.000  0.000  0.000  0.000  0.000  0.000  0.000  0.000
    7  0.000  0.000  0.000  0.000  0.000  0.000  0.000  0.000  0.000  0.000
    8  0.025  0.000  0.000  0.000  0.000  0.000  0.000  0.000  0.000  0.025
    9  0.073  0.000  0.000  0.000  0.000  0.000  0.000  0.000  0.000  0.073
   10  0.004  0.000  0.000  0.000  0.000  0.000  0.000  0.000  0.000  0.004
   11  0.241  0.000  0.000  0.000  0.000  0.000  0.000  0.000  0.000  0.241
   12  0.047  0.000  0.000  0.000  0.000  0.000  0.000  0.000  0.000  0.047
   13  0.000  0.000  0.025  0.001  0.000  0.000  0.000  0.000  0.000  0.027
   14  0.000  0.000  0.001  0.001  0.000  0.000  0.000  0.000  0.000  0.002
   15  0.000  0.000  0.001  0.001  0.000  0.000  0.000  0.000  0.000  0.002
   16  0.000  0.000  0.029  0.001  0.000  0.000  0.000  0.000  0.000  0.032
   17  0.015  0.000  0.003  0.001  0.000  0.000  0.006  0.001  0.009  0.034
   18  0.000  0.000  0.002  0.001  0.000  0.000  0.003  0.002  0.004  0.011
   19  0.000  0.000  0.002  0.001  0.000  0.000  0.004  0.002  0.005  0.014
   20  0.017  0.000  0.004  0.001  0.000  0.000  0.007  0.002  0.010  0.040
tot    0.754  0.000  0.068  0.008  0.000  0.000  0.020  0.006  0.028  0.884
 
band    14 # energy  -18.09166705 # occ.  2.00000000
 
ion      s     py     pz     px    dxy    dyz    dz2    dxz  x2-y2    tot
    1  0.040  0.000  0.000  0.000  0.000  0.000  0.000  0.000  0.000  0.041
    2  0.223  0.000  0.000  0.000  0.000  0.000  0.000  0.000  0.000  0.223
    3  0.009  0.000  0.000  0.000  0.000  0.000  0.000  0.000  0.000  0.009
    4  0.086  0.000  0.000  0.000  0.000  0.000  0.000  0.000  0.000  0.086
    5  0.031  0.000  0.000  0.000  0.000  0.000  0.000  0.000  0.000  0.031
    6  0.001  0.000  0.000  0.000  0.000  0.000  0.000  0.000  0.000  0.001
    7  0.001  0.000  0.000  0.000  0.000  0.000  0.000  0.000  0.000  0.001
    8  0.027  0.000  0.000  0.000  0.000  0.000  0.000  0.000  0.000  0.027
    9  0.074  0.000  0.000  0.000  0.000  0.000  0.000  0.000  0.000  0.074
   10  0.008  0.000  0.000  0.000  0.000  0.000  0.000  0.000  0.000  0.008
   11  0.189  0.000  0.000  0.000  0.000  0.000  0.000  0.000  0.000  0.189
   12  0.034  0.000  0.000  0.000  0.000  0.000  0.000  0.000  0.000  0.034
   13  0.000  0.000  0.030  0.002  0.000  0.000  0.000  0.000  0.000  0.032
   14  0.000  0.000  0.002  0.000  0.000  0.000  0.000  0.000  0.000  0.002
   15  0.000  0.000  0.002  0.000  0.000  0.000  0.000  0.000  0.000  0.002
   16  0.000  0.000  0.025  0.001  0.000  0.000  0.000  0.000  0.000  0.027
   17  0.014  0.000  0.004  0.000  0.000  0.000  0.007  0.002  0.010  0.037
   18  0.000  0.000  0.003  0.000  0.000  0.000  0.004  0.003  0.006  0.017
   19  0.000  0.000  0.003  0.000  0.000  0.000  0.004  0.003  0.005  0.014
   20  0.011  0.000  0.003  0.000  0.000  0.000  0.006  0.001  0.009  0.032
tot    0.749  0.000  0.072  0.005  0.000  0.000  0.022  0.008  0.031  0.887
 
band    15 # energy  -17.91224903 # occ.  2.00000000
 
ion      s     py     pz     px    dxy    dyz    dz2    dxz  x2-y2    tot
    1  0.251  0.000  0.001  0.000  0.000  0.000  0.000  0.000  0.000  0.253
    2  0.022  0.000  0.000  0.000  0.000  0.000  0.000  0.000  0.000  0.022
    3  0.007  0.000  0.000  0.000  0.000  0.000  0.000  0.000  0.000  0.007
    4  0.048  0.000  0.000  0.000  0.000  0.000  0.000  0.000  0.000  0.048
    5  0.000  0.000  0.000  0.000  0.000  0.000  0.000  0.000  0.000  0.000
    6  0.002  0.000  0.000  0.000  0.000  0.000  0.000  0.000  0.000  0.002
    7  0.002  0.000  0.000  0.000  0.000  0.000  0.000  0.000  0.000  0.002
    8  0.001  0.000  0.000  0.000  0.000  0.000  0.000  0.000  0.000  0.001
    9  0.052  0.000  0.000  0.000  0.000  0.000  0.000  0.000  0.000  0.052
   10  0.007  0.000  0.000  0.000  0.000  0.000  0.000  0.000  0.000  0.007
   11  0.024  0.000  0.000  0.000  0.000  0.000  0.000  0.000  0.000  0.024
   12  0.270  0.000  0.001  0.000  0.000  0.000  0.000  0.000  0.000  0.272
   13  0.001  0.000  0.010  0.037  0.000  0.000  0.000  0.000  0.001  0.049
   14  0.000  0.000  0.000  0.001  0.000  0.000  0.000  0.000  0.000  0.002
   15  0.000  0.000  0.000  0.002  0.000  0.000  0.000  0.000  0.000  0.002
   16  0.001  0.000  0.011  0.040  0.000  0.000  0.000  0.000  0.001  0.053
   17  0.005  0.000  0.005  0.007  0.000  0.000  0.000  0.022  0.016  0.056
   18  0.001  0.000  0.001  0.001  0.000  0.000  0.001  0.004  0.000  0.007
   19  0.001  0.000  0.001  0.001  0.000  0.000  0.001  0.004  0.000  0.007
   20  0.006  0.000  0.005  0.008  0.000  0.000  0.000  0.024  0.017  0.060
tot    0.702  0.000  0.036  0.096  0.000  0.000  0.001  0.055  0.035  0.925
 
band    16 # energy  -17.90762733 # occ.  2.00000000
 
ion      s     py     pz     px    dxy    dyz    dz2    dxz  x2-y2    tot
    1  0.263  0.000  0.001  0.000  0.000  0.000  0.000  0.000  0.000  0.265
    2  0.028  0.000  0.000  0.000  0.000  0.000  0.000  0.000  0.000  0.028
    3  0.006  0.000  0.000  0.000  0.000  0.000  0.000  0.000  0.000  0.006
    4  0.054  0.000  0.000  0.000  0.000  0.000  0.000  0.000  0.000  0.054
    5  0.002  0.000  0.000  0.000  0.000  0.000  0.000  0.000  0.000  0.002
    6  0.005  0.000  0.000  0.000  0.000  0.000  0.000  0.000  0.000  0.005
    7  0.004  0.000  0.000  0.000  0.000  0.000  0.000  0.000  0.000  0.004
    8  0.002  0.000  0.000  0.000  0.000  0.000  0.000  0.000  0.000  0.002
    9  0.051  0.000  0.000  0.000  0.000  0.000  0.000  0.000  0.000  0.051
   10  0.005  0.000  0.000  0.000  0.000  0.000  0.000  0.000  0.000  0.005
   11  0.026  0.000  0.000  0.000  0.000  0.000  0.000  0.000  0.000  0.026
   12  0.244  0.000  0.001  0.000  0.000  0.000  0.000  0.000  0.000  0.246
   13  0.001  0.000  0.008  0.040  0.000  0.000  0.000  0.000  0.001  0.051
   14  0.000  0.000  0.000  0.002  0.000  0.000  0.000  0.000  0.000  0.003
   15  0.000  0.000  0.000  0.002  0.000  0.000  0.000  0.000  0.000  0.002
   16  0.001  0.000  0.007  0.038  0.000  0.000  0.000  0.000  0.001  0.047
   17  0.005  0.000  0.005  0.008  0.000  0.000  0.000  0.023  0.018  0.059
   18  0.001  0.000  0.002  0.001  0.000  0.000  0.000  0.003  0.000  0.007
   19  0.001  0.000  0.002  0.001  0.000  0.000  0.000  0.003  0.000  0.006
   20  0.005  0.000  0.004  0.007  0.000  0.000  0.000  0.021  0.017  0.055
tot    0.704  0.000  0.031  0.100  0.000  0.000  0.001  0.051  0.037  0.923
 
band    17 # energy  -16.78751329 # occ.  2.00000000
 
ion      s     py     pz     px    dxy    dyz    dz2    dxz  x2-y2    tot
    1  0.001  0.000  0.000  0.000  0.000  0.000  0.000  0.000  0.000  0.001
    2  0.003  0.000  0.000  0.000  0.000  0.000  0.000  0.000  0.000  0.004
    3  0.000  0.000  0.000  0.000  0.000  0.000  0.000  0.000  0.000  0.000
    4  0.010  0.000  0.000  0.000  0.000  0.000  0.000  0.000  0.000  0.010
    5  0.001  0.000  0.000  0.000  0.000  0.000  0.000  0.000  0.000  0.001
    6  0.002  0.000  0.000  0.000  0.000  0.000  0.000  0.000  0.000  0.002
    7  0.002  0.000  0.000  0.000  0.000  0.000  0.000  0.000  0.000  0.002
    8  0.001  0.000  0.000  0.000  0.000  0.000  0.000  0.000  0.000  0.001
    9  0.010  0.000  0.000  0.000  0.000  0.000  0.000  0.000  0.000  0.010
   10  0.000  0.000  0.000  0.000  0.000  0.000  0.000  0.000  0.000  0.000
   11  0.003  0.000  0.000  0.000  0.000  0.000  0.000  0.000  0.000  0.004
   12  0.001  0.000  0.000  0.000  0.000  0.000  0.000  0.000  0.000  0.001
   13  0.000  0.000  0.080  0.091  0.000  0.000  0.000  0.000  0.000  0.171
   14  0.000  0.000  0.052  0.228  0.000  0.000  0.000  0.000  0.000  0.280
   15  0.000  0.000  0.052  0.228  0.000  0.000  0.000  0.000  0.000  0.280
   16  0.000  0.000  0.080  0.091  0.000  0.000  0.000  0.000  0.000  0.171
   17  0.000  0.000  0.000  0.000  0.000  0.000  0.000  0.000  0.001  0.001
   18  0.000  0.000  0.000  0.000  0.000  0.000  0.000  0.001  0.000  0.001
   19  0.000  0.000  0.000  0.000  0.000  0.000  0.000  0.001  0.000  0.001
   20  0.000  0.000  0.000  0.000  0.000  0.000  0.000  0.000  0.001  0.001
tot    0.035  0.000  0.266  0.641  0.000  0.000  0.001  0.002  0.002  0.946
 
band    18 # energy  -16.75431107 # occ.  2.00000000
 
ion      s     py     pz     px    dxy    dyz    dz2    dxz  x2-y2    tot
    1  0.000  0.000  0.000  0.000  0.000  0.000  0.000  0.000  0.000  0.000
    2  0.016  0.000  0.000  0.000  0.000  0.000  0.000  0.000  0.000  0.017
    3  0.000  0.000  0.000  0.000  0.000  0.000  0.000  0.000  0.000  0.001
    4  0.000  0.000  0.000  0.000  0.000  0.000  0.000  0.000  0.000  0.000