unknown system                          
           1
     5.581684    0.000000    0.000000
     0.000000    3.946846    0.000000
     0.000000    0.000000   23.163367
   O    Sr   Ti
  12   4   4
Direct configuration=     1
   0.19901379  0.50000000  0.21345792
   0.53405022  0.00000000  0.25198981
   0.29603436  0.50000000  0.32767242
   0.79448078  0.50000000  0.31037691
   0.01362352  0.00000000  0.37855173
   0.73654823  0.50000000  0.43290171
   0.23654823  0.50000000  0.44661314
   0.51362352  0.00000000  0.50096311
   0.29448078  0.50000000  0.56913794
   0.79603436  0.50000000  0.55184243
   0.03405022  0.00000000  0.62752504
   0.69901378  0.50000000  0.66605693
   0.99105914  0.00000000  0.25747113
   0.49401703  0.00000000  0.38188649
   0.99401703  0.00000000  0.49762836
   0.49105914  0.00000000  0.62204372
   0.45816841  0.50000000  0.25852897
   0.98300453  0.50000000  0.37732216
   0.48300453  0.50000000  0.50219269
   0.95816841  0.50000000  0.62098588
