  20  20   0   0
  0.2336395E+02  0.5522883E-09  0.3905268E-09  0.2166505E-08  0.5000000E-15
  1.000000000000000E-004
  CAR 
 unknown system                          
      6.85836670    -38.65650958  301     -0.81465546      1.00000000
    -38.657  0.0000E+00  0.0000E+00
    -38.505  0.0000E+00  0.0000E+00
    -38.353  0.0000E+00  0.0000E+00
    -38.201  0.0000E+00  0.0000E+00
    -38.050  0.0000E+00  0.0000E+00
    -37.898  0.0000E+00  0.0000E+00
    -37.746  0.0000E+00  0.0000E+00
    -37.594  0.0000E+00  0.0000E+00
    -37.443  0.0000E+00  0.0000E+00
    -37.291  0.0000E+00  0.0000E+00
    -37.139  0.0000E+00  0.0000E+00
    -36.988  0.0000E+00  0.0000E+00
    -36.836  0.0000E+00  0.0000E+00
    -36.684  0.0000E+00  0.0000E+00
    -36.532  0.0000E+00  0.2000E+01
    -36.381  0.0000E+00  0.2000E+01
    -36.229  0.0000E+00  0.2000E+01
    -36.077  0.0000E+00  0.2000E+01
    -35.926  0.0000E+00  0.2000E+01
    -35.774  0.0000E+00  0.2000E+01
    -35.622  0.0000E+00  0.2000E+01
    -35.470  0.0000E+00  0.2000E+01
    -35.319  0.0000E+00  0.2000E+01
    -35.167  0.0000E+00  0.4000E+01
    -35.015  0.0000E+00  0.4000E+01
    -34.864  0.0000E+00  0.4000E+01
    -34.712  0.0000E+00  0.4000E+01
    -34.560  0.0000E+00  0.4000E+01
    -34.408  0.0000E+00  0.4000E+01
    -34.257  0.0000E+00  0.6000E+01
    -34.105  0.0000E+00  0.6000E+01
    -33.953  0.0000E+00  0.6000E+01
    -33.802  0.0000E+00  0.6000E+01
    -33.650  0.0000E+00  0.6000E+01
    -33.498  0.0000E+00  0.6000E+01
    -33.346  0.0000E+00  0.8000E+01
    -33.195  0.0000E+00  0.8000E+01
    -33.043  0.0000E+00  0.8000E+01
    -32.891  0.0000E+00  0.8000E+01
    -32.740  0.0000E+00  0.8000E+01
    -32.588  0.0000E+00  0.8000E+01
    -32.436  0.0000E+00  0.8000E+01
    -32.284  0.0000E+00  0.8000E+01
    -32.133  0.0000E+00  0.8000E+01
    -31.981  0.0000E+00  0.8000E+01
    -31.829  0.0000E+00  0.8000E+01
    -31.678  0.0000E+00  0.8000E+01
    -31.526  0.0000E+00  0.8000E+01
    -31.374  0.0000E+00  0.8000E+01
    -31.222  0.0000E+00  0.8000E+01
    -31.071  0.0000E+00  0.8000E+01
    -30.919  0.0000E+00  0.8000E+01
    -30.767  0.0000E+00  0.8000E+01
    -30.616  0.0000E+00  0.8000E+01
    -30.464  0.0000E+00  0.8000E+01
    -30.312  0.0000E+00  0.8000E+01
    -30.160  0.0000E+00  0.8000E+01
    -30.009  0.0000E+00  0.8000E+01
    -29.857  0.0000E+00  0.8000E+01
    -29.705  0.0000E+00  0.8000E+01
    -29.554  0.0000E+00  0.8000E+01
    -29.402  0.0000E+00  0.8000E+01
    -29.250  0.0000E+00  0.8000E+01
    -29.098  0.0000E+00  0.8000E+01
    -28.947  0.0000E+00  0.8000E+01
    -28.795  0.0000E+00  0.8000E+01
    -28.643  0.0000E+00  0.8000E+01
    -28.492  0.0000E+00  0.8000E+01
    -28.340  0.0000E+00  0.8000E+01
    -28.188  0.0000E+00  0.8000E+01
    -28.036  0.0000E+00  0.8000E+01
    -27.885  0.0000E+00  0.8000E+01
    -27.733  0.0000E+00  0.8000E+01
    -27.581  0.0000E+00  0.8000E+01
    -27.430  0.0000E+00  0.8000E+01
    -27.278  0.0000E+00  0.8000E+01
    -27.126  0.0000E+00  0.8000E+01
    -26.974  0.0000E+00  0.8000E+01
    -26.823  0.0000E+00  0.8000E+01
    -26.671  0.0000E+00  0.8000E+01
    -26.519  0.0000E+00  0.8000E+01
    -26.367  0.0000E+00  0.8000E+01
    -26.216  0.0000E+00  0.8000E+01
    -26.064  0.0000E+00  0.8000E+01
    -25.912  0.0000E+00  0.8000E+01
    -25.761  0.0000E+00  0.8000E+01
    -25.609  0.0000E+00  0.8000E+01
    -25.457  0.0000E+00  0.8000E+01
    -25.305  0.0000E+00  0.8000E+01
    -25.154  0.0000E+00  0.8000E+01
    -25.002  0.0000E+00  0.8000E+01
    -24.850  0.0000E+00  0.8000E+01
    -24.699  0.0000E+00  0.8000E+01
    -24.547  0.0000E+00  0.8000E+01
    -24.395  0.0000E+00  0.8000E+01
    -24.243  0.0000E+00  0.8000E+01
    -24.092  0.0000E+00  0.8000E+01
    -23.940  0.0000E+00  0.8000E+01
    -23.788  0.0000E+00  0.8000E+01
    -23.637  0.0000E+00  0.8000E+01
    -23.485  0.0000E+00  0.8000E+01
    -23.333  0.0000E+00  0.8000E+01
    -23.181  0.0000E+00  0.8000E+01
    -23.030  0.0000E+00  0.8000E+01
    -22.878  0.0000E+00  0.8000E+01
    -22.726  0.0000E+00  0.8000E+01
    -22.575  0.0000E+00  0.8000E+01
    -22.423  0.0000E+00  0.8000E+01
    -22.271  0.0000E+00  0.8000E+01
    -22.119  0.0000E+00  0.8000E+01
    -21.968  0.0000E+00  0.8000E+01
    -21.816  0.0000E+00  0.8000E+01
    -21.664  0.0000E+00  0.8000E+01
    -21.513  0.0000E+00  0.8000E+01
    -21.361  0.0000E+00  0.8000E+01
    -21.209  0.0000E+00  0.8000E+01
    -21.057  0.0000E+00  0.8000E+01
    -20.906  0.0000E+00  0.8000E+01
    -20.754  0.0000E+00  0.8000E+01
    -20.602  0.2662E+01  0.8088E+01
    -20.451  0.5678E+01  0.8777E+01
    -20.299  0.3858E+01  0.9848E+01
    -20.147  0.4323E+01  0.1061E+02
    -19.995  0.5036E+01  0.1137E+02
    -19.844  0.2881E+01  0.1188E+02
    -19.692  0.4438E+01  0.1373E+02
    -19.540  0.0000E+00  0.1400E+02
    -19.389  0.0000E+00  0.1400E+02
    -19.237  0.1266E+02  0.1553E+02
    -19.085  0.2673E+02  0.1732E+02
    -18.933  0.0000E+00  0.1800E+02
    -18.782  0.0000E+00  0.1800E+02
    -18.630  0.5133E+01  0.1995E+02
    -18.478  0.1728E+02  0.2260E+02
    -18.327  0.1799E+02  0.2630E+02
    -18.175  0.1297E+02  0.2867E+02
    -18.023  0.0000E+00  0.3000E+02
    -17.871  0.0000E+00  0.3000E+02
    -17.720  0.4075E+01  0.3169E+02
    -17.568  0.4758E-01  0.3200E+02
    -17.416  0.1965E+01  0.3206E+02
    -17.265  0.1455E+02  0.3479E+02
    -17.113  0.2560E+02  0.3798E+02
    -16.961  0.0000E+00  0.4000E+02
    -16.809  0.0000E+00  0.4000E+02
    -16.658  0.0000E+00  0.4000E+02
    -16.506  0.1826E+02  0.4110E+02
    -16.354  0.2016E+02  0.4272E+02
    -16.203  0.0000E+00  0.4600E+02
    -16.051  0.7452E+01  0.4840E+02
    -15.899  0.5329E+00  0.5000E+02
    -15.747  0.0000E+00  0.5000E+02
    -15.596  0.0000E+00  0.5000E+02
    -15.444  0.7249E+01  0.5034E+02
    -15.292  0.4089E+01  0.5235E+02
    -15.140  0.9545E+01  0.5419E+02
    -14.989  0.0000E+00  0.5600E+02
    -14.837  0.0000E+00  0.5600E+02
    -14.685  0.0000E+00  0.5600E+02
    -14.534  0.0000E+00  0.5600E+02
    -14.382  0.0000E+00  0.5600E+02
    -14.230  0.0000E+00  0.5600E+02
    -14.078  0.0000E+00  0.5600E+02
    -13.927  0.0000E+00  0.5600E+02
    -13.775  0.0000E+00  0.5600E+02
    -13.623  0.0000E+00  0.5600E+02
    -13.472  0.0000E+00  0.5600E+02
    -13.320  0.0000E+00  0.5600E+02
    -13.168  0.0000E+00  0.5600E+02
    -13.016  0.0000E+00  0.5600E+02
    -12.865  0.0000E+00  0.5600E+02
    -12.713  0.0000E+00  0.5600E+02
    -12.561  0.0000E+00  0.5600E+02
    -12.410  0.0000E+00  0.5600E+02
    -12.258  0.0000E+00  0.5600E+02
    -12.106  0.0000E+00  0.5600E+02
    -11.954  0.0000E+00  0.5600E+02
    -11.803  0.0000E+00  0.5600E+02
    -11.651  0.0000E+00  0.5600E+02
    -11.499  0.0000E+00  0.5600E+02
    -11.348  0.0000E+00  0.5600E+02
    -11.196  0.0000E+00  0.5600E+02
    -11.044  0.0000E+00  0.5600E+02
    -10.892  0.0000E+00  0.5600E+02
    -10.741  0.0000E+00  0.5600E+02
    -10.589  0.0000E+00  0.5600E+02
    -10.437  0.0000E+00  0.5600E+02
    -10.286  0.0000E+00  0.5600E+02
    -10.134  0.0000E+00  0.5600E+02
     -9.982  0.0000E+00  0.5600E+02
     -9.830  0.0000E+00  0.5600E+02
     -9.679  0.0000E+00  0.5600E+02
     -9.527  0.0000E+00  0.5600E+02
     -9.375  0.0000E+00  0.5600E+02
     -9.224  0.0000E+00  0.5600E+02
     -9.072  0.0000E+00  0.5600E+02
     -8.920  0.0000E+00  0.5600E+02
     -8.768  0.0000E+00  0.5600E+02
     -8.617  0.0000E+00  0.5600E+02
     -8.465  0.0000E+00  0.5600E+02
     -8.313  0.0000E+00  0.5600E+02
     -8.162  0.0000E+00  0.5600E+02
     -8.010  0.0000E+00  0.5600E+02
     -7.858  0.0000E+00  0.5600E+02
     -7.706  0.0000E+00  0.5600E+02
     -7.555  0.1332E+01  0.5618E+02
     -7.403  0.1329E+01  0.5638E+02
     -7.251  0.1327E+01  0.5658E+02
     -7.100  0.2246E+01  0.5680E+02
     -6.948  0.1086E+02  0.5792E+02
     -6.796  0.1599E+02  0.6022E+02
     -6.644  0.1406E+02  0.6221E+02
     -6.493  0.6557E+01  0.6384E+02
     -6.341  0.6689E+01  0.6484E+02
     -6.189  0.7405E+01  0.6590E+02
     -6.038  0.1157E+02  0.6728E+02
     -5.886  0.1381E+02  0.6933E+02
     -5.734  0.1225E+02  0.7131E+02
     -5.582  0.1270E+02  0.7311E+02
     -5.431  0.1049E+02  0.7482E+02
     -5.279  0.1424E+02  0.7660E+02
     -5.127  0.1604E+02  0.7893E+02
     -4.976  0.1827E+02  0.8181E+02
     -4.824  0.1531E+02  0.8459E+02
     -4.672  0.1267E+02  0.8660E+02
     -4.520  0.8009E+01  0.8802E+02
     -4.369  0.8333E+01  0.8922E+02
     -4.217  0.1486E+02  0.9118E+02
     -4.065  0.1752E+02  0.9415E+02
     -3.913  0.8852E+01  0.9601E+02
     -3.762  0.1822E+02  0.9781E+02
     -3.610  0.8591E+01  0.1004E+03
     -3.458  0.1397E+02  0.1022E+03
     -3.307  0.7509E+01  0.1037E+03
     -3.155  0.7516E+01  0.1048E+03
     -3.003  0.3745E+01  0.1058E+03
     -2.851  0.2774E+02  0.1080E+03
     -2.700  0.1336E+02  0.1105E+03
     -2.548  0.4331E+01  0.1118E+03
     -2.396  0.3225E+01  0.1121E+03
     -2.245  0.1291E+02  0.1134E+03
     -2.093  0.1420E+02  0.1153E+03
     -1.941  0.1375E+02  0.1172E+03
     -1.789  0.1595E+01  0.1180E+03
     -1.638  0.5493E+01  0.1185E+03
     -1.486  0.6984E+01  0.1196E+03
     -1.334  0.6519E+01  0.1204E+03
     -1.183  0.7524E+01  0.1218E+03
     -1.031  0.1274E+02  0.1233E+03
     -0.879  0.4231E+02  0.1259E+03
     -0.727  0.1018E+02  0.1297E+03
     -0.576  0.6276E+01  0.1309E+03
     -0.424  0.1116E+02  0.1320E+03
     -0.272  0.6113E+01  0.1335E+03
     -0.121  0.4670E+01  0.1343E+03
      0.031  0.3097E+01  0.1349E+03
      0.183  0.5080E+01  0.1357E+03
      0.335  0.6021E+01  0.1365E+03
      0.486  0.7105E+01  0.1376E+03
      0.638  0.7140E+01  0.1386E+03
      0.790  0.8416E+01  0.1399E+03
      0.941  0.7458E+01  0.1410E+03
      1.093  0.4274E+01  0.1423E+03
      1.245  0.3918E+01  0.1429E+03
      1.397  0.6004E+01  0.1437E+03
      1.548  0.3515E+01  0.1443E+03
      1.700  0.4847E+01  0.1449E+03
      1.852  0.5893E+01  0.1459E+03
      2.003  0.4693E+01  0.1467E+03
      2.155  0.3938E+01  0.1473E+03
      2.307  0.1083E+01  0.1478E+03
      2.459  0.5947E+00  0.1479E+03
      2.610  0.0000E+00  0.1480E+03
      2.762  0.3447E+01  0.1482E+03
      2.914  0.3465E+01  0.1488E+03
      3.065  0.6192E+01  0.1495E+03
      3.217  0.1459E+01  0.1502E+03
      3.369  0.1852E+01  0.1505E+03
      3.521  0.1248E+01  0.1508E+03
      3.672  0.1107E+01  0.1509E+03
      3.824  0.1106E+01  0.1511E+03
      3.976  0.1105E+01  0.1513E+03
      4.127  0.1104E+01  0.1514E+03
      4.279  0.1113E+01  0.1516E+03
      4.431  0.1121E+01  0.1518E+03
      4.583  0.6875E+00  0.1519E+03
      4.734  0.1833E+00  0.1520E+03
      4.886  0.0000E+00  0.1520E+03
      5.038  0.0000E+00  0.1520E+03
      5.189  0.0000E+00  0.1520E+03
      5.341  0.0000E+00  0.1520E+03
      5.493  0.0000E+00  0.1520E+03
      5.645  0.0000E+00  0.1520E+03
      5.796  0.0000E+00  0.1520E+03
      5.948  0.0000E+00  0.1520E+03
      6.100  0.0000E+00  0.1520E+03
      6.252  0.0000E+00  0.1520E+03
      6.403  0.0000E+00  0.1520E+03
      6.555  0.0000E+00  0.1520E+03
      6.707  0.0000E+00  0.1520E+03
      6.858  0.0000E+00  0.1520E+03
