   20   20    1    1
  0.2336395E+02  0.5522883E-09  0.3905268E-09  0.2166505E-08  0.5000000E-15
  1.000000000000000E-004
  CAR 
 unknown system                          
    128      6     76
 
  0.0000000E+00  0.0000000E+00  0.0000000E+00  0.8333333E-01
    1      -36.587652   1.000000
    2      -35.287116   1.000000
    3      -34.338033   1.000000
    4      -33.407092   1.000000
    5      -20.517881   1.000000
    6      -20.043724   1.000000
    7      -19.870429   1.000000
    8      -19.374092   1.000000
    9      -19.061411   1.000000
   10      -18.698864   1.000000
   11      -18.584884   1.000000
   12      -18.543833   1.000000
   13      -18.521425   1.000000
   14      -18.357565   1.000000
   15      -18.120591   1.000000
   16      -17.837338   1.000000
   17      -17.397258   1.000000
   18      -17.330888   1.000000
   19      -17.152574   1.000000
   20      -17.077653   1.000000
   21      -16.460530   1.000000
   22      -16.373570   1.000000
   23      -16.259590   1.000000
   24      -16.160155   1.000000
   25      -16.127384   1.000000
   26      -15.413621   1.000000
   27      -15.150460   1.000000
   28      -15.097346   1.000000
   29       -7.131796   1.000000
   30       -6.819578   1.000000
   31       -6.658393   1.000000
   32       -6.023912   1.000000
   33       -5.907310   1.000000
   34       -5.555124   1.000000
   35       -5.465285   1.000000
   36       -5.306922   1.000000
   37       -5.145616   1.000000
   38       -5.060712   1.000000
   39       -5.014176   1.000000
   40       -4.866412   1.000000
   41       -4.772539   1.000000
   42       -4.592446   1.000000
   43       -4.266018   1.000000
   44       -4.145268   1.000000
   45       -4.089141   1.000000
   46       -4.016726   1.000000
   47       -3.803635   1.000000
   48       -3.783145   1.000000
   49       -3.560626   1.000000
   50       -3.266506   1.000000
   51       -3.031999   1.000000
   52       -2.943048   1.000000
   53       -2.864473   1.000000
   54       -2.757807   1.000000
   55       -2.678579   1.000000
   56       -2.447081   1.000000
   57       -2.331319   1.000000
   58       -1.986949   1.000000
   59       -1.952089   1.000000
   60       -1.368481   1.000000
   61       -1.335591   1.000000
   62       -1.113380   1.000000
   63       -1.081939   1.000000
   64       -1.040520   1.087164
   65       -0.889890   1.087677
   66       -0.807848   0.149994
   67       -0.774792   0.000000
   68       -0.354359   0.000000
   69        0.046411   0.000000
   70        0.264973   0.000000
   71        0.366315   0.000000
   72        0.628540   0.000000
   73        1.297769   0.000000
   74        1.594390   0.000000
   75        2.638006   0.000000
   76        4.126523   0.000000
 
  0.3333333E+00  0.0000000E+00  0.0000000E+00  0.1666667E+00
    1      -36.586995   1.000000
    2      -35.286396   1.000000
    3      -34.337330   1.000000
    4      -33.406503   1.000000
    5      -20.645538   1.000000
    6      -20.297568   1.000000
    7      -19.695888   1.000000
    8      -19.334446   1.000000
    9      -19.221239   1.000000
   10      -18.738009   1.000000
   11      -18.585604   1.000000
   12      -18.407428   1.000000
   13      -18.357715   1.000000
   14      -18.337987   1.000000
   15      -18.250515   1.000000
   16      -17.784935   1.000000
   17      -17.361547   1.000000
   18      -17.332274   1.000000
   19      -17.086142   1.000000
   20      -17.059972   1.000000
   21      -16.387294   1.000000
   22      -16.375066   1.000000
   23      -16.284757   1.000000
   24      -16.104597   1.000000
   25      -15.989275   1.000000
   26      -15.415585   1.000000
   27      -15.158536   1.000000
   28      -15.067603   1.000000
   29       -6.859834   1.000000
   30       -6.723951   1.000000
   31       -6.523972   1.000000
   32       -5.954799   1.000000
   33       -5.778821   1.000000
   34       -5.652287   1.000000
   35       -5.594890   1.000000
   36       -5.483299   1.000000
   37       -5.240638   1.000000
   38       -5.018500   1.000000
   39       -4.940175   1.000000
   40       -4.852273   1.000000
   41       -4.668407   1.000000
   42       -4.641636   1.000000
   43       -4.593216   1.000000
   44       -4.489702   1.000000
   45       -4.116070   1.000000
   46       -4.091779   1.000000
   47       -3.970474   1.000000
   48       -3.675828   1.000000
   49       -3.620705   1.000000
   50       -3.614735   1.000000
   51       -3.388937   1.000000
   52       -3.093230   1.000000
   53       -3.067343   1.000000
   54       -2.924944   1.000000
   55       -2.658267   1.000000
   56       -2.564820   1.000000
   57       -2.443627   1.000000
   58       -2.362683   1.000000
   59       -1.784698   1.000000
   60       -1.490825   1.000000
   61       -1.430916   1.000000
   62       -1.097278   1.000000
   63       -1.064898   1.000000
   64       -0.892581   1.016526
   65       -0.866394   1.068730
   66       -0.862927   0.356953
   67       -0.761493   0.000000
   68       -0.485798   0.000000
   69        0.053656   0.000000
   70        0.300827   0.000000
   71        0.363636   0.000000
   72        1.061853   0.000000
   73        1.311988   0.000000
   74        2.609610   0.000000
   75        2.718546   0.000000
   76        4.517369   0.000000
 
  0.0000000E+00  0.2500000E+00  0.0000000E+00  0.1666667E+00
    1      -36.578530   1.000000
    2      -35.276710   1.000000
    3      -34.327672   1.000000
    4      -33.396933   1.000000
    5      -20.413100   1.000000
    6      -19.912009   1.000000
    7      -19.739178   1.000000
    8      -19.256378   1.000000
    9      -19.098393   1.000000
   10      -18.611850   1.000000
   11      -18.590757   1.000000
   12      -18.569425   1.000000
   13      -18.464540   1.000000
   14      -18.253632   1.000000
   15      -18.135218   1.000000
   16      -17.720876   1.000000
   17      -17.300140   1.000000
   18      -17.291736   1.000000
   19      -17.215764   1.000000
   20      -17.128401   1.000000
   21      -16.568931   1.000000
   22      -16.350487   1.000000
   23      -16.265697   1.000000
   24      -16.167231   1.000000
   25      -16.104707   1.000000
   26      -15.349084   1.000000
   27      -15.283294   1.000000
   28      -15.180324   1.000000
   29       -7.019185   1.000000
   30       -6.776099   1.000000
   31       -6.641677   1.000000
   32       -6.602523   1.000000
   33       -6.210321   1.000000
   34       -6.193932   1.000000
   35       -5.910643   1.000000
   36       -5.709120   1.000000
   37       -5.571233   1.000000
   38       -5.381184   1.000000
   39       -5.232940   1.000000
   40       -5.114146   1.000000
   41       -4.993612   1.000000
   42       -4.935381   1.000000
   43       -4.714493   1.000000
   44       -4.506161   1.000000
   45       -4.464979   1.000000
   46       -4.199531   1.000000
   47       -4.167708   1.000000
   48       -3.927478   1.000000
   49       -3.883606   1.000000
   50       -3.667103   1.000000
   51       -3.412169   1.000000
   52       -3.360042   1.000000
   53       -2.985327   1.000000
   54       -2.841761   1.000000
   55       -2.777026   1.000000
   56       -2.565312   1.000000
   57       -2.262601   1.000000
   58       -2.161815   1.000000
   59       -2.042410   1.000000
   60       -1.481956   1.000000
   61       -1.277579   1.000000
   62       -1.051645   1.000000
   63       -0.868957   0.999318
   64       -0.784375   0.371126
   65       -0.761385   0.043571
   66       -0.400878  -0.067525
   67       -0.370101   0.000000
   68       -0.024685   0.000000
   69        0.264626   0.000000
   70        0.699696   0.000000
   71        0.825172   0.000000
   72        0.874879   0.000000
   73        1.726169   0.000000
   74        1.740674   0.000000
   75        3.021458   0.000000
   76        4.789509   0.000000
 
  0.3333333E+00  0.2500000E+00  0.0000000E+00  0.3333333E+00
    1      -36.578061   1.000000
    2      -35.276217   1.000000
    3      -34.327193   1.000000
    4      -33.396553   1.000000
    5      -20.411928   1.000000
    6      -20.174376   1.000000
    7      -19.693169   1.000000
    8      -19.292260   1.000000
    9      -19.109095   1.000000
   10      -18.723350   1.000000
   11      -18.567123   1.000000
   12      -18.418148   1.000000
   13      -18.347987   1.000000
   14      -18.298300   1.000000
   15      -18.183526   1.000000
   16      -17.785805   1.000000
   17      -17.326851   1.000000
   18      -17.202218   1.000000
   19      -17.166188   1.000000
   20      -17.101889   1.000000
   21      -16.499060   1.000000
   22      -16.293960   1.000000
   23      -16.240564   1.000000
   24      -16.173736   1.000000
   25      -15.984392   1.000000
   26      -15.348904   1.000000
   27      -15.202866   1.000000
   28      -15.112290   1.000000
   29       -6.895063   1.000000
   30       -6.874799   1.000000
   31       -6.711477   1.000000
   32       -6.573177   1.000000
   33       -6.319193   1.000000
   34       -6.138280   1.000000
   35       -5.889167   1.000000
   36       -5.815697   1.000000
   37       -5.647865   1.000000
   38       -5.362887   1.000000
   39       -5.311232   1.000000
   40       -5.085294   1.000000
   41       -5.025895   1.000000
   42       -4.960727   1.000000
   43       -4.871499   1.000000
   44       -4.821821   1.000000
   45       -4.321144   1.000000
   46       -4.260029   1.000000
   47       -4.100119   1.000000
   48       -4.040531   1.000000
   49       -3.847969   1.000000
   50       -3.732216   1.000000
   51       -3.674848   1.000000
   52       -3.431949   1.000000
   53       -3.363132   1.000000
   54       -2.962984   1.000000
   55       -2.901933   1.000000
   56       -2.745178   1.000000
   57       -2.214677   1.000000
   58       -2.114098   1.000000
   59       -2.008681   1.000000
   60       -1.684989   1.000000
   61       -1.229086   1.000000
   62       -1.036177   1.000000
   63       -0.901834   1.013748
   64       -0.858954   0.945398
   65       -0.803222   0.250834
   66       -0.465365  -0.068839
   67       -0.276653   0.000000
   68        0.061416   0.000000
   69        0.355998   0.000000
   70        0.850632   0.000000
   71        0.873058   0.000000
   72        0.975921   0.000000
   73        1.712547   0.000000
   74        1.789637   0.000000
   75        2.966488   0.000000
   76        3.016351   0.000000
 
  0.0000000E+00  0.5000000E+00  0.0000000E+00  0.8333333E-01
    1      -36.569374   1.000000
    2      -35.266258   1.000000
    3      -34.317266   1.000000
    4      -33.386731   1.000000
    5      -20.420159   1.000000
    6      -19.693290   1.000000
    7      -19.571655   1.000000
    8      -19.213111   1.000000
    9      -19.068769   1.000000
   10      -18.738147   1.000000
   11      -18.543842   1.000000
   12      -18.405483   1.000000
   13      -18.387324   1.000000
   14      -18.194900   1.000000
   15      -18.066733   1.000000
   16      -17.566158   1.000000
   17      -17.475750   1.000000
   18      -17.227972   1.000000
   19      -17.166383   1.000000
   20      -17.090357   1.000000
   21      -16.585156   1.000000
   22      -16.531571   1.000000
   23      -16.245254   1.000000
   24      -16.104466   1.000000
   25      -15.893808   1.000000
   26      -15.562836   1.000000
   27      -15.464942   1.000000
   28      -15.087824   1.000000
   29       -7.677273   1.000000
   30       -7.005907   1.000000
   31       -6.768560   1.000000
   32       -6.693206   1.000000
   33       -6.602976   1.000000
   34       -6.583613   1.000000
   35       -6.359827   1.000000
   36       -5.990650   1.000000
   37       -5.969893   1.000000
   38       -5.677168   1.000000
   39       -5.583234   1.000000
   40       -5.507075   1.000000
   41       -5.176358   1.000000
   42       -5.045398   1.000000
   43       -4.958863   1.000000
   44       -4.856980   1.000000
   45       -4.631240   1.000000
   46       -4.595684   1.000000
   47       -4.523470   1.000000
   48       -4.194425   1.000000
   49       -4.111565   1.000000
   50       -3.755959   1.000000
   51       -3.618748   1.000000
   52       -3.514472   1.000000
   53       -3.043873   1.000000
   54       -2.880464   1.000000
   55       -2.759732   1.000000
   56       -2.638386   1.000000
   57       -2.301086   1.000000
   58       -2.151174   1.000000
   59       -1.891639   1.000000
   60       -1.379893   1.000000
   61       -1.254432   1.000000
   62       -0.900256   1.000000
   63       -0.762880   0.353068
   64       -0.726549  -0.097596
   65       -0.400412   0.000000
   66       -0.373591   0.000000
   67       -0.201149   0.000000
   68        0.693529   0.000000
   69        0.753392   0.000000
   70        0.756261   0.000000
   71        1.437294   0.000000
   72        1.486420   0.000000
   73        1.817654   0.000000
   74        2.315083   0.000000
   75        3.166815   0.000000
   76        3.551927   0.000000
 
  0.3333333E+00  0.5000000E+00  0.0000000E+00  0.1666667E+00
    1      -36.569095   1.000000
    2      -35.265995   1.000000
    3      -34.317015   1.000000
    4      -33.386562   1.000000
    5      -20.247150   1.000000
    6      -19.941229   1.000000
    7      -19.802393   1.000000
    8      -19.192396   1.000000
    9      -19.046421   1.000000
   10      -18.644716   1.000000
   11      -18.465671   1.000000
   12      -18.453658   1.000000
   13      -18.403033   1.000000
   14      -18.222692   1.000000
   15      -18.103633   1.000000
   16      -17.785595   1.000000
   17      -17.271688   1.000000
   18      -17.247960   1.000000
   19      -17.160018   1.000000
   20      -17.054282   1.000000
   21      -16.532214   1.000000
   22      -16.289122   1.000000
   23      -16.239109   1.000000
   24      -16.122517   1.000000
   25      -15.956582   1.000000
   26      -15.466953   1.000000
   27      -15.278550   1.000000
   28      -15.005023   1.000000
   29       -7.697709   1.000000
   30       -7.064452   1.000000
   31       -6.976647   1.000000
   32       -6.943507   1.000000
   33       -6.686319   1.000000
   34       -6.616189   1.000000
   35       -6.130295   1.000000
   36       -6.096528   1.000000
   37       -6.003427   1.000000
   38       -5.907858   1.000000
   39       -5.592194   1.000000
   40       -5.392489   1.000000
   41       -5.304543   1.000000
   42       -5.279729   1.000000
   43       -5.117112   1.000000
   44       -4.940552   1.000000
   45       -4.768326   1.000000
   46       -4.353563   1.000000
   47       -4.258062   1.000000
   48       -4.163124   1.000000
   49       -4.147195   1.000000
   50       -3.871134   1.000000
   51       -3.779024   1.000000
   52       -3.582207   1.000000
   53       -3.536398   1.000000
   54       -2.847474   1.000000
   55       -2.791909   1.000000
   56       -2.738901   1.000000
   57       -2.070158   1.000000
   58       -2.014716   1.000000
   59       -1.910209   1.000000
   60       -1.655221   1.000000
   61       -1.155500   1.000000
   62       -0.893574   1.000000
   63       -0.873449   1.004203
   64       -0.787350   0.134663
   65       -0.658134   0.000000
   66       -0.311523   0.000000
   67        0.083241   0.000000
   68        0.757698   0.000000
   69        1.016842   0.000000
   70        1.451912   0.000000
   71        1.465603   0.000000
   72        1.890277   0.000000
   73        2.272595   0.000000
   74        2.280689   0.000000
   75        3.187737   0.000000
   76        3.481196   0.000000
