  20  20   0   0
  0.2322149E+02  0.3946846E-09  0.3946846E-09  0.2981396E-08  0.5000000E-15
  1.000000000000000E-004
  CAR 
 unknown system                          
      9.16519817    -36.70532448  301      0.02931907      1.00000000
    -36.705  0.0000E+00  0.0000E+00
    -36.552  0.0000E+00  0.0000E+00
    -36.400  0.0000E+00  0.0000E+00
    -36.247  0.0000E+00  0.0000E+00
    -36.094  0.0000E+00  0.0000E+00
    -35.941  0.0000E+00  0.0000E+00
    -35.788  0.0000E+00  0.0000E+00
    -35.635  0.0000E+00  0.0000E+00
    -35.482  0.0000E+00  0.0000E+00
    -35.329  0.0000E+00  0.0000E+00
    -35.176  0.0000E+00  0.0000E+00
    -35.023  0.0000E+00  0.0000E+00
    -34.871  0.0000E+00  0.0000E+00
    -34.718  0.0000E+00  0.0000E+00
    -34.565  0.0000E+00  0.2000E+01
    -34.412  0.0000E+00  0.2000E+01
    -34.259  0.0000E+00  0.2000E+01
    -34.106  0.0000E+00  0.2000E+01
    -33.953  0.0000E+00  0.2000E+01
    -33.800  0.0000E+00  0.2000E+01
    -33.647  0.0000E+00  0.2000E+01
    -33.494  0.0000E+00  0.4000E+01
    -33.341  0.3732E+02  0.7904E+01
    -33.189  0.0000E+00  0.8000E+01
    -33.036  0.0000E+00  0.8000E+01
    -32.883  0.0000E+00  0.8000E+01
    -32.730  0.0000E+00  0.8000E+01
    -32.577  0.0000E+00  0.8000E+01
    -32.424  0.0000E+00  0.8000E+01
    -32.271  0.0000E+00  0.8000E+01
    -32.118  0.0000E+00  0.8000E+01
    -31.965  0.0000E+00  0.8000E+01
    -31.812  0.0000E+00  0.8000E+01
    -31.660  0.0000E+00  0.8000E+01
    -31.507  0.0000E+00  0.8000E+01
    -31.354  0.0000E+00  0.8000E+01
    -31.201  0.0000E+00  0.8000E+01
    -31.048  0.0000E+00  0.8000E+01
    -30.895  0.0000E+00  0.8000E+01
    -30.742  0.0000E+00  0.8000E+01
    -30.589  0.0000E+00  0.8000E+01
    -30.436  0.0000E+00  0.8000E+01
    -30.283  0.0000E+00  0.8000E+01
    -30.131  0.0000E+00  0.8000E+01
    -29.978  0.0000E+00  0.8000E+01
    -29.825  0.0000E+00  0.8000E+01
    -29.672  0.0000E+00  0.8000E+01
    -29.519  0.0000E+00  0.8000E+01
    -29.366  0.0000E+00  0.8000E+01
    -29.213  0.0000E+00  0.8000E+01
    -29.060  0.0000E+00  0.8000E+01
    -28.907  0.0000E+00  0.8000E+01
    -28.754  0.0000E+00  0.8000E+01
    -28.602  0.0000E+00  0.8000E+01
    -28.449  0.0000E+00  0.8000E+01
    -28.296  0.0000E+00  0.8000E+01
    -28.143  0.0000E+00  0.8000E+01
    -27.990  0.0000E+00  0.8000E+01
    -27.837  0.0000E+00  0.8000E+01
    -27.684  0.0000E+00  0.8000E+01
    -27.531  0.0000E+00  0.8000E+01
    -27.378  0.0000E+00  0.8000E+01
    -27.225  0.0000E+00  0.8000E+01
    -27.073  0.0000E+00  0.8000E+01
    -26.920  0.0000E+00  0.8000E+01
    -26.767  0.0000E+00  0.8000E+01
    -26.614  0.0000E+00  0.8000E+01
    -26.461  0.0000E+00  0.8000E+01
    -26.308  0.0000E+00  0.8000E+01
    -26.155  0.0000E+00  0.8000E+01
    -26.002  0.0000E+00  0.8000E+01
    -25.849  0.0000E+00  0.8000E+01
    -25.696  0.0000E+00  0.8000E+01
    -25.543  0.0000E+00  0.8000E+01
    -25.391  0.0000E+00  0.8000E+01
    -25.238  0.0000E+00  0.8000E+01
    -25.085  0.0000E+00  0.8000E+01
    -24.932  0.0000E+00  0.8000E+01
    -24.779  0.0000E+00  0.8000E+01
    -24.626  0.0000E+00  0.8000E+01
    -24.473  0.0000E+00  0.8000E+01
    -24.320  0.0000E+00  0.8000E+01
    -24.167  0.0000E+00  0.8000E+01
    -24.014  0.0000E+00  0.8000E+01
    -23.862  0.0000E+00  0.8000E+01
    -23.709  0.0000E+00  0.8000E+01
    -23.556  0.0000E+00  0.8000E+01
    -23.403  0.0000E+00  0.8000E+01
    -23.250  0.0000E+00  0.8000E+01
    -23.097  0.0000E+00  0.8000E+01
    -22.944  0.0000E+00  0.8000E+01
    -22.791  0.0000E+00  0.8000E+01
    -22.638  0.0000E+00  0.8000E+01
    -22.485  0.0000E+00  0.8000E+01
    -22.333  0.0000E+00  0.8000E+01
    -22.180  0.0000E+00  0.8000E+01
    -22.027  0.0000E+00  0.8000E+01
    -21.874  0.0000E+00  0.8000E+01
    -21.721  0.0000E+00  0.8000E+01
    -21.568  0.0000E+00  0.8000E+01
    -21.415  0.0000E+00  0.8000E+01
    -21.262  0.0000E+00  0.8000E+01
    -21.109  0.0000E+00  0.8000E+01
    -20.956  0.0000E+00  0.8000E+01
    -20.804  0.0000E+00  0.8000E+01
    -20.651  0.0000E+00  0.8000E+01
    -20.498  0.0000E+00  0.8000E+01
    -20.345  0.0000E+00  0.8000E+01
    -20.192  0.0000E+00  0.8000E+01
    -20.039  0.0000E+00  0.8000E+01
    -19.886  0.0000E+00  0.8000E+01
    -19.733  0.0000E+00  0.8000E+01
    -19.580  0.0000E+00  0.8000E+01
    -19.427  0.0000E+00  0.8000E+01
    -19.275  0.0000E+00  0.8000E+01
    -19.122  0.0000E+00  0.8000E+01
    -18.969  0.0000E+00  0.8000E+01
    -18.816  0.0000E+00  0.8000E+01
    -18.663  0.0000E+00  0.8000E+01
    -18.510  0.0000E+00  0.8000E+01
    -18.357  0.0000E+00  0.8000E+01
    -18.204  0.7670E+00  0.8011E+01
    -18.051  0.1404E+02  0.9454E+01
    -17.898  0.8442E+01  0.1127E+02
    -17.746  0.8046E+01  0.1246E+02
    -17.593  0.3947E+01  0.1329E+02
    -17.440  0.8336E+01  0.1491E+02
    -17.287  0.2398E+02  0.1652E+02
    -17.134  0.4226E+02  0.2015E+02
    -16.981  0.6749E+01  0.2606E+02
    -16.828  0.2634E+02  0.2819E+02
    -16.675  0.7011E+01  0.2948E+02
    -16.522  0.3658E+02  0.3156E+02
    -16.369  0.0000E+00  0.3600E+02
    -16.216  0.1793E+00  0.3601E+02
    -16.064  0.1396E+01  0.3615E+02
    -15.911  0.2576E+01  0.3647E+02
    -15.758  0.5973E+01  0.3716E+02
    -15.605  0.2045E+02  0.3878E+02
    -15.452  0.3462E+02  0.4397E+02
    -15.299  0.3522E+02  0.4886E+02
    -15.146  0.2400E+02  0.5403E+02
    -14.993  0.0000E+00  0.5600E+02
    -14.840  0.0000E+00  0.5600E+02
    -14.687  0.0000E+00  0.5600E+02
    -14.535  0.0000E+00  0.5600E+02
    -14.382  0.0000E+00  0.5600E+02
    -14.229  0.0000E+00  0.5600E+02
    -14.076  0.0000E+00  0.5600E+02
    -13.923  0.0000E+00  0.5600E+02
    -13.770  0.0000E+00  0.5600E+02
    -13.617  0.0000E+00  0.5600E+02
    -13.464  0.0000E+00  0.5600E+02
    -13.311  0.0000E+00  0.5600E+02
    -13.158  0.0000E+00  0.5600E+02
    -13.006  0.0000E+00  0.5600E+02
    -12.853  0.0000E+00  0.5600E+02
    -12.700  0.0000E+00  0.5600E+02
    -12.547  0.0000E+00  0.5600E+02
    -12.394  0.0000E+00  0.5600E+02
    -12.241  0.0000E+00  0.5600E+02
    -12.088  0.0000E+00  0.5600E+02
    -11.935  0.0000E+00  0.5600E+02
    -11.782  0.0000E+00  0.5600E+02
    -11.629  0.0000E+00  0.5600E+02
    -11.477  0.0000E+00  0.5600E+02
    -11.324  0.0000E+00  0.5600E+02
    -11.171  0.0000E+00  0.5600E+02
    -11.018  0.0000E+00  0.5600E+02
    -10.865  0.0000E+00  0.5600E+02
    -10.712  0.0000E+00  0.5600E+02
    -10.559  0.0000E+00  0.5600E+02
    -10.406  0.0000E+00  0.5600E+02
    -10.253  0.0000E+00  0.5600E+02
    -10.100  0.0000E+00  0.5600E+02
     -9.948  0.0000E+00  0.5600E+02
     -9.795  0.0000E+00  0.5600E+02
     -9.642  0.0000E+00  0.5600E+02
     -9.489  0.0000E+00  0.5600E+02
     -9.336  0.0000E+00  0.5600E+02
     -9.183  0.0000E+00  0.5600E+02
     -9.030  0.0000E+00  0.5600E+02
     -8.877  0.0000E+00  0.5600E+02
     -8.724  0.0000E+00  0.5600E+02
     -8.571  0.0000E+00  0.5600E+02
     -8.419  0.0000E+00  0.5600E+02
     -8.266  0.0000E+00  0.5600E+02
     -8.113  0.0000E+00  0.5600E+02
     -7.960  0.0000E+00  0.5600E+02
     -7.807  0.0000E+00  0.5600E+02
     -7.654  0.0000E+00  0.5600E+02
     -7.501  0.0000E+00  0.5600E+02
     -7.348  0.0000E+00  0.5600E+02
     -7.195  0.0000E+00  0.5600E+02
     -7.042  0.0000E+00  0.5600E+02
     -6.889  0.0000E+00  0.5600E+02
     -6.737  0.0000E+00  0.5600E+02
     -6.584  0.0000E+00  0.5600E+02
     -6.431  0.0000E+00  0.5600E+02
     -6.278  0.0000E+00  0.5600E+02
     -6.125  0.0000E+00  0.5600E+02
     -5.972  0.0000E+00  0.5600E+02
     -5.819  0.0000E+00  0.5600E+02
     -5.666  0.0000E+00  0.5600E+02
     -5.513  0.0000E+00  0.5600E+02
     -5.360  0.0000E+00  0.5600E+02
     -5.208  0.0000E+00  0.5600E+02
     -5.055  0.4101E+01  0.5632E+02
     -4.902  0.1600E+02  0.5844E+02
     -4.749  0.1065E+02  0.6090E+02
     -4.596  0.1713E+02  0.6331E+02
     -4.443  0.2519E+02  0.6582E+02
     -4.290  0.1483E+02  0.6828E+02
     -4.137  0.1564E+02  0.7094E+02
     -3.984  0.2054E+02  0.7385E+02
     -3.831  0.2160E+02  0.7692E+02
     -3.679  0.2734E+02  0.8068E+02
     -3.526  0.2162E+02  0.8475E+02
     -3.373  0.1268E+02  0.8722E+02
     -3.220  0.1319E+02  0.8932E+02
     -3.067  0.1257E+02  0.9147E+02
     -2.914  0.1359E+02  0.9351E+02
     -2.761  0.1151E+02  0.9553E+02
     -2.608  0.1146E+02  0.9723E+02
     -2.455  0.1183E+02  0.9873E+02
     -2.302  0.9265E+01  0.1005E+03
     -2.150  0.1034E+02  0.1028E+03
     -1.997  0.1458E+02  0.1053E+03
     -1.844  0.2400E+02  0.1085E+03
     -1.691  0.2117E+02  0.1119E+03
     -1.538  0.1405E+02  0.1159E+03
     -1.385  0.1919E+02  0.1186E+03
     -1.232  0.1947E+02  0.1216E+03
     -1.079  0.1179E+02  0.1242E+03
     -0.926  0.1272E+02  0.1258E+03
     -0.773  0.2021E+01  0.1272E+03
     -0.621  0.1193E+01  0.1274E+03
     -0.468  0.1103E+01  0.1276E+03
     -0.315  0.9552E+00  0.1278E+03
     -0.162  0.6856E+00  0.1279E+03
     -0.009  0.0000E+00  0.1280E+03
      0.144  0.0000E+00  0.1280E+03
      0.297  0.0000E+00  0.1280E+03
      0.450  0.0000E+00  0.1280E+03
      0.603  0.0000E+00  0.1280E+03
      0.756  0.0000E+00  0.1280E+03
      0.909  0.0000E+00  0.1280E+03
      1.061  0.1541E+01  0.1281E+03
      1.214  0.3878E+01  0.1286E+03
      1.367  0.4962E+01  0.1292E+03
      1.520  0.4865E+01  0.1300E+03
      1.673  0.8108E+01  0.1310E+03
      1.826  0.7299E+01  0.1322E+03
      1.979  0.7157E+01  0.1333E+03
      2.132  0.1141E+02  0.1347E+03
      2.285  0.1137E+02  0.1365E+03
      2.438  0.1390E+02  0.1384E+03
      2.590  0.2039E+02  0.1407E+03
      2.743  0.1595E+02  0.1441E+03
      2.896  0.1145E+02  0.1466E+03
      3.049  0.7848E+01  0.1485E+03
      3.202  0.2442E+01  0.1493E+03
      3.355  0.8089E+00  0.1495E+03
      3.508  0.7920E+00  0.1496E+03
      3.661  0.7751E+00  0.1497E+03
      3.814  0.7582E+00  0.1498E+03
      3.967  0.7413E+00  0.1500E+03
      4.119  0.7244E+00  0.1501E+03
      4.272  0.7074E+00  0.1502E+03
      4.425  0.6905E+00  0.1503E+03
      4.578  0.6736E+00  0.1504E+03
      4.731  0.6567E+00  0.1505E+03
      4.884  0.6747E+00  0.1506E+03
      5.037  0.1023E+01  0.1507E+03
      5.190  0.1440E+01  0.1509E+03
      5.343  0.1390E+01  0.1512E+03
      5.496  0.5628E+00  0.1513E+03
      5.648  0.4822E+00  0.1514E+03
      5.801  0.4015E+00  0.1514E+03
      5.954  0.3209E+00  0.1515E+03
      6.107  0.2403E+00  0.1515E+03
      6.260  0.2203E+00  0.1516E+03
      6.413  0.2120E+00  0.1516E+03
      6.566  0.1089E+00  0.1517E+03
      6.719  0.1069E+00  0.1517E+03
      6.872  0.7750E+00  0.1518E+03
      7.025  0.9247E+00  0.1519E+03
      7.177  0.0000E+00  0.1520E+03
      7.330  0.0000E+00  0.1520E+03
      7.483  0.0000E+00  0.1520E+03
      7.636  0.0000E+00  0.1520E+03
      7.789  0.0000E+00  0.1520E+03
      7.942  0.0000E+00  0.1520E+03
      8.095  0.0000E+00  0.1520E+03
      8.248  0.0000E+00  0.1520E+03
      8.401  0.0000E+00  0.1520E+03
      8.554  0.0000E+00  0.1520E+03
      8.706  0.0000E+00  0.1520E+03
      8.859  0.0000E+00  0.1520E+03
      9.012  0.0000E+00  0.1520E+03
      9.165  0.0000E+00  0.1520E+03
