 vasp.5.4.4.18Apr17-6-g9f103f2a35 (build Jun 30 2017 11:15:00) complex          
  
 executed on    STALLO_VASP_5.4.4 date 2019.11.08  10:21:34
 running on    4 total cores
 distrk:  each k-point on    4 cores,    1 groups
 distr:  one band on NCORES_PER_BAND=   2 cores,    2 groups


--------------------------------------------------------------------------------------------------------


 INCAR:
 POTCAR:   PAW_PBE O 08Apr2002                    
 POTCAR:   PAW_PBE Sr_sv 07Sep2000                
 POTCAR:   PAW_PBE Ti 08Apr2002                   
 POTCAR:   PAW_PBE O 08Apr2002                    
   VRHFIN =O: s2p4                                                              
   LEXCH  = PE                                                                  
   EATOM  =   432.3788 eV,   31.7789 Ry                                         
                                                                                
   TITEL  = PAW_PBE O 08Apr2002                                                 
   LULTRA =        F    use ultrasoft PP ?                                      
   IUNSCR =        0    unscreen: 0-lin 1-nonlin 2-no                           
   RPACOR =     .000    partial core radius                                     
   POMASS =   16.000; ZVAL   =    6.000    mass and valenz                      
   RCORE  =    1.520    outmost cutoff radius                                   
   RWIGS  =    1.550; RWIGS  =     .820    wigner-seitz radius (au A)           
   ENMAX  =  400.000; ENMIN  =  300.000 eV                                      
   ICORE  =        2    local potential                                         
   LCOR   =        T    correct aug charges                                     
   LPAW   =        T    paw PP                                                  
   EAUG   =  605.392                                                            
   DEXC   =     .000                                                            
   RMAX   =    2.264    core radius for proj-oper                               
   RAUG   =    1.300    factor for augmentation sphere                          
   RDEP   =    1.550    radius for radial grids                                 
   QCUT   =   -5.520; QGAM   =   11.041    optimization parameters              
                                                                                
   Description                                                                  
     l     E      TYP  RCUT    TYP  RCUT                                        
     0   .000     23  1.200                                                     
     0  -.700     23  1.200                                                     
     1   .000     23  1.520                                                     
     1   .600     23  1.520                                                     
     2   .000      7  1.500                                                     
  local pseudopotential read in
  atomic valenz-charges read in
  non local Contribution for L=           0  read in
    real space projection operators read in
  non local Contribution for L=           0  read in
    real space projection operators read in
  non local Contribution for L=           1  read in
    real space projection operators read in
  non local Contribution for L=           1  read in
    real space projection operators read in
    PAW grid and wavefunctions read in
 
   number of l-projection  operators is LMAX  =           4
   number of lm-projection operators is LMMAX =           8
 
 POTCAR:   PAW_PBE Sr_sv 07Sep2000                
   VRHFIN =Sr: 4s4p5s                                                           
   LEXCH  = PE                                                                  
   EATOM  =   842.4562 eV,   61.9188 Ry                                         
                                                                                
   TITEL  = PAW_PBE Sr_sv 07Sep2000                                             
   LULTRA =        F    use ultrasoft PP ?                                      
   IUNSCR =        1    unscreen: 0-lin 1-nonlin 2-no                           
   RPACOR =    2.200    partial core radius                                     
   POMASS =   87.620; ZVAL   =   10.000    mass and valenz                      
   RCORE  =    2.500    outmost cutoff radius                                   
   RWIGS  =    4.040; RWIGS  =    2.138    wigner-seitz radius (au A)           
   ENMAX  =  229.282; ENMIN  =  171.961 eV                                      
   RCLOC  =    2.201    cutoff for local pot                                    
   LCOR   =        T    correct aug charges                                     
   LPAW   =        T    paw PP                                                  
   EAUG   =  366.804                                                            
   DEXC   =     .000                                                            
   RMAX   =    3.045    core radius for proj-oper                               
   RAUG   =    1.300    factor for augmentation sphere                          
   RDEP   =    2.562    radius for radial grids                                 
   QCUT   =   -4.105; QGAM   =    8.210    optimization parameters              
                                                                                
   Description                                                                  
     l     E      TYP  RCUT    TYP  RCUT                                        
     0   .000     23  2.480                                                     
     0   .000     23  2.480                                                     
     1   .000     23  2.500                                                     
     1   .000     23  2.500                                                     
     2   .000     23  2.500                                                     
     2   .000     23  2.500                                                     
  local pseudopotential read in
  partial core-charges read in
  atomic valenz-charges read in
  non local Contribution for L=           0  read in
    real space projection operators read in
  non local Contribution for L=           0  read in
    real space projection operators read in
  non local Contribution for L=           1  read in
    real space projection operators read in
  non local Contribution for L=           1  read in
    real space projection operators read in
  non local Contribution for L=           2  read in
    real space projection operators read in
  non local Contribution for L=           2  read in
    real space projection operators read in
    PAW grid and wavefunctions read in
 
   number of l-projection  operators is LMAX  =           6
   number of lm-projection operators is LMMAX =          18
 
 POTCAR:   PAW_PBE Ti 08Apr2002                   
   VRHFIN =Ti: d3 s1                                                            
   LEXCH  = PE                                                                  
   EATOM  =    94.7929 eV,    6.9671 Ry                                         
                                                                                
   TITEL  = PAW_PBE Ti 08Apr2002                                                
   LULTRA =        F    use ultrasoft PP ?                                      
   IUNSCR =        1    unscreen: 0-lin 1-nonlin 2-no                           
   RPACOR =    2.200    partial core radius                                     
   POMASS =   47.880; ZVAL   =    4.000    mass and valenz                      
   RCORE  =    2.800    outmost cutoff radius                                   
   RWIGS  =    2.500; RWIGS  =    1.323    wigner-seitz radius (au A)           
   ENMAX  =  178.330; ENMIN  =  133.747 eV                                      
   RCLOC  =    2.215    cutoff for local pot                                    
   LCOR   =        T    correct aug charges                                     
   LPAW   =        T    paw PP                                                  
   EAUG   =  328.883                                                            
   DEXC   =    -.043                                                            
   RMAX   =    3.453    core radius for proj-oper                               
   RAUG   =    1.300    factor for augmentation sphere                          
   RDEP   =    2.885    radius for radial grids                                 
   QCUT   =   -3.620; QGAM   =    7.241    optimization parameters              
                                                                                
   Description                                                                  
     l     E      TYP  RCUT    TYP  RCUT                                        
     2   .000     23  2.800                                                     
     2   .000     23  2.800                                                     
     0   .000     23  2.800                                                     
     0  1.500     23  2.800                                                     
     1  -.400     23  2.800                                                     
     3   .000      7   .000                                                     
  local pseudopotential read in
  partial core-charges read in
  atomic valenz-charges read in
  non local Contribution for L=           2  read in
    real space projection operators read in
  non local Contribution for L=           2  read in
    real space projection operators read in
  non local Contribution for L=           0  read in
    real space projection operators read in
  non local Contribution for L=           0  read in
    real space projection operators read in
  non local Contribution for L=           1  read in
    real space projection operators read in
    PAW grid and wavefunctions read in
 
   number of l-projection  operators is LMAX  =           5
   number of lm-projection operators is LMMAX =          15
 

 ----------------------------------------------------------------------------- 
|                                                                             |
|  ADVICE TO THIS USER RUNNING 'VASP/VAMP'   (HEAR YOUR MASTER'S VOICE ...):  |
|                                                                             |
|      You have a (more or less) 'large supercell' and for larger cells       |
|      it might be more efficient to use real space projection operators      |
|      So try LREAL= Auto  in the INCAR   file.                               |
|      Mind: If you want to do a very accurate calculations keep the          |
|      reciprocal projection scheme          (i.e. LREAL=.FALSE.)             |
|                                                                             |
 ----------------------------------------------------------------------------- 

 PAW_PBE O 08Apr2002                    :
 energy of atom  1       EATOM= -432.3788
 kinetic energy error for atom=    0.0224 (will be added to EATOM!!)
 PAW_PBE Sr_sv 07Sep2000                :
 energy of atom  2       EATOM= -842.4562
 kinetic energy error for atom=    0.0012 (will be added to EATOM!!)
 PAW_PBE Ti 08Apr2002                   :
 energy of atom  3       EATOM=  -94.7929
 kinetic energy error for atom=    0.0002 (will be added to EATOM!!)
 
 
 POSCAR:  O Sr Ti                                
  positions in direct lattice
  No initial velocities read in
 exchange correlation table for  LEXCH =        8
   RHO(1)=    0.500       N(1)  =     2000
   RHO(2)=  100.500       N(2)  =     4000
 


--------------------------------------------------------------------------------------------------------


 ion  position               nearest neighbor table
   1  0.500  0.500  0.268-  17 1.97  13 2.79  13 2.79  13 2.79  13 2.79
   2  0.500  0.000  0.335-  17 1.97  17 1.97  13 2.79  13 2.79  14 2.79  14 2.79
   3  0.000  0.500  0.335-  17 1.97  17 1.97  13 2.79  13 2.79  14 2.79  14 2.79
   4  0.500  0.500  0.401-  17 1.97  18 1.97  14 2.79  14 2.79  14 2.79  14 2.79
   5  0.500  0.000  0.467-  18 1.97  18 1.97  14 2.79  15 2.79  14 2.79  15 2.79
   6  0.000  0.500  0.467-  18 1.97  18 1.97  14 2.79  14 2.79  15 2.79  15 2.79
   7  0.500  0.500  0.533-  18 1.97  19 1.97  15 2.79  15 2.79  15 2.79  15 2.79
   8  0.500  0.000  0.599-  19 1.97  19 1.97  15 2.79  16 2.79  15 2.79  16 2.79
   9  0.000  0.500  0.599-  19 1.97  19 1.97  15 2.79  15 2.79  16 2.79  16 2.79
  10  0.500  0.500  0.665-  20 1.97  19 1.97  16 2.79  16 2.79  16 2.79  16 2.79
  11  0.500  0.000  0.732-  20 1.97  20 1.97  16 2.79  16 2.79
  12  0.000  0.500  0.732-  20 1.97  20 1.97  16 2.79  16 2.79
  13  0.000  0.000  0.268-   2 2.79   3 2.79   3 2.79   2 2.79   1 2.79   1 2.79   1 2.79   1 2.79
                            17 3.42  17 3.42  17 3.42  17 3.42  14 3.95
  14  0.000  0.000  0.401-   4 2.79   4 2.79   4 2.79   4 2.79   6 2.79   3 2.79   3 2.79   6 2.79
                             2 2.79   2 2.79   5 2.79   5 2.79  18 3.42  17 3.42  17 3.42  17 3.42
  15  0.000  0.000  0.533-   7 2.79   7 2.79   7 2.79   7 2.79   9 2.79   6 2.79   6 2.79   9 2.79
                             5 2.79   5 2.79   8 2.79   8 2.79  19 3.42  18 3.42  18 3.42  18 3.42
  16  0.000  0.000  0.665-  11 2.79  12 2.79  12 2.79  11 2.79  10 2.79  10 2.79  10 2.79  10 2.79
                             8 2.79   9 2.79   9 2.79   8 2.79  20 3.42  20 3.42  20 3.42  20 3.42
  17  0.500  0.500  0.335-   1 1.97   2 1.97   3 1.97   2 1.97   3 1.97   4 1.97  13 3.42  13 3.42
                            13 3.42  13 3.42  14 3.42  14 3.42  14 3.42  14 3.42
  18  0.500  0.500  0.467-   5 1.97   6 1.97   5 1.97   6 1.97   4 1.97   7 1.97  14 3.42  14 3.42
                            15 3.42  15 3.42  14 3.42  15 3.42  14 3.42  15 3.42
  19  0.500  0.500  0.599-   8 1.97   9 1.97   8 1.97   9 1.97   7 1.97  10 1.97  15 3.42  15 3.42
                            16 3.42  16 3.42  15 3.42  16 3.42  15 3.42  16 3.42
  20  0.500  0.500  0.732-  10 1.97  11 1.97  12 1.97  11 1.97  12 1.97  16 3.42  16 3.42  16 3.42
                            16 3.42
 
  LATTYP: Found a simple tetragonal cell.
 ALAT       =     3.9468463416
 C/A-ratio  =     7.5538694986
  
  Lattice vectors:
  
 A1 = (   3.9468463416,   0.0000000000,   0.0000000000)
 A2 = (   0.0000000000,   3.9468463416,   0.0000000000)
 A3 = (   0.0000000000,   0.0000000000,  29.8139621957)


Analysis of symmetry for initial positions (statically):
=====================================================================
 Subroutine PRICEL returns:
 Original cell was already a primitive cell.
 

 Routine SETGRP: Setting up the symmetry group for a 
 simple tetragonal supercell.


 Subroutine GETGRP returns: Found  8 space group operations
 (whereof  8 operations were pure point group operations)
 out of a pool of 16 trial point group operations.


The static configuration has the point symmetry C_4v.


Analysis of symmetry for dynamics (positions and initial velocities):
=====================================================================
 Subroutine PRICEL returns:
 Original cell was already a primitive cell.
 

 Routine SETGRP: Setting up the symmetry group for a 
 simple tetragonal supercell.


 Subroutine GETGRP returns: Found  8 space group operations
 (whereof  8 operations were pure point group operations)
 out of a pool of 16 trial point group operations.


The dynamic configuration has the point symmetry C_4v.


 Subroutine INISYM returns: Found  8 space group operations
 (whereof  8 operations are pure point group operations),
 and found     1 'primitive' translations

 
 
 KPOINTS: k-density: 4.0                          

Automatic generation of k-mesh.
Space group operators:
 irot       det(A)        alpha          n_x          n_y          n_z        tau_x        tau_y        tau_z
    1     1.000000     0.000000     1.000000     0.000000     0.000000     0.000000     0.000000     0.000000
    2     1.000000    90.000000     0.000000     0.000000    -1.000000     0.000000     0.000000     0.000000
    3     1.000000   180.000000     0.000000     0.000000     1.000000     0.000000     0.000000     0.000000
    4     1.000000    90.000000     0.000000     0.000000     1.000000     0.000000     0.000000     0.000000
    5    -1.000000   180.000000     0.000000     1.000000     0.000000     0.000000     0.000000     0.000000
    6    -1.000000   180.000000     0.707107     0.707107     0.000000     0.000000     0.000000     0.000000
    7    -1.000000   180.000000     1.000000     0.000000     0.000000     0.000000     0.000000     0.000000
    8    -1.000000   180.000000     0.707107    -0.707107     0.000000     0.000000     0.000000     0.000000
 
 Subroutine IBZKPT returns following result:
 ===========================================
 
 Found     10 irreducible k-points:
 
 Following reciprocal coordinates:
            Coordinates               Weight
  0.000000  0.000000  0.000000      1.000000
  0.142857  0.000000  0.000000      4.000000
  0.285714  0.000000  0.000000      4.000000
  0.428571  0.000000  0.000000      4.000000
  0.142857  0.142857  0.000000      4.000000
  0.285714  0.142857  0.000000      8.000000
  0.428571  0.142857  0.000000      8.000000
  0.285714  0.285714  0.000000      4.000000
  0.428571  0.285714  0.000000      8.000000
  0.428571  0.428571  0.000000      4.000000
 
 Following cartesian coordinates:
            Coordinates               Weight
  0.000000  0.000000  0.000000      1.000000
  0.036195  0.000000  0.000000      4.000000
  0.072391  0.000000  0.000000      4.000000
  0.108586  0.000000  0.000000      4.000000
  0.036195  0.036195  0.000000      4.000000
  0.072391  0.036195  0.000000      8.000000
  0.108586  0.036195  0.000000      8.000000
  0.072391  0.072391  0.000000      4.000000
  0.108586  0.072391  0.000000      8.000000
  0.108586  0.108586  0.000000      4.000000
 
 TETIRR: Found     65 inequivalent tetrahedra from      294


--------------------------------------------------------------------------------------------------------




 Dimension of arrays:
   k-points           NKPTS =     10   k-points in BZ     NKDIM =     10   number of bands    NBANDS=     76
   number of dos      NEDOS =    301   number of ions     NIONS =     20
   non local maximal  LDIM  =      6   non local SUM 2l+1 LMDIM =     18
   total plane-waves  NPLWV =  96768
   max r-space proj   IRMAX =      1   max aug-charges    IRDMAX=  14588
   dimension x,y,z NGX =    24 NGY =   24 NGZ =  168
   dimension x,y,z NGXF=    48 NGYF=   48 NGZF=  336
   support grid    NGXF=    48 NGYF=   48 NGZF=  336
   ions per type =              12   4   4
   NGX,Y,Z   is equivalent  to a cutoff of  10.11, 10.11,  9.37 a.u.
   NGXF,Y,Z  is equivalent  to a cutoff of  20.22, 20.22, 18.74 a.u.

 SYSTEM =  unknown system                          
 POSCAR =   O Sr Ti                                

 Startparameter for this run:
   NWRITE =      2    write-flag & timer
   PREC   = normal    normal or accurate (medium, high low for compatibility)
   ISTART =      0    job   : 0-new  1-cont  2-samecut
   ICHARG =      2    charge: 1-file 2-atom 10-const
   ISPIN  =      1    spin polarized calculation?
   LNONCOLLINEAR =      F non collinear calculations
   LSORBIT =      F    spin-orbit coupling
   INIWAV =      1    electr: 0-lowe 1-rand  2-diag
   LASPH  =      F    aspherical Exc in radial PAW
   METAGGA=      F    non-selfconsistent MetaGGA calc.

 Electronic Relaxation 1
   ENCUT  =  500.0 eV  36.75 Ry    6.06 a.u.   7.20  7.20 54.36*2*pi/ulx,y,z
   ENINI  =  500.0     initial cutoff
   ENAUG  =  605.4 eV  augmentation charge cutoff
   NELM   =     60;   NELMIN=  4; NELMDL= -5     # of ELM steps 
   EDIFF  = 0.1E-04   stopping-criterion for ELM
   LREAL  =      F    real-space projection
   NLSPLINE    = F    spline interpolate recip. space projectors
   LCOMPAT=      F    compatible to vasp.4.4
   GGA_COMPAT  = T    GGA compatible to vasp.4.4-vasp.4.6
   LMAXPAW     = -100 max onsite density
   LMAXMIX     =    2 max onsite mixed and CHGCAR
   VOSKOWN=      0    Vosko Wilk Nusair interpolation
   ROPT   =    0.00000   0.00000   0.00000
 Ionic relaxation
   EDIFFG = 0.1E-03   stopping-criterion for IOM
   NSW    =      0    number of steps for IOM
   NBLOCK =      1;   KBLOCK =      1    inner block; outer block 
   IBRION =     -1    ionic relax: 0-MD 1-quasi-New 2-CG
   NFREE  =      0    steps in history (QN), initial steepest desc. (CG)
   ISIF   =      2    stress and relaxation
   IWAVPR =     10    prediction:  0-non 1-charg 2-wave 3-comb
   ISYM   =      2    0-nonsym 1-usesym 2-fastsym
   LCORR  =      T    Harris-Foulkes like correction to forces

   POTIM  = 0.5000    time-step for ionic-motion
   TEIN   =    0.0    initial temperature
   TEBEG  =    0.0;   TEEND  =   0.0 temperature during run
   SMASS  =  -3.00    Nose mass-parameter (am)
   estimated Nose-frequenzy (Omega)   =  0.10E-29 period in steps =****** mass=  -0.356E-27a.u.
   SCALEE = 1.0000    scale energy and forces
   NPACO  =    256;   APACO  = 16.0  distance and # of slots for P.C.
   PSTRESS=    0.0 pullay stress

  Mass of Ions in am
   POMASS =  16.00 87.62 47.88
  Ionic Valenz
   ZVAL   =   6.00 10.00  4.00
  Atomic Wigner-Seitz radii
   RWIGS  =  -1.00 -1.00 -1.00
  virtual crystal weights 
   VCA    =   1.00  1.00  1.00
   NELECT =     128.0000    total number of electrons
   NUPDOWN=      -1.0000    fix difference up-down

 DOS related values:
   EMIN   =  10.00;   EMAX   =-10.00  energy-range for DOS
   EFERMI =   0.00
   ISMEAR =    -5;   SIGMA  =   0.20  broadening in eV -4-tet -1-fermi 0-gaus

 Electronic relaxation 2 (details)
   IALGO  =     68    algorithm
   LDIAG  =      T    sub-space diagonalisation (order eigenvalues)
   LSUBROT=      F    optimize rotation matrix (better conditioning)
   TURBO    =      0    0=normal 1=particle mesh
   IRESTART =      0    0=no restart 2=restart with 2 vectors
   NREBOOT  =      0    no. of reboots
   NMIN     =      0    reboot dimension
   EREF     =   0.00    reference energy to select bands
   IMIX   =      4    mixing-type and parameters
     AMIX     =   0.40;   BMIX     =  1.00
     AMIX_MAG =   1.60;   BMIX_MAG =  1.00
     AMIN     =   0.10
     WC   =   100.;   INIMIX=   1;  MIXPRE=   1;  MAXMIX= -45

 Intra band minimization:
   WEIMIN = 0.0000     energy-eigenvalue tresh-hold
   EBREAK =  0.33E-07  absolut break condition
   DEPER  =   0.30     relativ break condition  

   TIME   =   0.40     timestep for ELM

  volume/ion in A,a.u.               =      23.22       156.71
  Fermi-wavevector in a.u.,A,eV,Ry     =   1.065381  2.013277 15.443099  1.135036
  Thomas-Fermi vector in A             =   2.200930
 
 Write flags
   LWAVE        =      F    write WAVECAR
   LDOWNSAMPLE  =      F    k-point downsampling of WAVECAR
   LCHARG       =      T    write CHGCAR
   LVTOT        =      F    write LOCPOT, total local potential
   LVHAR        =      F    write LOCPOT, Hartree potential only
   LELF         =      F    write electronic localiz. function (ELF)
   LORBIT       =      0    0 simple, 1 ext, 2 COOP (PROOUT), +10 PAW based schemes


 Dipole corrections
   LMONO  =      F    monopole corrections only (constant potential shift)
   LDIPOL =      F    correct potential (dipole corrections)
   IDIPOL =      0    1-x, 2-y, 3-z, 4-all directions 
   EPSILON=  1.0000000 bulk dielectric constant

 Exchange correlation treatment:
   GGA     =    --    GGA type
   LEXCH   =     8    internal setting for exchange type
   VOSKOWN=      0    Vosko Wilk Nusair interpolation
   LHFCALC =     F    Hartree Fock is set to
   LHFONE  =     F    Hartree Fock one center treatment
   AEXX    =    0.0000 exact exchange contribution

 Linear response parameters
   LEPSILON=     F    determine dielectric tensor
   LRPA    =     F    only Hartree local field effects (RPA)
   LNABLA  =     F    use nabla operator in PAW spheres
   LVEL    =     F    velocity operator in full k-point grid
   LINTERFAST=   F  fast interpolation
   KINTER  =     0    interpolate to denser k-point grid
   CSHIFT  =0.1000    complex shift for real part using Kramers Kronig
   OMEGAMAX=  -1.0    maximum frequency
   DEG_THRESHOLD= 0.2000000E-02 threshold for treating states as degnerate
   RTIME   =   -0.100 relaxation time in fs
  (WPLASMAI=    0.000 imaginary part of plasma frequency in eV, 0.658/RTIME)
   DFIELD  = 0.0000000 0.0000000 0.0000000 field for delta impulse in time
 
 Orbital magnetization related:
   ORBITALMAG=     F  switch on orbital magnetization
   LCHIMAG   =     F  perturbation theory with respect to B field
   DQ        =  0.001000  dq finite difference perturbation B field
   LLRAUG    =     F  two centre corrections for induced B field



--------------------------------------------------------------------------------------------------------


 Static calculation
 charge density and potential will be updated during run
 non-spin polarized calculation
 RMM-DIIS sequential band-by-band and
  variant of blocked Davidson during initial phase
 perform sub-space diagonalisation
    before iterative eigenvector-optimisation
 modified Broyden-mixing scheme, WC =      100.0
 initial mixing is a Kerker type mixing with AMIX =  0.4000 and BMIX =      1.0000
 Hartree-type preconditioning will be used
 using additional bands           12
 reciprocal scheme for non local part
 use partial core corrections
 calculate Harris-corrections to forces 
   (improved forces if not selfconsistent)
 use gradient corrections 
 use of overlap-Matrix (Vanderbilt PP)
 Fermi weights with tetrahedron method with Bloechl corrections


--------------------------------------------------------------------------------------------------------


  energy-cutoff  :      500.00
  volume of cell :      464.43
      direct lattice vectors                 reciprocal lattice vectors
     3.946846342  0.000000000  0.000000000     0.253366844  0.000000000  0.000000000
     0.000000000  3.946846342  0.000000000     0.000000000  0.253366844  0.000000000
     0.000000000  0.000000000 29.813962196     0.000000000  0.000000000  0.033541332

  length of vectors
     3.946846342  3.946846342 29.813962196     0.253366844  0.253366844  0.033541332


 
 k-points in units of 2pi/SCALE and weight: k-density: 4.0                          
   0.00000000  0.00000000  0.00000000       0.020
   0.03619526  0.00000000  0.00000000       0.082
   0.07239053  0.00000000  0.00000000       0.082
   0.10858579  0.00000000  0.00000000       0.082
   0.03619526  0.03619526  0.00000000       0.082
   0.07239053  0.03619526  0.00000000       0.163
   0.10858579  0.03619526  0.00000000       0.163
   0.07239053  0.07239053  0.00000000       0.082
   0.10858579  0.07239053  0.00000000       0.163
   0.10858579  0.10858579  0.00000000       0.082
 
 k-points in reciprocal lattice and weights: k-density: 4.0                          
   0.00000000  0.00000000  0.00000000       0.020
   0.14285714  0.00000000  0.00000000       0.082
   0.28571429  0.00000000  0.00000000       0.082
   0.42857143  0.00000000  0.00000000       0.082
   0.14285714  0.14285714  0.00000000       0.082
   0.28571429  0.14285714  0.00000000       0.163
   0.42857143  0.14285714  0.00000000       0.163
   0.28571429  0.28571429  0.00000000       0.082
   0.42857143  0.28571429  0.00000000       0.163
   0.42857143  0.42857143  0.00000000       0.082
 
 position of ions in fractional coordinates (direct lattice) 
   0.50000000  0.50000000  0.26833065
   0.50000000  0.00000000  0.33452190
   0.00000000  0.50000000  0.33452190
   0.50000000  0.50000000  0.40071314
   0.50000000  0.00000000  0.46690438
   0.00000000  0.50000000  0.46690438
   0.50000000  0.50000000  0.53309562
   0.50000000  0.00000000  0.59928686
   0.00000000  0.50000000  0.59928686
   0.50000000  0.50000000  0.66547810
   0.50000000  0.00000000  0.73166935
   0.00000000  0.50000000  0.73166935
   0.00000000  0.00000000  0.26833065
   0.00000000  0.00000000  0.40071314
   0.00000000  0.00000000  0.53309562
   0.00000000  0.00000000  0.66547810
   0.50000000  0.50000000  0.33452190
   0.50000000  0.50000000  0.46690438
   0.50000000  0.50000000  0.59928686
   0.50000000  0.50000000  0.73166935
 
 position of ions in cartesian coordinates  (Angst):
   1.97342317  1.97342317  8.00000000
   1.97342317  0.00000000  9.97342317
   0.00000000  1.97342317  9.97342317
   1.97342317  1.97342317 11.94684634
   1.97342317  0.00000000 13.92026951
   0.00000000  1.97342317 13.92026951
   1.97342317  1.97342317 15.89369268
   1.97342317  0.00000000 17.86711585
   0.00000000  1.97342317 17.86711585
   1.97342317  1.97342317 19.84053902
   1.97342317  0.00000000 21.81396220
   0.00000000  1.97342317 21.81396220
   0.00000000  0.00000000  8.00000000
   0.00000000  0.00000000 11.94684634
   0.00000000  0.00000000 15.89369268
   0.00000000  0.00000000 19.84053902
   1.97342317  1.97342317  9.97342317
   1.97342317  1.97342317 13.92026951
   1.97342317  1.97342317 17.86711585
   1.97342317  1.97342317 21.81396220
 


--------------------------------------------------------------------------------------------------------


 k-point  1 :   0.0000 0.0000 0.0000  plane waves:   11741
 k-point  2 :   0.1429 0.0000 0.0000  plane waves:   11773
 k-point  3 :   0.2857 0.0000 0.0000  plane waves:   11806
 k-point  4 :   0.4286 0.0000 0.0000  plane waves:   11830
 k-point  5 :   0.1429 0.1429 0.0000  plane waves:   11770
 k-point  6 :   0.2857 0.1429 0.0000  plane waves:   11777
 k-point  7 :   0.4286 0.1429 0.0000  plane waves:   11801
 k-point  8 :   0.2857 0.2857 0.0000  plane waves:   11790
 k-point  9 :   0.4286 0.2857 0.0000  plane waves:   11790
 k-point 10 :   0.4286 0.4286 0.0000  plane waves:   11824

 maximum and minimum number of plane-waves per node :      5928     5857

 maximum number of plane-waves:     11830
 maximum index in each direction: 
   IXMAX=    7   IYMAX=    7   IZMAX=   54
   IXMIN=   -7   IYMIN=   -7   IZMIN=  -54


 parallel 3D FFT for wavefunctions:
    minimum data exchange during FFTs selected (reduces bandwidth)
 parallel 3D FFT for charge:
    minimum data exchange during FFTs selected (reduces bandwidth)


 total amount of memory used by VASP MPI-rank0   116773. kBytes
=======================================================================

   base      :      30000. kBytes
   nonl-proj :      27505. kBytes
   fftplans  :       7997. kBytes
   grid      :      14381. kBytes
   one-center:        155. kBytes
   wavefun   :      36735. kBytes
 
     INWAV:  cpu time    0.0000: real time    0.0000
 Broyden mixing: mesh for mixing (old mesh)
   NGX = 15   NGY = 15   NGZ =109
  (NGX  = 48   NGY  = 48   NGZ  =336)
  gives a total of  24525 points

 initial charge density was supplied:
 charge density of overlapping atoms calculated
 number of electron     128.0000000 magnetization 
 keeping initial charge density in first step


--------------------------------------------------------------------------------------------------------


 Maximum index for augmentation-charges         3494 (set IRDMAX)


--------------------------------------------------------------------------------------------------------


 First call to EWALD:  gamma=   0.229
 Maximum number of real-space cells 5x 5x 1
 Maximum number of reciprocal cells 2x 2x 9

    FEWALD:  cpu time    0.0020: real time    0.0020


--------------------------------------- Iteration      1(   1)  ---------------------------------------


    POTLOK:  cpu time    0.1480: real time    0.1526
    SETDIJ:  cpu time    0.0120: real time    0.0127
     EDDAV:  cpu time    6.7540: real time    6.7526
 BZINTS: Fermi energy: 13.855146;128.000000 electrons
         Band energy:   4.682862;  BLOECHL correction: -0.038718
       DOS:  cpu time    0.0070: real time    0.0075
    --------------------------------------------
      LOOP:  cpu time    6.9209: real time    6.9254

 eigenvalue-minimisations  :  1544
 total energy-change (2. order) : 0.1594344E+04  (-0.5546784E+04)
 number of electron     128.0000000 magnetization 
 augmentation part      128.0000000 magnetization 

 Free energy of the ion-electron system (eV)
  ---------------------------------------------------
  alpha Z        PSCENC =       380.41862636
  Ewald energy   TEWEN  =     45617.28373447
  -Hartree energ DENC   =    -53866.14983532
  -exchange      EXHF   =         0.00000000
  -V(xc)+E(xc)   XCENC  =       325.52647990
  PAW double counting   =      5334.45189010    -5139.13784255
  entropy T*S    EENTRO =         0.00000000
  eigenvalues    EBANDS =         4.68286247
  atomic energy  EATOM  =      8937.26825017
  Solvation  Ediel_sol  =         0.00000000
  ---------------------------------------------------
  free energy    TOTEN  =      1594.34416561 eV

  energy without entropy =     1594.34416561  energy(sigma->0) =     1594.34416561


--------------------------------------------------------------------------------------------------------




--------------------------------------- Iteration      1(   2)  ---------------------------------------


     EDDAV:  cpu time    7.7648: real time    7.7649
 BZINTS: Fermi energy:  3.661049;128.000000 electrons
         Band energy:***********;  BLOECHL correction: -0.047768
       DOS:  cpu time    0.0070: real time    0.0071
    --------------------------------------------
      LOOP:  cpu time    7.7718: real time    7.7720

 eigenvalue-minimisations  :  1856
 total energy-change (2. order) :-0.1413871E+04  (-0.1358164E+04)
 number of electron     128.0000000 magnetization 
 augmentation part      128.0000000 magnetization 

 Free energy of the ion-electron system (eV)
  ---------------------------------------------------
  alpha Z        PSCENC =       380.41862636
  Ewald energy   TEWEN  =     45617.28373447
  -Hartree energ DENC   =    -53866.14983532
  -exchange      EXHF   =         0.00000000
  -V(xc)+E(xc)   XCENC  =       325.52647990
  PAW double counting   =      5334.45189010    -5139.13784255
  entropy T*S    EENTRO =         0.00000000
  eigenvalues    EBANDS =     -1409.18822407
  atomic energy  EATOM  =      8937.26825017
  Solvation  Ediel_sol  =         0.00000000
  ---------------------------------------------------
  free energy    TOTEN  =       180.47307907 eV

  energy without entropy =      180.47307907  energy(sigma->0) =      180.47307907


--------------------------------------------------------------------------------------------------------




--------------------------------------- Iteration      1(   3)  ---------------------------------------


     EDDAV:  cpu time    8.3807: real time    8.3798
 BZINTS: Fermi energy: -3.105588;128.000000 electrons
         Band energy:***********;  BLOECHL correction:  0.000000
       DOS:  cpu time    0.0020: real time    0.0017
    --------------------------------------------
      LOOP:  cpu time    8.3827: real time    8.3816

 eigenvalue-minimisations  :  2036
 total energy-change (2. order) :-0.3574066E+03  (-0.3483973E+03)
 number of electron     128.0000000 magnetization 
 augmentation part      128.0000000 magnetization 

 Free energy of the ion-electron system (eV)
  ---------------------------------------------------
  alpha Z        PSCENC =       380.41862636
  Ewald energy   TEWEN  =     45617.28373447
  -Hartree energ DENC   =    -53866.14983532
  -exchange      EXHF   =         0.00000000
  -V(xc)+E(xc)   XCENC  =       325.52647990
  PAW double counting   =      5334.45189010    -5139.13784255
  entropy T*S    EENTRO =         0.00000000
  eigenvalues    EBANDS =     -1766.59484103
  atomic energy  EATOM  =      8937.26825017
  Solvation  Ediel_sol  =         0.00000000
  ---------------------------------------------------
  free energy    TOTEN  =      -176.93353789 eV

  energy without entropy =     -176.93353789  energy(sigma->0) =     -176.93353789


--------------------------------------------------------------------------------------------------------




--------------------------------------- Iteration      1(   4)  ---------------------------------------


     EDDAV:  cpu time    8.1768: real time    8.1776
 BZINTS: Fermi energy: -5.254627;128.000000 electrons
         Band energy:***********;  BLOECHL correction:  0.000000
       DOS:  cpu time    0.0020: real time    0.0014
    --------------------------------------------
      LOOP:  cpu time    8.1788: real time    8.1789

 eigenvalue-minimisations  :  1976
 total energy-change (2. order) :-0.2400857E+02  (-0.2393555E+02)
 number of electron     128.0000000 magnetization 
 augmentation part      128.0000000 magnetization 

 Free energy of the ion-electron system (eV)
  ---------------------------------------------------
  alpha Z        PSCENC =       380.41862636
  Ewald energy   TEWEN  =     45617.28373447
  -Hartree energ DENC   =    -53866.14983532
  -exchange      EXHF   =         0.00000000
  -V(xc)+E(xc)   XCENC  =       325.52647990
  PAW double counting   =      5334.45189010    -5139.13784255
  entropy T*S    EENTRO =         0.00000000
  eigenvalues    EBANDS =     -1790.60341281
  atomic energy  EATOM  =      8937.26825017
  Solvation  Ediel_sol  =         0.00000000
  ---------------------------------------------------
  free energy    TOTEN  =      -200.94210967 eV

  energy without entropy =     -200.94210967  energy(sigma->0) =     -200.94210967


--------------------------------------------------------------------------------------------------------




--------------------------------------- Iteration      1(   5)  ---------------------------------------


     EDDAV:  cpu time   10.2404: real time   10.2402
 BZINTS: Fermi energy: -5.300854;128.000000 electrons
         Band energy:***********;  BLOECHL correction:  0.000000
       DOS:  cpu time    0.0010: real time    0.0014
    CHARGE:  cpu time    0.2410: real time    0.2406
    MIXING:  cpu time    0.0040: real time    0.0043
    --------------------------------------------
      LOOP:  cpu time   10.4864: real time   10.4866

 eigenvalue-minimisations  :  2616
 total energy-change (2. order) :-0.1364104E+01  (-0.1363440E+01)
 number of electron     127.9999708 magnetization 
 augmentation part       13.5996334 magnetization 

 Broyden mixing:
  rms(total) = 0.37080E+01    rms(broyden)= 0.37075E+01
  rms(prec ) = 0.38980E+01
  weight for this iteration     100.00

 Free energy of the ion-electron system (eV)
  ---------------------------------------------------
  alpha Z        PSCENC =       380.41862636
  Ewald energy   TEWEN  =     45617.28373447
  -Hartree energ DENC   =    -53866.14983532
  -exchange      EXHF   =         0.00000000
  -V(xc)+E(xc)   XCENC  =       325.52647990
  PAW double counting   =      5334.45189010    -5139.13784255
  entropy T*S    EENTRO =         0.00000000
  eigenvalues    EBANDS =     -1791.96751713
  atomic energy  EATOM  =      8937.26825017
  Solvation  Ediel_sol  =         0.00000000
  ---------------------------------------------------
  free energy    TOTEN  =      -202.30621400 eV

  energy without entropy =     -202.30621400  energy(sigma->0) =     -202.30621400


--------------------------------------------------------------------------------------------------------




--------------------------------------- Iteration      1(   6)  ---------------------------------------


    POTLOK:  cpu time    0.1380: real time    0.1400
    SETDIJ:  cpu time    0.0130: real time    0.0124
    EDDIAG:  cpu time    0.7789: real time    0.7796
  RMM-DIIS:  cpu time    5.2612: real time    5.2595
    ORTHCH:  cpu time    0.1460: real time    0.1466
 BZINTS: Fermi energy: -1.106854;128.000000 electrons
         Band energy:***********;  BLOECHL correction: -0.058189
       DOS:  cpu time    0.0070: real time    0.0069
    CHARGE:  cpu time    0.2470: real time    0.2468
    MIXING:  cpu time    0.0040: real time    0.0041
    --------------------------------------------
      LOOP:  cpu time    6.5950: real time    6.5959

 eigenvalue-minimisations  :  1683
 total energy-change (2. order) : 0.4050819E+02  (-0.2944805E+02)
 number of electron     127.9999802 magnetization 
 augmentation part       14.3022926 magnetization 

 Broyden mixing:
  rms(total) = 0.14699E+01    rms(broyden)= 0.14688E+01
  rms(prec ) = 0.15285E+01
  weight for this iteration     100.00

 eigenvalues of (default mixing * dielectric matrix)
  average eigenvalue GAMMA=   0.7504
  0.7504

 Free energy of the ion-electron system (eV)
  ---------------------------------------------------
  alpha Z        PSCENC =       380.41862636
  Ewald energy   TEWEN  =     45617.28373447
  -Hartree energ DENC   =    -54160.13663777
  -exchange      EXHF   =         0.00000000
  -V(xc)+E(xc)   XCENC  =       345.41633765
  PAW double counting   =      5936.80223261    -5754.35834914
  entropy T*S    EENTRO =         0.00000000
  eigenvalues    EBANDS =     -1464.49222238
  atomic energy  EATOM  =      8937.26825017
  Solvation  Ediel_sol  =         0.00000000
  ---------------------------------------------------
  free energy    TOTEN  =      -161.79802803 eV

  energy without entropy =     -161.79802803  energy(sigma->0) =     -161.79802803


--------------------------------------------------------------------------------------------------------




--------------------------------------- Iteration      1(   7)  ---------------------------------------


    POTLOK:  cpu time    0.1340: real time    0.1354
    SETDIJ:  cpu time    0.0130: real time    0.0123
    EDDIAG:  cpu time    0.7749: real time    0.7749
  RMM-DIIS:  cpu time    5.5202: real time    5.5188
    ORTHCH:  cpu time    0.1470: real time    0.1474
 BZINTS: Fermi energy: -1.851337;128.000000 electrons
         Band energy:***********;  BLOECHL correction:  0.000000
       DOS:  cpu time    0.0010: real time    0.0013
    CHARGE:  cpu time    0.2410: real time    0.2407
    MIXING:  cpu time    0.0040: real time    0.0040
    --------------------------------------------
      LOOP:  cpu time    6.8350: real time    6.8347

 eigenvalue-minimisations  :  1761
 total energy-change (2. order) : 0.4031452E+01  (-0.1506992E+01)
 number of electron     127.9999788 magnetization 
 augmentation part       13.4634018 magnetization 

 Broyden mixing:
  rms(total) = 0.72988E+00    rms(broyden)= 0.72980E+00
  rms(prec ) = 0.75399E+00
  weight for this iteration     100.00

 eigenvalues of (default mixing * dielectric matrix)
  average eigenvalue GAMMA=   0.9204
  0.9204  0.9204

 Free energy of the ion-electron system (eV)
  ---------------------------------------------------
  alpha Z        PSCENC =       380.41862636
  Ewald energy   TEWEN  =     45617.28373447
  -Hartree energ DENC   =    -54177.17904404
  -exchange      EXHF   =         0.00000000
  -V(xc)+E(xc)   XCENC  =       341.31590520
  PAW double counting   =      5939.90457796    -5762.20576714
  entropy T*S    EENTRO =         0.00000000
  eigenvalues    EBANDS =     -1434.57285882
  atomic energy  EATOM  =      8937.26825017
  Solvation  Ediel_sol  =         0.00000000
  ---------------------------------------------------
  free energy    TOTEN  =      -157.76657583 eV

  energy without entropy =     -157.76657583  energy(sigma->0) =     -157.76657583


--------------------------------------------------------------------------------------------------------




--------------------------------------- Iteration      1(   8)  ---------------------------------------


    POTLOK:  cpu time    0.1340: real time    0.1377
    SETDIJ:  cpu time    0.0140: real time    0.0123
    EDDIAG:  cpu time    0.7779: real time    0.7781
  RMM-DIIS:  cpu time    6.5880: real time    6.5865
    ORTHCH:  cpu time    0.1480: real time    0.1482
 BZINTS: Fermi energy: -1.521962;128.000000 electrons
         Band energy:***********;  BLOECHL correction:  0.000000
       DOS:  cpu time    0.0010: real time    0.0014
    CHARGE:  cpu time    0.2400: real time    0.2404
    MIXING:  cpu time    0.0050: real time    0.0046
    --------------------------------------------
      LOOP:  cpu time    7.9078: real time    7.9091

 eigenvalue-minimisations  :  2070
 total energy-change (2. order) : 0.7548841E+00  (-0.3023230E+00)
 number of electron     127.9999789 magnetization 
 augmentation part       13.6819272 magnetization 

 Broyden mixing:
  rms(total) = 0.37916E+00    rms(broyden)= 0.37914E+00
  rms(prec ) = 0.39450E+00
  weight for this iteration     100.00

 eigenvalues of (default mixing * dielectric matrix)
  average eigenvalue GAMMA=   1.2532
  2.1559  0.9271  0.6766

 Free energy of the ion-electron system (eV)
  ---------------------------------------------------
  alpha Z        PSCENC =       380.41862636
  Ewald energy   TEWEN  =     45617.28373447
  -Hartree energ DENC   =    -54196.95706246
  -exchange      EXHF   =         0.00000000
  -V(xc)+E(xc)   XCENC  =       341.21032667
  PAW double counting   =      6012.18237871    -5837.92088650
  entropy T*S    EENTRO =         0.00000000
  eigenvalues    EBANDS =     -1410.49705912
  atomic energy  EATOM  =      8937.26825017
  Solvation  Ediel_sol  =         0.00000000
  ---------------------------------------------------
  free energy    TOTEN  =      -157.01169170 eV

  energy without entropy =     -157.01169170  energy(sigma->0) =     -157.01169170


--------------------------------------------------------------------------------------------------------




--------------------------------------- Iteration      1(   9)  ---------------------------------------


    POTLOK:  cpu time    0.1370: real time    0.1390
    SETDIJ:  cpu time    0.0120: real time    0.0123
    EDDIAG:  cpu time    0.7789: real time    0.7783
  RMM-DIIS:  cpu time    6.2111: real time    6.2099
    ORTHCH:  cpu time    0.1470: real time    0.1474
 BZINTS: Fermi energy: -0.818546;128.000000 electrons
         Band energy:***********;  BLOECHL correction:  0.000000
       DOS:  cpu time    0.0010: real time    0.0014
    CHARGE:  cpu time    0.2400: real time    0.2400
    MIXING:  cpu time    0.0050: real time    0.0043
    --------------------------------------------
      LOOP:  cpu time    7.5319: real time    7.5326

 eigenvalue-minimisations  :  1974
 total energy-change (2. order) : 0.2720999E+00  (-0.1622099E+00)
 number of electron     127.9999785 magnetization 
 augmentation part       13.7594970 magnetization 

 Broyden mixing:
  rms(total) = 0.10399E+00    rms(broyden)= 0.10391E+00
  rms(prec ) = 0.12047E+00
  weight for this iteration     100.00

 eigenvalues of (default mixing * dielectric matrix)
  average eigenvalue GAMMA=   1.1615
  2.2483  0.8343  0.8343  0.7293

 Free energy of the ion-electron system (eV)
  ---------------------------------------------------
  alpha Z        PSCENC =       380.41862636
  Ewald energy   TEWEN  =     45617.28373447
  -Hartree energ DENC   =    -54228.46581452
  -exchange      EXHF   =         0.00000000
  -V(xc)+E(xc)   XCENC  =       340.80153426
  PAW double counting   =      6110.00664260    -5939.93387154
  entropy T*S    EENTRO =         0.00000000
  eigenvalues    EBANDS =     -1374.11869361
  atomic energy  EATOM  =      8937.26825017
  Solvation  Ediel_sol  =         0.00000000
  ---------------------------------------------------
  free energy    TOTEN  =      -156.73959180 eV

  energy without entropy =     -156.73959180  energy(sigma->0) =     -156.73959180


--------------------------------------------------------------------------------------------------------




--------------------------------------- Iteration      1(  10)  ---------------------------------------


    POTLOK:  cpu time    0.1360: real time    0.1378
    SETDIJ:  cpu time    0.0130: real time    0.0126
    EDDIAG:  cpu time    0.7759: real time    0.7756
  RMM-DIIS:  cpu time    7.3899: real time    7.3882
    ORTHCH:  cpu time    0.1470: real time    0.1469
 BZINTS: Fermi energy: -0.701346;128.000000 electrons
         Band energy:***********;  BLOECHL correction:  0.000000
       DOS:  cpu time    0.0010: real time    0.0012
    CHARGE:  cpu time    0.2410: real time    0.2411
    MIXING:  cpu time    0.0050: real time    0.0045
    --------------------------------------------
      LOOP:  cpu time    8.7087: real time    8.7080

 eigenvalue-minimisations  :  2360
 total energy-change (2. order) : 0.4988680E-01  (-0.2569247E-01)
 number of electron     127.9999786 magnetization 
 augmentation part       13.7105437 magnetization 

 Broyden mixing:
  rms(total) = 0.75293E-01    rms(broyden)= 0.75282E-01
  rms(prec ) = 0.86439E-01
  weight for this iteration     100.00

 eigenvalues of (default mixing * dielectric matrix)
  average eigenvalue GAMMA=   1.1835
  2.2638  1.1564  1.1564  0.7078  0.6329

 Free energy of the ion-electron system (eV)
  ---------------------------------------------------
  alpha Z        PSCENC =       380.41862636
  Ewald energy   TEWEN  =     45617.28373447
  -Hartree energ DENC   =    -54250.79763726
  -exchange      EXHF   =         0.00000000
  -V(xc)+E(xc)   XCENC  =       341.05980536
  PAW double counting   =      6131.79827011    -5962.32931446
  entropy T*S    EENTRO =         0.00000000
  eigenvalues    EBANDS =     -1351.39143977
  atomic energy  EATOM  =      8937.26825017
  Solvation  Ediel_sol  =         0.00000000
  ---------------------------------------------------
  free energy    TOTEN  =      -156.68970501 eV

  energy without entropy =     -156.68970501  energy(sigma->0) =     -156.68970501


--------------------------------------------------------------------------------------------------------




--------------------------------------- Iteration      1(  11)  ---------------------------------------


    POTLOK:  cpu time    0.1350: real time    0.1373
    SETDIJ:  cpu time    0.0120: real time    0.0124
    EDDIAG:  cpu time    0.7619: real time    0.7614
  RMM-DIIS:  cpu time    7.0029: real time    7.0012
    ORTHCH:  cpu time    0.1430: real time    0.1429
 BZINTS: Fermi energy: -0.568747;128.000000 electrons
         Band energy:***********;  BLOECHL correction:  0.000000
       DOS:  cpu time    0.0010: real time    0.0014
    CHARGE:  cpu time    0.2400: real time    0.2400
    MIXING:  cpu time    0.0050: real time    0.0048
    --------------------------------------------
      LOOP:  cpu time    8.3007: real time    8.3016

 eigenvalue-minimisations  :  2247
 total energy-change (2. order) : 0.2565270E-01  (-0.1745064E-01)
 number of electron     127.9999787 magnetization 
 augmentation part       13.6407209 magnetization 

 Broyden mixing:
  rms(total) = 0.39441E-01    rms(broyden)= 0.39422E-01
  rms(prec ) = 0.49143E-01
  weight for this iteration     100.00

 eigenvalues of (default mixing * dielectric matrix)
  average eigenvalue GAMMA=   1.2405
  2.1714  2.1714  0.8692  0.8692  0.6085  0.7529

 Free energy of the ion-electron system (eV)
  ---------------------------------------------------
  alpha Z        PSCENC =       380.41862636
  Ewald energy   TEWEN  =     45617.28373447
  -Hartree energ DENC   =    -54274.36448786
  -exchange      EXHF   =         0.00000000
  -V(xc)+E(xc)   XCENC  =       341.41472611
  PAW double counting   =      6147.07829811    -5977.75209787
  entropy T*S    EENTRO =         0.00000000
  eigenvalues    EBANDS =     -1328.01110180
  atomic energy  EATOM  =      8937.26825017
  Solvation  Ediel_sol  =         0.00000000
  ---------------------------------------------------
  free energy    TOTEN  =      -156.66405231 eV

  energy without entropy =     -156.66405231  energy(sigma->0) =     -156.66405231


--------------------------------------------------------------------------------------------------------




--------------------------------------- Iteration      1(  12)  ---------------------------------------


    POTLOK:  cpu time    0.1370: real time    0.1388
    SETDIJ:  cpu time    0.0130: real time    0.0123
    EDDIAG:  cpu time    0.7599: real time    0.7607
  RMM-DIIS:  cpu time    7.2669: real time    7.2647
    ORTHCH:  cpu time    0.1430: real time    0.1429
 BZINTS: Fermi energy: -0.406672;128.000000 electrons
         Band energy:***********;  BLOECHL correction:  0.000000
       DOS:  cpu time    0.0010: real time    0.0012
    CHARGE:  cpu time    0.2400: real time    0.2404
    MIXING:  cpu time    0.0050: real time    0.0049
    --------------------------------------------
      LOOP:  cpu time    8.5657: real time    8.5658

 eigenvalue-minimisations  :  2336
 total energy-change (2. order) : 0.6929435E-02  (-0.5855312E-02)
 number of electron     127.9999787 magnetization 
 augmentation part       13.5908961 magnetization 

 Broyden mixing:
  rms(total) = 0.35501E-01    rms(broyden)= 0.35497E-01
  rms(prec ) = 0.42195E-01
  weight for this iteration     100.00

 eigenvalues of (default mixing * dielectric matrix)
  average eigenvalue GAMMA=   1.2141
  2.3063  2.3063  0.9366  0.9366  0.7883  0.6370  0.5875

 Free energy of the ion-electron system (eV)
  ---------------------------------------------------
  alpha Z        PSCENC =       380.41862636
  Ewald energy   TEWEN  =     45617.28373447
  -Hartree energ DENC   =    -54289.49061826
  -exchange      EXHF   =         0.00000000
  -V(xc)+E(xc)   XCENC  =       341.52745695
  PAW double counting   =      6148.50966655    -5978.90580942
  entropy T*S    EENTRO =         0.00000000
  eigenvalues    EBANDS =     -1313.26842970
  atomic energy  EATOM  =      8937.26825017
  Solvation  Ediel_sol  =         0.00000000
  ---------------------------------------------------
  free energy    TOTEN  =      -156.65712287 eV

  energy without entropy =     -156.65712287  energy(sigma->0) =     -156.65712287


--------------------------------------------------------------------------------------------------------




--------------------------------------- Iteration      1(  13)  ---------------------------------------


    POTLOK:  cpu time    0.1380: real time    0.1407
    SETDIJ:  cpu time    0.0130: real time    0.0123
    EDDIAG:  cpu time    0.7719: real time    0.7716
  RMM-DIIS:  cpu time    8.1838: real time    8.1825
    ORTHCH:  cpu time    0.1430: real time    0.1426
 BZINTS: Fermi energy: -0.315383;128.000000 electrons
         Band energy:***********;  BLOECHL correction:  0.000000
       DOS:  cpu time    0.0010: real time    0.0012
    CHARGE:  cpu time    0.2380: real time    0.2378
    MIXING:  cpu time    0.0050: real time    0.0051
    --------------------------------------------
      LOOP:  cpu time    9.4936: real time    9.4938

 eigenvalue-minimisations  :  2595
 total energy-change (2. order) : 0.6580338E-02  (-0.2134285E-02)
 number of electron     127.9999787 magnetization 
 augmentation part       13.5994219 magnetization 

 Broyden mixing:
  rms(total) = 0.22170E-01    rms(broyden)= 0.22167E-01
  rms(prec ) = 0.27766E-01
  weight for this iteration     100.00

 eigenvalues of (default mixing * dielectric matrix)
  average eigenvalue GAMMA=   1.3419
  2.6496  2.6496  1.1832  1.1832  0.8932  0.8932  0.6692  0.6143

 Free energy of the ion-electron system (eV)
  ---------------------------------------------------
  alpha Z        PSCENC =       380.41862636
  Ewald energy   TEWEN  =     45617.28373447
  -Hartree energ DENC   =    -54298.45422773
  -exchange      EXHF   =         0.00000000
  -V(xc)+E(xc)   XCENC  =       341.56351029
  PAW double counting   =      6150.70012692    -5981.01852068
  entropy T*S    EENTRO =         0.00000000
  eigenvalues    EBANDS =     -1304.41204233
  atomic energy  EATOM  =      8937.26825017
  Solvation  Ediel_sol  =         0.00000000
  ---------------------------------------------------
  free energy    TOTEN  =      -156.65054253 eV

  energy without entropy =     -156.65054253  energy(sigma->0) =     -156.65054253


--------------------------------------------------------------------------------------------------------




--------------------------------------- Iteration      1(  14)  ---------------------------------------


    POTLOK:  cpu time    0.1370: real time    0.1398
    SETDIJ:  cpu time    0.0130: real time    0.0124
    EDDIAG:  cpu time    0.7719: real time    0.7717
  RMM-DIIS:  cpu time    6.9639: real time    6.9622
    ORTHCH:  cpu time    0.1420: real time    0.1421
 BZINTS: Fermi energy: -0.180095;128.000000 electrons
         Band energy:***********;  BLOECHL correction:  0.000000
       DOS:  cpu time    0.0010: real time    0.0012
    CHARGE:  cpu time    0.2390: real time    0.2388
    MIXING:  cpu time    0.0060: real time    0.0057
    --------------------------------------------
      LOOP:  cpu time    8.2737: real time    8.2739

 eigenvalue-minimisations  :  2222
 total energy-change (2. order) : 0.2519564E-02  (-0.2200860E-02)
 number of electron     127.9999786 magnetization 
 augmentation part       13.6073539 magnetization 

 Broyden mixing:
  rms(total) = 0.12471E-01    rms(broyden)= 0.12463E-01
  rms(prec ) = 0.16022E-01
  weight for this iteration     100.00

 eigenvalues of (default mixing * dielectric matrix)
  average eigenvalue GAMMA=   1.3880
  3.3477  2.6294  1.4914  1.0021  1.0021  0.8882  0.8882  0.6425  0.5999

 Free energy of the ion-electron system (eV)
  ---------------------------------------------------
  alpha Z        PSCENC =       380.41862636
  Ewald energy   TEWEN  =     45617.28373447
  -Hartree energ DENC   =    -54311.11347205
  -exchange      EXHF   =         0.00000000
  -V(xc)+E(xc)   XCENC  =       341.49649783
  PAW double counting   =      6146.01461611    -5976.01754527
  entropy T*S    EENTRO =         0.00000000
  eigenvalues    EBANDS =     -1291.99873059
  atomic energy  EATOM  =      8937.26825017
  Solvation  Ediel_sol  =         0.00000000
  ---------------------------------------------------
  free energy    TOTEN  =      -156.64802297 eV

  energy without entropy =     -156.64802297  energy(sigma->0) =     -156.64802297


--------------------------------------------------------------------------------------------------------




--------------------------------------- Iteration      1(  15)  ---------------------------------------


    POTLOK:  cpu time    0.1380: real time    0.1456
    SETDIJ:  cpu time    0.0130: real time    0.0124
    EDDIAG:  cpu time    0.7729: real time    0.7726
  RMM-DIIS:  cpu time    7.6138: real time    7.6114
    ORTHCH:  cpu time    0.1420: real time    0.1425
 BZINTS: Fermi energy: -0.100427;128.000000 electrons
         Band energy:***********;  BLOECHL correction:  0.000000
       DOS:  cpu time    0.0000: real time    0.0013
    CHARGE:  cpu time    0.2410: real time    0.2392
    MIXING:  cpu time    0.0050: real time    0.0056
    --------------------------------------------
      LOOP:  cpu time    8.9256: real time    8.9306

 eigenvalue-minimisations  :  2420
 total energy-change (2. order) :-0.5230141E-03  (-0.7249138E-03)
 number of electron     127.9999786 magnetization 
 augmentation part       13.6132796 magnetization 

 Broyden mixing:
  rms(total) = 0.81613E-02    rms(broyden)= 0.81574E-02
  rms(prec ) = 0.10486E-01
  weight for this iteration     100.00

 eigenvalues of (default mixing * dielectric matrix)
  average eigenvalue GAMMA=   1.4068
  3.8486  2.4080  1.3769  1.3769  1.1996  0.9293  0.9293  0.7724  0.6134  0.6134

 Free energy of the ion-electron system (eV)
  ---------------------------------------------------
  alpha Z        PSCENC =       380.41862636
  Ewald energy   TEWEN  =     45617.28373447
  -Hartree energ DENC   =    -54319.78478968
  -exchange      EXHF   =         0.00000000
  -V(xc)+E(xc)   XCENC  =       341.53559380
  PAW double counting   =      6145.45368027    -5975.37396871
  entropy T*S    EENTRO =         0.00000000
  eigenvalues    EBANDS =     -1283.44967268
  atomic energy  EATOM  =      8937.26825017
  Solvation  Ediel_sol  =         0.00000000
  ---------------------------------------------------
  free energy    TOTEN  =      -156.64854598 eV

  energy without entropy =     -156.64854598  energy(sigma->0) =     -156.64854598


--------------------------------------------------------------------------------------------------------




--------------------------------------- Iteration      1(  16)  ---------------------------------------


    POTLOK:  cpu time    0.1390: real time    0.1418
    SETDIJ:  cpu time    0.0130: real time    0.0124
    EDDIAG:  cpu time    0.7759: real time    0.7754
  RMM-DIIS:  cpu time    7.2739: real time    7.2718
    ORTHCH:  cpu time    0.1430: real time    0.1430
 BZINTS: Fermi energy: -0.033122;128.000000 electrons
         Band energy:***********;  BLOECHL correction:  0.000000
       DOS:  cpu time    0.0010: real time    0.0014
    CHARGE:  cpu time    0.2410: real time    0.2411
    MIXING:  cpu time    0.0060: real time    0.0059
    --------------------------------------------
      LOOP:  cpu time    8.5927: real time    8.5929

 eigenvalue-minimisations  :  2334
 total energy-change (2. order) :-0.1308065E-02  (-0.5254388E-03)
 number of electron     127.9999787 magnetization 
 augmentation part       13.6043463 magnetization 

 Broyden mixing:
  rms(total) = 0.70288E-02    rms(broyden)= 0.70259E-02
  rms(prec ) = 0.83078E-02
  weight for this iteration     100.00

 eigenvalues of (default mixing * dielectric matrix)
  average eigenvalue GAMMA=   1.5918
  5.0290  2.9038  2.1241  1.3713  1.1595  1.1595  0.8891  0.8891  0.7549  0.6148
  0.6148

 Free energy of the ion-electron system (eV)
  ---------------------------------------------------
  alpha Z        PSCENC =       380.41862636
  Ewald energy   TEWEN  =     45617.28373447
  -Hartree energ DENC   =    -54326.55034654
  -exchange      EXHF   =         0.00000000
  -V(xc)+E(xc)   XCENC  =       341.57389210
  PAW double counting   =      6146.63857005    -5976.63387951
  entropy T*S    EENTRO =         0.00000000
  eigenvalues    EBANDS =     -1276.64870115
  atomic energy  EATOM  =      8937.26825017
  Solvation  Ediel_sol  =         0.00000000
  ---------------------------------------------------
  free energy    TOTEN  =      -156.64985405 eV

  energy without entropy =     -156.64985405  energy(sigma->0) =     -156.64985405


--------------------------------------------------------------------------------------------------------




--------------------------------------- Iteration      1(  17)  ---------------------------------------


    POTLOK:  cpu time    0.1420: real time    0.1444
    SETDIJ:  cpu time    0.0130: real time    0.0124
    EDDIAG:  cpu time    0.7729: real time    0.7723
  RMM-DIIS:  cpu time    7.0399: real time    7.0382
    ORTHCH:  cpu time    0.1420: real time    0.1430
 BZINTS: Fermi energy: -0.033936;128.000000 electrons
         Band energy:***********;  BLOECHL correction:  0.000000
       DOS:  cpu time    0.0010: real time    0.0013
    CHARGE:  cpu time    0.2410: real time    0.2408
    MIXING:  cpu time    0.0070: real time    0.0062
    --------------------------------------------
      LOOP:  cpu time    8.3587: real time    8.3585

 eigenvalue-minimisations  :  2254
 total energy-change (2. order) :-0.9403986E-03  (-0.2270458E-03)
 number of electron     127.9999786 magnetization 
 augmentation part       13.5998937 magnetization 

 Broyden mixing:
  rms(total) = 0.42294E-02    rms(broyden)= 0.42278E-02
  rms(prec ) = 0.49313E-02
  weight for this iteration     100.00

 eigenvalues of (default mixing * dielectric matrix)
  average eigenvalue GAMMA=   1.5655
  5.6919  2.7485  2.4053  1.1119  1.1119  1.2113  0.9980  0.8181  0.8181  0.6087
  0.6310  0.6310

 Free energy of the ion-electron system (eV)
  ---------------------------------------------------
  alpha Z        PSCENC =       380.41862636
  Ewald energy   TEWEN  =     45617.28373447
  -Hartree energ DENC   =    -54330.91776199
  -exchange      EXHF   =         0.00000000
  -V(xc)+E(xc)   XCENC  =       341.53406940
  PAW double counting   =      6144.44532779    -5974.41467344
  entropy T*S    EENTRO =         0.00000000
  eigenvalues    EBANDS =     -1272.26836721
  atomic energy  EATOM  =      8937.26825017
  Solvation  Ediel_sol  =         0.00000000
  ---------------------------------------------------
  free energy    TOTEN  =      -156.65079445 eV

  energy without entropy =     -156.65079445  energy(sigma->0) =     -156.65079445


--------------------------------------------------------------------------------------------------------




--------------------------------------- Iteration      1(  18)  ---------------------------------------


    POTLOK:  cpu time    0.1420: real time    0.1445
    SETDIJ:  cpu time    0.0130: real time    0.0124
    EDDIAG:  cpu time    0.7479: real time    0.7483
  RMM-DIIS:  cpu time    6.8850: real time    6.8827
    ORTHCH:  cpu time    0.1420: real time    0.1424
 BZINTS: Fermi energy: -0.009750;128.000000 electrons
         Band energy:***********;  BLOECHL correction:  0.000000
       DOS:  cpu time    0.0010: real time    0.0015
    CHARGE:  cpu time    0.2370: real time    0.2368
    MIXING:  cpu time    0.0060: real time    0.0060
    --------------------------------------------
      LOOP:  cpu time    8.1738: real time    8.1745

 eigenvalue-minimisations  :  2191
 total energy-change (2. order) :-0.3416737E-04  (-0.7931370E-04)
 number of electron     127.9999786 magnetization 
 augmentation part       13.6020039 magnetization 

 Broyden mixing:
  rms(total) = 0.15940E-02    rms(broyden)= 0.15926E-02
  rms(prec ) = 0.24574E-02
  weight for this iteration     100.00

 eigenvalues of (default mixing * dielectric matrix)
  average eigenvalue GAMMA=   1.6067
  6.1341  2.9821  1.9247  1.9247  1.1862  1.1862  0.9773  0.9773  0.8743  0.8743
  0.6271  0.6271  0.5912

 Free energy of the ion-electron system (eV)
  ---------------------------------------------------
  alpha Z        PSCENC =       380.41862636
  Ewald energy   TEWEN  =     45617.28373447
  -Hartree energ DENC   =    -54332.35185880
  -exchange      EXHF   =         0.00000000
  -V(xc)+E(xc)   XCENC  =       341.54830707
  PAW double counting   =      6144.90076990    -5974.87443415
  entropy T*S    EENTRO =         0.00000000
  eigenvalues    EBANDS =     -1270.84422364
  atomic energy  EATOM  =      8937.26825017
  Solvation  Ediel_sol  =         0.00000000
  ---------------------------------------------------
  free energy    TOTEN  =      -156.65082862 eV

  energy without entropy =     -156.65082862  energy(sigma->0) =     -156.65082862


--------------------------------------------------------------------------------------------------------




--------------------------------------- Iteration      1(  19)  ---------------------------------------


    POTLOK:  cpu time    0.1270: real time    0.1294
    SETDIJ:  cpu time    0.0130: real time    0.0120
    EDDIAG:  cpu time    0.7029: real time    0.7025
  RMM-DIIS:  cpu time    6.2870: real time    6.2860
    ORTHCH:  cpu time    0.1390: real time    0.1384
 BZINTS: Fermi energy:  0.036592;128.000000 electrons
         Band energy:***********;  BLOECHL correction:  0.000000
       DOS:  cpu time    0.0010: real time    0.0014
    CHARGE:  cpu time    0.2290: real time    0.2298
    MIXING:  cpu time    0.0070: real time    0.0069
    --------------------------------------------
      LOOP:  cpu time    7.5059: real time    7.5063

 eigenvalue-minimisations  :  2001
 total energy-change (2. order) :-0.4483561E-03  (-0.2957032E-04)
 number of electron     127.9999786 magnetization 
 augmentation part       13.6017638 magnetization 

 Broyden mixing:
  rms(total) = 0.11231E-02    rms(broyden)= 0.11228E-02
  rms(prec ) = 0.16232E-02
  weight for this iteration     100.00

 eigenvalues of (default mixing * dielectric matrix)
  average eigenvalue GAMMA=   1.6570
  6.1192  3.4169  2.2685  2.2685  1.4338  1.1398  1.1398  0.9413  0.9413  0.8332
  0.8332  0.6327  0.6327  0.5978

 Free energy of the ion-electron system (eV)
  ---------------------------------------------------
  alpha Z        PSCENC =       380.41862636
  Ewald energy   TEWEN  =     45617.28373447
  -Hartree energ DENC   =    -54333.31196718
  -exchange      EXHF   =         0.00000000
  -V(xc)+E(xc)   XCENC  =       341.54739637
  PAW double counting   =      6144.76705066    -5974.70862842
  entropy T*S    EENTRO =         0.00000000
  eigenvalues    EBANDS =     -1269.91573942
  atomic energy  EATOM  =      8937.26825017
  Solvation  Ediel_sol  =         0.00000000
  ---------------------------------------------------
  free energy    TOTEN  =      -156.65127697 eV

  energy without entropy =     -156.65127697  energy(sigma->0) =     -156.65127697


--------------------------------------------------------------------------------------------------------




--------------------------------------- Iteration      1(  20)  ---------------------------------------


    POTLOK:  cpu time    0.1330: real time    0.1324
    SETDIJ:  cpu time    0.0120: real time    0.0121
    EDDIAG:  cpu time    0.7439: real time    0.7437
  RMM-DIIS:  cpu time    5.7321: real time    5.7306
    ORTHCH:  cpu time    0.1380: real time    0.1381
 BZINTS: Fermi energy: -0.043598;128.000000 electrons
         Band energy:***********;  BLOECHL correction:  0.000000
       DOS:  cpu time    0.0000: real time    0.0012
    CHARGE:  cpu time    0.2310: real time    0.2303
    MIXING:  cpu time    0.0080: real time    0.0069
    --------------------------------------------
      LOOP:  cpu time    6.9979: real time    6.9952

 eigenvalue-minimisations  :  1818
 total energy-change (2. order) :-0.3628585E-03  (-0.1787860E-04)
 number of electron     127.9999786 magnetization 
 augmentation part       13.6021174 magnetization 

 Broyden mixing:
  rms(total) = 0.95520E-03    rms(broyden)= 0.95501E-03
  rms(prec ) = 0.12408E-02
  weight for this iteration     100.00

 eigenvalues of (default mixing * dielectric matrix)
  average eigenvalue GAMMA=   1.7044
  6.4685  3.9540  2.2956  2.2956  1.5181  1.5181  1.1395  1.1395  0.8976  0.8976
  0.7908  0.7908  0.5942  0.6329  0.6329

 Free energy of the ion-electron system (eV)
  ---------------------------------------------------
  alpha Z        PSCENC =       380.41862636
  Ewald energy   TEWEN  =     45617.28373447
  -Hartree energ DENC   =    -54333.83337921
  -exchange      EXHF   =         0.00000000
  -V(xc)+E(xc)   XCENC  =       341.54648490
  PAW double counting   =      6145.04618387    -5974.98662551
  entropy T*S    EENTRO =         0.00000000
  eigenvalues    EBANDS =     -1269.39491489
  atomic energy  EATOM  =      8937.26825017
  Solvation  Ediel_sol  =         0.00000000
  ---------------------------------------------------
  free energy    TOTEN  =      -156.65163983 eV

  energy without entropy =     -156.65163983  energy(sigma->0) =     -156.65163983


--------------------------------------------------------------------------------------------------------




--------------------------------------- Iteration      1(  21)  ---------------------------------------


    POTLOK:  cpu time    0.1300: real time    0.1318
    SETDIJ:  cpu time    0.0130: real time    0.0120
    EDDIAG:  cpu time    0.7729: real time    0.7731
  RMM-DIIS:  cpu time    5.5652: real time    5.5632
    ORTHCH:  cpu time    0.1430: real time    0.1428
 BZINTS: Fermi energy: -0.016578;128.000000 electrons
         Band energy:***********;  BLOECHL correction:  0.000000
       DOS:  cpu time    0.0010: real time    0.0012
    CHARGE:  cpu time    0.2410: real time    0.2410
    MIXING:  cpu time    0.0070: real time    0.0074
    --------------------------------------------
      LOOP:  cpu time    6.8730: real time    6.8726

 eigenvalue-minimisations  :  1759
 total energy-change (2. order) :-0.2610176E-03  (-0.1083865E-04)
 number of electron     127.9999786 magnetization 
 augmentation part       13.6000615 magnetization 

 Broyden mixing:
  rms(total) = 0.95397E-03    rms(broyden)= 0.95384E-03
  rms(prec ) = 0.11054E-02
  weight for this iteration     100.00

 eigenvalues of (default mixing * dielectric matrix)
  average eigenvalue GAMMA=   1.7654
  6.9133  4.5391  2.6774  2.2060  2.2060  1.1447  1.1447  1.2202  0.9154  0.9154
  0.8363  0.8363  0.8517  0.6262  0.6262  0.5871

 Free energy of the ion-electron system (eV)
  ---------------------------------------------------
  alpha Z        PSCENC =       380.41862636
  Ewald energy   TEWEN  =     45617.28373447
  -Hartree energ DENC   =    -54334.27597042
  -exchange      EXHF   =         0.00000000
  -V(xc)+E(xc)   XCENC  =       341.54429852
  PAW double counting   =      6145.14464133    -5975.08792025
  entropy T*S    EENTRO =         0.00000000
  eigenvalues    EBANDS =     -1268.94756104
  atomic energy  EATOM  =      8937.26825017
  Solvation  Ediel_sol  =         0.00000000
  ---------------------------------------------------
  free energy    TOTEN  =      -156.65190085 eV

  energy without entropy =     -156.65190085  energy(sigma->0) =     -156.65190085


--------------------------------------------------------------------------------------------------------




--------------------------------------- Iteration      1(  22)  ---------------------------------------


    POTLOK:  cpu time    0.1380: real time    0.1395
    SETDIJ:  cpu time    0.0120: real time    0.0124
    EDDIAG:  cpu time    0.7759: real time    0.7752
  RMM-DIIS:  cpu time    4.9073: real time    4.9062
    ORTHCH:  cpu time    0.1430: real time    0.1427
 BZINTS: Fermi energy:  0.005449;128.000000 electrons
         Band energy:***********;  BLOECHL correction:  0.000000
       DOS:  cpu time    0.0000: real time    0.0012
    CHARGE:  cpu time    0.2400: real time    0.2392
    MIXING:  cpu time    0.0080: real time    0.0078
    --------------------------------------------
      LOOP:  cpu time    6.2241: real time    6.2242

 eigenvalue-minimisations  :  1542
 total energy-change (2. order) :-0.1991020E-03  (-0.5768261E-05)
 number of electron     127.9999786 magnetization 
 augmentation part       13.6007211 magnetization 

 Broyden mixing:
  rms(total) = 0.32806E-03    rms(broyden)= 0.32793E-03
  rms(prec ) = 0.43088E-03
  weight for this iteration     100.00

 eigenvalues of (default mixing * dielectric matrix)
  average eigenvalue GAMMA=   1.7720
  6.8156  5.2518  2.6774  2.6774  1.8451  1.1706  1.1706  1.2720  1.0264  1.0264
  0.9209  0.8248  0.8248  0.7797  0.6265  0.6265  0.5883

 Free energy of the ion-electron system (eV)
  ---------------------------------------------------
  alpha Z        PSCENC =       380.41862636
  Ewald energy   TEWEN  =     45617.28373447
  -Hartree energ DENC   =    -54334.64552489
  -exchange      EXHF   =         0.00000000
  -V(xc)+E(xc)   XCENC  =       341.54714724
  PAW double counting   =      6145.19049454    -5975.12697967
  entropy T*S    EENTRO =         0.00000000
  eigenvalues    EBANDS =     -1268.58784816
  atomic energy  EATOM  =      8937.26825017
  Solvation  Ediel_sol  =         0.00000000
  ---------------------------------------------------
  free energy    TOTEN  =      -156.65209995 eV

  energy without entropy =     -156.65209995  energy(sigma->0) =     -156.65209995


--------------------------------------------------------------------------------------------------------




--------------------------------------- Iteration      1(  23)  ---------------------------------------


    POTLOK:  cpu time    0.1360: real time    0.1385
    SETDIJ:  cpu time    0.0130: real time    0.0123
    EDDIAG:  cpu time    0.7749: real time    0.7748
  RMM-DIIS:  cpu time    4.1204: real time    4.1195
    ORTHCH:  cpu time    0.1420: real time    0.1420
 BZINTS: Fermi energy: -0.015733;128.000000 electrons
         Band energy:***********;  BLOECHL correction:  0.000000
       DOS:  cpu time    0.0010: real time    0.0014
    CHARGE:  cpu time    0.2400: real time    0.2402
    MIXING:  cpu time    0.0080: real time    0.0078
    --------------------------------------------
      LOOP:  cpu time    5.4352: real time    5.4364

 eigenvalue-minimisations  :  1280
 total energy-change (2. order) :-0.1073467E-03  (-0.2842221E-05)
 number of electron     127.9999786 magnetization 
 augmentation part       13.6004966 magnetization 

 Broyden mixing:
  rms(total) = 0.19979E-03    rms(broyden)= 0.19975E-03
  rms(prec ) = 0.26699E-03
  weight for this iteration     100.00

 eigenvalues of (default mixing * dielectric matrix)
  average eigenvalue GAMMA=   1.8491
  6.6679  6.6679  3.1875  2.4939  1.8764  1.8764  1.3983  1.1452  1.1452  0.9698
  0.9698  0.8245  0.8245  0.7789  0.6246  0.6246  0.5943  0.6151

 Free energy of the ion-electron system (eV)
  ---------------------------------------------------
  alpha Z        PSCENC =       380.41862636
  Ewald energy   TEWEN  =     45617.28373447
  -Hartree energ DENC   =    -54334.74784861
  -exchange      EXHF   =         0.00000000
  -V(xc)+E(xc)   XCENC  =       341.54676819
  PAW double counting   =      6145.11608359    -5975.04804994
  entropy T*S    EENTRO =         0.00000000
  eigenvalues    EBANDS =     -1268.48977154
  atomic energy  EATOM  =      8937.26825017
  Solvation  Ediel_sol  =         0.00000000
  ---------------------------------------------------
  free energy    TOTEN  =      -156.65220730 eV

  energy without entropy =     -156.65220730  energy(sigma->0) =     -156.65220730


--------------------------------------------------------------------------------------------------------




--------------------------------------- Iteration      1(  24)  ---------------------------------------


    POTLOK:  cpu time    0.1370: real time    0.1391
    SETDIJ:  cpu time    0.0120: real time    0.0122
    EDDIAG:  cpu time    0.7689: real time    0.7680
  RMM-DIIS:  cpu time    4.0714: real time    4.0703
    ORTHCH:  cpu time    0.1420: real time    0.1421
 BZINTS: Fermi energy: -0.001371;128.000000 electrons
         Band energy:***********;  BLOECHL correction:  0.000000
       DOS:  cpu time    0.0010: real time    0.0014
    CHARGE:  cpu time    0.2390: real time    0.2394
    MIXING:  cpu time    0.0090: real time    0.0080
    --------------------------------------------
      LOOP:  cpu time    5.3802: real time    5.3806

 eigenvalue-minimisations  :  1255
 total energy-change (2. order) :-0.9812668E-04  (-0.2760200E-05)
 number of electron     127.9999786 magnetization 
 augmentation part       13.6008409 magnetization 

 Broyden mixing:
  rms(total) = 0.31482E-03    rms(broyden)= 0.31478E-03
  rms(prec ) = 0.34170E-03
  weight for this iteration     100.00

 eigenvalues of (default mixing * dielectric matrix)
  average eigenvalue GAMMA=   1.8525
  7.7286  6.3200  3.3739  2.5419  2.1624  1.5743  1.4410  1.1570  1.1570  0.9907
  0.9907  0.8610  0.8610  0.8180  0.8180  0.6287  0.6287  0.5932  0.5510

 Free energy of the ion-electron system (eV)
  ---------------------------------------------------
  alpha Z        PSCENC =       380.41862636
  Ewald energy   TEWEN  =     45617.28373447
  -Hartree energ DENC   =    -54334.85653422
  -exchange      EXHF   =         0.00000000
  -V(xc)+E(xc)   XCENC  =       341.54691145
  PAW double counting   =      6145.10358240    -5975.03467786
  entropy T*S    EENTRO =         0.00000000
  eigenvalues    EBANDS =     -1268.38219820
  atomic energy  EATOM  =      8937.26825017
  Solvation  Ediel_sol  =         0.00000000
  ---------------------------------------------------
  free energy    TOTEN  =      -156.65230542 eV

  energy without entropy =     -156.65230542  energy(sigma->0) =     -156.65230542


--------------------------------------------------------------------------------------------------------




[...]
     43      -3.6334      2.00000
     44      -3.5591      2.00000
     45      -3.2890      2.00000
     46      -3.1394      2.00000
     47      -3.0142      2.00000
     48      -2.9699      2.00000
     49      -2.8148      2.00000
     50      -2.5228      2.00000
     51      -2.3213      2.00000
     52      -2.2960      2.00000
     53      -2.0202      2.00000
     54      -1.9414      2.00000
     55      -1.9025      2.00000
     56      -1.8732      2.00000
     57      -1.8456      2.00000
     58      -1.7401      2.00000
     59      -1.6798      2.00000
     60      -1.5822      2.00000
     61      -1.4262      2.00000
     62      -1.1839      2.00000
     63      -1.0154      2.00000
     64      -0.8872      2.00000
     65       1.4431      0.00000
     66       1.8367      0.00000
     67       2.2826      0.00000
     68       2.6111      0.00000
     69       2.6419      0.00000
     70       2.6794      0.00000
     71       2.7222      0.00000
     72       2.7357      0.00000
     73       2.7603      0.00000
     74       2.8153      0.00000
     75       2.9690      0.00000
     76       3.0454      0.00000

 k-point     8 :       0.2857    0.2857    0.0000
  band No.  band energies     occupation 
      1     -34.6017      2.00000
      2     -33.5188      2.00000
      3     -33.4658      2.00000
      4     -33.3514      2.00000
      5     -17.9170      2.00000
      6     -17.7993      2.00000
      7     -17.6522      2.00000
      8     -17.3793      2.00000
      9     -17.2478      2.00000
     10     -17.1850      2.00000
     11     -17.1178      2.00000
     12     -17.0459      2.00000
     13     -17.0295      2.00000
     14     -16.9880      2.00000
     15     -16.6952      2.00000
     16     -16.5396      2.00000
     17     -16.4654      2.00000
     18     -16.4532      2.00000
     19     -15.7938      2.00000
     20     -15.6170      2.00000
     21     -15.5356      2.00000
     22     -15.4705      2.00000
     23     -15.4246      2.00000
     24     -15.3390      2.00000
     25     -15.3097      2.00000
     26     -15.2398      2.00000
     27     -15.1916      2.00000
     28     -15.1692      2.00000
     29      -4.8798      2.00000
     30      -4.7193      2.00000
     31      -4.6256      2.00000
     32      -4.5447      2.00000
     33      -4.3402      2.00000
     34      -4.2369      2.00000
     35      -4.1633      2.00000
     36      -4.1403      2.00000
     37      -4.1213      2.00000
     38      -4.0502      2.00000
     39      -4.0393      2.00000
     40      -3.9960      2.00000
     41      -3.8933      2.00000
     42      -3.8173      2.00000
     43      -3.7700      2.00000
     44      -3.7370      2.00000
     45      -3.6812      2.00000
     46      -3.6720      2.00000
     47      -3.3316      2.00000
     48      -3.3290      2.00000
     49      -3.1105      2.00000
     50      -2.8006      2.00000
     51      -2.7083      2.00000
     52      -2.2645      2.00000
     53      -2.0654      2.00000
     54      -1.8617      2.00000
     55      -1.6036      2.00000
     56      -1.5632      2.00000
     57      -1.4802      2.00000
     58      -1.4314      2.00000
     59      -1.3775      2.00000
     60      -1.3113      2.00000
     61      -1.2661      2.00000
     62      -1.1657      2.00000
     63      -1.0649      2.00000
     64      -0.5411      2.00000
     65       1.9847      0.00000
     66       2.2122      0.00000
     67       2.2708      0.00000
     68       2.3906      0.00000
     69       2.4808      0.00000
     70       2.5424      0.00000
     71       2.5794      0.00000
     72       2.6397      0.00000
     73       2.6754      0.00000
     74       2.7594      0.00000
     75       2.8937      0.00000
     76       2.9227      0.00000

 k-point     9 :       0.4286    0.2857    0.0000
  band No.  band energies     occupation 
      1     -34.5967      2.00000
      2     -33.5129      2.00000
      3     -33.4599      2.00000
      4     -33.3455      2.00000
      5     -17.8501      2.00000
      6     -17.6933      2.00000
      7     -17.4902      2.00000
      8     -17.2962      2.00000
      9     -17.2397      2.00000
     10     -17.1965      2.00000
     11     -17.1025      2.00000
     12     -17.0562      2.00000
     13     -16.9909      2.00000
     14     -16.8338      2.00000
     15     -16.6429      2.00000
     16     -16.5737      2.00000
     17     -16.4687      2.00000
     18     -16.4132      2.00000
     19     -15.8558      2.00000
     20     -15.6527      2.00000
     21     -15.5954      2.00000
     22     -15.4961      2.00000
     23     -15.4244      2.00000
     24     -15.3754      2.00000
     25     -15.2893      2.00000
     26     -15.2746      2.00000
     27     -15.2359      2.00000
     28     -15.1597      2.00000
     29      -5.0391      2.00000
     30      -4.9570      2.00000
     31      -4.8905      2.00000
     32      -4.7094      2.00000
     33      -4.6259      2.00000
     34      -4.6008      2.00000
     35      -4.5262      2.00000
     36      -4.4233      2.00000
     37      -4.3288      2.00000
     38      -4.2853      2.00000
     39      -4.2051      2.00000
     40      -4.1940      2.00000
     41      -4.1135      2.00000
     42      -4.0487      2.00000
     43      -4.0219      2.00000
     44      -3.8518      2.00000
     45      -3.7293      2.00000
     46      -3.6673      2.00000
     47      -3.5755      2.00000
     48      -3.5325      2.00000
     49      -3.2280      2.00000
     50      -3.0931      2.00000
     51      -2.7306      2.00000
     52      -2.1831      2.00000
     53      -2.0969      2.00000
     54      -1.9484      2.00000
     55      -1.6293      2.00000
     56      -1.5711      2.00000
     57      -1.3609      2.00000
     58      -1.2952      2.00000
     59      -1.2453      2.00000
     60      -1.2205      2.00000
     61      -1.2163      2.00000
     62      -1.0848      2.00000
     63      -0.8739      2.00000
     64      -0.3836      2.00000
     65       2.1029      0.00000
     66       2.3666      0.00000
     67       2.6402      0.00000
     68       2.6668      0.00000
     69       2.8251      0.00000
     70       2.8346      0.00000
     71       2.9285      0.00000
     72       2.9395      0.00000
     73       2.9841      0.00000
     74       3.0644      0.00000
     75       3.2235      0.00000
     76       7.0802      0.00000

 k-point    10 :       0.4286    0.4286    0.0000
  band No.  band energies     occupation 
      1     -34.5919      2.00000
      2     -33.5073      2.00000
      3     -33.4544      2.00000
      4     -33.3398      2.00000
      5     -17.5805      2.00000
      6     -17.4443      2.00000
      7     -17.3302      2.00000
      8     -17.2838      2.00000
      9     -17.2370      2.00000
     10     -17.1569      2.00000
     11     -17.0462      2.00000
     12     -17.0271      2.00000
     13     -16.9903      2.00000
     14     -16.8217      2.00000
     15     -16.5388      2.00000
     16     -16.4807      2.00000
     17     -16.4572      2.00000
     18     -16.4277      2.00000
     19     -16.1209      2.00000
     20     -15.6971      2.00000
     21     -15.6443      2.00000
     22     -15.6422      2.00000
     23     -15.5253      2.00000
     24     -15.4138      2.00000
     25     -15.3671      2.00000
     26     -15.3138      2.00000
     27     -15.2174      2.00000
     28     -15.1997      2.00000
     29      -5.1543      2.00000
     30      -5.0804      2.00000
     31      -5.0228      2.00000
     32      -4.9816      2.00000
     33      -4.7852      2.00000
     34      -4.7726      2.00000
     35      -4.7081      2.00000
     36      -4.7045      2.00000
     37      -4.6618      2.00000
     38      -4.5545      2.00000
     39      -4.4682      2.00000
     40      -4.3454      2.00000
     41      -4.3390      2.00000
     42      -4.2768      2.00000
     43      -4.0958      2.00000
     44      -4.0369      2.00000
     45      -4.0310      2.00000
     46      -3.8703      2.00000
     47      -3.7167      2.00000
     48      -3.6793      2.00000
     49      -3.3018      2.00000
     50      -3.1759      2.00000
     51      -3.0078      2.00000
     52      -2.0478      2.00000
     53      -2.0467      2.00000
     54      -1.9814      2.00000
     55      -1.5791      2.00000
     56      -1.5385      2.00000
     57      -1.1787      2.00000
     58      -1.1396      2.00000
     59      -0.9102      2.00000
     60      -0.9086      2.00000
     61      -0.8956      2.00000
     62      -0.8354      2.00000
     63      -0.8263      2.00000
     64      -0.0535      2.00000
     65       2.6334      0.00000
     66       2.6842      0.00000
     67       2.8359      0.00000
     68       2.8783      0.00000
     69       3.0546      0.00000
     70       3.0787      0.00000
     71       3.1104      0.00000
     72       3.1843      0.00000
     73       3.2243      0.00000
     74       6.4724      0.00000
     75       6.5593      0.00000
     76       6.8137      0.00000


--------------------------------------------------------------------------------------------------------


 soft charge-density along one line, spin component           1
         0         1         2         3         4         5         6         7         8         9
 total charge-density along one line
 
 pseudopotential strength for first ion, spin component:           1
 12.771  -0.361   0.000  -0.021   0.000  -0.000   0.001  -0.000
 -0.361   0.087  -0.000   0.002  -0.000   0.000  -0.000   0.000
  0.000  -0.000  -9.098   0.000   0.000  -0.054  -0.000  -0.000
 -0.021   0.002   0.000  -9.119  -0.000  -0.000  -0.051   0.000
  0.000  -0.000   0.000  -0.000  -9.098  -0.000   0.000  -0.054
 -0.000   0.000  -0.054  -0.000  -0.000   0.235   0.000   0.000
  0.001  -0.000  -0.000  -0.051   0.000   0.000   0.234  -0.000
 -0.000   0.000  -0.000   0.000  -0.054   0.000  -0.000   0.235
 total augmentation occupancy for first ion, spin component:           1
  1.866   0.123  -0.000  -0.008   0.000   0.000   0.012   0.000
  0.123   0.012  -0.000   0.026   0.000   0.000   0.004   0.000
  0.000  -0.000   1.516   0.000   0.000   0.121   0.000   0.000
 -0.008   0.026   0.000   1.512   0.000   0.000   0.131   0.000
  0.000   0.000   0.000   0.000   1.516   0.000   0.000   0.121
  0.000   0.000   0.121   0.000   0.000   0.011   0.000   0.000
  0.012   0.004  -0.000   0.131   0.000   0.000   0.012   0.000
  0.000   0.000   0.000   0.000   0.121   0.000   0.000   0.011


------------------------ aborting loop because EDIFF is reached ----------------------------------------


    CHARGE:  cpu time    0.2100: real time    0.2106
    FORLOC:  cpu time    0.0240: real time    0.0241
    FORNL :  cpu time    2.2427: real time    2.2417
    STRESS:  cpu time    4.7433: real time    4.7416
    FORCOR:  cpu time    0.1210: real time    0.1206
    FORHAR:  cpu time    0.0420: real time    0.0418
    MIXING:  cpu time    0.0070: real time    0.0078
    OFIELD:  cpu time    0.0000: real time    0.0000

  FORCE on cell =-STRESS in cart. coord.  units (eV):
  Direction    XX          YY          ZZ          XY          YZ          ZX
  --------------------------------------------------------------------------------------
  Alpha Z   380.41863   380.41863   380.41863
  Ewald   50675.04860 50675.04860-55732.82544     0.00000     0.00000     0.00000
  Hartree 53110.64018 53110.64018-51886.40540    -0.00000    -0.00000    -0.00000
  E(xc)    -577.79936  -577.79936  -577.33231     0.00000    -0.00000     0.00000
  Local  ************************105954.85269     0.00000     0.00000     0.00000
  n-local  -488.71114  -466.97636  -479.80093    -1.62303    -0.00001    -0.00000
  augment   116.02669   116.02669   115.00474     0.00000    -0.00000     0.00000
  Kinetic  2204.16994  2248.40505  2222.63348    -9.23297    -0.00004    -0.00000
  Fock        0.00000     0.00000     0.00000     0.00000     0.00000     0.00000
  -------------------------------------------------------------------------------------
  Total      -5.72735    -5.72735    -3.45455     0.00000     0.00000     0.00000
  in kB     -19.75806   -19.75806   -11.91740     0.00000     0.00000     0.00000
  external pressure =      -17.14 kB  Pullay stress =        0.00 kB


 VOLUME and BASIS-vectors are now :
 -----------------------------------------------------------------------------
  energy-cutoff  :      500.00
  volume of cell :      464.43
      direct lattice vectors                 reciprocal lattice vectors
     3.946846342  0.000000000  0.000000000     0.253366844  0.000000000  0.000000000
     0.000000000  3.946846342  0.000000000     0.000000000  0.253366844  0.000000000
     0.000000000  0.000000000 29.813962196     0.000000000  0.000000000  0.033541332

  length of vectors
     3.946846342  3.946846342 29.813962196     0.253366844  0.253366844  0.033541332


 FORCES acting on ions
    electron-ion (+dipol)            ewald-force                    non-local-force                 convergence-correction
 -----------------------------------------------------------------------------------------------
   0.154E-12 0.583E-12 0.184E+04   -.701E-14 -.907E-14 -.185E+04   0.106E-21 0.000E+00 0.782E+01   -.589E-14 -.357E-13 0.127E-02
   0.173E-12 -.621E-13 0.131E+04   -.371E-14 -.634E-14 -.131E+04   0.529E-22 -.132E-22 -.310E+00   -.106E-13 -.841E-14 0.339E-03
   0.148E-14 0.374E-12 0.131E+04   0.413E-14 0.105E-13 -.131E+04   0.000E+00 0.000E+00 -.310E+00   -.206E-14 -.195E-13 0.339E-03
   0.170E-12 0.819E-13 0.787E+03   -.974E-14 -.733E-14 -.787E+03   0.000E+00 0.000E+00 0.580E+00   -.263E-14 -.230E-13 -.210E-03
   0.158E-12 0.108E-13 0.262E+03   -.412E-14 -.543E-14 -.262E+03   0.000E+00 0.000E+00 0.144E+00   0.134E-13 0.712E-14 -.218E-03
   -.569E-14 0.158E-12 0.262E+03   0.374E-14 0.113E-13 -.262E+03   0.993E-23 0.159E-21 0.144E+00   0.972E-14 0.106E-13 -.218E-03
   0.165E-12 -.324E-13 -.263E+03   -.984E-14 -.730E-14 0.262E+03   0.000E+00 0.000E+00 0.449E+00   -.829E-14 0.383E-16 -.454E-03
   0.164E-12 -.252E-13 -.787E+03   -.398E-14 -.543E-14 0.787E+03   0.212E-21 -.106E-21 -.171E-01   -.312E-15 0.174E-13 -.175E-03
   -.779E-14 -.130E-12 -.787E+03   0.357E-14 0.114E-13 0.787E+03   0.000E+00 0.000E+00 -.171E-01   0.674E-14 0.200E-13 -.175E-03
   0.181E-12 0.457E-12 -.131E+04   -.103E-13 -.629E-14 0.131E+04   0.000E+00 0.000E+00 0.251E+01   0.108E-13 0.266E-13 -.146E-03
   0.162E-12 -.302E-12 -.181E+04   -.204E-14 -.295E-14 0.181E+04   -.794E-22 0.000E+00 -.225E+01   0.416E-14 0.334E-13 -.380E-03
   -.543E-14 -.418E-12 -.181E+04   0.417E-14 0.645E-14 0.181E+04   -.212E-21 0.000E+00 -.225E+01   0.109E-14 0.433E-13 -.380E-03
   -.125E-13 -.418E-12 0.301E+04   0.107E-13 -.376E-14 -.301E+04   0.000E+00 0.000E+00 -.500E+01   0.683E-14 -.210E-13 0.138E-02
   -.374E-14 -.467E-13 0.131E+04   0.136E-13 -.104E-13 -.131E+04   0.000E+00 0.424E-21 -.221E-01   0.327E-14 -.355E-14 -.201E-03
   -.522E-14 -.231E-13 -.437E+03   0.136E-13 -.105E-13 0.437E+03   0.000E+00 0.000E+00 0.647E-01   -.112E-14 0.220E-14 -.366E-03
   -.330E-14 0.162E-12 -.219E+04   0.155E-13 -.114E-13 0.219E+04   0.000E+00 -.424E-21 -.820E+00   0.196E-13 0.272E-13 -.535E-03
   0.151E-13 -.250E-12 0.874E+03   0.175E-14 0.750E-14 -.875E+03   0.000E+00 -.529E-22 -.323E+00   -.275E-14 0.225E-14 0.261E-03
   0.822E-14 -.340E-13 0.175E+03   0.209E-14 0.720E-14 -.175E+03   -.662E-23 0.000E+00 -.602E-01   -.306E-14 -.147E-14 -.141E-03
   0.934E-14 -.308E-13 -.525E+03   0.207E-14 0.706E-14 0.525E+03   0.000E+00 0.000E+00 0.105E-01   -.524E-15 -.619E-15 -.143E-03
   0.106E-14 -.144E-13 -.123E+04   -.218E-14 0.597E-14 0.123E+04   0.000E+00 0.000E+00 0.135E+01   -.128E-14 -.454E-14 -.192E-03
 -----------------------------------------------------------------------------------------------
   0.132E-11 0.414E-13 -.168E+01   0.220E-13 -.189E-13 -.227E-12   0.827E-22 -.132E-22 0.168E+01   0.370E-13 0.723E-13 -.349E-03
 
 
 POSITION                                       TOTAL-FORCE (eV/Angst)
 -----------------------------------------------------------------------------------
      1.97342      1.97342      8.00000        -0.000000      0.000000     -0.720405
      1.97342      0.00000      9.97342        -0.000000      0.000000     -0.026077
      0.00000      1.97342      9.97342        -0.000000      0.000000     -0.026077
      1.97342      1.97342     11.94685        -0.000000     -0.000000      0.314922
      1.97342      0.00000     13.92027        -0.000000     -0.000000      0.048022
      0.00000      1.97342     13.92027        -0.000000     -0.000000      0.048022
      1.97342      1.97342     15.89369        -0.000000     -0.000000      0.241059
      1.97342      0.00000     17.86712         0.000000     -0.000000      0.003897
      0.00000      1.97342     17.86712        -0.000000     -0.000000      0.003897
      1.97342      1.97342     19.84054        -0.000000     -0.000000      0.947362
      1.97342      0.00000     21.81396        -0.000000     -0.000000      0.360895
      0.00000      1.97342     21.81396        -0.000000     -0.000000      0.360895
      0.00000      0.00000      8.00000        -0.000000      0.000000      1.377765
      0.00000      0.00000     11.94685        -0.000000     -0.000000      0.017291
      0.00000      0.00000     15.89369        -0.000000     -0.000000     -0.034752
      0.00000      0.00000     19.84054        -0.000000      0.000000      0.658035
      1.97342      1.97342      9.97342        -0.000000     -0.000000     -0.918612
      1.97342      1.97342     13.92027        -0.000000     -0.000000     -0.234917
      1.97342      1.97342     17.86712        -0.000000     -0.000000     -0.293136
      1.97342      1.97342     21.81396        -0.000000     -0.000000     -2.128085
 -----------------------------------------------------------------------------------
    total drift:                                0.000000      0.000000      0.003096


--------------------------------------------------------------------------------------------------------



  FREE ENERGIE OF THE ION-ELECTRON SYSTEM (eV)
  ---------------------------------------------------
  free  energy   TOTEN  =      -156.65235257 eV

  energy  without entropy=     -156.65235257  energy(sigma->0) =     -156.65235257
 


--------------------------------------------------------------------------------------------------------


    POTLOK:  cpu time    0.1200: real time    0.1191


--------------------------------------------------------------------------------------------------------


     LOOP+:  cpu time  207.9754: real time  208.1094
    4ORBIT:  cpu time    0.0000: real time    0.0000
 BZINTS: Fermi energy:  0.029319;128.000000 electrons
         Band energy:***********;  BLOECHL correction:  0.000000

 total amount of memory used by VASP MPI-rank0   116773. kBytes
=======================================================================

   base      :      30000. kBytes
   nonl-proj :      27505. kBytes
   fftplans  :       7997. kBytes
   grid      :      14381. kBytes
   one-center:        155. kBytes
   wavefun   :      36735. kBytes
 
  
  
 General timing and accounting informations for this job:
 ========================================================
  
                  Total CPU time used (sec):      210.745
                            User time (sec):      207.493
                          System time (sec):        3.252
                         Elapsed time (sec):      211.839
  
                   Maximum memory used (kb):      132772.
                   Average memory used (kb):           0.
  
                          Minor page faults:        38955
                          Major page faults:           18
                 Voluntary context switches:         3184
