<?xml version="1.0" encoding="ISO-8859-1"?>
<modeling>
 <generator>
  <i name="program" type="string">vasp </i>
  <i name="version" type="string">5.4.4.18Apr17-6-g9f103f2a35  </i>
  <i name="subversion" type="string">(build Jun 30 2017 11:15:00) complex            parallel </i>
  <i name="platform" type="string">STALLO_VASP_5.4.4 </i>
  <i name="date" type="string">2019 11 08 </i>
  <i name="time" type="string">10:21:34 </i>
 </generator>
 <incar>
  <i type="string" name="PREC">normal    ! low/normal/accurate</i>
  <i type="string" name="ALGO"> Fast      ! Algorithm for electronic re</i>
  <i type="int" name="ISPIN">     1</i>
  <i type="int" name="NELMIN">     4</i>
  <i name="EDIFF">      0.00001000</i>
  <i type="int" name="NSW">     0</i>
  <i name="ENCUT">    500.00000000</i>
  <i type="logical" name="LREAL"> F  </i>
  <i type="int" name="ISMEAR">    -5</i>
  <i name="SIGMA">      0.20000000</i>
  <i type="logical" name="LWAVE"> F  </i>
  <v type="int" name="KPOINT_BSE">    -1     0     0     0</v>
 </incar>
 <structure name="primitive_cell" >
  <crystal>
   <varray name="basis" >
    <v>       3.94684634       0.00000000       0.00000000 </v>
    <v>       0.00000000       3.94684634       0.00000000 </v>
    <v>       0.00000000       0.00000000      29.81396220 </v>
   </varray>
   <i name="volume">    464.42985957 </i>
   <varray name="rec_basis" >
    <v>       0.25336684       0.00000000       0.00000000 </v>
    <v>       0.00000000       0.25336684       0.00000000 </v>
    <v>       0.00000000       0.00000000       0.03354133 </v>
   </varray>
  </crystal>
  <varray name="positions" >
   <v>      -0.50000000      -0.50000000       0.26833065 </v>
   <v>      -0.50000000      -0.50000000       0.33452190 </v>
   <v>      -0.50000000       0.00000000       0.33452190 </v>
   <v>       0.00000000      -0.50000000       0.33452190 </v>
   <v>       0.00000000       0.00000000       0.26833065 </v>
   <v>      -0.50000000      -0.50000000       0.40071314 </v>
   <v>       0.00000000       0.00000000       0.40071314 </v>
   <v>      -0.50000000      -0.50000000       0.46690438 </v>
   <v>      -0.50000000       0.00000000       0.46690438 </v>
   <v>       0.00000000      -0.50000000       0.46690438 </v>
   <v>      -0.50000000      -0.50000000      -0.46690438 </v>
   <v>       0.00000000       0.00000000      -0.46690438 </v>
   <v>      -0.50000000      -0.50000000      -0.40071314 </v>
   <v>      -0.50000000       0.00000000      -0.40071314 </v>
   <v>       0.00000000      -0.50000000      -0.40071314 </v>
   <v>      -0.50000000      -0.50000000      -0.33452190 </v>
   <v>       0.00000000       0.00000000      -0.33452190 </v>
   <v>      -0.50000000      -0.50000000      -0.26833065 </v>
   <v>      -0.50000000       0.00000000      -0.26833065 </v>
   <v>       0.00000000      -0.50000000      -0.26833065 </v>
  </varray>
 </structure>
 <varray name="primitive_index" >
  <v type="int" >        1 </v>
  <v type="int" >       17 </v>
  <v type="int" >        2 </v>
  <v type="int" >        3 </v>
  <v type="int" >       13 </v>
  <v type="int" >        4 </v>
  <v type="int" >       14 </v>
  <v type="int" >       18 </v>
  <v type="int" >        5 </v>
  <v type="int" >        6 </v>
  <v type="int" >        7 </v>
  <v type="int" >       15 </v>
  <v type="int" >       19 </v>
  <v type="int" >        8 </v>
  <v type="int" >        9 </v>
  <v type="int" >       10 </v>
  <v type="int" >       16 </v>
  <v type="int" >       20 </v>
  <v type="int" >       11 </v>
  <v type="int" >       12 </v>
 </varray>
 <kpoints>
  <generation param="Gamma">
   <v type="int" name="divisions">       7        7        1 </v>
   <v name="usershift">      0.00000000       0.00000000       0.00000000 </v>
   <v name="genvec1">      0.14285714       0.00000000       0.00000000 </v>
   <v name="genvec2">      0.00000000       0.14285714       0.00000000 </v>
   <v name="genvec3">      0.00000000       0.00000000       1.00000000 </v>
   <v name="shift">      0.00000000       0.00000000       0.00000000 </v>
  </generation>
  <varray name="kpointlist" >
   <v>       0.00000000       0.00000000       0.00000000 </v>
   <v>       0.14285714       0.00000000       0.00000000 </v>
   <v>       0.28571429       0.00000000       0.00000000 </v>
   <v>       0.42857143       0.00000000       0.00000000 </v>
   <v>       0.14285714       0.14285714       0.00000000 </v>
   <v>       0.28571429       0.14285714       0.00000000 </v>
   <v>       0.42857143       0.14285714       0.00000000 </v>
   <v>       0.28571429       0.28571429       0.00000000 </v>
   <v>       0.42857143       0.28571429       0.00000000 </v>
   <v>       0.42857143       0.42857143       0.00000000 </v>
  </varray>
  <varray name="weights" >
   <v>       0.02040816 </v>
   <v>       0.08163265 </v>
   <v>       0.08163265 </v>
   <v>       0.08163265 </v>
   <v>       0.08163265 </v>
   <v>       0.16326531 </v>
   <v>       0.16326531 </v>
   <v>       0.08163265 </v>
   <v>       0.16326531 </v>
   <v>       0.08163265 </v>
  </varray>
  <varray name="tetrahedronlist"  type="int" >
   <v type="int" >        4        1        1        2        5 </v>
   <v type="int" >        4        1        2        2        5 </v>
   <v type="int" >        4        1        2        5        5 </v>
   <v type="int" >        4        2        2        3        6 </v>
   <v type="int" >        4        2        2        5        6 </v>
   <v type="int" >        4        2        5        5        6 </v>
   <v type="int" >        4        2        3        3        6 </v>
   <v type="int" >        4        2        3        6        6 </v>
   <v type="int" >        4        2        5        6        6 </v>
   <v type="int" >        4        3        3        4        7 </v>
   <v type="int" >        4        3        3        6        7 </v>
   <v type="int" >        4        3        6        6        7 </v>
   <v type="int" >        4        3        4        4        7 </v>
   <v type="int" >        4        3        4        7        7 </v>
   <v type="int" >        4        3        6        7        7 </v>
   <v type="int" >        8        4        4        4        7 </v>
   <v type="int" >        8        4        4        7        7 </v>
   <v type="int" >        8        4        7        7        7 </v>
   <v type="int" >        4        3        4        4        6 </v>
   <v type="int" >        4        4        4        6        7 </v>
   <v type="int" >        4        4        6        7        7 </v>
   <v type="int" >        4        3        3        4        6 </v>
   <v type="int" >        4        3        4        6        6 </v>
   <v type="int" >        4        4        6        6        7 </v>
   <v type="int" >        4        2        3        3        5 </v>
   <v type="int" >        4        3        3        5        6 </v>
   <v type="int" >        4        3        5        6        6 </v>
   <v type="int" >        4        2        2        3        5 </v>
   <v type="int" >        4        2        3        5        5 </v>
   <v type="int" >        4        3        5        5        6 </v>
   <v type="int" >        4        1        2        2        2 </v>
   <v type="int" >        4        2        2        2        5 </v>
   <v type="int" >        2        2        2        5        5 </v>
   <v type="int" >        2        1        1        2        2 </v>
   <v type="int" >        4        5        5        6        8 </v>
   <v type="int" >        4        5        6        6        8 </v>
   <v type="int" >        4        5        6        8        8 </v>
   <v type="int" >        4        6        6        7        9 </v>
   <v type="int" >        4        6        6        8        9 </v>
   <v type="int" >        4        6        8        8        9 </v>
   <v type="int" >        4        6        7        7        9 </v>
   <v type="int" >        4        6        7        9        9 </v>
   <v type="int" >        4        6        8        9        9 </v>
   <v type="int" >        8        7        7        7        9 </v>
   <v type="int" >        8        7        7        9        9 </v>
   <v type="int" >        8        7        9        9        9 </v>
   <v type="int" >        4        6        7        7        8 </v>
   <v type="int" >        4        7        7        8        9 </v>
   <v type="int" >        4        7        8        9        9 </v>
   <v type="int" >        4        6        6        7        8 </v>
   <v type="int" >        4        6        7        8        8 </v>
   <v type="int" >        4        7        8        8        9 </v>
   <v type="int" >        4        5        6        6        6 </v>
   <v type="int" >        4        6        6        6        8 </v>
   <v type="int" >        2        6        6        8        8 </v>
   <v type="int" >        2        5        5        6        6 </v>
   <v type="int" >        4        8        8        9       10 </v>
   <v type="int" >        4        8        9        9       10 </v>
   <v type="int" >        4        8        9       10       10 </v>
   <v type="int" >       12        9        9        9       10 </v>
   <v type="int" >       10        9        9       10       10 </v>
   <v type="int" >        8        9       10       10       10 </v>
   <v type="int" >        4        8        9        9        9 </v>
   <v type="int" >        2        8        8        9        9 </v>
   <v type="int" >        6       10       10       10       10 </v>
  </varray>
  <i name="volumeweight">      0.00340136 </i>
 </kpoints>
 <parameters>
  <separator name="general" >
   <i type="string" name="SYSTEM">unknown system</i>
   <i type="logical" name="LCOMPAT"> F  </i>
  </separator>
  <separator name="electronic" >
   <i type="string" name="PREC">normal</i>
   <i name="ENMAX">    500.00000000</i>
   <i name="ENAUG">    605.39200000</i>
   <i name="EDIFF">      0.00001000</i>
   <i type="int" name="IALGO">    68</i>
   <i type="int" name="IWAVPR">    10</i>
   <i type="int" name="NBANDS">    76</i>
   <i name="NELECT">    128.00000000</i>
   <i type="int" name="TURBO">     0</i>
   <i type="int" name="IRESTART">     0</i>
   <i type="int" name="NREBOOT">     0</i>
   <i type="int" name="NMIN">     0</i>
   <i name="EREF">      0.00000000</i>
   <separator name="electronic smearing" >
    <i type="int" name="ISMEAR">    -5</i>
    <i name="SIGMA">      0.20000000</i>
    <i name="KSPACING">      0.50000000</i>
    <i type="logical" name="KGAMMA"> T  </i>
   </separator>
   <separator name="electronic projectors" >
    <i type="logical" name="LREAL"> F  </i>
    <v name="ROPT">      0.00000000      0.00000000      0.00000000</v>
    <i type="int" name="LMAXPAW">  -100</i>
    <i type="int" name="LMAXMIX">     2</i>
    <i type="logical" name="NLSPLINE"> F  </i>
   </separator>
   <separator name="electronic startup" >
    <i type="int" name="ISTART">     0</i>
    <i type="int" name="ICHARG">     2</i>
    <i type="int" name="INIWAV">     1</i>
   </separator>
   <separator name="electronic spin" >
    <i type="int" name="ISPIN">     1</i>
    <i type="logical" name="LNONCOLLINEAR"> F  </i>
    <v name="MAGMOM">      1.00000000      1.00000000      1.00000000      1.00000000      1.00000000      1.00000000      1.00000000      1.00000000      1.00000000      1.00000000      1.00000000      1.00000000      1.00000000      1.00000000      1.00000000      1.00000000      1.00000000      1.00000000      1.00000000      1.00000000
</v>
    <i name="NUPDOWN">     -1.00000000</i>
    <i type="logical" name="LSORBIT"> F  </i>
    <v name="SAXIS">      0.00000000      0.00000000      1.00000000</v>
    <i type="logical" name="LSPIRAL"> F  </i>
    <v name="QSPIRAL">      0.00000000      0.00000000      0.00000000</v>
    <i type="logical" name="LZEROZ"> F  </i>
   </separator>
   <separator name="electronic exchange-correlation" >
    <i type="logical" name="LASPH"> F  </i>
    <i type="logical" name="LMETAGGA"> F  </i>
   </separator>
   <separator name="electronic convergence" >
    <i type="int" name="NELM">    60</i>
    <i type="int" name="NELMDL">    -5</i>
    <i type="int" name="NELMIN">     4</i>
    <i name="ENINI">    500.00000000</i>
    <separator name="electronic convergence detail" >
     <i type="logical" name="LDIAG"> T  </i>
     <i type="logical" name="LSUBROT"> F  </i>
     <i name="WEIMIN">      0.00000000</i>
     <i name="EBREAK">      0.00000003</i>
     <i name="DEPER">      0.30000000</i>
     <i type="int" name="NRMM">     4</i>
     <i name="TIME">      0.40000000</i>
    </separator>
   </separator>
   <separator name="electronic mixer" >
    <i name="AMIX">      0.40000000</i>
    <i name="BMIX">      1.00000000</i>
    <i name="AMIN">      0.10000000</i>
    <i name="AMIX_MAG">      1.60000000</i>
    <i name="BMIX_MAG">      1.00000000</i>
    <separator name="electronic mixer details" >
     <i type="int" name="IMIX">     4</i>
     <i type="logical" name="MIXFIRST"> F  </i>
     <i type="int" name="MAXMIX">   -45</i>
     <i name="WC">    100.00000000</i>
     <i type="int" name="INIMIX">     1</i>
     <i type="int" name="MIXPRE">     1</i>
     <i type="int" name="MREMOVE">     5</i>
    </separator>
   </separator>
   <separator name="electronic dipolcorrection" >
    <i type="logical" name="LDIPOL"> F  </i>
    <i type="logical" name="LMONO"> F  </i>
    <i type="int" name="IDIPOL">     0</i>
    <i name="EPSILON">      1.00000000</i>
    <v name="DIPOL">   -100.00000000   -100.00000000   -100.00000000</v>
    <i name="EFIELD">      0.00000000</i>
   </separator>
  </separator>
  <separator name="grids" >
   <i type="int" name="NGX">    24</i>
   <i type="int" name="NGY">    24</i>
   <i type="int" name="NGZ">   168</i>
   <i type="int" name="NGXF">    48</i>
   <i type="int" name="NGYF">    48</i>
   <i type="int" name="NGZF">   336</i>
   <i type="logical" name="ADDGRID"> F  </i>
  </separator>
  <separator name="ionic" >
   <i type="int" name="NSW">     0</i>
   <i type="int" name="IBRION">    -1</i>
   <i type="int" name="MDALGO">     0</i>
   <i type="int" name="ISIF">     2</i>
   <i name="PSTRESS">      0.00000000</i>
   <i name="EDIFFG">      0.00010000</i>
   <i type="int" name="NFREE">     0</i>
   <i name="POTIM">      0.50000000</i>
   <i name="SMASS">     -3.00000000</i>
   <i name="SCALEE">      1.00000000</i>
  </separator>
  <separator name="ionic md" >
   <i name="TEBEG">      0.00010000</i>
   <i name="TEEND">      0.00010000</i>
   <i type="int" name="NBLOCK">     1</i>
   <i type="int" name="KBLOCK">     1</i>
   <i type="int" name="NPACO">   256</i>
   <i name="APACO">     16.00000000</i>
  </separator>
  <separator name="symmetry" >
   <i type="int" name="ISYM">     2</i>
   <i name="SYMPREC">      0.00001000</i>
  </separator>
  <separator name="dos" >
   <i type="int" name="LORBIT">     0</i>
   <v name="RWIGS">     -1.00000000     -1.00000000     -1.00000000</v>
   <i type="int" name="NEDOS">   301</i>
   <i name="EMIN">     10.00000000</i>
   <i name="EMAX">    -10.00000000</i>
   <i name="EFERMI">      0.00000000</i>
  </separator>
  <separator name="writing" >
   <i type="int" name="NWRITE">     2</i>
   <i type="logical" name="LWAVE"> F  </i>
   <i type="logical" name="LDOWNSAMPLE"> F  </i>
   <i type="logical" name="LCHARG"> T  </i>
   <i type="logical" name="LPARD"> F  </i>
   <i type="logical" name="LVTOT"> F  </i>
   <i type="logical" name="LVHAR"> F  </i>
   <i type="logical" name="LELF"> F  </i>
   <i type="logical" name="LOPTICS"> F  </i>
   <v name="STM">      0.00000000      0.00000000      0.00000000      0.00000000      0.00000000      0.00000000      0.00000000</v>
  </separator>
  <separator name="performance" >
   <i type="int" name="NPAR">     2</i>
   <i type="int" name="NSIM">     4</i>
   <i type="int" name="NBLK">    -1</i>
   <i type="logical" name="LPLANE"> T  </i>
   <i type="logical" name="LSCALAPACK"> T  </i>
   <i type="logical" name="LSCAAWARE"> F  </i>
   <i type="logical" name="LSCALU"> F  </i>
   <i type="logical" name="LASYNC"> F  </i>
   <i type="logical" name="LORBITALREAL"> F  </i>
  </separator>
  <separator name="miscellaneous" >
   <i type="int" name="IDIOT">     3</i>
   <i type="int" name="ISPECIAL">     0</i>
   <i type="logical" name="LMUSIC"> F  </i>
   <v name="POMASS">     16.00000000     87.62000000     47.88000000</v>
   <v name="DARWINR">      0.00000000      0.00000000      0.00000000</v>
   <v name="DARWINV">      1.00000000      1.00000000      1.00000000</v>
   <i type="logical" name="LCORR"> T  </i>
  </separator>
  <i type="logical" name="GGA_COMPAT"> T  </i>
  <i type="logical" name="LBERRY"> F  </i>
  <i type="int" name="ICORELEVEL">     0</i>
  <i type="logical" name="LDAU"> F  </i>
  <i type="int" name="I_CONSTRAINED_M">     0</i>
  <separator name="electronic exchange-correlation" >
   <i type="string" name="GGA">--</i>
   <i type="int" name="VOSKOWN">     0</i>
   <i type="logical" name="LHFCALC"> F  </i>
   <i type="string" name="PRECFOCK"></i>
   <i type="logical" name="LSYMGRAD"> F  </i>
   <i type="logical" name="LHFONE"> F  </i>
   <i type="logical" name="LRHFCALC"> F  </i>
   <i type="logical" name="LTHOMAS"> F  </i>
   <i type="logical" name="LMODELHF"> F  </i>
   <i name="ENCUT4O">     -1.00000000</i>
   <i type="int" name="EXXOEP">     0</i>
   <i type="int" name="FOURORBIT">     0</i>
   <i name="AEXX">      0.00000000</i>
   <i name="HFALPHA">      0.00000000</i>
   <i name="MCALPHA">      0.00000000</i>
   <i name="ALDAX">      1.00000000</i>
   <i name="AGGAX">      1.00000000</i>
   <i name="ALDAC">      1.00000000</i>
   <i name="AGGAC">      1.00000000</i>
   <i type="int" name="NKREDX">     1</i>
   <i type="int" name="NKREDY">     1</i>
   <i type="int" name="NKREDZ">     1</i>
   <i type="logical" name="SHIFTRED"> F  </i>
   <i type="logical" name="ODDONLY"> F  </i>
   <i type="logical" name="EVENONLY"> F  </i>
   <i type="int" name="LMAXFOCK">     0</i>
   <i type="int" name="NMAXFOCKAE">     0</i>
   <i type="logical" name="LFOCKAEDFT"> F  </i>
   <i name="HFSCREEN">      0.00000000</i>
   <i name="HFSCREENC">      0.00000000</i>
   <i type="int" name="NBANDSGWLOW">     0</i>
  </separator>
  <separator name="vdW DFT" >
   <i type="logical" name="LUSE_VDW"> F  </i>
   <i name="Zab_VDW">     -0.84910000</i>
   <i name="PARAM1">      0.12340000</i>
   <i name="PARAM2">      1.00000000</i>
   <i name="PARAM3">      0.00000000</i>
  </separator>
  <separator name="model GW" >
   <i type="int" name="MODEL_GW">     0</i>
   <i name="MODEL_EPS0">     13.93289579</i>
   <i name="MODEL_ALPHA">      1.00000000</i>
  </separator>
  <separator name="linear response parameters" >
   <i type="logical" name="LEPSILON"> F  </i>
   <i type="logical" name="LRPA"> F  </i>
   <i type="logical" name="LNABLA"> F  </i>
   <i type="logical" name="LVEL"> F  </i>
   <i type="int" name="KINTER">     0</i>
   <i name="CSHIFT">      0.10000000</i>
   <i name="OMEGAMAX">     -1.00000000</i>
   <i name="DEG_THRESHOLD">      0.00200000</i>
   <i name="RTIME">     -0.10000000</i>
   <i name="WPLASMAI">      0.00000000</i>
   <v name="DFIELD">      0.00000000      0.00000000      0.00000000</v>
   <v name="WPLASMA">      0.00000000      0.00000000      0.00000000      0.00000000      0.00000000      0.00000000      0.00000000      0.00000000      0.00000000</v>
  </separator>
  <separator name="orbital magnetization" >
   <i type="logical" name="NUCIND"> F  </i>
   <v name="MAGPOS">      0.00000000      0.00000000      0.00000000</v>
   <i type="logical" name="LNICSALL"> T  </i>
   <i type="logical" name="ORBITALMAG"> F  </i>
   <i type="logical" name="LMAGBLOCH"> F  </i>
   <i type="logical" name="LCHIMAG"> F  </i>
   <i type="logical" name="LGAUGE"> T  </i>
   <i type="int" name="MAGATOM">     0</i>
   <v name="MAGDIPOL">      0.00000000      0.00000000      0.00000000</v>
   <v name="AVECCONST">      0.00000000      0.00000000      0.00000000</v>
  </separator>
  <separator name="response functions" >
   <i type="logical" name="LADDER"> F  </i>
   <i type="logical" name="LRPAFORCE"> F  </i>
   <i type="logical" name="LFXC"> F  </i>
   <i type="logical" name="LHARTREE"> T  </i>
   <i type="int" name="IBSE">     0</i>
   <v type="int" name="KPOINT">    -1     0     0     0</v>
   <i type="logical" name="LTCTE"> F  </i>
   <i type="logical" name="LTETE"> F  </i>
   <i type="logical" name="LTRIPLET"> F  </i>
   <i type="logical" name="LFXCEPS"> F  </i>
   <i type="logical" name="LFXHEG"> F  </i>
   <i type="int" name="NATURALO">     2</i>
   <i type="logical" name="L2ORDER"> F  </i>
   <i type="logical" name="LMP2LT"> F  </i>
   <i type="logical" name="LUSEW"> F  </i>
   <i name="ENCUTGW">     -2.00000000</i>
   <i name="ENCUTGWSOFT">     -2.00000000</i>
   <i name="ENCUTLF">     -1.00000000</i>
   <i type="int" name="LMAXMP2">    -1</i>
   <i name="SCISSOR">      0.00000000</i>
   <i type="int" name="NOMEGA">     0</i>
   <i type="int" name="NOMEGAR">     0</i>
   <i type="int" name="NBANDSGW">    -1</i>
   <i type="int" name="NBANDSO">    -1</i>
   <i type="int" name="NBANDSV">    -1</i>
   <i type="int" name="NELM">     1</i>
   <i type="int" name="NELMHF">     1</i>
   <i type="int" name="DIM">     3</i>
   <i type="int" name="ANTIRES">     0</i>
   <i name="OMEGAMAX">    -30.00000000</i>
   <i name="OMEGAMIN">    -30.00000000</i>
   <i name="OMEGATL">   -200.00000000</i>
   <i type="int" name="OMEGAGRID">   140</i>
   <i name="CSHIFT">     -0.10000000</i>
   <i type="logical" name="SELFENERGY"> F  </i>
   <i type="logical" name="LSPECTRAL"> F  </i>
   <i type="logical" name="LSPECTRALGW"> F  </i>
   <i type="logical" name="LSINGLES"> F  </i>
   <i type="logical" name="LFERMIGW"> F  </i>
   <i type="logical" name="ODDONLYGW"> F  </i>
   <i type="logical" name="EVENONLYGW"> F  </i>
   <i type="int" name="NKREDLFX">     1</i>
   <i type="int" name="NKREDLFY">     1</i>
   <i type="int" name="NKREDLFZ">     1</i>
   <i type="int" name="MAXMEM">  2800</i>
   <i type="int" name="TELESCOPE">     0</i>
   <i type="int" name="TAUPAR">     1</i>
   <i type="int" name="OMEGAPAR">    -1</i>
   <i name="LAMBDA">      1.00000000</i>
  </separator>
  <separator name="External order field" >
   <i name="OFIELD_KAPPA">      0.00000000</i>
   <v name="OFIELD_K">      0.00000000      0.00000000      0.00000000</v>
   <i name="OFIELD_Q6_NEAR">      0.00000000</i>
   <i name="OFIELD_Q6_FAR">      0.00000000</i>
   <i name="OFIELD_A">      0.00000000</i>
  </separator>
 </parameters>
 <atominfo>
  <atoms>      20 </atoms>
  <types>       3 </types>
  <array name="atoms" >
   <dimension dim="1">ion</dimension>
   <field type="string">element</field>
   <field type="int">atomtype</field>
   <set>
    <rc><c>O </c><c>   1</c></rc>
    <rc><c>O </c><c>   1</c></rc>
    <rc><c>O </c><c>   1</c></rc>
    <rc><c>O </c><c>   1</c></rc>
    <rc><c>O </c><c>   1</c></rc>
    <rc><c>O </c><c>   1</c></rc>
    <rc><c>O </c><c>   1</c></rc>
    <rc><c>O </c><c>   1</c></rc>
    <rc><c>O </c><c>   1</c></rc>
    <rc><c>O </c><c>   1</c></rc>
    <rc><c>O </c><c>   1</c></rc>
    <rc><c>O </c><c>   1</c></rc>
    <rc><c>Sr</c><c>   2</c></rc>
    <rc><c>Sr</c><c>   2</c></rc>
    <rc><c>Sr</c><c>   2</c></rc>
    <rc><c>Sr</c><c>   2</c></rc>
    <rc><c>Ti</c><c>   3</c></rc>
    <rc><c>Ti</c><c>   3</c></rc>
    <rc><c>Ti</c><c>   3</c></rc>
    <rc><c>Ti</c><c>   3</c></rc>
   </set>
  </array>
  <array name="atomtypes" >
   <dimension dim="1">type</dimension>
   <field type="int">atomspertype</field>
   <field type="string">element</field>
   <field>mass</field>
   <field>valence</field>
   <field type="string">pseudopotential</field>
   <set>
    <rc><c>  12</c><c>O </c><c>     16.00000000</c><c>      6.00000000</c><c> PAW_PBE O 08Apr2002                    </c></rc>
    <rc><c>   4</c><c>Sr</c><c>     87.62000000</c><c>     10.00000000</c><c> PAW_PBE Sr_sv 07Sep2000                </c></rc>
    <rc><c>   4</c><c>Ti</c><c>     47.88000000</c><c>      4.00000000</c><c> PAW_PBE Ti 08Apr2002                   </c></rc>
   </set>
  </array>
 </atominfo>
 <structure name="initialpos" >
  <crystal>
   <varray name="basis" >
    <v>       3.94684634       0.00000000       0.00000000 </v>
    <v>       0.00000000       3.94684634       0.00000000 </v>
    <v>       0.00000000       0.00000000      29.81396220 </v>
   </varray>
   <i name="volume">    464.42985957 </i>
   <varray name="rec_basis" >
    <v>       0.25336684       0.00000000       0.00000000 </v>
    <v>       0.00000000       0.25336684       0.00000000 </v>
    <v>       0.00000000       0.00000000       0.03354133 </v>
   </varray>
  </crystal>
  <varray name="positions" >
   <v>       0.50000000       0.50000000       0.26833065 </v>
   <v>       0.50000000       0.00000000       0.33452190 </v>
   <v>       0.00000000       0.50000000       0.33452190 </v>
   <v>       0.50000000       0.50000000       0.40071314 </v>
   <v>       0.50000000       0.00000000       0.46690438 </v>
   <v>       0.00000000       0.50000000       0.46690438 </v>
   <v>       0.50000000       0.50000000       0.53309562 </v>
   <v>       0.50000000       0.00000000       0.59928686 </v>
   <v>       0.00000000       0.50000000       0.59928686 </v>
   <v>       0.50000000       0.50000000       0.66547810 </v>
   <v>       0.50000000       0.00000000       0.73166935 </v>
   <v>       0.00000000       0.50000000       0.73166935 </v>
   <v>       0.00000000       0.00000000       0.26833065 </v>
   <v>       0.00000000       0.00000000       0.40071314 </v>
   <v>       0.00000000       0.00000000       0.53309562 </v>
   <v>       0.00000000       0.00000000       0.66547810 </v>
   <v>       0.50000000       0.50000000       0.33452190 </v>
   <v>       0.50000000       0.50000000       0.46690438 </v>
   <v>       0.50000000       0.50000000       0.59928686 </v>
   <v>       0.50000000       0.50000000       0.73166935 </v>
  </varray>
 </structure>
 <calculation>
  <scstep>
   <time name="dav">    6.75    6.75</time>
   <time name="total">    6.92    6.93</time>
   <energy>
    <i name="alphaZ">    380.41862636 </i>
    <i name="ewald">  45617.28373447 </i>
    <i name="hartreedc"> -53866.14983532 </i>
    <i name="XCdc">    325.52647990 </i>
    <i name="pawpsdc">   5334.45189010 </i>
    <i name="pawaedc">  -5139.13784255 </i>
    <i name="eentropy">      0.00000000 </i>
    <i name="bandstr">      4.68286247 </i>
    <i name="atom">   8937.26825017 </i>
    <i name="e_fr_energy">   1594.34416561 </i>
    <i name="e_wo_entrp">   1594.34416561 </i>
    <i name="e_0_energy">   1594.34416561 </i>
   </energy>
  </scstep>
  <scstep>
   <time name="dav">    7.76    7.76</time>
   <time name="total">    7.77    7.77</time>
   <energy>
    <i name="e_fr_energy">    180.47307907 </i>
    <i name="e_wo_entrp">    180.47307907 </i>
    <i name="e_0_energy">    180.47307907 </i>
   </energy>
  </scstep>
  <scstep>
   <time name="dav">    8.38    8.38</time>
   <time name="total">    8.38    8.38</time>
   <energy>
    <i name="e_fr_energy">   -176.93353789 </i>
    <i name="e_wo_entrp">   -176.93353789 </i>
    <i name="e_0_energy">   -176.93353789 </i>
   </energy>
  </scstep>
  <scstep>
   <time name="dav">    8.18    8.18</time>
   <time name="total">    8.18    8.18</time>
   <energy>
    <i name="e_fr_energy">   -200.94210967 </i>
    <i name="e_wo_entrp">   -200.94210967 </i>
    <i name="e_0_energy">   -200.94210967 </i>
   </energy>
  </scstep>
  <scstep>
   <time name="dav">   10.24   10.24</time>
   <time name="total">   10.49   10.49</time>
   <energy>
    <i name="e_fr_energy">   -202.30621400 </i>
    <i name="e_wo_entrp">   -202.30621400 </i>
    <i name="e_0_energy">   -202.30621400 </i>
   </energy>
  </scstep>
  <scstep>
   <time name="diag">    0.78    0.78</time>
   <time name="diis">    5.26    5.26</time>
   <time name="orth">    0.15    0.15</time>
   <time name="total">    6.59    6.60</time>
   <energy>
    <i name="e_fr_energy">   -161.79802803 </i>
    <i name="e_wo_entrp">   -161.79802803 </i>
    <i name="e_0_energy">   -161.79802803 </i>
   </energy>
  </scstep>
  <scstep>
   <time name="diag">    0.77    0.77</time>
   <time name="diis">    5.52    5.52</time>
   <time name="orth">    0.15    0.15</time>
   <time name="total">    6.83    6.83</time>
   <energy>
    <i name="e_fr_energy">   -157.76657583 </i>
    <i name="e_wo_entrp">   -157.76657583 </i>
    <i name="e_0_energy">   -157.76657583 </i>
   </energy>
  </scstep>
  <scstep>
   <time name="diag">    0.78    0.78</time>
   <time name="diis">    6.59    6.59</time>
   <time name="orth">    0.15    0.15</time>
   <time name="total">    7.91    7.91</time>
   <energy>
    <i name="e_fr_energy">   -157.01169170 </i>
    <i name="e_wo_entrp">   -157.01169170 </i>
    <i name="e_0_energy">   -157.01169170 </i>
   </energy>
  </scstep>
  <scstep>
   <time name="diag">    0.78    0.78</time>
   <time name="diis">    6.21    6.21</time>
   <time name="orth">    0.15    0.15</time>
   <time name="total">    7.53    7.53</time>
   <energy>
    <i name="e_fr_energy">   -156.73959180 </i>
    <i name="e_wo_entrp">   -156.73959180 </i>
    <i name="e_0_energy">   -156.73959180 </i>
   </energy>
  </scstep>
  <scstep>
   <time name="diag">    0.78    0.78</time>
   <time name="diis">    7.39    7.39</time>
   <time name="orth">    0.15    0.15</time>
   <time name="total">    8.71    8.71</time>
   <energy>
    <i name="e_fr_energy">   -156.68970501 </i>
    <i name="e_wo_entrp">   -156.68970501 </i>
    <i name="e_0_energy">   -156.68970501 </i>
   </energy>
  </scstep>
  <scstep>
   <time name="diag">    0.76    0.76</time>
   <time name="diis">    7.00    7.00</time>
   <time name="orth">    0.14    0.14</time>
   <time name="total">    8.30    8.30</time>
   <energy>
    <i name="e_fr_energy">   -156.66405231 </i>
    <i name="e_wo_entrp">   -156.66405231 </i>
    <i name="e_0_energy">   -156.66405231 </i>
   </energy>
  </scstep>
  <scstep>
   <time name="diag">    0.76    0.76</time>
   <time name="diis">    7.27    7.26</time>
   <time name="orth">    0.14    0.14</time>
   <time name="total">    8.57    8.57</time>
   <energy>
    <i name="e_fr_energy">   -156.65712287 </i>
    <i name="e_wo_entrp">   -156.65712287 </i>
    <i name="e_0_energy">   -156.65712287 </i>
   </energy>
  </scstep>
  <scstep>
   <time name="diag">    0.77    0.77</time>
   <time name="diis">    8.18    8.18</time>
   <time name="orth">    0.14    0.14</time>
   <time name="total">    9.49    9.49</time>
   <energy>
    <i name="e_fr_energy">   -156.65054253 </i>
    <i name="e_wo_entrp">   -156.65054253 </i>
    <i name="e_0_energy">   -156.65054253 </i>
   </energy>
  </scstep>
  <scstep>
   <time name="diag">    0.77    0.77</time>
   <time name="diis">    6.96    6.96</time>
   <time name="orth">    0.14    0.14</time>
   <time name="total">    8.27    8.27</time>
   <energy>
    <i name="e_fr_energy">   -156.64802297 </i>
    <i name="e_wo_entrp">   -156.64802297 </i>
    <i name="e_0_energy">   -156.64802297 </i>
   </energy>
  </scstep>
  <scstep>
   <time name="diag">    0.77    0.77</time>
   <time name="diis">    7.61    7.61</time>
   <time name="orth">    0.14    0.14</time>
   <time name="total">    8.93    8.93</time>
   <energy>
    <i name="e_fr_energy">   -156.64854598 </i>
    <i name="e_wo_entrp">   -156.64854598 </i>
    <i name="e_0_energy">   -156.64854598 </i>
   </energy>
  </scstep>
  <scstep>
   <time name="diag">    0.78    0.78</time>
   <time name="diis">    7.27    7.27</time>
   <time name="orth">    0.14    0.14</time>
   <time name="total">    8.59    8.59</time>
   <energy>
    <i name="e_fr_energy">   -156.64985405 </i>
    <i name="e_wo_entrp">   -156.64985405 </i>
    <i name="e_0_energy">   -156.64985405 </i>
   </energy>
  </scstep>
  <scstep>
   <time name="diag">    0.77    0.77</time>
   <time name="diis">    7.04    7.04</time>
   <time name="orth">    0.14    0.14</time>
   <time name="total">    8.36    8.36</time>
   <energy>
    <i name="e_fr_energy">   -156.65079445 </i>
    <i name="e_wo_entrp">   -156.65079445 </i>
    <i name="e_0_energy">   -156.65079445 </i>
   </energy>
  </scstep>
  <scstep>
   <time name="diag">    0.75    0.75</time>
   <time name="diis">    6.88    6.88</time>
   <time name="orth">    0.14    0.14</time>
   <time name="total">    8.17    8.17</time>
   <energy>
    <i name="e_fr_energy">   -156.65082862 </i>
    <i name="e_wo_entrp">   -156.65082862 </i>
    <i name="e_0_energy">   -156.65082862 </i>
   </energy>
  </scstep>
  <scstep>
   <time name="diag">    0.70    0.70</time>
   <time name="diis">    6.29    6.29</time>
   <time name="orth">    0.14    0.14</time>
   <time name="total">    7.51    7.51</time>
   <energy>
    <i name="e_fr_energy">   -156.65127697 </i>
    <i name="e_wo_entrp">   -156.65127697 </i>
    <i name="e_0_energy">   -156.65127697 </i>
   </energy>
  </scstep>
  <scstep>
   <time name="diag">    0.74    0.74</time>
   <time name="diis">    5.73    5.73</time>
   <time name="orth">    0.14    0.14</time>
   <time name="total">    7.00    7.00</time>
   <energy>
    <i name="e_fr_energy">   -156.65163983 </i>
    <i name="e_wo_entrp">   -156.65163983 </i>
    <i name="e_0_energy">   -156.65163983 </i>
   </energy>
  </scstep>
  <scstep>
   <time name="diag">    0.77    0.77</time>
   <time name="diis">    5.57    5.56</time>
   <time name="orth">    0.14    0.14</time>
   <time name="total">    6.87    6.87</time>
   <energy>
    <i name="e_fr_energy">   -156.65190085 </i>
    <i name="e_wo_entrp">   -156.65190085 </i>
    <i name="e_0_energy">   -156.65190085 </i>
   </energy>
  </scstep>
  <scstep>
   <time name="diag">    0.78    0.78</time>
   <time name="diis">    4.91    4.91</time>
   <time name="orth">    0.14    0.14</time>
   <time name="total">    6.22    6.22</time>
   <energy>
    <i name="e_fr_energy">   -156.65209995 </i>
    <i name="e_wo_entrp">   -156.65209995 </i>
    <i name="e_0_energy">   -156.65209995 </i>
   </energy>
  </scstep>
  <scstep>
   <time name="diag">    0.77    0.77</time>
   <time name="diis">    4.12    4.12</time>
   <time name="orth">    0.14    0.14</time>
   <time name="total">    5.44    5.44</time>
   <energy>
    <i name="e_fr_energy">   -156.65220730 </i>
    <i name="e_wo_entrp">   -156.65220730 </i>
    <i name="e_0_energy">   -156.65220730 </i>
   </energy>
  </scstep>
  <scstep>
   <time name="diag">    0.77    0.77</time>
   <time name="diis">    4.07    4.07</time>
   <time name="orth">    0.14    0.14</time>
   <time name="total">    5.38    5.38</time>
   <energy>
    <i name="e_fr_energy">   -156.65230542 </i>
    <i name="e_wo_entrp">   -156.65230542 </i>
    <i name="e_0_energy">   -156.65230542 </i>
   </energy>
  </scstep>
  <scstep>
   <time name="diag">    0.77    0.77</time>
   <time name="diis">    3.40    3.39</time>
   <time name="orth">    0.14    0.14</time>
   <time name="total">    4.70    4.70</time>
   <energy>
    <i name="e_fr_energy">   -156.65233355 </i>
    <i name="e_wo_entrp">   -156.65233355 </i>
    <i name="e_0_energy">   -156.65233355 </i>
   </energy>
  </scstep>
  <scstep>
   <time name="diag">    0.71    0.71</time>
   <time name="diis">    3.48    3.48</time>
   <time name="orth">    0.13    0.13</time>
   <time name="total">    4.72    4.72</time>
   <energy>
    <i name="e_fr_energy">   -156.65234844 </i>
    <i name="e_wo_entrp">   -156.65234844 </i>
    <i name="e_0_energy">   -156.65234844 </i>
   </energy>
  </scstep>
  <scstep>
   <time name="diag">    0.63    0.63</time>
   <time name="diis">    2.98    2.98</time>
   <time name="orth">    0.12    0.12</time>
   <time name="total">    3.87    3.87</time>
   <energy>
    <i name="alphaZ">    380.41862636 </i>
    <i name="ewald">  45617.28373447 </i>
    <i name="hartreedc"> -54334.89428447 </i>
    <i name="XCdc">    341.54613941 </i>
    <i name="pawpsdc">   6145.08716220 </i>
    <i name="pawaedc">  -5975.01846808 </i>
    <i name="eentropy">      0.00000000 </i>
    <i name="bandstr">  -1268.34351263 </i>
    <i name="atom">   8937.26825017 </i>
    <i name="e_fr_energy">   -156.65235257 </i>
    <i name="e_wo_entrp">   -156.65235257 </i>
    <i name="e_0_energy">   -156.65235257 </i>
   </energy>
  </scstep>
  <structure>
   <crystal>
    <varray name="basis" >
     <v>       3.94684634       0.00000000       0.00000000 </v>
     <v>       0.00000000       3.94684634       0.00000000 </v>
     <v>       0.00000000       0.00000000      29.81396220 </v>
    </varray>
    <i name="volume">    464.42985957 </i>
    <varray name="rec_basis" >
     <v>       0.25336684       0.00000000       0.00000000 </v>
     <v>       0.00000000       0.25336684       0.00000000 </v>
     <v>       0.00000000       0.00000000       0.03354133 </v>
    </varray>
   </crystal>
   <varray name="positions" >
    <v>       0.50000000       0.50000000       0.26833065 </v>
    <v>       0.50000000       0.00000000       0.33452190 </v>
    <v>       0.00000000       0.50000000       0.33452190 </v>
    <v>       0.50000000       0.50000000       0.40071314 </v>
    <v>       0.50000000       0.00000000       0.46690438 </v>
    <v>       0.00000000       0.50000000       0.46690438 </v>
    <v>       0.50000000       0.50000000       0.53309562 </v>
    <v>       0.50000000       0.00000000       0.59928686 </v>
    <v>       0.00000000       0.50000000       0.59928686 </v>
    <v>       0.50000000       0.50000000       0.66547810 </v>
    <v>       0.50000000       0.00000000       0.73166935 </v>
    <v>       0.00000000       0.50000000       0.73166935 </v>
    <v>       0.00000000       0.00000000       0.26833065 </v>
    <v>       0.00000000       0.00000000       0.40071314 </v>
    <v>       0.00000000       0.00000000       0.53309562 </v>
    <v>       0.00000000       0.00000000       0.66547810 </v>
    <v>       0.50000000       0.50000000       0.33452190 </v>
    <v>       0.50000000       0.50000000       0.46690438 </v>
    <v>       0.50000000       0.50000000       0.59928686 </v>
    <v>       0.50000000       0.50000000       0.73166935 </v>
   </varray>
  </structure>
  <varray name="forces" >
   <v>      -0.00000000       0.00000000      -0.72040485 </v>
   <v>      -0.00000000       0.00000000      -0.02607698 </v>
   <v>      -0.00000000       0.00000000      -0.02607698 </v>
   <v>      -0.00000000      -0.00000000       0.31492246 </v>
   <v>      -0.00000000      -0.00000000       0.04802210 </v>
   <v>      -0.00000000      -0.00000000       0.04802210 </v>
   <v>      -0.00000000      -0.00000000       0.24105895 </v>
   <v>       0.00000000      -0.00000000       0.00389656 </v>
   <v>      -0.00000000      -0.00000000       0.00389656 </v>
   <v>      -0.00000000      -0.00000000       0.94736163 </v>
   <v>      -0.00000000      -0.00000000       0.36089486 </v>
   <v>      -0.00000000      -0.00000000       0.36089486 </v>
   <v>      -0.00000000       0.00000000       1.37776535 </v>
   <v>      -0.00000000      -0.00000000       0.01729073 </v>
   <v>      -0.00000000      -0.00000000      -0.03475248 </v>
   <v>      -0.00000000       0.00000000       0.65803456 </v>
   <v>      -0.00000000      -0.00000000      -0.91861190 </v>
   <v>      -0.00000000      -0.00000000      -0.23491674 </v>
   <v>      -0.00000000      -0.00000000      -0.29313553 </v>
   <v>      -0.00000000      -0.00000000      -2.12808527 </v>
  </varray>
  <varray name="stress" >
   <v>     -19.75805528       0.00000000       0.00000000 </v>
   <v>       0.00000000     -19.75805528       0.00000000 </v>
   <v>       0.00000000       0.00000000     -11.91739926 </v>
  </varray>
  <energy>
   <i name="e_fr_energy">   -156.65235257 </i>
   <i name="e_wo_entrp">   -156.65235257 </i>
   <i name="e_0_energy">      0.00000000 </i>
  </energy>
  <time name="totalsc">  207.98  208.11</time>
  <eigenvalues>
   <array>
    <dimension dim="1">band</dimension>
    <dimension dim="2">kpoint</dimension>
    <dimension dim="3">spin</dimension>
    <field>eigene</field>
    <field>occ</field>
    <set>
     <set comment="spin 1">
      <set comment="kpoint 1">
       <r>  -34.6203    1.0000 </r>
       <r>  -33.5407    1.0000 </r>
       <r>  -33.4873    1.0000 </r>
       <r>  -33.3733    1.0000 </r>
       <r>  -18.2336    1.0000 </r>
       <r>  -18.1720    1.0000 </r>
       <r>  -18.0699    1.0000 </r>
       <r>  -17.5511    1.0000 </r>
       <r>  -17.1069    1.0000 </r>
       <r>  -17.0950    1.0000 </r>
       <r>  -17.0457    1.0000 </r>
       <r>  -17.0269    1.0000 </r>
       <r>  -17.0249    1.0000 </r>
       <r>  -16.9840    1.0000 </r>
       <r>  -16.5427    1.0000 </r>
       <r>  -16.5333    1.0000 </r>
       <r>  -16.5333    1.0000 </r>
       <r>  -16.4771    1.0000 </r>
       <r>  -16.2808    1.0000 </r>
       <r>  -15.5851    1.0000 </r>
       <r>  -15.5851    1.0000 </r>
       <r>  -15.5252    1.0000 </r>
       <r>  -15.5252    1.0000 </r>
       <r>  -15.4431    1.0000 </r>
       <r>  -15.4333    1.0000 </r>
       <r>  -15.4333    1.0000 </r>
       <r>  -15.1742    1.0000 </r>
       <r>  -15.0109    1.0000 </r>
       <r>   -4.8075    1.0000 </r>
       <r>   -4.2975    1.0000 </r>
       <r>   -3.7864    1.0000 </r>
       <r>   -3.5879    1.0000 </r>
       <r>   -3.5879    1.0000 </r>
       <r>   -3.5208    1.0000 </r>
       <r>   -3.5208    1.0000 </r>
       <r>   -3.4922    1.0000 </r>
       <r>   -3.4922    1.0000 </r>
       <r>   -3.1659    1.0000 </r>
       <r>   -3.0980    1.0000 </r>
       <r>   -3.0980    1.0000 </r>
       <r>   -2.8618    1.0000 </r>
       <r>   -2.7477    1.0000 </r>
       <r>   -2.7477    1.0000 </r>
       <r>   -2.5113    1.0000 </r>
       <r>   -2.4163    1.0000 </r>
       <r>   -2.3697    1.0000 </r>
       <r>   -2.3697    1.0000 </r>
       <r>   -2.2865    1.0000 </r>
       <r>   -2.0347    1.0000 </r>
       <r>   -2.0347    1.0000 </r>
       <r>   -1.9754    1.0000 </r>
       <r>   -1.9730    1.0000 </r>
       <r>   -1.7312    1.0000 </r>
       <r>   -1.7312    1.0000 </r>
       <r>   -1.4098    1.0000 </r>
       <r>   -1.3909    1.0000 </r>
       <r>   -1.3909    1.0000 </r>
       <r>   -1.3287    1.0000 </r>
       <r>   -1.2679    1.0000 </r>
       <r>   -1.2679    1.0000 </r>
       <r>   -1.0687    1.0000 </r>
       <r>   -1.0687    1.0000 </r>
       <r>   -0.6683    1.0000 </r>
       <r>   -0.6683    1.0000 </r>
       <r>    0.9107    0.0000 </r>
       <r>    1.0155    0.0000 </r>
       <r>    1.0175    0.0000 </r>
       <r>    1.0175    0.0000 </r>
       <r>    1.1140    0.0000 </r>
       <r>    1.3145    0.0000 </r>
       <r>    1.4868    0.0000 </r>
       <r>    1.5426    0.0000 </r>
       <r>    1.5433    0.0000 </r>
       <r>    2.1836    0.0000 </r>
       <r>    4.8597    0.0000 </r>
       <r>    4.9332    0.0000 </r>
      </set>
      <set comment="kpoint 2">
       <r>  -34.6174    1.0000 </r>
       <r>  -33.5372    1.0000 </r>
       <r>  -33.4839    1.0000 </r>
       <r>  -33.3698    1.0000 </r>
       <r>  -18.1532    1.0000 </r>
       <r>  -18.1190    1.0000 </r>
       <r>  -18.0528    1.0000 </r>
       <r>  -17.5512    1.0000 </r>
       <r>  -17.1442    1.0000 </r>
       <r>  -17.1263    1.0000 </r>
       <r>  -17.0997    1.0000 </r>
       <r>  -17.0361    1.0000 </r>
       <r>  -17.0247    1.0000 </r>
       <r>  -16.9836    1.0000 </r>
       <r>  -16.7756    1.0000 </r>
       <r>  -16.5264    1.0000 </r>
       <r>  -16.5127    1.0000 </r>
       <r>  -16.4735    1.0000 </r>
       <r>  -16.0140    1.0000 </r>
       <r>  -15.5767    1.0000 </r>
       <r>  -15.5166    1.0000 </r>
       <r>  -15.4876    1.0000 </r>
       <r>  -15.4634    1.0000 </r>
       <r>  -15.4245    1.0000 </r>
       <r>  -15.4109    1.0000 </r>
       <r>  -15.3380    1.0000 </r>
       <r>  -15.1944    1.0000 </r>
       <r>  -15.0407    1.0000 </r>
       <r>   -4.8197    1.0000 </r>
       <r>   -4.3413    1.0000 </r>
       <r>   -3.9384    1.0000 </r>
       <r>   -3.8552    1.0000 </r>
       <r>   -3.8131    1.0000 </r>
       <r>   -3.7116    1.0000 </r>
       <r>   -3.6347    1.0000 </r>
       <r>   -3.5917    1.0000 </r>
       <r>   -3.5241    1.0000 </r>
       <r>   -3.4891    1.0000 </r>
       <r>   -3.3996    1.0000 </r>
       <r>   -3.1593    1.0000 </r>
       <r>   -3.0934    1.0000 </r>
       <r>   -2.8807    1.0000 </r>
       <r>   -2.8265    1.0000 </r>
       <r>   -2.6311    1.0000 </r>
       <r>   -2.6008    1.0000 </r>
       <r>   -2.4587    1.0000 </r>
       <r>   -2.3104    1.0000 </r>
       <r>   -2.1775    1.0000 </r>
       <r>   -2.1128    1.0000 </r>
       <r>   -1.9858    1.0000 </r>
       <r>   -1.9747    1.0000 </r>
       <r>   -1.8805    1.0000 </r>
       <r>   -1.8558    1.0000 </r>
       <r>   -1.7985    1.0000 </r>
       <r>   -1.7152    1.0000 </r>
       <r>   -1.6432    1.0000 </r>
       <r>   -1.6250    1.0000 </r>
       <r>   -1.5880    1.0000 </r>
       <r>   -1.4672    1.0000 </r>
       <r>   -1.4312    1.0000 </r>
       <r>   -1.2047    1.0000 </r>
       <r>   -1.1913    1.0000 </r>
       <r>   -1.0373    1.0000 </r>
       <r>   -0.9759    1.0000 </r>
       <r>    1.0337    0.0000 </r>
       <r>    1.3176    0.0000 </r>
       <r>    1.3718    0.0000 </r>
       <r>    1.4169    0.0000 </r>
       <r>    1.4972    0.0000 </r>
       <r>    1.5670    0.0000 </r>
       <r>    1.6927    0.0000 </r>
       <r>    1.7341    0.0000 </r>
       <r>    2.1385    0.0000 </r>
       <r>    2.5017    0.0000 </r>
       <r>    5.2324    0.0000 </r>
       <r>    5.3096    0.0000 </r>
      </set>
      <set comment="kpoint 3">
       <r>  -34.6108    1.0000 </r>
       <r>  -33.5294    1.0000 </r>
       <r>  -33.4762    1.0000 </r>
       <r>  -33.3619    1.0000 </r>
       <r>  -18.1143    1.0000 </r>
       <r>  -18.0224    1.0000 </r>
       <r>  -17.9257    1.0000 </r>
       <r>  -17.5547    1.0000 </r>
       <r>  -17.3002    1.0000 </r>
       <r>  -17.1968    1.0000 </r>
       <r>  -17.1600    1.0000 </r>
       <r>  -17.0839    1.0000 </r>
       <r>  -17.0135    1.0000 </r>
       <r>  -16.8735    1.0000 </r>
       <r>  -16.8592    1.0000 </r>
       <r>  -16.5109    1.0000 </r>
       <r>  -16.5027    1.0000 </r>
       <r>  -16.4552    1.0000 </r>
       <r>  -15.7106    1.0000 </r>
       <r>  -15.5577    1.0000 </r>
       <r>  -15.4970    1.0000 </r>
       <r>  -15.4569    1.0000 </r>
       <r>  -15.4045    1.0000 </r>
       <r>  -15.3193    1.0000 </r>
       <r>  -15.2465    1.0000 </r>
       <r>  -15.2095    1.0000 </r>
       <r>  -15.1619    1.0000 </r>
       <r>  -15.0891    1.0000 </r>
       <r>   -4.8621    1.0000 </r>
       <r>   -4.6727    1.0000 </r>
       <r>   -4.4399    1.0000 </r>
       <r>   -4.4368    1.0000 </r>
       <r>   -4.3171    1.0000 </r>
       <r>   -4.1833    1.0000 </r>
       <r>   -4.1002    1.0000 </r>
       <r>   -3.8108    1.0000 </r>
       <r>   -3.7347    1.0000 </r>
       <r>   -3.5908    1.0000 </r>
       <r>   -3.5249    1.0000 </r>
       <r>   -3.4732    1.0000 </r>
       <r>   -3.4476    1.0000 </r>
       <r>   -3.3078    1.0000 </r>
       <r>   -3.0325    1.0000 </r>
       <r>   -2.9228    1.0000 </r>
       <r>   -2.7722    1.0000 </r>
       <r>   -2.7421    1.0000 </r>
       <r>   -2.4720    1.0000 </r>
       <r>   -2.4556    1.0000 </r>
       <r>   -2.4004    1.0000 </r>
       <r>   -2.3795    1.0000 </r>
       <r>   -2.3241    1.0000 </r>
       <r>   -2.2391    1.0000 </r>
       <r>   -2.0781    1.0000 </r>
       <r>   -2.0388    1.0000 </r>
       <r>   -1.9956    1.0000 </r>
       <r>   -1.8360    1.0000 </r>
       <r>   -1.7522    1.0000 </r>
       <r>   -1.6139    1.0000 </r>
       <r>   -1.4504    1.0000 </r>
       <r>   -1.4435    1.0000 </r>
       <r>   -1.3472    1.0000 </r>
       <r>   -1.3393    1.0000 </r>
       <r>   -1.2404    1.0000 </r>
       <r>   -1.1137    1.0000 </r>
       <r>    1.0776    0.0000 </r>
       <r>    1.5801    0.0000 </r>
       <r>    2.0684    0.0000 </r>
       <r>    2.0698    0.0000 </r>
       <r>    2.1059    0.0000 </r>
       <r>    2.1847    0.0000 </r>
       <r>    2.2339    0.0000 </r>
       <r>    2.2457    0.0000 </r>
       <r>    2.4534    0.0000 </r>
       <r>    2.4987    0.0000 </r>
       <r>    2.5725    0.0000 </r>
       <r>    6.1319    0.0000 </r>
      </set>
      <set comment="kpoint 4">
       <r>  -34.6055    1.0000 </r>
       <r>  -33.5230    1.0000 </r>
       <r>  -33.4700    1.0000 </r>
       <r>  -33.3556    1.0000 </r>
       <r>  -18.1828    1.0000 </r>
       <r>  -18.0130    1.0000 </r>
       <r>  -17.7794    1.0000 </r>
       <r>  -17.4826    1.0000 </r>
       <r>  -17.3698    1.0000 </r>
       <r>  -17.2773    1.0000 </r>
       <r>  -17.1494    1.0000 </r>
       <r>  -17.0830    1.0000 </r>
       <r>  -17.0294    1.0000 </r>
       <r>  -16.8898    1.0000 </r>
       <r>  -16.7605    1.0000 </r>
       <r>  -16.4984    1.0000 </r>
       <r>  -16.4629    1.0000 </r>
       <r>  -16.4393    1.0000 </r>
       <r>  -15.5423    1.0000 </r>
       <r>  -15.5409    1.0000 </r>
       <r>  -15.4812    1.0000 </r>
       <r>  -15.4512    1.0000 </r>
       <r>  -15.3883    1.0000 </r>
       <r>  -15.2705    1.0000 </r>
       <r>  -15.1959    1.0000 </r>
       <r>  -15.1106    1.0000 </r>
       <r>  -15.0928    1.0000 </r>
       <r>  -15.0324    1.0000 </r>
       <r>   -5.0454    1.0000 </r>
       <r>   -5.0252    1.0000 </r>
       <r>   -4.9177    1.0000 </r>
       <r>   -4.8509    1.0000 </r>
       <r>   -4.7177    1.0000 </r>
       <r>   -4.6134    1.0000 </r>
       <r>   -4.4513    1.0000 </r>
       <r>   -4.2185    1.0000 </r>
       <r>   -3.9766    1.0000 </r>
       <r>   -3.6960    1.0000 </r>
       <r>   -3.5587    1.0000 </r>
       <r>   -3.5185    1.0000 </r>
       <r>   -3.4489    1.0000 </r>
       <r>   -3.4071    1.0000 </r>
       <r>   -3.2443    1.0000 </r>
       <r>   -3.2188    1.0000 </r>
       <r>   -3.0402    1.0000 </r>
       <r>   -2.9678    1.0000 </r>
       <r>   -2.8183    1.0000 </r>
       <r>   -2.7356    1.0000 </r>
       <r>   -2.5740    1.0000 </r>
       <r>   -2.4157    1.0000 </r>
       <r>   -2.3449    1.0000 </r>
       <r>   -2.2843    1.0000 </r>
       <r>   -2.2800    1.0000 </r>
       <r>   -2.2351    1.0000 </r>
       <r>   -1.9871    1.0000 </r>
       <r>   -1.9566    1.0000 </r>
       <r>   -1.8267    1.0000 </r>
       <r>   -1.7067    1.0000 </r>
       <r>   -1.6714    1.0000 </r>
       <r>   -1.5629    1.0000 </r>
       <r>   -1.4469    1.0000 </r>
       <r>   -1.4159    1.0000 </r>
       <r>   -1.1411    1.0000 </r>
       <r>   -0.9042    1.0000 </r>
       <r>    1.1141    0.0000 </r>
       <r>    1.6101    0.0000 </r>
       <r>    2.1502    0.0000 </r>
       <r>    2.5814    0.0000 </r>
       <r>    2.5930    0.0000 </r>
       <r>    2.6383    0.0000 </r>
       <r>    2.6742    0.0000 </r>
       <r>    2.6817    0.0000 </r>
       <r>    2.7528    0.0000 </r>
       <r>    2.8043    0.0000 </r>
       <r>    2.9054    0.0000 </r>
       <r>    2.9702    0.0000 </r>
      </set>
      <set comment="kpoint 5">
       <r>  -34.6145    1.0000 </r>
       <r>  -33.5338    1.0000 </r>
       <r>  -33.4805    1.0000 </r>
       <r>  -33.3664    1.0000 </r>
       <r>  -18.0831    1.0000 </r>
       <r>  -18.0640    1.0000 </r>
       <r>  -18.0107    1.0000 </r>
       <r>  -17.5335    1.0000 </r>
       <r>  -17.1379    1.0000 </r>
       <r>  -17.1350    1.0000 </r>
       <r>  -17.1047    1.0000 </r>
       <r>  -17.0966    1.0000 </r>
       <r>  -17.0342    1.0000 </r>
       <r>  -16.9425    1.0000 </r>
       <r>  -16.8999    1.0000 </r>
       <r>  -16.5116    1.0000 </r>
       <r>  -16.4998    1.0000 </r>
       <r>  -16.4752    1.0000 </r>
       <r>  -15.9077    1.0000 </r>
       <r>  -15.5771    1.0000 </r>
       <r>  -15.5037    1.0000 </r>
       <r>  -15.4773    1.0000 </r>
       <r>  -15.4366    1.0000 </r>
       <r>  -15.4059    1.0000 </r>
       <r>  -15.3435    1.0000 </r>
       <r>  -15.2859    1.0000 </r>
       <r>  -15.2087    1.0000 </r>
       <r>  -15.0743    1.0000 </r>
       <r>   -4.8298    1.0000 </r>
       <r>   -4.3961    1.0000 </r>
       <r>   -4.0897    1.0000 </r>
       <r>   -3.9846    1.0000 </r>
       <r>   -3.9350    1.0000 </r>
       <r>   -3.8018    1.0000 </r>
       <r>   -3.6982    1.0000 </r>
       <r>   -3.6736    1.0000 </r>
       <r>   -3.6382    1.0000 </r>
       <r>   -3.6157    1.0000 </r>
       <r>   -3.5059    1.0000 </r>
       <r>   -3.4698    1.0000 </r>
       <r>   -3.2502    1.0000 </r>
       <r>   -3.1362    1.0000 </r>
       <r>   -2.9565    1.0000 </r>
       <r>   -2.8570    1.0000 </r>
       <r>   -2.6583    1.0000 </r>
       <r>   -2.6476    1.0000 </r>
       <r>   -2.4642    1.0000 </r>
       <r>   -2.4041    1.0000 </r>
       <r>   -2.3002    1.0000 </r>
       <r>   -2.1605    1.0000 </r>
       <r>   -2.0183    1.0000 </r>
       <r>   -1.9354    1.0000 </r>
       <r>   -1.7926    1.0000 </r>
       <r>   -1.7566    1.0000 </r>
       <r>   -1.7156    1.0000 </r>
       <r>   -1.7109    1.0000 </r>
       <r>   -1.6921    1.0000 </r>
       <r>   -1.6432    1.0000 </r>
       <r>   -1.6087    1.0000 </r>
       <r>   -1.5360    1.0000 </r>
       <r>   -1.4016    1.0000 </r>
       <r>   -1.3660    1.0000 </r>
       <r>   -1.2386    1.0000 </r>
       <r>   -0.8569    1.0000 </r>
       <r>    1.3090    0.0000 </r>
       <r>    1.4631    0.0000 </r>
       <r>    1.5640    0.0000 </r>
       <r>    1.6559    0.0000 </r>
       <r>    1.6771    0.0000 </r>
       <r>    1.7699    0.0000 </r>
       <r>    1.7801    0.0000 </r>
       <r>    1.8947    0.0000 </r>
       <r>    1.9921    0.0000 </r>
       <r>    2.2753    0.0000 </r>
       <r>    5.3746    0.0000 </r>
       <r>    5.4591    0.0000 </r>
      </set>
      <set comment="kpoint 6">
       <r>  -34.6080    1.0000 </r>
       <r>  -33.5261    1.0000 </r>
       <r>  -33.4730    1.0000 </r>
       <r>  -33.3587    1.0000 </r>
       <r>  -18.0489    1.0000 </r>
       <r>  -17.9527    1.0000 </r>
       <r>  -17.8446    1.0000 </r>
       <r>  -17.5019    1.0000 </r>
       <r>  -17.2573    1.0000 </r>
       <r>  -17.1776    1.0000 </r>
       <r>  -17.1345    1.0000 </r>
       <r>  -17.1072    1.0000 </r>
       <r>  -17.0295    1.0000 </r>
       <r>  -16.9218    1.0000 </r>
       <r>  -16.8214    1.0000 </r>
       <r>  -16.5543    1.0000 </r>
       <r>  -16.4644    1.0000 </r>
       <r>  -16.4517    1.0000 </r>
       <r>  -15.7331    1.0000 </r>
       <r>  -15.5762    1.0000 </r>
       <r>  -15.5095    1.0000 </r>
       <r>  -15.4643    1.0000 </r>
       <r>  -15.3747    1.0000 </r>
       <r>  -15.3519    1.0000 </r>
       <r>  -15.2644    1.0000 </r>
       <r>  -15.2118    1.0000 </r>
       <r>  -15.1644    1.0000 </r>
       <r>  -15.1288    1.0000 </r>
       <r>   -4.8647    1.0000 </r>
       <r>   -4.6546    1.0000 </r>
       <r>   -4.4702    1.0000 </r>
       <r>   -4.4614    1.0000 </r>
       <r>   -4.3162    1.0000 </r>
       <r>   -4.1727    1.0000 </r>
       <r>   -4.0802    1.0000 </r>
       <r>   -3.8498    1.0000 </r>
       <r>   -3.7986    1.0000 </r>
       <r>   -3.7769    1.0000 </r>
       <r>   -3.7372    1.0000 </r>
       <r>   -3.6879    1.0000 </r>
       <r>   -3.6028    1.0000 </r>
       <r>   -3.4425    1.0000 </r>
       <r>   -3.3567    1.0000 </r>
       <r>   -3.2820    1.0000 </r>
       <r>   -3.1344    1.0000 </r>
       <r>   -2.9495    1.0000 </r>
       <r>   -2.8861    1.0000 </r>
       <r>   -2.8192    1.0000 </r>
       <r>   -2.6665    1.0000 </r>
       <r>   -2.4338    1.0000 </r>
       <r>   -2.2570    1.0000 </r>
       <r>   -2.1691    1.0000 </r>
       <r>   -1.9682    1.0000 </r>
       <r>   -1.8771    1.0000 </r>
       <r>   -1.8366    1.0000 </r>
       <r>   -1.7836    1.0000 </r>
       <r>   -1.7290    1.0000 </r>
       <r>   -1.7140    1.0000 </r>
       <r>   -1.6430    1.0000 </r>
       <r>   -1.4518    1.0000 </r>
       <r>   -1.3631    1.0000 </r>
       <r>   -1.2519    1.0000 </r>
       <r>   -1.1289    1.0000 </r>
       <r>   -0.9334    1.0000 </r>
       <r>    1.4074    0.0000 </r>
       <r>    1.7875    0.0000 </r>
       <r>    2.0912    0.0000 </r>
       <r>    2.1647    0.0000 </r>
       <r>    2.1888    0.0000 </r>
       <r>    2.2233    0.0000 </r>
       <r>    2.2782    0.0000 </r>
       <r>    2.3324    0.0000 </r>
       <r>    2.3777    0.0000 </r>
       <r>    2.5523    0.0000 </r>
       <r>    2.6004    0.0000 </r>
       <r>    2.7550    0.0000 </r>
      </set>
      <set comment="kpoint 7">
       <r>  -34.6028    1.0000 </r>
       <r>  -33.5199    1.0000 </r>
       <r>  -33.4669    1.0000 </r>
       <r>  -33.3525    1.0000 </r>
       <r>  -18.0906    1.0000 </r>
       <r>  -17.9236    1.0000 </r>
       <r>  -17.6968    1.0000 </r>
       <r>  -17.4144    1.0000 </r>
       <r>  -17.3318    1.0000 </r>
       <r>  -17.2324    1.0000 </r>
       <r>  -17.1150    1.0000 </r>
       <r>  -17.0911    1.0000 </r>
       <r>  -17.0288    1.0000 </r>
       <r>  -16.8578    1.0000 </r>
       <r>  -16.7018    1.0000 </r>
       <r>  -16.6143    1.0000 </r>
       <r>  -16.4582    1.0000 </r>
       <r>  -16.4058    1.0000 </r>
       <r>  -15.6286    1.0000 </r>
       <r>  -15.5769    1.0000 </r>
       <r>  -15.5362    1.0000 </r>
       <r>  -15.4354    1.0000 </r>
       <r>  -15.3495    1.0000 </r>
       <r>  -15.3045    1.0000 </r>
       <r>  -15.2639    1.0000 </r>
       <r>  -15.1615    1.0000 </r>
       <r>  -15.1462    1.0000 </r>
       <r>  -15.0766    1.0000 </r>
       <r>   -5.0360    1.0000 </r>
       <r>   -4.9441    1.0000 </r>
       <r>   -4.8894    1.0000 </r>
       <r>   -4.8484    1.0000 </r>
       <r>   -4.7111    1.0000 </r>
       <r>   -4.5474    1.0000 </r>
       <r>   -4.4358    1.0000 </r>
       <r>   -4.2176    1.0000 </r>
       <r>   -4.0456    1.0000 </r>
       <r>   -3.9051    1.0000 </r>
       <r>   -3.7801    1.0000 </r>
       <r>   -3.7383    1.0000 </r>
       <r>   -3.7187    1.0000 </r>
       <r>   -3.6700    1.0000 </r>
       <r>   -3.6334    1.0000 </r>
       <r>   -3.5591    1.0000 </r>
       <r>   -3.2890    1.0000 </r>
       <r>   -3.1394    1.0000 </r>
       <r>   -3.0142    1.0000 </r>
       <r>   -2.9699    1.0000 </r>
       <r>   -2.8148    1.0000 </r>
       <r>   -2.5228    1.0000 </r>
       <r>   -2.3213    1.0000 </r>
       <r>   -2.2960    1.0000 </r>
       <r>   -2.0202    1.0000 </r>
       <r>   -1.9414    1.0000 </r>
       <r>   -1.9025    1.0000 </r>
       <r>   -1.8732    1.0000 </r>
       <r>   -1.8456    1.0000 </r>
       <r>   -1.7401    1.0000 </r>
       <r>   -1.6798    1.0000 </r>
       <r>   -1.5822    1.0000 </r>
       <r>   -1.4262    1.0000 </r>
       <r>   -1.1839    1.0000 </r>
       <r>   -1.0154    1.0000 </r>
       <r>   -0.8872    1.0000 </r>
       <r>    1.4431    0.0000 </r>
       <r>    1.8367    0.0000 </r>
       <r>    2.2826    0.0000 </r>
       <r>    2.6111    0.0000 </r>
       <r>    2.6419    0.0000 </r>
       <r>    2.6794    0.0000 </r>
       <r>    2.7222    0.0000 </r>
       <r>    2.7357    0.0000 </r>
       <r>    2.7603    0.0000 </r>
       <r>    2.8153    0.0000 </r>
       <r>    2.9690    0.0000 </r>
       <r>    3.0454    0.0000 </r>
      </set>
      <set comment="kpoint 8">
       <r>  -34.6017    1.0000 </r>
       <r>  -33.5188    1.0000 </r>
       <r>  -33.4658    1.0000 </r>
       <r>  -33.3514    1.0000 </r>
       <r>  -17.9170    1.0000 </r>
       <r>  -17.7993    1.0000 </r>
       <r>  -17.6522    1.0000 </r>
       <r>  -17.3793    1.0000 </r>
       <r>  -17.2478    1.0000 </r>
       <r>  -17.1850    1.0000 </r>
       <r>  -17.1178    1.0000 </r>
       <r>  -17.0459    1.0000 </r>
       <r>  -17.0295    1.0000 </r>
       <r>  -16.9880    1.0000 </r>
       <r>  -16.6952    1.0000 </r>
       <r>  -16.5396    1.0000 </r>
       <r>  -16.4654    1.0000 </r>
       <r>  -16.4532    1.0000 </r>
       <r>  -15.7938    1.0000 </r>
       <r>  -15.6170    1.0000 </r>
       <r>  -15.5356    1.0000 </r>
       <r>  -15.4705    1.0000 </r>
       <r>  -15.4246    1.0000 </r>
       <r>  -15.3390    1.0000 </r>
       <r>  -15.3097    1.0000 </r>
       <r>  -15.2398    1.0000 </r>
       <r>  -15.1916    1.0000 </r>
       <r>  -15.1692    1.0000 </r>
       <r>   -4.8798    1.0000 </r>
       <r>   -4.7193    1.0000 </r>
       <r>   -4.6256    1.0000 </r>
       <r>   -4.5447    1.0000 </r>
       <r>   -4.3402    1.0000 </r>
       <r>   -4.2369    1.0000 </r>
       <r>   -4.1633    1.0000 </r>
       <r>   -4.1403    1.0000 </r>
       <r>   -4.1213    1.0000 </r>
       <r>   -4.0502    1.0000 </r>
       <r>   -4.0393    1.0000 </r>
       <r>   -3.9960    1.0000 </r>
       <r>   -3.8933    1.0000 </r>
       <r>   -3.8173    1.0000 </r>
       <r>   -3.7700    1.0000 </r>
       <r>   -3.7370    1.0000 </r>
       <r>   -3.6812    1.0000 </r>
       <r>   -3.6720    1.0000 </r>
       <r>   -3.3316    1.0000 </r>
       <r>   -3.3290    1.0000 </r>
       <r>   -3.1105    1.0000 </r>
       <r>   -2.8006    1.0000 </r>
       <r>   -2.7083    1.0000 </r>
       <r>   -2.2645    1.0000 </r>
       <r>   -2.0654    1.0000 </r>
       <r>   -1.8617    1.0000 </r>
       <r>   -1.6036    1.0000 </r>
       <r>   -1.5632    1.0000 </r>
       <r>   -1.4802    1.0000 </r>
       <r>   -1.4314    1.0000 </r>
       <r>   -1.3775    1.0000 </r>
       <r>   -1.3113    1.0000 </r>
       <r>   -1.2661    1.0000 </r>
       <r>   -1.1657    1.0000 </r>
       <r>   -1.0649    1.0000 </r>
       <r>   -0.5411    1.0000 </r>
       <r>    1.9847    0.0000 </r>
       <r>    2.2122    0.0000 </r>
       <r>    2.2708    0.0000 </r>
       <r>    2.3906    0.0000 </r>
       <r>    2.4808    0.0000 </r>
       <r>    2.5424    0.0000 </r>
       <r>    2.5794    0.0000 </r>
       <r>    2.6397    0.0000 </r>
       <r>    2.6754    0.0000 </r>
       <r>    2.7594    0.0000 </r>
       <r>    2.8937    0.0000 </r>
       <r>    2.9227    0.0000 </r>
      </set>
      <set comment="kpoint 9">
       <r>  -34.5967    1.0000 </r>
       <r>  -33.5129    1.0000 </r>
       <r>  -33.4599    1.0000 </r>
       <r>  -33.3455    1.0000 </r>
       <r>  -17.8501    1.0000 </r>
       <r>  -17.6933    1.0000 </r>
       <r>  -17.4902    1.0000 </r>
       <r>  -17.2962    1.0000 </r>
       <r>  -17.2397    1.0000 </r>
       <r>  -17.1965    1.0000 </r>
       <r>  -17.1025    1.0000 </r>
       <r>  -17.0562    1.0000 </r>
       <r>  -16.9909    1.0000 </r>
       <r>  -16.8338    1.0000 </r>
       <r>  -16.6429    1.0000 </r>
       <r>  -16.5737    1.0000 </r>
       <r>  -16.4687    1.0000 </r>
       <r>  -16.4132    1.0000 </r>
       <r>  -15.8558    1.0000 </r>
       <r>  -15.6527    1.0000 </r>
       <r>  -15.5954    1.0000 </r>
       <r>  -15.4961    1.0000 </r>
       <r>  -15.4244    1.0000 </r>
       <r>  -15.3754    1.0000 </r>
       <r>  -15.2893    1.0000 </r>
       <r>  -15.2746    1.0000 </r>
       <r>  -15.2359    1.0000 </r>
       <r>  -15.1597    1.0000 </r>
       <r>   -5.0391    1.0000 </r>
       <r>   -4.9570    1.0000 </r>
       <r>   -4.8905    1.0000 </r>
       <r>   -4.7094    1.0000 </r>
       <r>   -4.6259    1.0000 </r>
       <r>   -4.6008    1.0000 </r>
       <r>   -4.5262    1.0000 </r>
       <r>   -4.4233    1.0000 </r>
       <r>   -4.3288    1.0000 </r>
       <r>   -4.2853    1.0000 </r>
       <r>   -4.2051    1.0000 </r>
       <r>   -4.1940    1.0000 </r>
       <r>   -4.1135    1.0000 </r>
       <r>   -4.0487    1.0000 </r>
       <r>   -4.0219    1.0000 </r>
       <r>   -3.8518    1.0000 </r>
       <r>   -3.7293    1.0000 </r>
       <r>   -3.6673    1.0000 </r>
       <r>   -3.5755    1.0000 </r>
       <r>   -3.5325    1.0000 </r>
       <r>   -3.2280    1.0000 </r>
       <r>   -3.0931    1.0000 </r>
       <r>   -2.7306    1.0000 </r>
       <r>   -2.1831    1.0000 </r>
       <r>   -2.0969    1.0000 </r>
       <r>   -1.9484    1.0000 </r>
       <r>   -1.6293    1.0000 </r>
       <r>   -1.5711    1.0000 </r>
       <r>   -1.3609    1.0000 </r>
       <r>   -1.2952    1.0000 </r>
       <r>   -1.2453    1.0000 </r>
       <r>   -1.2205    1.0000 </r>
       <r>   -1.2163    1.0000 </r>
       <r>   -1.0848    1.0000 </r>
       <r>   -0.8739    1.0000 </r>
       <r>   -0.3836    1.0000 </r>
       <r>    2.1029    0.0000 </r>
       <r>    2.3666    0.0000 </r>
       <r>    2.6402    0.0000 </r>
       <r>    2.6668    0.0000 </r>
       <r>    2.8251    0.0000 </r>
       <r>    2.8346    0.0000 </r>
       <r>    2.9285    0.0000 </r>
       <r>    2.9395    0.0000 </r>
       <r>    2.9841    0.0000 </r>
       <r>    3.0644    0.0000 </r>
       <r>    3.2235    0.0000 </r>
       <r>    7.0802    0.0000 </r>
      </set>
      <set comment="kpoint 10">
       <r>  -34.5919    1.0000 </r>
       <r>  -33.5073    1.0000 </r>
       <r>  -33.4544    1.0000 </r>
       <r>  -33.3398    1.0000 </r>
       <r>  -17.5805    1.0000 </r>
       <r>  -17.4443    1.0000 </r>
       <r>  -17.3302    1.0000 </r>
       <r>  -17.2838    1.0000 </r>
       <r>  -17.2370    1.0000 </r>
       <r>  -17.1569    1.0000 </r>
       <r>  -17.0462    1.0000 </r>
       <r>  -17.0271    1.0000 </r>
       <r>  -16.9903    1.0000 </r>
       <r>  -16.8217    1.0000 </r>
       <r>  -16.5388    1.0000 </r>
       <r>  -16.4807    1.0000 </r>
       <r>  -16.4572    1.0000 </r>
       <r>  -16.4277    1.0000 </r>
       <r>  -16.1209    1.0000 </r>
       <r>  -15.6971    1.0000 </r>
       <r>  -15.6443    1.0000 </r>
       <r>  -15.6422    1.0000 </r>
       <r>  -15.5253    1.0000 </r>
       <r>  -15.4138    1.0000 </r>
       <r>  -15.3671    1.0000 </r>
       <r>  -15.3138    1.0000 </r>
       <r>  -15.2174    1.0000 </r>
       <r>  -15.1997    1.0000 </r>
       <r>   -5.1543    1.0000 </r>
       <r>   -5.0804    1.0000 </r>
       <r>   -5.0228    1.0000 </r>
       <r>   -4.9816    1.0000 </r>
       <r>   -4.7852    1.0000 </r>
       <r>   -4.7726    1.0000 </r>
       <r>   -4.7081    1.0000 </r>
       <r>   -4.7045    1.0000 </r>
       <r>   -4.6618    1.0000 </r>
       <r>   -4.5545    1.0000 </r>
       <r>   -4.4682    1.0000 </r>
       <r>   -4.3454    1.0000 </r>
       <r>   -4.3390    1.0000 </r>
       <r>   -4.2768    1.0000 </r>
       <r>   -4.0958    1.0000 </r>
       <r>   -4.0369    1.0000 </r>
       <r>   -4.0310    1.0000 </r>
       <r>   -3.8703    1.0000 </r>
       <r>   -3.7167    1.0000 </r>
       <r>   -3.6793    1.0000 </r>
       <r>   -3.3018    1.0000 </r>
       <r>   -3.1759    1.0000 </r>
       <r>   -3.0078    1.0000 </r>
       <r>   -2.0478    1.0000 </r>
       <r>   -2.0467    1.0000 </r>
       <r>   -1.9814    1.0000 </r>
       <r>   -1.5791    1.0000 </r>
       <r>   -1.5385    1.0000 </r>
       <r>   -1.1787    1.0000 </r>
       <r>   -1.1396    1.0000 </r>
       <r>   -0.9102    1.0000 </r>
       <r>   -0.9086    1.0000 </r>
       <r>   -0.8956    1.0000 </r>
       <r>   -0.8354    1.0000 </r>
       <r>   -0.8263    1.0000 </r>
       <r>   -0.0535    1.0000 </r>
       <r>    2.6334    0.0000 </r>
       <r>    2.6842    0.0000 </r>
       <r>    2.8359    0.0000 </r>
       <r>    2.8783    0.0000 </r>
       <r>    3.0546    0.0000 </r>
       <r>    3.0787    0.0000 </r>
       <r>    3.1104    0.0000 </r>
       <r>    3.1843    0.0000 </r>
       <r>    3.2243    0.0000 </r>
       <r>    6.4724    0.0000 </r>
       <r>    6.5593    0.0000 </r>
       <r>    6.8137    0.0000 </r>
      </set>
     </set>
    </set>
   </array>
  </eigenvalues>
  <separator name="orbital magnetization" >
   <v name="MAGDIPOLOUT">      0.00000000      0.00000000      0.00000000</v>
  </separator>
  <dos>
   <i name="efermi">      0.02931907 </i>
   <total>
    <array>
     <dimension dim="1">gridpoints</dimension>
     <dimension dim="2">spin</dimension>
     <field>energy</field>
     <field>total</field>
     <field>integrated</field>
     <set>
      <set comment="spin 1">
       <r>   -36.7053     0.0000     0.0000 </r>
       <r>   -36.5524     0.0000     0.0000 </r>
       <r>   -36.3995     0.0000     0.0000 </r>
       <r>   -36.2466     0.0000     0.0000 </r>
       <r>   -36.0937     0.0000     0.0000 </r>
       <r>   -35.9408     0.0000     0.0000 </r>
       <r>   -35.7879     0.0000     0.0000 </r>
       <r>   -35.6350     0.0000     0.0000 </r>
       <r>   -35.4821     0.0000     0.0000 </r>
       <r>   -35.3292     0.0000     0.0000 </r>
       <r>   -35.1763     0.0000     0.0000 </r>
       <r>   -35.0234     0.0000     0.0000 </r>
       <r>   -34.8705     0.0000     0.0000 </r>
       <r>   -34.7176     0.0000     0.0000 </r>
       <r>   -34.5647     0.0000     2.0000 </r>
       <r>   -34.4118     0.0000     2.0000 </r>
       <r>   -34.2589     0.0000     2.0000 </r>
       <r>   -34.1060     0.0000     2.0000 </r>
       <r>   -33.9531     0.0000     2.0000 </r>
       <r>   -33.8002     0.0000     2.0000 </r>
       <r>   -33.6473     0.0000     2.0000 </r>
       <r>   -33.4944     0.0000     4.0000 </r>
       <r>   -33.3415    37.3220     7.9041 </r>
       <r>   -33.1886     0.0000     8.0000 </r>
       <r>   -33.0357     0.0000     8.0000 </r>
       <r>   -32.8828     0.0000     8.0000 </r>
       <r>   -32.7299     0.0000     8.0000 </r>
       <r>   -32.5770     0.0000     8.0000 </r>
       <r>   -32.4241     0.0000     8.0000 </r>
       <r>   -32.2712     0.0000     8.0000 </r>
       <r>   -32.1183     0.0000     8.0000 </r>
       <r>   -31.9654     0.0000     8.0000 </r>
       <r>   -31.8125     0.0000     8.0000 </r>
       <r>   -31.6596     0.0000     8.0000 </r>
       <r>   -31.5067     0.0000     8.0000 </r>
       <r>   -31.3538     0.0000     8.0000 </r>
       <r>   -31.2009     0.0000     8.0000 </r>
       <r>   -31.0480     0.0000     8.0000 </r>
       <r>   -30.8951     0.0000     8.0000 </r>
       <r>   -30.7422     0.0000     8.0000 </r>
       <r>   -30.5893     0.0000     8.0000 </r>
       <r>   -30.4364     0.0000     8.0000 </r>
       <r>   -30.2835     0.0000     8.0000 </r>
       <r>   -30.1305     0.0000     8.0000 </r>
       <r>   -29.9776     0.0000     8.0000 </r>
       <r>   -29.8247     0.0000     8.0000 </r>
       <r>   -29.6718     0.0000     8.0000 </r>
       <r>   -29.5189     0.0000     8.0000 </r>
       <r>   -29.3660     0.0000     8.0000 </r>
       <r>   -29.2131     0.0000     8.0000 </r>
       <r>   -29.0602     0.0000     8.0000 </r>
       <r>   -28.9073     0.0000     8.0000 </r>
       <r>   -28.7544     0.0000     8.0000 </r>
       <r>   -28.6015     0.0000     8.0000 </r>
       <r>   -28.4486     0.0000     8.0000 </r>
       <r>   -28.2957     0.0000     8.0000 </r>
       <r>   -28.1428     0.0000     8.0000 </r>
       <r>   -27.9899     0.0000     8.0000 </r>
       <r>   -27.8370     0.0000     8.0000 </r>
       <r>   -27.6841     0.0000     8.0000 </r>
       <r>   -27.5312     0.0000     8.0000 </r>
       <r>   -27.3783     0.0000     8.0000 </r>
       <r>   -27.2254     0.0000     8.0000 </r>
       <r>   -27.0725     0.0000     8.0000 </r>
       <r>   -26.9196     0.0000     8.0000 </r>
       <r>   -26.7667     0.0000     8.0000 </r>
       <r>   -26.6138     0.0000     8.0000 </r>
       <r>   -26.4609     0.0000     8.0000 </r>
       <r>   -26.3080     0.0000     8.0000 </r>
       <r>   -26.1551     0.0000     8.0000 </r>
       <r>   -26.0022     0.0000     8.0000 </r>
       <r>   -25.8493     0.0000     8.0000 </r>
       <r>   -25.6964     0.0000     8.0000 </r>
       <r>   -25.5435     0.0000     8.0000 </r>
       <r>   -25.3906     0.0000     8.0000 </r>
       <r>   -25.2377     0.0000     8.0000 </r>
       <r>   -25.0848     0.0000     8.0000 </r>
       <r>   -24.9319     0.0000     8.0000 </r>
       <r>   -24.7790     0.0000     8.0000 </r>
       <r>   -24.6261     0.0000     8.0000 </r>
       <r>   -24.4732     0.0000     8.0000 </r>
       <r>   -24.3203     0.0000     8.0000 </r>
       <r>   -24.1674     0.0000     8.0000 </r>
       <r>   -24.0145     0.0000     8.0000 </r>
       <r>   -23.8616     0.0000     8.0000 </r>
       <r>   -23.7087     0.0000     8.0000 </r>
       <r>   -23.5558     0.0000     8.0000 </r>
       <r>   -23.4029     0.0000     8.0000 </r>
       <r>   -23.2500     0.0000     8.0000 </r>
       <r>   -23.0971     0.0000     8.0000 </r>
       <r>   -22.9442     0.0000     8.0000 </r>
       <r>   -22.7913     0.0000     8.0000 </r>
       <r>   -22.6384     0.0000     8.0000 </r>
       <r>   -22.4855     0.0000     8.0000 </r>
       <r>   -22.3326     0.0000     8.0000 </r>
       <r>   -22.1797     0.0000     8.0000 </r>
       <r>   -22.0268     0.0000     8.0000 </r>
       <r>   -21.8739     0.0000     8.0000 </r>
       <r>   -21.7210     0.0000     8.0000 </r>
       <r>   -21.5681     0.0000     8.0000 </r>
       <r>   -21.4152     0.0000     8.0000 </r>
       <r>   -21.2622     0.0000     8.0000 </r>
       <r>   -21.1093     0.0000     8.0000 </r>
       <r>   -20.9564     0.0000     8.0000 </r>
       <r>   -20.8035     0.0000     8.0000 </r>
       <r>   -20.6506     0.0000     8.0000 </r>
       <r>   -20.4977     0.0000     8.0000 </r>
       <r>   -20.3448     0.0000     8.0000 </r>
       <r>   -20.1919     0.0000     8.0000 </r>
       <r>   -20.0390     0.0000     8.0000 </r>
       <r>   -19.8861     0.0000     8.0000 </r>
       <r>   -19.7332     0.0000     8.0000 </r>
       <r>   -19.5803     0.0000     8.0000 </r>
       <r>   -19.4274     0.0000     8.0000 </r>
       <r>   -19.2745     0.0000     8.0000 </r>
       <r>   -19.1216     0.0000     8.0000 </r>
       <r>   -18.9687     0.0000     8.0000 </r>
       <r>   -18.8158     0.0000     8.0000 </r>
       <r>   -18.6629     0.0000     8.0000 </r>
       <r>   -18.5100     0.0000     8.0000 </r>
       <r>   -18.3571     0.0000     8.0000 </r>
       <r>   -18.2042     0.7670     8.0113 </r>
       <r>   -18.0513    14.0356     9.4537 </r>
       <r>   -17.8984     8.4424    11.2672 </r>
       <r>   -17.7455     8.0460    12.4611 </r>
       <r>   -17.5926     3.9468    13.2894 </r>
       <r>   -17.4397     8.3358    14.9071 </r>
       <r>   -17.2868    23.9821    16.5168 </r>
       <r>   -17.1339    42.2646    20.1468 </r>
       <r>   -16.9810     6.7494    26.0599 </r>
       <r>   -16.8281    26.3374    28.1916 </r>
       <r>   -16.6752     7.0109    29.4779 </r>
       <r>   -16.5223    36.5826    31.5610 </r>
       <r>   -16.3694     0.0000    36.0000 </r>
       <r>   -16.2165     0.1793    36.0058 </r>
       <r>   -16.0636     1.3957    36.1469 </r>
       <r>   -15.9107     2.5755    36.4672 </r>
       <r>   -15.7578     5.9734    37.1568 </r>
       <r>   -15.6049    20.4499    38.7844 </r>
       <r>   -15.4520    34.6209    43.9743 </r>
       <r>   -15.2991    35.2231    48.8625 </r>
       <r>   -15.1462    24.0014    54.0291 </r>
       <r>   -14.9933     0.0000    56.0000 </r>
       <r>   -14.8404     0.0000    56.0000 </r>
       <r>   -14.6875     0.0000    56.0000 </r>
       <r>   -14.5346     0.0000    56.0000 </r>
       <r>   -14.3817     0.0000    56.0000 </r>
       <r>   -14.2288     0.0000    56.0000 </r>
       <r>   -14.0759     0.0000    56.0000 </r>
       <r>   -13.9230     0.0000    56.0000 </r>
       <r>   -13.7701     0.0000    56.0000 </r>
       <r>   -13.6172     0.0000    56.0000 </r>
       <r>   -13.4643     0.0000    56.0000 </r>
       <r>   -13.3114     0.0000    56.0000 </r>
       <r>   -13.1585     0.0000    56.0000 </r>
       <r>   -13.0056     0.0000    56.0000 </r>
       <r>   -12.8527     0.0000    56.0000 </r>
       <r>   -12.6998     0.0000    56.0000 </r>
       <r>   -12.5468     0.0000    56.0000 </r>
       <r>   -12.3939     0.0000    56.0000 </r>
       <r>   -12.2410     0.0000    56.0000 </r>
       <r>   -12.0881     0.0000    56.0000 </r>
       <r>   -11.9352     0.0000    56.0000 </r>
       <r>   -11.7823     0.0000    56.0000 </r>
       <r>   -11.6294     0.0000    56.0000 </r>
       <r>   -11.4765     0.0000    56.0000 </r>
       <r>   -11.3236     0.0000    56.0000 </r>
       <r>   -11.1707     0.0000    56.0000 </r>
       <r>   -11.0178     0.0000    56.0000 </r>
       <r>   -10.8649     0.0000    56.0000 </r>
       <r>   -10.7120     0.0000    56.0000 </r>
       <r>   -10.5591     0.0000    56.0000 </r>
       <r>   -10.4062     0.0000    56.0000 </r>
       <r>   -10.2533     0.0000    56.0000 </r>
       <r>   -10.1004     0.0000    56.0000 </r>
       <r>    -9.9475     0.0000    56.0000 </r>
       <r>    -9.7946     0.0000    56.0000 </r>
       <r>    -9.6417     0.0000    56.0000 </r>
       <r>    -9.4888     0.0000    56.0000 </r>
       <r>    -9.3359     0.0000    56.0000 </r>
       <r>    -9.1830     0.0000    56.0000 </r>
       <r>    -9.0301     0.0000    56.0000 </r>
       <r>    -8.8772     0.0000    56.0000 </r>
       <r>    -8.7243     0.0000    56.0000 </r>
       <r>    -8.5714     0.0000    56.0000 </r>
       <r>    -8.4185     0.0000    56.0000 </r>
       <r>    -8.2656     0.0000    56.0000 </r>
       <r>    -8.1127     0.0000    56.0000 </r>
       <r>    -7.9598     0.0000    56.0000 </r>
       <r>    -7.8069     0.0000    56.0000 </r>
       <r>    -7.6540     0.0000    56.0000 </r>
       <r>    -7.5011     0.0000    56.0000 </r>
       <r>    -7.3482     0.0000    56.0000 </r>
       <r>    -7.1953     0.0000    56.0000 </r>
       <r>    -7.0424     0.0000    56.0000 </r>
       <r>    -6.8895     0.0000    56.0000 </r>
       <r>    -6.7366     0.0000    56.0000 </r>
       <r>    -6.5837     0.0000    56.0000 </r>
       <r>    -6.4308     0.0000    56.0000 </r>
       <r>    -6.2779     0.0000    56.0000 </r>
       <r>    -6.1250     0.0000    56.0000 </r>
       <r>    -5.9721     0.0000    56.0000 </r>
       <r>    -5.8192     0.0000    56.0000 </r>
       <r>    -5.6663     0.0000    56.0000 </r>
       <r>    -5.5134     0.0000    56.0000 </r>
       <r>    -5.3605     0.0000    56.0000 </r>
       <r>    -5.2076     0.0000    56.0000 </r>
       <r>    -5.0547     4.1013    56.3162 </r>
       <r>    -4.9018    15.9989    58.4381 </r>
       <r>    -4.7489    10.6509    60.9039 </r>
       <r>    -4.5960    17.1309    63.3081 </r>
       <r>    -4.4431    25.1883    65.8219 </r>
       <r>    -4.2902    14.8313    68.2825 </r>
       <r>    -4.1373    15.6421    70.9390 </r>
       <r>    -3.9844    20.5415    73.8472 </r>
       <r>    -3.8314    21.5975    76.9151 </r>
       <r>    -3.6785    27.3405    80.6787 </r>
       <r>    -3.5256    21.6162    84.7487 </r>
       <r>    -3.3727    12.6824    87.2209 </r>
       <r>    -3.2198    13.1929    89.3173 </r>
       <r>    -3.0669    12.5653    91.4730 </r>
       <r>    -2.9140    13.5902    93.5053 </r>
       <r>    -2.7611    11.5117    95.5293 </r>
       <r>    -2.6082    11.4613    97.2275 </r>
       <r>    -2.4553    11.8269    98.7322 </r>
       <r>    -2.3024     9.2653   100.4896 </r>
       <r>    -2.1495    10.3372   102.7987 </r>
       <r>    -1.9966    14.5754   105.2842 </r>
       <r>    -1.8437    23.9963   108.5308 </r>
       <r>    -1.6908    21.1688   111.8798 </r>
       <r>    -1.5379    14.0451   115.8673 </r>
       <r>    -1.3850    19.1914   118.5503 </r>
       <r>    -1.2321    19.4716   121.5659 </r>
       <r>    -1.0792    11.7906   124.1527 </r>
       <r>    -0.9263    12.7171   125.8049 </r>
       <r>    -0.7734     2.0214   127.2037 </r>
       <r>    -0.6205     1.1928   127.4368 </r>
       <r>    -0.4676     1.1031   127.6040 </r>
       <r>    -0.3147     0.9552   127.7698 </r>
       <r>    -0.1618     0.6856   127.8953 </r>
       <r>    -0.0089     0.0000   128.0000 </r>
       <r>     0.1440     0.0000   128.0000 </r>
       <r>     0.2969     0.0000   128.0000 </r>
       <r>     0.4498     0.0000   128.0000 </r>
       <r>     0.6027     0.0000   128.0000 </r>
       <r>     0.7556     0.0000   128.0000 </r>
       <r>     0.9085     0.0000   128.0000 </r>
       <r>     1.0614     1.5414   128.0990 </r>
       <r>     1.2143     3.8783   128.5912 </r>
       <r>     1.3672     4.9615   129.2456 </r>
       <r>     1.5201     4.8648   129.9708 </r>
       <r>     1.6730     8.1079   130.9650 </r>
       <r>     1.8259     7.2985   132.2120 </r>
       <r>     1.9788     7.1568   133.2695 </r>
       <r>     2.1317    11.4102   134.6590 </r>
       <r>     2.2846    11.3651   136.4882 </r>
       <r>     2.4375    13.9022   138.4284 </r>
       <r>     2.5904    20.3894   140.7263 </r>
       <r>     2.7433    15.9529   144.0745 </r>
       <r>     2.8962    11.4502   146.6435 </r>
       <r>     3.0491     7.8477   148.4724 </r>
       <r>     3.2020     2.4418   149.2896 </r>
       <r>     3.3549     0.8089   149.4894 </r>
       <r>     3.5078     0.7920   149.6118 </r>
       <r>     3.6607     0.7751   149.7316 </r>
       <r>     3.8136     0.7582   149.8488 </r>
       <r>     3.9665     0.7413   149.9634 </r>
       <r>     4.1194     0.7244   150.0755 </r>
       <r>     4.2723     0.7074   150.1849 </r>
       <r>     4.4252     0.6905   150.2918 </r>
       <r>     4.5781     0.6736   150.3961 </r>
       <r>     4.7310     0.6567   150.4978 </r>
       <r>     4.8839     0.6747   150.5973 </r>
       <r>     5.0369     1.0230   150.7235 </r>
       <r>     5.1898     1.4403   150.9119 </r>
       <r>     5.3427     1.3901   151.1586 </r>
       <r>     5.4956     0.5628   151.2846 </r>
       <r>     5.6485     0.4822   151.3645 </r>
       <r>     5.8014     0.4015   151.4321 </r>
       <r>     5.9543     0.3209   151.4873 </r>
       <r>     6.1072     0.2403   151.5302 </r>
       <r>     6.2601     0.2203   151.5647 </r>
       <r>     6.4130     0.2120   151.5977 </r>
       <r>     6.5659     0.1089   151.7064 </r>
       <r>     6.7188     0.1069   151.7229 </r>
       <r>     6.8717     0.7750   151.8171 </r>
       <r>     7.0246     0.9247   151.9471 </r>
       <r>     7.1775     0.0000   152.0000 </r>
       <r>     7.3304     0.0000   152.0000 </r>
       <r>     7.4833     0.0000   152.0000 </r>
       <r>     7.6362     0.0000   152.0000 </r>
       <r>     7.7891     0.0000   152.0000 </r>
       <r>     7.9420     0.0000   152.0000 </r>
       <r>     8.0949     0.0000   152.0000 </r>
       <r>     8.2478     0.0000   152.0000 </r>
       <r>     8.4007     0.0000   152.0000 </r>
       <r>     8.5536     0.0000   152.0000 </r>
       <r>     8.7065     0.0000   152.0000 </r>
       <r>     8.8594     0.0000   152.0000 </r>
       <r>     9.0123     0.0000   152.0000 </r>
       <r>     9.1652     0.0000   152.0000 </r>
      </set>
     </set>
    </array>
   </total>
  </dos>
 </calculation>
 <structure name="finalpos" >
  <crystal>
   <varray name="basis" >
    <v>       3.94684634       0.00000000       0.00000000 </v>
    <v>       0.00000000       3.94684634       0.00000000 </v>
    <v>       0.00000000       0.00000000      29.81396220 </v>
   </varray>
   <i name="volume">    464.42985957 </i>
   <varray name="rec_basis" >
    <v>       0.25336684       0.00000000       0.00000000 </v>
    <v>       0.00000000       0.25336684       0.00000000 </v>
    <v>       0.00000000       0.00000000       0.03354133 </v>
   </varray>
  </crystal>
  <varray name="positions" >
   <v>       0.50000000       0.50000000       0.26833065 </v>
   <v>       0.50000000       0.00000000       0.33452190 </v>
   <v>       0.00000000       0.50000000       0.33452190 </v>
   <v>       0.50000000       0.50000000       0.40071314 </v>
   <v>       0.50000000       0.00000000       0.46690438 </v>
   <v>       0.00000000       0.50000000       0.46690438 </v>
   <v>       0.50000000       0.50000000       0.53309562 </v>
   <v>       0.50000000       0.00000000       0.59928686 </v>
   <v>       0.00000000       0.50000000       0.59928686 </v>
   <v>       0.50000000       0.50000000       0.66547810 </v>
   <v>       0.50000000       0.00000000       0.73166935 </v>
   <v>       0.00000000       0.50000000       0.73166935 </v>
   <v>       0.00000000       0.00000000       0.26833065 </v>
   <v>       0.00000000       0.00000000       0.40071314 </v>
   <v>       0.00000000       0.00000000       0.53309562 </v>
   <v>       0.00000000       0.00000000       0.66547810 </v>
   <v>       0.50000000       0.50000000       0.33452190 </v>
   <v>       0.50000000       0.50000000       0.46690438 </v>
   <v>       0.50000000       0.50000000       0.59928686 </v>
   <v>       0.50000000       0.50000000       0.73166935 </v>
  </varray>
 </structure>
</modeling>
