unknown system                          
           1
     3.946846    0.000000    0.000000
     0.000000    3.946846    0.000000
     0.000000    0.000000   29.813962
   O    Sr   Ti
  12   4   4
Direct configuration=     1
   0.50000000  0.50000000  0.26833065
   0.50000000  0.00000000  0.33452190
   0.00000000  0.50000000  0.33452190
   0.50000000  0.50000000  0.40071314
   0.50000000  0.00000000  0.46690438
   0.00000000  0.50000000  0.46690438
   0.50000000  0.50000000  0.53309562
   0.50000000  0.00000000  0.59928686
   0.00000000  0.50000000  0.59928686
   0.50000000  0.50000000  0.66547810
   0.50000000  0.00000000  0.73166935
   0.00000000  0.50000000  0.73166935
   0.00000000  0.00000000  0.26833065
   0.00000000  0.00000000  0.40071314
   0.00000000  0.00000000  0.53309562
   0.00000000  0.00000000  0.66547810
   0.50000000  0.50000000  0.33452190
   0.50000000  0.50000000  0.46690438
   0.50000000  0.50000000  0.59928686
   0.50000000  0.50000000  0.73166935
