   25   25    1    1
  0.1012713E+03  0.5431010E-09  0.2159101E-08  0.2159101E-08  0.5000000E-15
  1.000000000000000E-004
  CAR 
 unknown system                          
     64      3     46
 
  0.0000000E+00  0.0000000E+00  0.0000000E+00  0.2000000E+00
    1      -14.619378   1.000000
    2      -13.423557   1.000000
    3      -13.423513   1.000000
    4      -12.569442   1.000000
    5      -11.995191   1.000000
    6      -11.933224   1.000000
    7      -11.807468   1.000000
    8      -11.807467   1.000000
    9      -11.612494   1.000000
   10      -10.799682   1.000000
   11      -10.311876   1.000000
   12      -10.311860   1.000000
   13       -8.914977   1.000000
   14       -7.646990   1.000000
   15       -7.491629   1.000000
   16       -7.491599   1.000000
   17       -7.440398   1.000000
   18       -7.157888   1.000000
   19       -7.157885   1.000000
   20       -7.142770   1.000000
   21       -7.133849   1.000000
   22       -6.983573   1.000000
   23       -6.617240   1.000000
   24       -6.617231   1.000000
   25       -5.916194   1.000000
   26       -5.820993   1.000000
   27       -5.818156   1.000000
   28       -5.818141   1.000000
   29       -4.310493   1.000000
   30       -3.997189   1.000000
   31       -3.997164   1.000000
   32       -3.787362   1.000000
   33       -2.651213   0.000000
   34       -2.651198   0.000000
   35       -2.648819   0.000000
   36       -2.017563   0.000000
   37       -1.809709   0.000000
   38       -1.708853   0.000000
   39       -0.927521   0.000000
   40       -0.901812   0.000000
   41       -0.901768   0.000000
   42       -0.723663   0.000000
   43       -0.327372   0.000000
   44       -0.327334   0.000000
   45       -0.148599   0.000000
   46        0.387373   0.000000
 
  0.2000000E+00  0.0000000E+00  0.0000000E+00  0.4000000E+00
    1      -14.470856   1.000000
    2      -13.349008   1.000000
    3      -13.348961   1.000000
    4      -12.768878   1.000000
    5      -11.972285   1.000000
    6      -11.916529   1.000000
    7      -11.893625   1.000000
    8      -11.877185   1.000000
    9      -11.877180   1.000000
   10      -10.481939   1.000000
   11      -10.338959   1.000000
   12      -10.338945   1.000000
   13       -9.035746   1.000000
   14       -7.829151   1.000000
   15       -7.829129   1.000000
   16       -7.753922   1.000000
   17       -7.422796   1.000000
   18       -7.177539   1.000000
   19       -7.094126   1.000000
   20       -7.094125   1.000000
   21       -6.996024   1.000000
   22       -6.725069   1.000000
   23       -6.447619   1.000000
   24       -6.447619   1.000000
   25       -6.129765   1.000000
   26       -6.025073   1.000000
   27       -5.703524   1.000000
   28       -5.703524   1.000000
   29       -4.589966   1.000000
   30       -3.986710   1.000000
   31       -3.986695   1.000000
   32       -3.212120   0.964050
   33       -2.830205   0.000158
   34       -2.623130   0.000000
   35       -2.623112   0.000000
   36       -2.193703   0.000000
   37       -1.783406   0.000000
   38       -1.099751   0.000000
   39       -1.011284   0.000000
   40       -1.011282   0.000000
   41       -0.722657   0.000000
   42       -0.545299   0.000000
   43       -0.229554   0.000000
   44       -0.201552   0.000000
   45       -0.201549   0.000000
   46        0.596465   0.000000
 
  0.4000000E+00  0.0000000E+00  0.0000000E+00  0.4000000E+00
    1      -14.043924   1.000000
    2      -13.389771   1.000000
    3      -13.202248   1.000000
    4      -13.202193   1.000000
    5      -12.038789   1.000000
    6      -12.023819   1.000000
    7      -12.023806   1.000000
    8      -11.933949   1.000000
    9      -11.856226   1.000000
   10      -10.379153   1.000000
   11      -10.379142   1.000000
   12      -10.160089   1.000000
   13       -9.235340   1.000000
   14       -8.115941   1.000000
   15       -8.115922   1.000000
   16       -7.865480   1.000000
   17       -7.397662   1.000000
   18       -7.295906   1.000000
   19       -7.072627   1.000000
   20       -7.072626   1.000000
   21       -6.966140   1.000000
   22       -6.489578   1.000000
   23       -6.227860   1.000000
   24       -6.227836   1.000000
   25       -6.173965   1.000000
   26       -6.171362   1.000000
   27       -5.802545   1.000000
   28       -5.802513   1.000000
   29       -4.507898   1.000000
   30       -3.810278   1.000000
   31       -3.810276   1.000000
   32       -3.362182   0.999956
   33       -2.957494   0.035836
   34       -2.478852   0.000000
   35       -2.478833   0.000000
   36       -2.242278   0.000000
   37       -1.456997   0.000000
   38       -0.988151   0.000000
   39       -0.988134   0.000000
   40       -0.647287   0.000000
   41       -0.497318   0.000000
   42       -0.169935   0.000000
   43       -0.116659   0.000000
   44       -0.116656   0.000000
   45        0.166828   0.000000
   46        0.600539   0.000000
