unknown system                          
   1.00000000000000     
     5.431010    0.000000    0.000000
     0.000000   21.591010    0.000000
     0.000000    0.000000   21.591010
   Si   H 
    13    12
Direct
  0.000000  0.000000  0.000000
  0.499999  0.125770  0.000000
  0.250000  0.062885  0.062885
  0.750000  0.188655  0.062885
  0.000000  0.125770  0.125770
  0.499999  0.000000  0.125770
  0.250000  0.188655  0.188655
  0.750000  0.062885  0.188655
  0.000000  0.000000  0.251540
  0.499999  0.125770  0.251540
  0.000000  0.251540  0.000000
  0.499999  0.251540  0.125770
  0.000000  0.251540  0.251540
  0.000000  0.000000  0.316382
  0.499999  0.125770  0.316382
  0.000000  0.251540  0.316382
  0.000000  0.000000  0.935158
  0.499999  0.125770  0.935158
  0.000000  0.251540  0.935158
  0.000000  0.316382  0.000000
  0.499999  0.316382  0.125770
  0.000000  0.316382  0.251540
  0.000000  0.935158  0.000000
  0.499999  0.935158  0.125770
  0.000000  0.935158  0.251540
 
   24   84   84
 0.39156E-01 0.64300E-01 0.20004     0.45987     0.65051     0.69529     0.62634     0.48777     0.32913     0.17292    
 0.78570E-01 0.43573E-01 0.43038E-01 0.72057E-01 0.17139     0.39636     0.59215     0.70888     0.78527     0.82069    
 0.77394     0.59292     0.27961     0.83184E-01 0.12487     0.21012     0.47820     0.71731     0.80620     0.79606    
 0.71424     0.57295     0.38592     0.20760     0.10430     0.62860E-01 0.57535E-01 0.82035E-01 0.16921     0.38195    
 0.62199     0.75998     0.82967     0.87202     0.86520     0.77500     0.51917     0.21827     0.36104     0.48778    
 0.70590     0.82981     0.85943     0.82638     0.73383     0.57432     0.38153     0.22784     0.13992     0.99095E-01
 0.87736E-01 0.10296     0.16773     0.32711     0.56188     0.74451     0.83580     0.87994     0.88619     0.83722    
 0.68517     0.45435     0.58680     0.67421     0.79069     0.84903     0.84755     0.79254     0.67961     0.52302    
 0.37546     0.27184     0.21028     0.17673     0.15864     0.15756     0.19475     0.29334     0.45780     0.64341    
 0.77747     0.84556     0.86610     0.83978     0.75277     0.63007     0.65869     0.70911     0.76921     0.79054    
 0.76321     0.69065     0.58750     0.48756     0.41675     0.37433     0.34908     0.32598     0.29510     0.26898    
 0.26957     0.30983     0.39011     0.50607     0.63430     0.73089     0.77794     0.77688     0.73153     0.67199    
 0.55822     0.59210     0.62653     0.63245     0.60538     0.55969     0.52152     0.51131     0.52644     0.54844    
 0.55504     0.53105     0.48400     0.43745     0.40574     0.39027     0.39326     0.41988     0.47135     0.53486    
 0.58278     0.59682     0.57963     0.55566     0.32697     0.35983     0.39669     0.42337     0.44191     0.47033    
 0.52595     0.60561     0.68325     0.73236     0.73928     0.70437     0.64831     0.60202     0.57079     0.53276    
 0.47739     0.41934     0.37669     0.35695     0.35382     0.34521     0.32461     0.31379     0.14881     0.17628    
 0.21319     0.26355     0.34051     0.45463     0.59530     0.72357     0.80699     0.83852     0.82006     0.75588    
 0.67635     0.63636     0.64333     0.64717     0.60133     0.50069     0.38020     0.27622     0.20602     0.16511    
 0.14211     0.13595     0.52462E-01 0.72119E-01 0.11059     0.18385     0.31180     0.49220     0.67243     0.79847    
 0.85807     0.85825     0.79488     0.65865     0.51934     0.49089     0.56937     0.65775     0.67714     0.60219    
 0.45501     0.29203     0.16407     0.89248E-01 0.55491E-01 0.46093E-01 0.23477E-01 0.36405E-01 0.71884E-01 0.15681    
 0.31571     0.52479     0.70550     0.81536     0.84866     0.80587     0.64963     0.38847     0.22522     0.24069    
 0.40700     0.60555     0.70009     0.67314     0.54228     0.35633     0.18659     0.79804E-01 0.35857E-01 0.22651E-01
 0.13014E-01 0.20098E-01 0.47471E-01 0.12926     0.29372     0.50830     0.68636     0.78724     0.79519     0.69028    
 0.42146     0.15180     0.70010E-01 0.11079     0.31262     0.58852     0.72684     0.72798     0.62054     0.43364    
 0.23632     0.94924E-01 0.34564E-01 0.15794E-01 0.14282E-01 0.17434E-01 0.36355E-01 0.99640E-01 0.24145     0.44566    
 0.62861     0.73556     0.73276     0.59384     0.31250     0.10599     0.63116E-01 0.13642     0.39687     0.67398    
 0.78668     0.78094     0.68161     0.50051     0.28997     0.12429     0.47304E-01 0.20751E-01 0.19387E-01 0.19536E-01
 0.33673E-01 0.80838E-01 0.19112     0.36714     0.55211     0.68091     0.70191     0.59907     0.38734     0.21388    
 0.19305     0.34850     0.62143     0.79375     0.84388     0.81371     0.70623     0.52496     0.31617     0.15286    
 0.66937E-01 0.31110E-01 0.50016E-01 0.43565E-01 0.52176E-01 0.86054E-01 0.16412     0.29904     0.46631     0.61344    
 0.68205     0.65288     0.55084     0.46005     0.48449     0.63280     0.78361     0.85551     0.85993     0.80369    
 0.67984     0.49792     0.31195     0.17883     0.10512     0.68256E-01 0.12528     0.11393     0.12245     0.14892    
 0.19528     0.27363     0.38707     0.51443     0.61501     0.65438     0.64170     0.62785     0.66730     0.75235    
 0.82255     0.84544     0.81765     0.73656     0.60635     0.45745     0.33311     0.24840     0.19305     0.15318    
 0.30559     0.29153     0.29913     0.31727     0.32844     0.34026     0.37157     0.42597     0.49320     0.55201    
 0.58800     0.61586     0.66112     0.71880     0.75620     0.75149     0.70279     0.62120     0.53207     0.46410    
 0.42452     0.39889     0.37067     0.33623     0.52811     0.52373     0.54603     0.56398     0.55220     0.50845    
 0.45410     0.41468     0.39952     0.40592     0.42729     0.46148     0.50924     0.55769     0.58252     0.57394    
 0.54545     0.51984     0.51767     0.54454     0.58262     0.60562     0.59763     0.56249     0.65729     0.66820    
 0.72158     0.76155     0.75868     0.70866     0.61198     0.49073     0.38628     0.31636     0.28370     0.28802    
 0.31749     0.35068     0.37308     0.39318     0.42685     0.48668     0.57618     0.67384     0.74619     0.77602    
 0.75875     0.70409     0.60540     0.64321     0.75520     0.83609     0.85970     0.83621     0.76352     0.62554    
 0.44577     0.29229     0.20131     0.16837     0.17224     0.19150     0.22359     0.28118     0.37750     0.51635    
 0.66853     0.78302     0.84119     0.84623     0.79361     0.68681     0.39512     0.48263     0.69849     0.84024    
 0.88599     0.87822     0.83305     0.73540     0.54998     0.31994     0.16938     0.10759     0.93990E-01 0.10632    
 0.14626     0.23161     0.37906     0.56939     0.73055     0.82585     0.86128     0.83644     0.72357     0.51974    
 0.14899     0.24787     0.54854     0.78847     0.87089     0.87464     0.83377     0.76039     0.62251     0.37263    
 0.16954     0.83431E-01 0.60004E-01 0.66476E-01 0.10730     0.21154     0.38665     0.57922     0.72046     0.80377    
 0.81764     0.73997     0.51738     0.24442     0.41479E-01 0.89370E-01 0.30301     0.62181     0.79160     0.83040    
 0.79469     0.71461     0.60705     0.39164     0.17509     0.72607E-01 0.44580E-01 0.46023E-01 0.80695E-01 0.18097    
 0.33733     0.50416     0.63990     0.71350     0.67696     0.49587     0.22356     0.70603E-01 0.10996     0.14852    
 0.26480     0.46269     0.63617     0.71380     0.70611     0.63082     0.51465     0.34155     0.16114     0.61783E-01
 0.34035E-01 0.33099E-01 0.58312E-01 0.13114     0.24408     0.38670     0.50516     0.54725     0.47886     0.32756    
 0.18710     0.11958     0.71256     0.67013     0.59715     0.57249     0.57163     0.55488     0.53984     0.50966    
 0.39541     0.24399     0.12444     0.47899E-01 0.25157E-01 0.23712E-01 0.40392E-01 0.84493E-01 0.16934     0.27902    
 0.35095     0.40605     0.45576     0.49296     0.55887     0.66159     0.97395     0.95652     0.88922     0.77721    
 0.64678     0.47730     0.36197     0.35455     0.27860     0.14930     0.80868E-01 0.33449E-01 0.17428E-01 0.15697E-01
 0.25249E-01 0.51301E-01 0.12304     0.20088     0.25661     0.40059     0.60925     0.77600     0.89940     0.96093    
 0.99738     0.99442     0.97338     0.89318     0.74631     0.50223     0.26995     0.22561     0.17792     0.83493E-01
 0.45767E-01 0.22429E-01 0.12423E-01 0.10230E-01 0.15001E-01 0.31256E-01 0.91866E-01 0.15836     0.24979     0.51024    
 0.76957     0.91216     0.97924     0.99535     0.99960     0.99912     0.99417     0.95628     0.83439     0.58338    
 0.25072     0.15478     0.10648     0.44926E-01 0.24481E-01 0.15062E-01 0.95779E-02 0.71079E-02 0.95776E-02 0.20410E-01
 0.72210E-01 0.14441     0.30046     0.65487     0.87575     0.96804     0.99557     0.99925     0.99979     0.99959    
 0.99746     0.97813     0.89298     0.66269     0.25478     0.12134     0.64254E-01 0.23998E-01 0.13147E-01 0.95642E-02
 0.76263E-02 0.51629E-02 0.67144E-02 0.14564E-01 0.62847E-01 0.14874     0.36091     0.75834     0.92952     0.98431    
 0.99796     0.99963     0.99985     0.99967     0.99769     0.98254     0.91658     0.68830     0.23843     0.99279E-01
 0.39655E-01 0.12102E-01 0.66106E-02 0.42983E-02 0.35241E-02 0.28251E-02 0.42172E-02 0.10189E-01 0.55444E-01 0.15728    
 0.38090     0.79819     0.94944     0.98743     0.99802     0.99968     0.99441     0.99347     0.98949     0.97647    
 0.90705     0.60459     0.19079     0.81877E-01 0.24493E-01 0.58299E-02 0.34092E-02 0.19038E-02 0.13244E-02 0.14788E-02
 0.24977E-02 0.62822E-02 0.39240E-01 0.14746     0.32889     0.74010     0.94399     0.98343     0.99078     0.99360    
 0.99498     0.99853     0.99686     0.96251     0.81052     0.41550     0.15187     0.63102E-01 0.12201E-01 0.26868E-02
 0.21083E-02 0.95504E-03 0.45426E-03 0.80991E-03 0.17750E-02 0.35938E-02 0.22056E-01 0.13228     0.29723     0.58045    
 0.86816     0.97197     0.99752     0.99858     0.73327     0.76205     0.82405     0.80811     0.57048     0.29804    
 0.14894     0.36476E-01 0.44819E-02 0.15262E-02 0.13781E-02 0.48356E-03 0.17464E-03 0.44335E-03 0.13893E-02 0.23647E-02
 0.88131E-02 0.80110E-01 0.31826     0.46944     0.66068     0.83833     0.84483     0.77580     0.17795     0.26856    
 0.83482     0.76381     0.53687     0.27348     0.69784E-01 0.98677E-02 0.21761E-02 0.11499E-02 0.65701E-03 0.15997E-03
 0.72931E-04 0.19147E-03 0.99935E-03 0.23362E-02 0.58112E-02 0.25940E-01 0.17794     0.52155     0.71613     0.81740    
 0.86933     0.28809     0.38080E-01 0.50667E-01 0.12803     0.25200     0.15365     0.64227E-01 0.13684E-01 0.38858E-02
 0.32640E-02 0.10614E-02 0.18400E-03 0.91397E-04 0.26553E-03 0.12540E-03 0.30204E-03 0.18363E-02 0.58874E-02 0.71690E-02
 0.20838E-01 0.88345E-01 0.21332     0.35323     0.16580     0.56745E-01 0.80088E-03 0.14343E-02 0.91338E-02 0.24373    
 0.10418     0.71176E-02 0.22732E-02 0.27388E-02 0.13643E-02 0.16567E-03 0.23266E-04 0.63875E-04 0.13291E-03 0.86766E-04
 0.47242E-04 0.43153E-03 0.61665E-02 0.19065E-01 0.88083E-02 0.18933E-01 0.22646     0.35088     0.12614E-01 0.16608E-02
 0.42630     0.24704E-02 0.66939E-03 0.11528E-02 0.27370E-02 0.97007E-02 0.25315E-02 0.49003E-03 0.13150E-03 0.31342E-04
 0.34131E-04 0.37065E-04 0.13949E-03 0.27876E-04 0.38125E-04 0.49241E-04 0.17052E-03 0.60299E-03 0.31255E-02 0.11636E-01
 0.39108E-02 0.16948E-02 0.87775E-03 0.25986E-02 0.13272E-06 0.38735E-06 0.87803E-05 0.29382E-03 0.18159E-01 0.67087E-03
 0.19290E-03 0.28401E-04 0.60551E-05 0.70609E-05 0.71082E-05 0.20402E-05 0.81923E-06 0.38100E-05 0.17419E-04 0.25896E-04
 0.38106E-04 0.35254E-03 0.25896E-02 0.48698E-02 0.59875E-02 0.43200E-03 0.13173E-04 0.47996E-06 0.11044E-06 0.22149E-06
 0.54071E-05 0.20434E-04 0.31716E-04 0.23889E-03 0.34141E-04 0.26746E-04 0.18206E-04 0.11013E-04 0.10766E-04 0.12812E-04
 0.58473E-05 0.13297E-05 0.37061E-05 0.83062E-05 0.11289E-04 0.11103E-04 0.12864E-04 0.53503E-04 0.35913E-04 0.28548E-04
 0.85578E-05 0.26180E-06 0.34323E-15 0.32220E-15 0.14197E-09 0.10087E-06 0.46232E-04 0.28327E-05 0.10118E-04 0.29769E-05
 0.97642E-06 0.21799E-06 0.87916E-07 0.72491E-06 0.33953E-06 0.29856E-06 0.29182E-06 0.14063E-05 0.20044E-04 0.99585    
 0.28856E-03 0.39980E-04 0.14286E-04 0.19910E-06 0.27795E-09 0.92342E-15 0.16843E-08 0.16746E-08 0.26797E-08 0.87510E-07
 0.53143E-06 0.35922E-05 0.21766E-05 0.42627E-05 0.38763E-05 0.21159E-06 0.27866E-04 0.30982E-06 0.87927E-02 0.18633E-06
 0.38265E-07 0.54997E-07 0.10528E-06 0.24818E-06 0.43883E-06 0.14606E-05 0.81583E-06 0.22320E-06 0.38743E-08 0.19077E-08
 0.33931E-13 0.50942E-13 0.91487E-13 0.78015E-10 0.97714E-07 0.40751E-07 0.13527E-07 0.99700E-08 0.32920E-07 0.59520E-07
 0.49556E-06 0.38648E-07 0.60867E-08 0.14690E-07 0.63637E-07 0.76079E-07 0.70179E-06 0.25690E-07 0.58563E-07 0.43694E-06
 0.46787E-07 0.17429E-09 0.83609E-13 0.51288E-13 0.10830E-08 0.81602E-09 0.35475E-09 0.11733E-09 0.99297E-08 0.28025E-06
 0.47847E-04 0.14735E-05 0.44938E-06 0.17882E-06 0.19280E-08 0.48638E-09 0.62746E-08 0.49134E-04 0.19327E-07 0.14954E-07
 0.37279E-07 0.98354E-07 0.13546E-03 0.88690E-07 0.77011E-07 0.21651E-09 0.43732E-09 0.87578E-09 0.82936E-13 0.14082E-12
 0.65042E-12 0.10654E-11 0.83349E-08 0.38033E-07 0.23487E-06 0.77053E-07 0.19269E-06 0.29071E-04 0.27371E-08 0.80323E-09
 0.97830E-08 0.24431E-04 0.13788E-06 0.48158E-06 0.87167E-07 0.80016E-08 0.15343E-07 0.44757E-07 0.13410E-08 0.71999E-12
 0.67678E-12 0.14308E-12 0.14487E-08 0.10282E-08 0.32296E-09 0.22961E-10 0.45909E-07 0.55708E-07 0.36514E-08 0.65048E-08
 0.43020E-08 0.18339E-08 0.19606E-09 0.35806E-09 0.81089E-08 0.23865E-05 0.21235E-07 0.81746E-07 0.65199E-07 0.57228E-08
 0.21416E-07 0.69380E-07 0.99876E-09 0.31254E-10 0.36164E-09 0.10682E-08 0.12345E-12 0.21080E-12 0.10251E-11 0.61227E-11
 0.13887E-08 0.44913E-07 0.34122E-08 0.48851E-08 0.71454E-08 0.11268E-07 0.83693E-09 0.22168E-09 0.25345E-08 0.72970E-05
 0.13238E-05 0.29345E-05 0.13090E-07 0.61141E-09 0.90368E-09 0.82442E-09 0.17610E-09 0.60602E-11 0.10630E-11 0.21276E-12
 0.18247E-08 0.12671E-08 0.33783E-09 0.14173E-10 0.14153E-09 0.47570E-07 0.36478E-08 0.75003E-08 0.16741E-08 0.36911E-10
 0.18653E-11 0.30395E-10 0.11155E-08 0.64985E-07 0.41164E-07 0.12151E-06 0.68761E-08 0.77744E-09 0.60469E-09 0.13119E-08
 0.21713E-10 0.14331E-10 0.36105E-09 0.12924E-08 0.16167E-12 0.27664E-12 0.13448E-11 0.82818E-11 0.16388E-08 0.66740E-07
 0.51825E-08 0.33898E-08 0.16064E-08 0.27859E-08 0.32403E-09 0.13640E-09 0.12462E-08 0.35476E-06 0.38496E-05 0.38230E-06
 0.23665E-08 0.17561E-09 0.67168E-09 0.52686E-09 0.16845E-09 0.78754E-11 0.13577E-11 0.27575E-12 0.22149E-08 0.15372E-08
 0.40518E-09 0.15663E-10 0.15287E-10 0.17251E-07 0.65309E-09 0.23483E-08 0.66992E-09 0.90794E-12 0.19754E-13 0.10745E-10
 0.52315E-09 0.13910E-07 0.14492E-07 0.16035E-11 0.11024E-08 0.16958E-09 0.14285E-09 0.57471E-09 0.93798E-12 0.14668E-10
 0.41422E-09 0.15408E-08 0.19313E-12 0.33091E-12 0.16150E-11 0.11787E-10 0.14814E-08 0.12947E-07 0.22016E-08 0.26789E-08
 0.10445E-08 0.18770E-08 0.21535E-09 0.49246E-10 0.42844E-09 0.13287E-06 0.10733E-03 0.21743E-06 0.15487E-08 0.18226E-09
 0.45238E-09 0.31161E-09 0.12080E-09 0.10835E-10 0.15918E-11 0.32624E-12 0.24417E-08 0.17050E-08 0.44698E-09 0.18414E-10
 0.92010E-11 0.94215E-08 0.59135E-09 0.16947E-08 0.13571E-08 0.42415E-13 0.62180E-13 0.16046E-10 0.48758E-09 0.12904E-06
 0.16635E-08 0.26903E-10 0.17483E-08 0.14222E-09 0.15411E-09 0.47833E-09 0.18847E-12 0.16638E-10 0.44151E-09 0.16816E-08
 0.21425E-12 0.36914E-12 0.18119E-11 0.13681E-10 0.13711E-08 0.39350E-08 0.13813E-08 0.22140E-08 0.12783E-08 0.11130E-08
 0.16988E-09 0.44611E-10 0.29907E-09 0.36373E-06 0.10911E-05 0.89696E-07 0.12153E-08 0.17328E-09 0.29453E-09 0.14553E-09
 0.10876E-09 0.12014E-10 0.17410E-11 0.35972E-12 0.24616E-08 0.17262E-08 0.45662E-09 0.19200E-10 0.47395E-10 0.10355E-07
 0.47716E-09 0.14117E-08 0.17300E-08 0.87253E-11 0.13947E-11 0.10288E-10 0.37569E-09 0.98040E-07 0.55383E-08 0.17488E-09
 0.15523E-08 0.14950E-09 0.11198E-09 0.43185E-09 0.34443E-11 0.16313E-10 0.43354E-09 0.16750E-08 0.22417E-12 0.38776E-12
 0.19059E-11 0.14525E-10 0.13497E-08 0.37926E-08 0.10722E-08 0.17366E-08 0.18506E-08 0.11396E-08 0.13625E-09 0.39081E-10
 0.30460E-09 0.44475E-05 0.58279E-06 0.50428E-07 0.14779E-08 0.15985E-09 0.29382E-09 0.16239E-09 0.10469E-09 0.12105E-10
 0.17821E-11 0.37302E-12 0.22671E-08 0.15902E-08 0.42525E-09 0.19061E-10 0.77118E-10 0.11817E-07 0.92069E-09 0.18580E-08
 0.12215E-08 0.99270E-12 0.60352E-12 0.12700E-10 0.52984E-09 0.24568E-06 0.39651E-08 0.24919E-09 0.10273E-08 0.19563E-09
 0.20203E-09 0.46518E-09 0.63826E-11 0.15353E-10 0.38996E-09 0.15160E-08 0.22073E-12 0.38399E-12 0.18982E-11 0.14251E-10
 0.14196E-08 0.29633E-08 0.74551E-09 0.13257E-08 0.20997E-08 0.11493E-08 0.98926E-10 0.26067E-10 0.15013E-09 0.29631E-04
 0.32547E-06 0.64145E-07 0.18691E-08 0.10552E-09 0.14886E-09 0.11375E-09 0.10840E-09 0.11276E-10 0.17251E-11 0.36493E-12
 0.19443E-08 0.13819E-08 0.37081E-09 0.18210E-10 0.75388E-10 0.91924E-08 0.93894E-09 0.19702E-08 0.66970E-09 0.17550E-11
 0.65128E-12 0.82496E-11 0.39606E-09 0.70779E-07 0.36577E-08 0.37382E-09 0.86214E-09 0.18072E-09 0.18302E-09 0.44030E-09
 0.54259E-11 0.13968E-10 0.32837E-09 0.12951E-08 0.20180E-12 0.35422E-12 0.17626E-11 0.12395E-10 0.17849E-08 0.22196E-08
 0.88254E-09 0.14587E-08 0.12348E-08 0.67379E-09 0.89526E-10 0.21162E-10 0.16236E-09 0.22338E-05 0.19109E-06 0.48967E-07
 0.15234E-08 0.99386E-10 0.15957E-09 0.82762E-10 0.13251E-09 0.93173E-11 0.15553E-11 0.33204E-12 0.16012E-08 0.11571E-08
 0.32075E-09 0.17984E-10 0.31880E-10 0.16856E-07 0.15631E-08 0.22070E-08 0.57778E-09 0.20495E-10 0.27049E-13 0.62979E-11
 0.41120E-09 0.57694E-08 0.30328E-08 0.67145E-11 0.85932E-09 0.15197E-09 0.27081E-09 0.58744E-09 0.20563E-11 0.13031E-10
 0.27235E-09 0.10668E-08 0.16780E-12 0.29658E-12 0.14747E-11 0.97490E-11 0.16955E-08 0.53852E-08 0.93485E-09 0.21141E-08
 0.45121E-09 0.58528E-09 0.63167E-10 0.59762E-11 0.10125E-09 0.41389E-05 0.99016E-07 0.23544E-07 0.58415E-09 0.11225E-09
 0.14490E-09 0.14132E-09 0.13494E-09 0.68042E-11 0.12624E-11 0.27423E-12 0.11147E-08 0.81641E-09 0.23557E-09 0.16054E-10
 0.17750E-10 0.53190E-07 0.39977E-08 0.23111E-08 0.96361E-09 0.30210E-10 0.73726E-12 0.16015E-10 0.75741E-09 0.27963E-04
 0.17825E-08 0.16875E-10 0.77411E-09 0.10606E-09 0.33851E-09 0.69588E-09 0.53964E-12 0.11149E-10 0.19216E-09 0.73891E-09
 0.12948E-12 0.23104E-12 0.11467E-11 0.50161E-11 0.27813E-08 0.52320E-07 0.44367E-08 0.63326E-08 0.13904E-08 0.81425E-09
 0.54301E-10 0.81380E-11 0.22357E-09 0.38997E-06 0.10950E-06 0.29948E-07 0.19077E-08 0.47434E-09 0.50092E-09 0.44430E-09
 0.23499E-09 0.35841E-11 0.95807E-12 0.21108E-12 0.60627E-09 0.45336E-09 0.13401E-09 0.11725E-10 0.40951E-10 0.45073E-07
 0.43297E-08 0.67331E-08 0.52056E-08 0.62617E-09 0.20712E-10 0.12227E-10 0.36216E-09 0.15271E-07 0.11586E-10 0.19555E-08
 0.40802E-08 0.37580E-09 0.41318E-09 0.87411E-09 0.23629E-13 0.74114E-11 0.10356E-09 0.40227E-09 0.85222E-13 0.15315E-12
 0.74035E-12 0.91557E-12 0.18576E-07 0.13723E-06 0.55402E-08 0.82731E-08 0.46959E-08 0.28156E-08 0.17425E-09 0.70705E-10
 0.22900E-08 0.10312E-06 0.74513E-06 0.39890E-07 0.38904E-08 0.95709E-09 0.18171E-08 0.35223E-08 0.79554E-09 0.81576E-12
 0.60419E-12 0.13811E-12 0.29813E-09 0.24007E-09 0.10031E-09 0.20268E-10 0.45408E-06 0.17774E-06 0.56626E-07 0.54021E-07
 0.16242E-05 0.84177E-08 0.16545E-09 0.12907E-09 0.31297E-08 0.33542E-07 0.11286E-06 0.42944E-08 0.93795E-08 0.35175E-08
 0.67097E-08 0.78204E-08 0.56270E-09 0.10991E-10 0.69668E-10 0.20529E-09 0.43638E-13 0.77565E-13 0.31900E-12 0.22357E-11
 0.34242E-06 0.39243E-07 0.38530E-03 0.85280E-06 0.69824E-06 0.11513E-07 0.53262E-09 0.68886E-10 0.68442E-09 0.84524E-07
 0.13141E-06 0.79125E-07 0.46644E-07 0.18314E-07 0.26593E-07 0.17975E-05 0.42152E-08 0.60987E-12 0.26580E-12 0.69844E-13
 0.22371E-09 0.24386E-09 0.32017E-09 0.16943E-08 0.87124E-03 0.11978E-06 0.21355E-07 0.11319E-07 0.43740E-07 0.20763E-07
 0.28929E-05 0.73894E-07 0.65878E-08 0.18602E-07 0.23300E-07 0.24998E-07 0.27153E-05 0.87927E-08 0.87744E-08 0.22770E-07
 0.17450E-07 0.66434E-09 0.20421E-09 0.20071E-09 0.45175E-14 0.32098E-14 0.16886E-11 0.84547E-07 0.47924E-04 0.20080E-05
 0.42287E-05 0.94909E-05 0.14934E-05 0.85384E-06 0.29268E-07 0.23872E-07 0.73129E-05 0.88177E-07 0.13050E-06 0.55154E-07
 0.20636E-07 0.68768E-07 0.14855E-06 0.30397E-06 0.25388E-04 0.20350E-07 0.46924E-12 0.33518E-14 0.80458E-09 0.14024E-08
 0.76898E-08 0.31072E-06 0.13253E-04 0.10807E-04 0.14515E-04 0.40336E-05 0.19499E-05 0.18953E-06 0.62881E-07 0.46684E-05
 0.53560E-06 0.21654E-06 0.82168E-07 0.32498E-06 0.17870E-04 0.16599E-03 0.42890E-03 0.22047E-03 0.44835E-03 0.12170E-06
 0.45819E-08 0.11095E-08 0.86918E-08 0.51730E-07 0.20452E-03 0.17772E-04 0.12534E-03 0.13461E-03 0.59502E-04 0.16682E-03
 0.34607E-04 0.16918E-03 0.20485E-04 0.70398E-05 0.86207E-05 0.42684E-06 0.21894E-05 0.52381E-05 0.39654E-05 0.52400E-05
 0.38293E-05 0.13460E-04 0.39159E-04 0.11644E-04 0.13156E-03 0.36905E-07 0.31054E-06 0.77731E-06 0.92375E-05 0.48382E-03
 0.60053E-02 0.10442E-02 0.27524E-03 0.46898E-04 0.15147E-04 0.10595E-04 0.57504E-05 0.20942E-05 0.68756E-06 0.24613E-05
 0.50638E-05 0.78004E-05 0.13574E-04 0.13597E-03 0.26031E-02 0.35518E-02 0.13703E-01 0.27428E-03 0.61887E-05 0.62427E-06
 0.41428E-03 0.22028E-03 0.28372E-03 0.15664E-02 0.15281E-01 0.46562E-01 0.63705E-02 0.97714E-03 0.21198E-03 0.85764E-04
 0.21887E-03 0.40246E-04 0.53755E-04 0.17604E-04 0.27567E-04 0.17538E-04 0.47048E-04 0.18634E-03 0.85834E-03 0.41630E-02
 0.47064E-02 0.97524E-03 0.22101E-03 0.21202E-03 0.50513E-03 0.10013E-02 0.66075E-02 0.31633     0.68824E-01 0.10662E-01
 0.56913E-02 0.67784E-02 0.24285E-02 0.21581E-03 0.27733E-04 0.60731E-04 0.15557E-03 0.74617E-04 0.22424E-04 0.14794E-03
 0.17088E-02 0.42934E-02 0.35252E-02 0.77815E-02 0.61168E-01 0.17046     0.46845E-02 0.84685E-03 0.51095E-01 0.71268E-01
 0.17268     0.32786     0.21372     0.85181E-01 0.20566E-01 0.96284E-02 0.85665E-02 0.21879E-02 0.31942E-03 0.15178E-03
 0.26331E-03 0.75298E-04 0.13034E-03 0.85931E-03 0.25978E-02 0.27938E-02 0.78882E-02 0.42441E-01 0.13001     0.22508    
 0.13134     0.62923E-01 0.21132     0.36065     0.96307     0.78962     0.69252     0.42977     0.12585     0.18572E-01
 0.50094E-02 0.20471E-02 0.77595E-03 0.15804E-03 0.73896E-04 0.14819E-03 0.59286E-03 0.11854E-02 0.23687E-02 0.94242E-02
 0.66659E-01 0.26086     0.53666     0.72834     0.93997     0.32950     0.80468     0.83452     0.87021     0.82603    
 0.64297     0.49379     0.33441     0.76389E-01 0.83773E-02 0.24641E-02 0.14575E-02 0.41768E-03 0.14856E-03 0.41334E-03
 0.12675E-02 0.14091E-02 0.37541E-02 0.29647E-01 0.13720     0.29055     0.53673     0.79116     0.84954     0.82052    
 0.99953     0.99990     0.99223     0.96301     0.84863     0.55252     0.29301     0.12538     0.19360E-01 0.32461E-02
 0.16522E-02 0.73683E-03 0.40436E-03 0.89347E-03 0.20115E-02 0.24773E-02 0.11019E-01 0.62296E-01 0.15251     0.39467    
 0.78931     0.95226     0.99087     0.99990     0.99466     0.99416     0.99190     0.98409     0.93934     0.72752    
 0.32026     0.14973     0.36640E-01 0.60825E-02 0.23606E-02 0.13920E-02 0.11427E-02 0.16951E-02 0.32238E-02 0.51405E-02
 0.22971E-01 0.77171E-01 0.18472     0.57998     0.90139     0.97679     0.99065     0.99397     0.99977     0.99955    
 0.99753     0.98703     0.94957     0.80158     0.36753     0.16450     0.50033E-01 0.10247E-01 0.36545E-02 0.26597E-02
 0.31710E-02 0.36904E-02 0.64657E-02 0.10400E-01 0.39527E-01 0.93566E-01 0.23963     0.68044     0.91903     0.98158    
 0.99722     0.99954     0.99981     0.99966     0.99809     0.98551     0.93248     0.77186     0.35901     0.15802    
 0.58063E-01 0.15223E-01 0.59419E-02 0.50758E-02 0.72209E-02 0.81821E-02 0.13216E-01 0.20386E-01 0.64003E-01 0.11286    
 0.26004     0.66518     0.89898     0.97934     0.99767     0.99963     0.99965     0.99934     0.99614     0.97163    
 0.88467     0.67427     0.30435     0.14828     0.67226E-01 0.20500E-01 0.86495E-02 0.70212E-02 0.95409E-02 0.13682E-01
 0.24136E-01 0.39154E-01 0.10426     0.14550     0.25421     0.59244     0.84510     0.96058     0.99498     0.99923    
 0.99808     0.99652     0.98336     0.92303     0.78593     0.53010     0.25269     0.15709     0.87059E-01 0.30234E-01
 0.13745E-01 0.97995E-02 0.11968E-01 0.20775E-01 0.43676E-01 0.74898E-01 0.17006     0.21077     0.26571     0.50966    
 0.75884     0.90410     0.97845     0.99581     0.98053     0.97016     0.91746     0.80117     0.63243     0.40981    
 0.25075     0.19392     0.11766     0.48330E-01 0.23449E-01 0.14904E-01 0.16698E-01 0.31627E-01 0.76362E-01 0.13794    
 0.26594     0.33430     0.34501     0.47532     0.66023     0.79660     0.90679     0.96632     0.78536     0.73732    
 0.62438     0.53294     0.46904     0.39699     0.33426     0.26642     0.16284     0.78942E-01 0.38494E-01 0.22478E-01
 0.23978E-01 0.46194E-01 0.11774     0.23243     0.37802     0.49163     0.51408     0.53860     0.57566     0.60104    
 0.65141     0.74017     0.14886     0.15328     0.20920     0.32989     0.46268     0.52351     0.48584     0.36972    
 0.23469     0.12273     0.56650E-01 0.31523E-01 0.32851E-01 0.60980E-01 0.15412     0.33685     0.49449     0.62085    
 0.68765     0.69367     0.61832     0.46106     0.28709     0.18471     0.12487     0.21013     0.47821     0.71732    
 0.80621     0.79605     0.71428     0.57295     0.38604     0.20759     0.10436     0.62858E-01 0.57520E-01 0.81996E-01
 0.16908     0.38203     0.62178     0.76004     0.82963     0.87203     0.86519     0.77501     0.51918     0.21827    
 0.38769     0.58600     0.81581     0.90036     0.91070     0.87724     0.79890     0.65984     0.45396     0.25971    
 0.14543     0.93424E-01 0.78164E-01 0.92871E-01 0.16502     0.36182     0.63390     0.79563     0.86056     0.90259    
 0.91510     0.88123     0.74026     0.47713     0.68147     0.80935     0.90678     0.93726     0.93221     0.89781    
 0.82113     0.67310     0.47126     0.29963     0.19497     0.14048     0.11565     0.11628     0.16355     0.30592    
 0.55636     0.76763     0.85959     0.89979     0.91499     0.89672     0.82094     0.69738     0.78711     0.85993    
 0.91366     0.92975     0.91866     0.87841     0.78984     0.64454     0.48926     0.36862     0.28659     0.23423    
 0.19790     0.17663     0.19249     0.27412     0.44159     0.65292     0.79839     0.86137     0.88286     0.87331    
 0.82863     0.77529     0.77405     0.82918     0.87084     0.88232     0.86452     0.81013     0.71576     0.61469    
 0.54468     0.49934     0.45892     0.41346     0.35781     0.30349     0.27676     0.29801     0.37403     0.50248    
 0.64760     0.74647     0.78817     0.79243     0.77078     0.75141     0.64022     0.69812     0.74633     0.76428    
 0.74479     0.69435     0.64734     0.64012     0.66484     0.68549     0.67832     0.63619     0.56464     0.48495    
 0.42130     0.38529     0.38099     0.40936     0.46729     0.53721     0.58573     0.60085     0.59820     0.60398    
 0.39398     0.46085     0.52603     0.56698     0.58247     0.60135     0.65650     0.73861     0.80559     0.83747    
 0.83621     0.80148     0.73497     0.65658     0.58657     0.52226     0.45917     0.40252     0.35904     0.33719    
 0.33483     0.33386     0.33178     0.34817     0.18387     0.23749     0.30208     0.37582     0.46623     0.58827    
 0.72785     0.83438     0.89104     0.91353     0.91000     0.87501     0.80449     0.72841     0.68220     0.64508    
 0.57860     0.47607     0.35630     0.24842     0.17812     0.14316     0.13347     0.14743     0.67372E-01 0.10327    
 0.16346     0.26295     0.41690     0.61281     0.78128     0.87887     0.92469     0.93904     0.92545     0.86696    
 0.74878     0.65255     0.65435     0.68900     0.67575     0.58521     0.43442     0.26542     0.13800     0.73514E-01
 0.49882E-01 0.49635E-01 0.31402E-01 0.53747E-01 0.10306     0.20629     0.38872     0.61510     0.78807     0.88389    
 0.92550     0.92920     0.88686     0.73762     0.49615     0.42243     0.54899     0.69395     0.74188     0.68753    
 0.54489     0.34815     0.16839     0.68968E-01 0.32967E-01 0.24836E-01 0.18245E-01 0.29176E-01 0.63813E-01 0.15468    
 0.33675     0.57215     0.75229     0.85532     0.89284     0.87170     0.74166     0.42017     0.20241     0.25862    
 0.53308     0.75150     0.81448     0.77902     0.65860     0.46223     0.24314     0.96960E-01 0.37949E-01 0.19799E-01
 0.18695E-01 0.21066E-01 0.40342E-01 0.10322     0.25335     0.47839     0.67130     0.79004     0.82456     0.76478    
 0.54696     0.25646     0.18417     0.38128     0.71390     0.85969     0.88586     0.84870     0.74489     0.56181    
 0.32838     0.14698     0.60967E-01 0.28359E-01 0.27517E-01 0.22561E-01 0.32089E-01 0.71067E-01 0.17556     0.36256    
 0.55935     0.70023     0.75021     0.69680     0.53723     0.39002     0.44986     0.70533     0.87561     0.92497    
 0.92337     0.88209     0.78603     0.61189     0.38452     0.19950     0.96667E-01 0.47947E-01 0.62148E-01 0.45458E-01
 0.46138E-01 0.70596E-01 0.13853     0.27345     0.44755     0.59932     0.68527     0.69005     0.64294     0.63032    
 0.72929     0.85934     0.92403     0.93974     0.92648     0.88139     0.78475     0.61511     0.41328     0.25366    
 0.15368     0.95732E-01 0.15883     0.12552     0.11498     0.12794     0.16747     0.24549     0.36285     0.48948    
 0.59344     0.65536     0.68538     0.72742     0.80490     0.87835     0.91474     0.91911     0.89773     0.84302    
 0.73713     0.59087     0.45678     0.35637     0.27730     0.21113     0.36658     0.32076     0.30216     0.30269    
 0.30695     0.31866     0.35275     0.40803     0.47360     0.54112     0.60519     0.67330     0.75053     0.81621    