       N       E                     dE             d eps       ncg     rms          rms(c)
DAV:   1     0.220370951683E+03    0.22037E+03   -0.12499E+04   340   0.488E+02
DAV:   2    -0.642758492440E+02   -0.28465E+03   -0.27620E+03   384   0.129E+02
DAV:   3    -0.103133708980E+03   -0.38858E+02   -0.38476E+02   344   0.511E+01
DAV:   4    -0.104377594209E+03   -0.12439E+01   -0.12401E+01   344   0.117E+01
DAV:   5    -0.104421616880E+03   -0.44023E-01   -0.43999E-01   402   0.195E+00    0.141E+01
RMM:   6    -0.100026257381E+03    0.43954E+01   -0.35555E+00   284   0.458E+00    0.762E+00
RMM:   7    -0.982888709927E+02    0.17374E+01   -0.50713E+00   289   0.577E+00    0.118E+00
RMM:   8    -0.982351120257E+02    0.53759E-01   -0.23460E-01   331   0.148E+00    0.696E-01
RMM:   9    -0.981957473394E+02    0.39365E-01   -0.21308E-01   311   0.998E-01    0.359E-01
RMM:  10    -0.981916547609E+02    0.40926E-02   -0.35670E-02   321   0.498E-01    0.278E-01
RMM:  11    -0.981883506616E+02    0.33041E-02   -0.11033E-02   309   0.261E-01    0.711E-02
RMM:  12    -0.981904656739E+02   -0.21150E-02   -0.66603E-03   326   0.155E-01    0.848E-02
RMM:  13    -0.981932276455E+02   -0.27620E-02   -0.15828E-03   291   0.110E-01    0.239E-02
RMM:  14    -0.981944869084E+02   -0.12593E-02   -0.41813E-04   305   0.490E-02    0.179E-02
RMM:  15    -0.981949399822E+02   -0.45307E-03   -0.19532E-04   308   0.312E-02    0.151E-02
RMM:  16    -0.981958368512E+02   -0.89687E-03   -0.10849E-04   291   0.242E-02    0.448E-03
RMM:  17    -0.981963001307E+02   -0.46328E-03   -0.66001E-05   293   0.169E-02    0.625E-03
RMM:  18    -0.981966170737E+02   -0.31694E-03   -0.32815E-05   285   0.119E-02    0.140E-03
RMM:  19    -0.981967058975E+02   -0.88824E-04   -0.69418E-06   271   0.547E-03    0.164E-03
RMM:  20    -0.981967277522E+02   -0.21855E-04   -0.17532E-06   229   0.305E-03    0.624E-04
RMM:  21    -0.981967373214E+02   -0.95692E-05   -0.81921E-07   212   0.222E-03    0.238E-04
RMM:  22    -0.981967397149E+02   -0.23936E-05   -0.12992E-07   154   0.110E-03    0.144E-04
RMM:  23    -0.981967427237E+02   -0.30087E-05   -0.24420E-07   195   0.133E-03    0.733E-05
RMM:  24    -0.981967432140E+02   -0.49031E-06   -0.15231E-08    92   0.608E-04
   1 F= -.98196743E+02 E0= -.98192259E+02  d E =-.896933E-02
