PROCAR lm decomposed
# of k-points:    3         # of bands:  46         # of ions:  25

 k-point    1 :    0.00000000 0.00000000 0.00000000     weight = 0.20000000

band   1 # energy  -14.61937777 # occ.  2.00000000
 
ion      s     py     pz     px    dxy    dyz    dz2    dxz    dx2    tot
  1  0.007  0.000  0.000  0.000  0.000  0.000  0.000  0.000  0.000  0.007
  2  0.028  0.000  0.001  0.000  0.000  0.000  0.000  0.000  0.000  0.029
  3  0.052  0.000  0.000  0.000  0.000  0.000  0.000  0.000  0.000  0.053
  4  0.052  0.000  0.000  0.000  0.000  0.000  0.000  0.000  0.000  0.053
  5  0.085  0.000  0.000  0.000  0.000  0.000  0.000  0.000  0.000  0.085
  6  0.028  0.001  0.000  0.000  0.000  0.000  0.000  0.000  0.000  0.029
  7  0.052  0.000  0.000  0.000  0.000  0.000  0.000  0.000  0.000  0.053
  8  0.052  0.000  0.000  0.000  0.000  0.000  0.000  0.000  0.000  0.053
  9  0.007  0.000  0.000  0.000  0.000  0.000  0.000  0.000  0.000  0.007
 10  0.028  0.000  0.001  0.000  0.000  0.000  0.000  0.000  0.000  0.029
 11  0.007  0.000  0.000  0.000  0.000  0.000  0.000  0.000  0.000  0.007
 12  0.028  0.001  0.000  0.000  0.000  0.000  0.000  0.000  0.000  0.029
 13  0.007  0.000  0.000  0.000  0.000  0.000  0.000  0.000  0.000  0.007
 14  0.000  0.000  0.000  0.000  0.000  0.000  0.000  0.000  0.000  0.001
 15  0.002  0.000  0.000  0.000  0.000  0.000  0.000  0.000  0.000  0.003
 16  0.000  0.000  0.000  0.000  0.000  0.000  0.000  0.000  0.000  0.001
 17  0.000  0.000  0.000  0.000  0.000  0.000  0.000  0.000  0.000  0.001
 18  0.002  0.000  0.000  0.000  0.000  0.000  0.000  0.000  0.000  0.003
 19  0.000  0.000  0.000  0.000  0.000  0.000  0.000  0.000  0.000  0.001
 20  0.000  0.000  0.000  0.000  0.000  0.000  0.000  0.000  0.000  0.001
 21  0.002  0.000  0.000  0.000  0.000  0.000  0.000  0.000  0.000  0.003
 22  0.000  0.000  0.000  0.000  0.000  0.000  0.000  0.000  0.000  0.001
 23  0.000  0.000  0.000  0.000  0.000  0.000  0.000  0.000  0.000  0.001
 24  0.002  0.000  0.000  0.000  0.000  0.000  0.000  0.000  0.000  0.003
 25  0.000  0.000  0.000  0.000  0.000  0.000  0.000  0.000  0.000  0.001
tot  0.444  0.004  0.004  0.001  0.000  0.000  0.000  0.000  0.000  0.453
 
band   2 # energy  -13.42355682 # occ.  2.00000000
 
ion      s     py     pz     px    dxy    dyz    dz2    dxz    dx2    tot
  1  0.040  0.000  0.000  0.001  0.000  0.000  0.000  0.000  0.000  0.041
  2  0.041  0.001  0.000  0.000  0.000  0.000  0.000  0.000  0.000  0.042
  3  0.088  0.000  0.000  0.000  0.000  0.000  0.000  0.000  0.000  0.089
  4  0.000  0.001  0.001  0.000  0.000  0.000  0.000  0.000  0.000  0.003
  5  0.000  0.003  0.003  0.000  0.000  0.000  0.000  0.000  0.000  0.006
  6  0.041  0.000  0.001  0.000  0.000  0.000  0.000  0.000  0.000  0.042
  7  0.088  0.000  0.000  0.000  0.000  0.000  0.000  0.000  0.000  0.089
  8  0.000  0.001  0.001  0.000  0.000  0.000  0.000  0.000  0.000  0.003
  9  0.000  0.000  0.000  0.000  0.000  0.000  0.000  0.000  0.000  0.000
 10  0.041  0.001  0.000  0.000  0.000  0.000  0.000  0.000  0.000  0.042
 11  0.000  0.000  0.000  0.000  0.000  0.000  0.000  0.000  0.000  0.000
 12  0.041  0.000  0.001  0.000  0.000  0.000  0.000  0.000  0.000  0.042
 13  0.040  0.000  0.000  0.001  0.000  0.000  0.000  0.000  0.000  0.041
 14  0.000  0.000  0.000  0.000  0.000  0.000  0.000  0.000  0.000  0.000
 15  0.007  0.000  0.000  0.000  0.000  0.000  0.000  0.000  0.000  0.007
 16  0.005  0.000  0.000  0.000  0.000  0.000  0.000  0.000  0.000  0.005
 17  0.005  0.000  0.000  0.000  0.000  0.000  0.000  0.000  0.000  0.005
 18  0.007  0.000  0.000  0.000  0.000  0.000  0.000  0.000  0.000  0.007
 19  0.000  0.000  0.000  0.000  0.000  0.000  0.000  0.000  0.000  0.000
 20  0.000  0.000  0.000  0.000  0.000  0.000  0.000  0.000  0.000  0.000
 21  0.007  0.000  0.000  0.000  0.000  0.000  0.000  0.000  0.000  0.007
 22  0.005  0.000  0.000  0.000  0.000  0.000  0.000  0.000  0.000  0.005
 23  0.005  0.000  0.000  0.000  0.000  0.000  0.000  0.000  0.000  0.005
 24  0.007  0.000  0.000  0.000  0.000  0.000  0.000  0.000  0.000  0.007
 25  0.000  0.000  0.000  0.000  0.000  0.000  0.000  0.000  0.000  0.000
tot  0.466  0.009  0.009  0.003  0.000  0.000  0.000  0.000  0.000  0.488
 
band   3 # energy  -13.42351283 # occ.  2.00000000
 
ion      s     py     pz     px    dxy    dyz    dz2    dxz    dx2    tot
  1  0.000  0.000  0.000  0.000  0.000  0.000  0.000  0.000  0.000  0.000
  2  0.041  0.001  0.000  0.000  0.000  0.000  0.000  0.000  0.000  0.042
  3  0.000  0.001  0.001  0.000  0.000  0.000  0.000  0.000  0.000  0.003
  4  0.088  0.000  0.000  0.000  0.000  0.000  0.000  0.000  0.000  0.089
  5  0.000  0.003  0.003  0.000  0.000  0.000  0.000  0.000  0.000  0.006
  6  0.041  0.000  0.001  0.000  0.000  0.000  0.000  0.000  0.000  0.042
  7  0.000  0.001  0.001  0.000  0.000  0.000  0.000  0.000  0.000  0.003
  8  0.088  0.000  0.000  0.000  0.000  0.000  0.000  0.000  0.000  0.089
  9  0.040  0.000  0.000  0.001  0.000  0.000  0.000  0.000  0.000  0.041
 10  0.041  0.001  0.000  0.000  0.000  0.000  0.000  0.000  0.000  0.042
 11  0.040  0.000  0.000  0.001  0.000  0.000  0.000  0.000  0.000  0.041
 12  0.041  0.000  0.001  0.000  0.000  0.000  0.000  0.000  0.000  0.042
 13  0.000  0.000  0.000  0.000  0.000  0.000  0.000  0.000  0.000  0.000
 14  0.005  0.000  0.000  0.000  0.000  0.000  0.000  0.000  0.000  0.005
 15  0.007  0.000  0.000  0.000  0.000  0.000  0.000  0.000  0.000  0.007
 16  0.000  0.000  0.000  0.000  0.000  0.000  0.000  0.000  0.000  0.000
 17  0.000  0.000  0.000  0.000  0.000  0.000  0.000  0.000  0.000  0.000
 18  0.007  0.000  0.000  0.000  0.000  0.000  0.000  0.000  0.000  0.007
 19  0.005  0.000  0.000  0.000  0.000  0.000  0.000  0.000  0.000  0.005
 20  0.005  0.000  0.000  0.000  0.000  0.000  0.000  0.000  0.000  0.005
 21  0.007  0.000  0.000  0.000  0.000  0.000  0.000  0.000  0.000  0.007
 22  0.000  0.000  0.000  0.000  0.000  0.000  0.000  0.000  0.000  0.000
 23  0.000  0.000  0.000  0.000  0.000  0.000  0.000  0.000  0.000  0.000
 24  0.007  0.000  0.000  0.000  0.000  0.000  0.000  0.000  0.000  0.007
 25  0.005  0.000  0.000  0.000  0.000  0.000  0.000  0.000  0.000  0.005
tot  0.466  0.009  0.009  0.003  0.000  0.000  0.000  0.000  0.000  0.488
 
band   4 # energy  -12.56944231 # occ.  2.00000000
 
ion      s     py     pz     px    dxy    dyz    dz2    dxz    dx2    tot
  1  0.065  0.000  0.000  0.001  0.000  0.000  0.000  0.000  0.000  0.066
  2  0.000  0.002  0.000  0.001  0.000  0.000  0.000  0.000  0.000  0.003
  3  0.037  0.001  0.001  0.000  0.000  0.000  0.000  0.000  0.000  0.038
  4  0.037  0.001  0.001  0.000  0.000  0.000  0.000  0.000  0.000  0.038
  5  0.000  0.000  0.000  0.003  0.000  0.000  0.000  0.000  0.000  0.003
  6  0.000  0.000  0.002  0.001  0.000  0.000  0.000  0.000  0.000  0.003
  7  0.037  0.001  0.001  0.000  0.000  0.000  0.000  0.000  0.000  0.038
  8  0.037  0.001  0.001  0.000  0.000  0.000  0.000  0.000  0.000  0.038
  9  0.065  0.000  0.000  0.001  0.000  0.000  0.000  0.000  0.000  0.066
 10  0.000  0.002  0.000  0.001  0.000  0.000  0.000  0.000  0.000  0.003
 11  0.065  0.000  0.000  0.001  0.000  0.000  0.000  0.000  0.000  0.066
 12  0.000  0.000  0.002  0.001  0.000  0.000  0.000  0.000  0.000  0.003
 13  0.065  0.000  0.000  0.001  0.000  0.000  0.000  0.000  0.000  0.066
 14  0.012  0.000  0.001  0.000  0.000  0.000  0.000  0.000  0.000  0.012
 15  0.000  0.000  0.000  0.000  0.000  0.000  0.000  0.000  0.000  0.000
 16  0.012  0.000  0.001  0.000  0.000  0.000  0.000  0.000  0.000  0.012
 17  0.012  0.000  0.001  0.000  0.000  0.000  0.000  0.000  0.000  0.012
 18  0.000  0.000  0.000  0.000  0.000  0.000  0.000  0.000  0.000  0.000
 19  0.012  0.000  0.001  0.000  0.000  0.000  0.000  0.000  0.000  0.012
 20  0.012  0.001  0.000  0.000  0.000  0.000  0.000  0.000  0.000  0.012
 21  0.000  0.000  0.000  0.000  0.000  0.000  0.000  0.000  0.000  0.000
 22  0.012  0.001  0.000  0.000  0.000  0.000  0.000  0.000  0.000  0.012
 23  0.012  0.001  0.000  0.000  0.000  0.000  0.000  0.000  0.000  0.012
 24  0.000  0.000  0.000  0.000  0.000  0.000  0.000  0.000  0.000  0.000
 25  0.012  0.001  0.000  0.000  0.000  0.000  0.000  0.000  0.000  0.012
tot  0.501  0.009  0.009  0.012  0.000  0.000  0.000  0.000  0.000  0.530
 
band   5 # energy  -11.99519146 # occ.  2.00000000
 
ion      s     py     pz     px    dxy    dyz    dz2    dxz    dx2    tot
  1  0.000  0.000  0.000  0.000  0.000  0.000  0.000  0.000  0.000  0.000
  2  0.092  0.000  0.003  0.000  0.000  0.000  0.000  0.000  0.000  0.095
  3  0.000  0.004  0.004  0.000  0.000  0.000  0.000  0.000  0.000  0.007
  4  0.000  0.004  0.004  0.000  0.000  0.000  0.000  0.000  0.000  0.007
  5  0.000  0.000  0.000  0.000  0.000  0.000  0.000  0.000  0.000  0.000
  6  0.092  0.003  0.000  0.000  0.000  0.000  0.000  0.000  0.000  0.095
  7  0.000  0.004  0.004  0.000  0.000  0.000  0.000  0.000  0.000  0.007
  8  0.000  0.004  0.004  0.000  0.000  0.000  0.000  0.000  0.000  0.007
  9  0.000  0.000  0.000  0.000  0.000  0.000  0.000  0.000  0.000  0.000
 10  0.092  0.000  0.003  0.000  0.000  0.000  0.000  0.000  0.000  0.095
 11  0.000  0.000  0.000  0.000  0.000  0.000  0.000  0.000  0.000  0.000
 12  0.092  0.003  0.000  0.000  0.000  0.000  0.000  0.000  0.000  0.095
 13  0.000  0.000  0.000  0.000  0.000  0.000  0.000  0.000  0.000  0.000
 14  0.000  0.000  0.000  0.000  0.000  0.000  0.000  0.000  0.000  0.000
 15  0.032  0.000  0.001  0.000  0.000  0.000  0.000  0.000  0.000  0.033
 16  0.000  0.000  0.000  0.000  0.000  0.000  0.000  0.000  0.000  0.000
 17  0.000  0.000  0.000  0.000  0.000  0.000  0.000  0.000  0.000  0.000
 18  0.032  0.000  0.001  0.000  0.000  0.000  0.000  0.000  0.000  0.033
 19  0.000  0.000  0.000  0.000  0.000  0.000  0.000  0.000  0.000  0.000
 20  0.000  0.000  0.000  0.000  0.000  0.000  0.000  0.000  0.000  0.000
 21  0.032  0.001  0.000  0.000  0.000  0.000  0.000  0.000  0.000  0.033
 22  0.000  0.000  0.000  0.000  0.000  0.000  0.000  0.000  0.000  0.000
 23  0.000  0.000  0.000  0.000  0.000  0.000  0.000  0.000  0.000  0.000
 24  0.032  0.001  0.000  0.000  0.000  0.000  0.000  0.000  0.000  0.033
 25  0.000  0.000  0.000  0.000  0.000  0.000  0.000  0.000  0.000  0.000
tot  0.497  0.023  0.023  0.000  0.000  0.000  0.000  0.000  0.000  0.544
 
band   6 # energy  -11.93322363 # occ.  2.00000000
 
ion      s     py     pz     px    dxy    dyz    dz2    dxz    dx2    tot
  1  0.070  0.002  0.002  0.000  0.000  0.000  0.000  0.000  0.000  0.074
  2  0.000  0.000  0.001  0.000  0.000  0.000  0.000  0.000  0.000  0.001
  3  0.001  0.003  0.003  0.000  0.000  0.000  0.000  0.000  0.000  0.007
  4  0.001  0.003  0.003  0.000  0.000  0.000  0.000  0.000  0.000  0.007
  5  0.064  0.000  0.000  0.000  0.000  0.000  0.000  0.000  0.000  0.064
  6  0.000  0.001  0.000  0.000  0.000  0.000  0.000  0.000  0.000  0.001
  7  0.001  0.003  0.003  0.000  0.000  0.000  0.000  0.000  0.000  0.007
  8  0.001  0.003  0.003  0.000  0.000  0.000  0.000  0.000  0.000  0.007
  9  0.071  0.002  0.002  0.000  0.000  0.000  0.000  0.000  0.000  0.075
 10  0.000  0.000  0.001  0.000  0.000  0.000  0.000  0.000  0.000  0.001
 11  0.071  0.002  0.002  0.000  0.000  0.000  0.000  0.000  0.000  0.075
 12  0.000  0.001  0.000  0.000  0.000  0.000  0.000  0.000  0.000  0.001
 13  0.071  0.002  0.002  0.000  0.000  0.000  0.000  0.000  0.000  0.075
 14  0.019  0.000  0.001  0.000  0.000  0.000  0.000  0.000  0.000  0.020
 15  0.001  0.000  0.000  0.000  0.000  0.000  0.000  0.000  0.000  0.001
 16  0.019  0.000  0.001  0.000  0.000  0.000  0.000  0.000  0.000  0.020
 17  0.019  0.000  0.001  0.000  0.000  0.000  0.000  0.000  0.000  0.020
 18  0.001  0.000  0.000  0.000  0.000  0.000  0.000  0.000  0.000  0.001
 19  0.019  0.000  0.001  0.000  0.000  0.000  0.000  0.000  0.000  0.020
 20  0.019  0.001  0.000  0.000  0.000  0.000  0.000  0.000  0.000  0.020
 21  0.001  0.000  0.000  0.000  0.000  0.000  0.000  0.000  0.000  0.001
 22  0.019  0.001  0.000  0.000  0.000  0.000  0.000  0.000  0.000  0.020
 23  0.019  0.001  0.000  0.000  0.000  0.000  0.000  0.000  0.000  0.020
 24  0.001  0.000  0.000  0.000  0.000  0.000  0.000  0.000  0.000  0.001
 25  0.019  0.001  0.000  0.000  0.000  0.000  0.000  0.000  0.000  0.020
tot  0.507  0.024  0.024  0.000  0.000  0.000  0.000  0.000  0.000  0.556
 
band   7 # energy  -11.80746840 # occ.  2.00000000
 
ion      s     py     pz     px    dxy    dyz    dz2    dxz    dx2    tot
  1  0.000  0.000  0.000  0.000  0.000  0.000  0.000  0.000  0.000  0.000
  2  0.029  0.000  0.000  0.000  0.000  0.000  0.000  0.000  0.000  0.029
  3  0.000  0.001  0.001  0.000  0.000  0.000  0.000  0.000  0.000  0.003
  4  0.000  0.001  0.001  0.004  0.000  0.000  0.000  0.000  0.000  0.006
  5  0.000  0.000  0.000  0.000  0.000  0.000  0.000  0.000  0.000  0.000
  6  0.029  0.000  0.000  0.000  0.000  0.000  0.000  0.000  0.000  0.029
  7  0.000  0.001  0.001  0.000  0.000  0.000  0.000  0.000  0.000  0.003
  8  0.000  0.001  0.001  0.004  0.000  0.000  0.000  0.000  0.000  0.006
  9  0.127  0.003  0.003  0.000  0.000  0.000  0.000  0.000  0.000  0.133
 10  0.029  0.000  0.000  0.000  0.000  0.000  0.000  0.000  0.000  0.029
 11  0.127  0.003  0.003  0.000  0.000  0.000  0.000  0.000  0.000  0.133
 12  0.029  0.000  0.000  0.000  0.000  0.000  0.000  0.000  0.000  0.029
 13  0.000  0.000  0.000  0.000  0.000  0.000  0.000  0.000  0.000  0.000
 14  0.035  0.000  0.001  0.000  0.000  0.000  0.000  0.000  0.000  0.036
 15  0.009  0.000  0.000  0.000  0.000  0.000  0.000  0.000  0.000  0.009
 16  0.000  0.000  0.000  0.000  0.000  0.000  0.000  0.000  0.000  0.000
 17  0.000  0.000  0.000  0.000  0.000  0.000  0.000  0.000  0.000  0.000
 18  0.009  0.000  0.000  0.000  0.000  0.000  0.000  0.000  0.000  0.009
 19  0.035  0.000  0.001  0.000  0.000  0.000  0.000  0.000  0.000  0.036
 20  0.035  0.001  0.000  0.000  0.000  0.000  0.000  0.000  0.000  0.036
 21  0.009  0.000  0.000  0.000  0.000  0.000  0.000  0.000  0.000  0.009
 22  0.000  0.000  0.000  0.000  0.000  0.000  0.000  0.000  0.000  0.000
 23  0.000  0.000  0.000  0.000  0.000  0.000  0.000  0.000  0.000  0.000
 24  0.009  0.000  0.000  0.000  0.000  0.000  0.000  0.000  0.000  0.009
 25  0.035  0.001  0.000  0.000  0.000  0.000  0.000  0.000  0.000  0.036
tot  0.544  0.016  0.016  0.007  0.000  0.000  0.000  0.000  0.000  0.583
 
band   8 # energy  -11.80746734 # occ.  2.00000000
 
ion      s     py     pz     px    dxy    dyz    dz2    dxz    dx2    tot
  1  0.127  0.003  0.003  0.000  0.000  0.000  0.000  0.000  0.000  0.134
  2  0.029  0.000  0.000  0.000  0.000  0.000  0.000  0.000  0.000  0.029
  3  0.000  0.001  0.001  0.004  0.000  0.000  0.000  0.000  0.000  0.006
  4  0.000  0.001  0.001  0.000  0.000  0.000  0.000  0.000  0.000  0.003
  5  0.000  0.000  0.000  0.000  0.000  0.000  0.000  0.000  0.000  0.000
  6  0.029  0.000  0.000  0.000  0.000  0.000  0.000  0.000  0.000  0.029
  7  0.000  0.001  0.001  0.004  0.000  0.000  0.000  0.000  0.000  0.006
  8  0.000  0.001  0.001  0.000  0.000  0.000  0.000  0.000  0.000  0.003
  9  0.000  0.000  0.000  0.000  0.000  0.000  0.000  0.000  0.000  0.000
 10  0.029  0.000  0.000  0.000  0.000  0.000  0.000  0.000  0.000  0.029
 11  0.000  0.000  0.000  0.000  0.000  0.000  0.000  0.000  0.000  0.000
 12  0.029  0.000  0.000  0.000  0.000  0.000  0.000  0.000  0.000  0.029
 13  0.126  0.003  0.003  0.000  0.000  0.000  0.000  0.000  0.000  0.133
 14  0.000  0.000  0.000  0.000  0.000  0.000  0.000  0.000  0.000  0.000
 15  0.009  0.000  0.000  0.000  0.000  0.000  0.000  0.000  0.000  0.009
 16  0.035  0.000  0.001  0.000  0.000  0.000  0.000  0.000  0.000  0.036
 17  0.035  0.000  0.001  0.000  0.000  0.000  0.000  0.000  0.000  0.036
 18  0.009  0.000  0.000  0.000  0.000  0.000  0.000  0.000  0.000  0.009
 19  0.000  0.000  0.000  0.000  0.000  0.000  0.000  0.000  0.000  0.000
 20  0.000  0.000  0.000  0.000  0.000  0.000  0.000  0.000  0.000  0.000
 21  0.009  0.000  0.000  0.000  0.000  0.000  0.000  0.000  0.000  0.009
 22  0.035  0.001  0.000  0.000  0.000  0.000  0.000  0.000  0.000  0.036
 23  0.035  0.001  0.000  0.000  0.000  0.000  0.000  0.000  0.000  0.036
 24  0.009  0.000  0.000  0.000  0.000  0.000  0.000  0.000  0.000  0.009
 25  0.000  0.000  0.000  0.000  0.000  0.000  0.000  0.000  0.000  0.000
tot  0.544  0.016  0.016  0.007  0.000  0.000  0.000  0.000  0.000  0.583
 
band   9 # energy  -11.61249355 # occ.  2.00000000
 
ion      s     py     pz     px    dxy    dyz    dz2    dxz    dx2    tot
  1  0.011  0.000  0.000  0.000  0.000  0.000  0.000  0.000  0.000  0.011
  2  0.055  0.000  0.003  0.000  0.000  0.000  0.000  0.000  0.000  0.058
  3  0.001  0.001  0.001  0.008  0.000  0.000  0.000  0.000  0.000  0.011
  4  0.001  0.001  0.001  0.008  0.000  0.000  0.000  0.000  0.000  0.011
  5  0.116  0.000  0.000  0.000  0.000  0.000  0.000  0.000  0.000  0.116
  6  0.055  0.003  0.000  0.000  0.000  0.000  0.000  0.000  0.000  0.058
  7  0.001  0.001  0.001  0.008  0.000  0.000  0.000  0.000  0.000  0.011
  8  0.001  0.001  0.001  0.008  0.000  0.000  0.000  0.000  0.000  0.011
  9  0.011  0.000  0.000  0.000  0.000  0.000  0.000  0.000  0.000  0.011
 10  0.055  0.000  0.003  0.000  0.000  0.000  0.000  0.000  0.000  0.057
 11  0.011  0.000  0.000  0.000  0.000  0.000  0.000  0.000  0.000  0.011
 12  0.055  0.003  0.000  0.000  0.000  0.000  0.000  0.000  0.000  0.057
 13  0.011  0.000  0.000  0.000  0.000  0.000  0.000  0.000  0.000  0.011
 14  0.003  0.000  0.000  0.000  0.000  0.000  0.000  0.000  0.000  0.003
 15  0.023  0.000  0.001  0.000  0.000  0.000  0.000  0.000  0.000  0.023
 16  0.003  0.000  0.000  0.000  0.000  0.000  0.000  0.000  0.000  0.003
 17  0.003  0.000  0.000  0.000  0.000  0.000  0.000  0.000  0.000  0.003
 18  0.023  0.000  0.001  0.000  0.000  0.000  0.000  0.000  0.000  0.023
 19  0.003  0.000  0.000  0.000  0.000  0.000  0.000  0.000  0.000  0.003
 20  0.003  0.000  0.000  0.000  0.000  0.000  0.000  0.000  0.000  0.003
 21  0.023  0.001  0.000  0.000  0.000  0.000  0.000  0.000  0.000  0.023
 22  0.003  0.000  0.000  0.000  0.000  0.000  0.000  0.000  0.000  0.003
 23  0.003  0.000  0.000  0.000  0.000  0.000  0.000  0.000  0.000  0.003
 24  0.023  0.001  0.000  0.000  0.000  0.000  0.000  0.000  0.000  0.023
 25  0.003  0.000  0.000  0.000  0.000  0.000  0.000  0.000  0.000  0.003
tot  0.495  0.011  0.011  0.033  0.000  0.000  0.000  0.000  0.000  0.551
 
band  10 # energy  -10.79968231 # occ.  2.00000000
 
ion      s     py     pz     px    dxy    dyz    dz2    dxz    dx2    tot
  1  0.022  0.005  0.005  0.001  0.000  0.000  0.000  0.000  0.000  0.032
  2  0.000  0.003  0.000  0.004  0.000  0.000  0.000  0.000  0.000  0.008
  3  0.062  0.000  0.000  0.000  0.000  0.000  0.000  0.000  0.000  0.063
  4  0.062  0.000  0.000  0.000  0.000  0.000  0.000  0.000  0.000  0.063
  5  0.000  0.000  0.000  0.019  0.000  0.000  0.000  0.000  0.000  0.019
  6  0.000  0.000  0.003  0.004  0.000  0.000  0.000  0.000  0.000  0.008
  7  0.062  0.000  0.000  0.000  0.000  0.000  0.000  0.000  0.000  0.063
  8  0.062  0.000  0.000  0.000  0.000  0.000  0.000  0.000  0.000  0.063
  9  0.022  0.005  0.005  0.001  0.000  0.000  0.000  0.000  0.000  0.032
 10  0.000  0.003  0.000  0.004  0.000  0.000  0.000  0.000  0.000  0.008
 11  0.022  0.005  0.005  0.001  0.000  0.000  0.000  0.000  0.000  0.032
 12  0.000  0.000  0.003  0.004  0.000  0.000  0.000  0.000  0.000  0.008
 13  0.022  0.005  0.005  0.001  0.000  0.000  0.000  0.000  0.000  0.032
 14  0.013  0.000  0.000  0.000  0.000  0.000  0.000  0.000  0.000  0.014
 15  0.000  0.000  0.000  0.000  0.000  0.000  0.000  0.000  0.000  0.000
 16  0.013  0.000  0.000  0.000  0.000  0.000  0.000  0.000  0.000  0.014
 17  0.013  0.000  0.000  0.000  0.000  0.000  0.000  0.000  0.000  0.014
 18  0.000  0.000  0.000  0.000  0.000  0.000  0.000  0.000  0.000  0.000
 19  0.013  0.000  0.000  0.000  0.000  0.000  0.000  0.000  0.000  0.014
 20  0.013  0.000  0.000  0.000  0.000  0.000  0.000  0.000  0.000  0.014
 21  0.000  0.000  0.000  0.000  0.000  0.000  0.000  0.000  0.000  0.000
 22  0.013  0.000  0.000  0.000  0.000  0.000  0.000  0.000  0.000  0.014
 23  0.013  0.000  0.000  0.000  0.000  0.000  0.000  0.000  0.000  0.014
 24  0.000  0.000  0.000  0.000  0.000  0.000  0.000  0.000  0.000  0.000
 25  0.013  0.000  0.000  0.000  0.000  0.000  0.000  0.000  0.000  0.014
tot  0.446  0.029  0.029  0.040  0.000  0.000  0.000  0.000  0.000  0.543
 
band  11 # energy  -10.31187610 # occ.  2.00000000
 
ion      s     py     pz     px    dxy    dyz    dz2    dxz    dx2    tot
  1  0.009  0.007  0.007  0.001  0.000  0.000  0.000  0.000  0.000  0.023
  2  0.018  0.002  0.014  0.002  0.000  0.000  0.000  0.000  0.000  0.035
  3  0.088  0.000  0.000  0.001  0.000  0.000  0.000  0.000  0.000  0.089
  4  0.000  0.001  0.001  0.000  0.000  0.000  0.000  0.000  0.000  0.001
  5  0.000  0.007  0.007  0.000  0.000  0.000  0.000  0.000  0.000  0.015
  6  0.018  0.014  0.002  0.002  0.000  0.000  0.000  0.000  0.000  0.035
  7  0.088  0.000  0.000  0.001  0.000  0.000  0.000  0.000  0.000  0.089
  8  0.000  0.001  0.001  0.000  0.000  0.000  0.000  0.000  0.000  0.001
  9  0.000  0.000  0.000  0.000  0.000  0.000  0.000  0.000  0.000  0.000
 10  0.018  0.002  0.014  0.002  0.000  0.000  0.000  0.000  0.000  0.035
 11  0.000  0.000  0.000  0.000  0.000  0.000  0.000  0.000  0.000  0.000
 12  0.018  0.014  0.002  0.002  0.000  0.000  0.000  0.000  0.000  0.035
 13  0.009  0.007  0.007  0.001  0.000  0.000  0.000  0.000  0.000  0.023
 14  0.000  0.000  0.000  0.000  0.000  0.000  0.000  0.000  0.000  0.000
 15  0.029  0.000  0.001  0.000  0.000  0.000  0.000  0.000  0.000  0.030
 16  0.011  0.000  0.000  0.000  0.000  0.000  0.000  0.000  0.000  0.011
 17  0.011  0.000  0.000  0.000  0.000  0.000  0.000  0.000  0.000  0.011
 18  0.029  0.000  0.001  0.000  0.000  0.000  0.000  0.000  0.000  0.030
 19  0.000  0.000  0.000  0.000  0.000  0.000  0.000  0.000  0.000  0.000
 20  0.000  0.000  0.000  0.000  0.000  0.000  0.000  0.000  0.000  0.000
 21  0.029  0.001  0.000  0.000  0.000  0.000  0.000  0.000  0.000  0.030
 22  0.011  0.000  0.000  0.000  0.000  0.000  0.000  0.000  0.000  0.011
 23  0.011  0.000  0.000  0.000  0.000  0.000  0.000  0.000  0.000  0.011
 24  0.029  0.001  0.000  0.000  0.000  0.000  0.000  0.000  0.000  0.030
 25  0.000  0.000  0.000  0.000  0.000  0.000  0.000  0.000  0.000  0.000
tot  0.427  0.055  0.055  0.011  0.000  0.000  0.000  0.000  0.000  0.548
 
band  12 # energy  -10.31186015 # occ.  2.00000000
 
ion      s     py     pz     px    dxy    dyz    dz2    dxz    dx2    tot
  1  0.000  0.000  0.000  0.000  0.000  0.000  0.000  0.000  0.000  0.000
  2  0.018  0.002  0.014  0.002  0.000  0.000  0.000  0.000  0.000  0.035
  3  0.000  0.001  0.001  0.000  0.000  0.000  0.000  0.000  0.000  0.001
  4  0.088  0.000  0.000  0.001  0.000  0.000  0.000  0.000  0.000  0.089
  5  0.000  0.007  0.007  0.000  0.000  0.000  0.000  0.000  0.000  0.015
  6  0.018  0.014  0.002  0.002  0.000  0.000  0.000  0.000  0.000  0.035
  7  0.000  0.001  0.001  0.000  0.000  0.000  0.000  0.000  0.000  0.001
  8  0.088  0.000  0.000  0.001  0.000  0.000  0.000  0.000  0.000  0.089
  9  0.009  0.007  0.007  0.001  0.000  0.000  0.000  0.000  0.000  0.023
 10  0.018  0.002  0.014  0.002  0.000  0.000  0.000  0.000  0.000  0.035
 11  0.009  0.007  0.007  0.001  0.000  0.000  0.000  0.000  0.000  0.023
 12  0.018  0.014  0.002  0.002  0.000  0.000  0.000  0.000  0.000  0.035
 13  0.000  0.000  0.000  0.000  0.000  0.000  0.000  0.000  0.000  0.000
 14  0.011  0.000  0.000  0.000  0.000  0.000  0.000  0.000  0.000  0.011
 15  0.029  0.000  0.001  0.000  0.000  0.000  0.000  0.000  0.000  0.030
 16  0.000  0.000  0.000  0.000  0.000  0.000  0.000  0.000  0.000  0.000
 17  0.000  0.000  0.000  0.000  0.000  0.000  0.000  0.000  0.000  0.000
 18  0.029  0.000  0.001  0.000  0.000  0.000  0.000  0.000  0.000  0.030
 19  0.011  0.000  0.000  0.000  0.000  0.000  0.000  0.000  0.000  0.011
 20  0.011  0.000  0.000  0.000  0.000  0.000  0.000  0.000  0.000  0.011
 21  0.029  0.001  0.000  0.000  0.000  0.000  0.000  0.000  0.000  0.030
 22  0.000  0.000  0.000  0.000  0.000  0.000  0.000  0.000  0.000  0.000
 23  0.000  0.000  0.000  0.000  0.000  0.000  0.000  0.000  0.000  0.000
 24  0.029  0.001  0.000  0.000  0.000  0.000  0.000  0.000  0.000  0.030
 25  0.011  0.000  0.000  0.000  0.000  0.000  0.000  0.000  0.000  0.011
tot  0.427  0.055  0.055  0.011  0.000  0.000  0.000  0.000  0.000  0.548
 
band  13 # energy   -8.91497660 # occ.  2.00000000
 
ion      s     py     pz     px    dxy    dyz    dz2    dxz    dx2    tot
  1  0.000  0.001  0.001  0.001  0.000  0.000  0.000  0.000  0.000  0.002
  2  0.001  0.000  0.034  0.000  0.000  0.000  0.000  0.000  0.000  0.035
  3  0.015  0.001  0.001  0.009  0.000  0.000  0.000  0.000  0.000  0.027
  4  0.015  0.001  0.001  0.009  0.000  0.000  0.000  0.000  0.000  0.027
  5  0.097  0.000  0.000  0.000  0.000  0.000  0.000  0.000  0.000  0.097
  6  0.001  0.034  0.000  0.000  0.000  0.000  0.000  0.000  0.000  0.035
  7  0.015  0.001  0.001  0.009  0.000  0.000  0.000  0.000  0.000  0.027
  8  0.015  0.001  0.001  0.009  0.000  0.000  0.000  0.000  0.000  0.027
  9  0.000  0.001  0.001  0.001  0.000  0.000  0.000  0.000  0.000  0.002
 10  0.001  0.000  0.034  0.000  0.000  0.000  0.000  0.000  0.000  0.035
 11  0.000  0.001  0.001  0.001  0.000  0.000  0.000  0.000  0.000  0.002
 12  0.001  0.034  0.000  0.000  0.000  0.000  0.000  0.000  0.000  0.035
 13  0.000  0.001  0.001  0.001  0.000  0.000  0.000  0.000  0.000  0.002
 14  0.001  0.000  0.000  0.000  0.000  0.000  0.000  0.000  0.000  0.001
 15  0.041  0.000  0.001  0.000  0.000  0.000  0.000  0.000  0.000  0.042
 16  0.001  0.000  0.000  0.000  0.000  0.000  0.000  0.000  0.000  0.001
 17  0.001  0.000  0.000  0.000  0.000  0.000  0.000  0.000  0.000  0.001
 18  0.041  0.000  0.001  0.000  0.000  0.000  0.000  0.000  0.000  0.042
 19  0.001  0.000  0.000  0.000  0.000  0.000  0.000  0.000  0.000  0.001
 20  0.001  0.000  0.000  0.000  0.000  0.000  0.000  0.000  0.000  0.001
 21  0.041  0.001  0.000  0.000  0.000  0.000  0.000  0.000  0.000  0.042
 22  0.001  0.000  0.000  0.000  0.000  0.000  0.000  0.000  0.000  0.001
 23  0.001  0.000  0.000  0.000  0.000  0.000  0.000  0.000  0.000  0.001
 24  0.041  0.001  0.000  0.000  0.000  0.000  0.000  0.000  0.000  0.042
 25  0.001  0.000  0.000  0.000  0.000  0.000  0.000  0.000  0.000  0.001
tot  0.331  0.078  0.078  0.037  0.000  0.000  0.000  0.000  0.000  0.524
 
band  14 # energy   -7.64698952 # occ.  2.00000000
 
ion      s     py     pz     px    dxy    dyz    dz2    dxz    dx2    tot
  1  0.001  0.016  0.016  0.004  0.000  0.000  0.000  0.000  0.000  0.036
  2  0.003  0.000  0.005  0.000  0.000  0.000  0.000  0.000  0.000  0.009
  3  0.007  0.009  0.009  0.014  0.000  0.000  0.000  0.000  0.000  0.039
  4  0.007  0.009  0.009  0.014  0.000  0.000  0.000  0.000  0.000  0.039
  5  0.007  0.000  0.000  0.000  0.000  0.000  0.000  0.000  0.000  0.007
  6  0.003  0.005  0.000  0.000  0.000  0.000  0.000  0.000  0.000  0.009
  7  0.007  0.009  0.009  0.014  0.000  0.000  0.000  0.000  0.000  0.039
  8  0.007  0.009  0.009  0.014  0.000  0.000  0.000  0.000  0.000  0.039
  9  0.001  0.016  0.016  0.004  0.000  0.000  0.000  0.000  0.000  0.036
 10  0.003  0.000  0.005  0.000  0.000  0.000  0.000  0.000  0.000  0.009
 11  0.001  0.016  0.016  0.004  0.000  0.000  0.000  0.000  0.000  0.036
 12  0.003  0.005  0.000  0.000  0.000  0.000  0.000  0.000  0.000  0.009
 13  0.001  0.016  0.016  0.004  0.000  0.000  0.000  0.000  0.000  0.036
 14  0.010  0.000  0.000  0.000  0.000  0.000  0.000  0.000  0.000  0.010
 15  0.001  0.000  0.000  0.000  0.000  0.000  0.000  0.000  0.000  0.001
 16  0.010  0.000  0.000  0.000  0.000  0.000  0.000  0.000  0.000  0.010
 17  0.010  0.000  0.000  0.000  0.000  0.000  0.000  0.000  0.000  0.010
 18  0.001  0.000  0.000  0.000  0.000  0.000  0.000  0.000  0.000  0.001
 19  0.010  0.000  0.000  0.000  0.000  0.000  0.000  0.000  0.000  0.010
 20  0.010  0.000  0.000  0.000  0.000  0.000  0.000  0.000  0.000  0.010
 21  0.001  0.000  0.000  0.000  0.000  0.000  0.000  0.000  0.000  0.001
 22  0.010  0.000  0.000  0.000  0.000  0.000  0.000  0.000  0.000  0.010
 23  0.010  0.000  0.000  0.000  0.000  0.000  0.000  0.000  0.000  0.010
 24  0.001  0.000  0.000  0.000  0.000  0.000  0.000  0.000  0.000  0.001
 25  0.010  0.000  0.000  0.000  0.000  0.000  0.000  0.000  0.000  0.010
tot  0.135  0.111  0.111  0.070  0.000  0.000  0.000  0.000  0.000  0.427
 
band  15 # energy   -7.49162861 # occ.  2.00000000
 
ion      s     py     pz     px    dxy    dyz    dz2    dxz    dx2    tot
  1  0.000  0.003  0.003  0.000  0.000  0.000  0.000  0.000  0.000  0.005
  2  0.005  0.001  0.029  0.005  0.000  0.000  0.000  0.000  0.000  0.040
  3  0.000  0.016  0.016  0.000  0.000  0.000  0.000  0.000  0.000  0.031
  4  0.005  0.005  0.005  0.011  0.000  0.000  0.000  0.000  0.000  0.027
  5  0.000  0.000  0.000  0.000  0.000  0.000  0.000  0.000  0.000  0.000
  6  0.005  0.029  0.001  0.005  0.000  0.000  0.000  0.000  0.000  0.040
  7  0.000  0.016  0.016  0.000  0.000  0.000  0.000  0.000  0.000  0.032
  8  0.005  0.005  0.005  0.011  0.000  0.000  0.000  0.000  0.000  0.027
  9  0.001  0.009  0.009  0.004  0.000  0.000  0.000  0.000  0.000  0.022
 10  0.005  0.001  0.029  0.005  0.000  0.000  0.000  0.000  0.000  0.040
 11  0.001  0.009  0.009  0.004  0.000  0.000  0.000  0.000  0.000  0.022
 12  0.005  0.029  0.001  0.005  0.000  0.000  0.000  0.000  0.000  0.040
 13  0.000  0.003  0.003  0.000  0.000  0.000  0.000  0.000  0.000  0.005