  20  20   0   0
  0.2336395E+02  0.5522883E-09  0.3905268E-09  0.2166505E-08  0.5000000E-15
  1.000000000000000E-004
  CAR 
 unknown system                          
      6.96846190    -38.66464732  301     -0.76511451      1.00000000
    -38.665  0.0000E+00  0.0000E+00
    -38.513  0.0000E+00  0.0000E+00
    -38.360  0.0000E+00  0.0000E+00
    -38.208  0.0000E+00  0.0000E+00
    -38.056  0.0000E+00  0.0000E+00
    -37.904  0.0000E+00  0.0000E+00
    -37.752  0.0000E+00  0.0000E+00
    -37.600  0.0000E+00  0.0000E+00
    -37.448  0.0000E+00  0.0000E+00
    -37.296  0.0000E+00  0.0000E+00
    -37.144  0.0000E+00  0.0000E+00
    -36.991  0.0000E+00  0.0000E+00
    -36.839  0.0000E+00  0.0000E+00
    -36.687  0.0000E+00  0.0000E+00
    -36.535  0.0000E+00  0.2000E+01
    -36.383  0.0000E+00  0.2000E+01
    -36.231  0.0000E+00  0.2000E+01
    -36.079  0.0000E+00  0.2000E+01
    -35.927  0.0000E+00  0.2000E+01
    -35.775  0.0000E+00  0.2000E+01
    -35.622  0.0000E+00  0.2000E+01
    -35.470  0.0000E+00  0.2000E+01
    -35.318  0.0000E+00  0.2000E+01
    -35.166  0.0000E+00  0.4000E+01
    -35.014  0.0000E+00  0.4000E+01
    -34.862  0.0000E+00  0.4000E+01
    -34.710  0.0000E+00  0.4000E+01
    -34.558  0.0000E+00  0.4000E+01
    -34.406  0.0000E+00  0.4000E+01
    -34.253  0.0000E+00  0.6000E+01
    -34.101  0.0000E+00  0.6000E+01
    -33.949  0.0000E+00  0.6000E+01
    -33.797  0.0000E+00  0.6000E+01
    -33.645  0.0000E+00  0.6000E+01
    -33.493  0.0000E+00  0.6000E+01
    -33.341  0.0000E+00  0.8000E+01
    -33.189  0.0000E+00  0.8000E+01
    -33.037  0.0000E+00  0.8000E+01
    -32.884  0.0000E+00  0.8000E+01
    -32.732  0.0000E+00  0.8000E+01
    -32.580  0.0000E+00  0.8000E+01
    -32.428  0.0000E+00  0.8000E+01
    -32.276  0.0000E+00  0.8000E+01
    -32.124  0.0000E+00  0.8000E+01
    -31.972  0.0000E+00  0.8000E+01
    -31.820  0.0000E+00  0.8000E+01
    -31.668  0.0000E+00  0.8000E+01
    -31.515  0.0000E+00  0.8000E+01
    -31.363  0.0000E+00  0.8000E+01
    -31.211  0.0000E+00  0.8000E+01
    -31.059  0.0000E+00  0.8000E+01
    -30.907  0.0000E+00  0.8000E+01
    -30.755  0.0000E+00  0.8000E+01
    -30.603  0.0000E+00  0.8000E+01
    -30.451  0.0000E+00  0.8000E+01
    -30.299  0.0000E+00  0.8000E+01
    -30.146  0.0000E+00  0.8000E+01
    -29.994  0.0000E+00  0.8000E+01
    -29.842  0.0000E+00  0.8000E+01
    -29.690  0.0000E+00  0.8000E+01
    -29.538  0.0000E+00  0.8000E+01
    -29.386  0.0000E+00  0.8000E+01
    -29.234  0.0000E+00  0.8000E+01
    -29.082  0.0000E+00  0.8000E+01
    -28.930  0.0000E+00  0.8000E+01
    -28.777  0.0000E+00  0.8000E+01
    -28.625  0.0000E+00  0.8000E+01
    -28.473  0.0000E+00  0.8000E+01
    -28.321  0.0000E+00  0.8000E+01
    -28.169  0.0000E+00  0.8000E+01
    -28.017  0.0000E+00  0.8000E+01
    -27.865  0.0000E+00  0.8000E+01
    -27.713  0.0000E+00  0.8000E+01
    -27.561  0.0000E+00  0.8000E+01
    -27.408  0.0000E+00  0.8000E+01
    -27.256  0.0000E+00  0.8000E+01
    -27.104  0.0000E+00  0.8000E+01
    -26.952  0.0000E+00  0.8000E+01
    -26.800  0.0000E+00  0.8000E+01
    -26.648  0.0000E+00  0.8000E+01
    -26.496  0.0000E+00  0.8000E+01
    -26.344  0.0000E+00  0.8000E+01
    -26.192  0.0000E+00  0.8000E+01
    -26.039  0.0000E+00  0.8000E+01
    -25.887  0.0000E+00  0.8000E+01
    -25.735  0.0000E+00  0.8000E+01
    -25.583  0.0000E+00  0.8000E+01
    -25.431  0.0000E+00  0.8000E+01
    -25.279  0.0000E+00  0.8000E+01
    -25.127  0.0000E+00  0.8000E+01
    -24.975  0.0000E+00  0.8000E+01
    -24.823  0.0000E+00  0.8000E+01
    -24.670  0.0000E+00  0.8000E+01
    -24.518  0.0000E+00  0.8000E+01
    -24.366  0.0000E+00  0.8000E+01
    -24.214  0.0000E+00  0.8000E+01
    -24.062  0.0000E+00  0.8000E+01
    -23.910  0.0000E+00  0.8000E+01
    -23.758  0.0000E+00  0.8000E+01
    -23.606  0.0000E+00  0.8000E+01
    -23.454  0.0000E+00  0.8000E+01
    -23.302  0.0000E+00  0.8000E+01
    -23.149  0.0000E+00  0.8000E+01
    -22.997  0.0000E+00  0.8000E+01
    -22.845  0.0000E+00  0.8000E+01
    -22.693  0.0000E+00  0.8000E+01
    -22.541  0.0000E+00  0.8000E+01
    -22.389  0.0000E+00  0.8000E+01
    -22.237  0.0000E+00  0.8000E+01
    -22.085  0.0000E+00  0.8000E+01
    -21.933  0.0000E+00  0.8000E+01
    -21.780  0.0000E+00  0.8000E+01
    -21.628  0.0000E+00  0.8000E+01
    -21.476  0.0000E+00  0.8000E+01
    -21.324  0.0000E+00  0.8000E+01
    -21.172  0.0000E+00  0.8000E+01
    -21.020  0.0000E+00  0.8000E+01
    -20.868  0.0000E+00  0.8000E+01
    -20.716  0.0000E+00  0.8000E+01
    -20.564  0.3299E+01  0.8255E+01
    -20.411  0.4215E+01  0.8947E+01
    -20.259  0.6358E+01  0.9921E+01
    -20.107  0.4854E+01  0.1079E+02
    -19.955  0.3107E+01  0.1154E+02
    -19.803  0.5296E+01  0.1200E+02
    -19.651  0.8098E+01  0.1367E+02
    -19.499  0.0000E+00  0.1400E+02
    -19.347  0.4968E+01  0.1402E+02
    -19.195  0.1178E+02  0.1582E+02
    -19.042  0.4283E+01  0.1770E+02
    -18.890  0.0000E+00  0.1800E+02
    -18.738  0.0000E+00  0.1800E+02
    -18.586  0.6658E+02  0.2051E+02
    -18.434  0.1678E+02  0.2346E+02
    -18.282  0.1039E+02  0.2689E+02
    -18.130  0.2130E+02  0.2907E+02
    -17.978  0.0000E+00  0.3000E+02
    -17.826  0.4723E+01  0.3011E+02
    -17.673  0.4074E+01  0.3173E+02
    -17.521  0.0000E+00  0.3200E+02
    -17.369  0.1995E+01  0.3209E+02
    -17.217  0.2935E+02  0.3486E+02
    -17.065  0.4162E+02  0.3853E+02
    -16.913  0.0000E+00  0.4000E+02
    -16.761  0.0000E+00  0.4000E+02
    -16.609  0.1097E+02  0.4044E+02
    -16.457  0.5749E+01  0.4191E+02
    -16.304  0.2870E+02  0.4363E+02
    -16.152  0.2722E+02  0.4668E+02
    -16.000  0.3231E+02  0.4963E+02
    -15.848  0.0000E+00  0.5000E+02
    -15.696  0.0000E+00  0.5000E+02
    -15.544  0.0000E+00  0.5000E+02
    -15.392  0.1829E+02  0.5137E+02
    -15.240  0.6054E+01  0.5280E+02
    -15.088  0.1524E+02  0.5554E+02
    -14.935  0.0000E+00  0.5600E+02
    -14.783  0.0000E+00  0.5600E+02
    -14.631  0.0000E+00  0.5600E+02
    -14.479  0.0000E+00  0.5600E+02
    -14.327  0.0000E+00  0.5600E+02
    -14.175  0.0000E+00  0.5600E+02
    -14.023  0.0000E+00  0.5600E+02
    -13.871  0.0000E+00  0.5600E+02
    -13.719  0.0000E+00  0.5600E+02
    -13.566  0.0000E+00  0.5600E+02
    -13.414  0.0000E+00  0.5600E+02
    -13.262  0.0000E+00  0.5600E+02
    -13.110  0.0000E+00  0.5600E+02
    -12.958  0.0000E+00  0.5600E+02
    -12.806  0.0000E+00  0.5600E+02
    -12.654  0.0000E+00  0.5600E+02
    -12.502  0.0000E+00  0.5600E+02
    -12.350  0.0000E+00  0.5600E+02
    -12.197  0.0000E+00  0.5600E+02
    -12.045  0.0000E+00  0.5600E+02
    -11.893  0.0000E+00  0.5600E+02
    -11.741  0.0000E+00  0.5600E+02
    -11.589  0.0000E+00  0.5600E+02
    -11.437  0.0000E+00  0.5600E+02
    -11.285  0.0000E+00  0.5600E+02
    -11.133  0.0000E+00  0.5600E+02
    -10.981  0.0000E+00  0.5600E+02
    -10.828  0.0000E+00  0.5600E+02
    -10.676  0.0000E+00  0.5600E+02
    -10.524  0.0000E+00  0.5600E+02
    -10.372  0.0000E+00  0.5600E+02
    -10.220  0.0000E+00  0.5600E+02
    -10.068  0.0000E+00  0.5600E+02
     -9.916  0.0000E+00  0.5600E+02
     -9.764  0.0000E+00  0.5600E+02
     -9.612  0.0000E+00  0.5600E+02
     -9.459  0.0000E+00  0.5600E+02
     -9.307  0.0000E+00  0.5600E+02
     -9.155  0.0000E+00  0.5600E+02
     -9.003  0.0000E+00  0.5600E+02
     -8.851  0.0000E+00  0.5600E+02
     -8.699  0.0000E+00  0.5600E+02
     -8.547  0.0000E+00  0.5600E+02
     -8.395  0.0000E+00  0.5600E+02
     -8.243  0.0000E+00  0.5600E+02
     -8.090  0.0000E+00  0.5600E+02
     -7.938  0.0000E+00  0.5600E+02
     -7.786  0.0000E+00  0.5600E+02
     -7.634  0.0000E+00  0.5600E+02
     -7.482  0.9712E+00  0.5639E+02
     -7.330  0.9706E+00  0.5654E+02
     -7.178  0.9701E+00  0.5669E+02
     -7.026  0.6530E+01  0.5714E+02
     -6.874  0.8318E+01  0.5893E+02
     -6.721  0.1919E+02  0.6068E+02
     -6.569  0.1639E+02  0.6299E+02
     -6.417  0.6816E+01  0.6443E+02
     -6.265  0.5522E+01  0.6549E+02
     -6.113  0.6546E+01  0.6641E+02
     -5.961  0.8908E+01  0.6794E+02
     -5.809  0.1229E+02  0.6994E+02
     -5.657  0.1025E+02  0.7170E+02
     -5.505  0.1562E+02  0.7384E+02
     -5.352  0.1224E+02  0.7585E+02
     -5.200  0.1531E+02  0.7794E+02
     -5.048  0.1561E+02  0.8038E+02
     -4.896  0.1214E+02  0.8257E+02
     -4.744  0.2344E+02  0.8473E+02
     -4.592  0.9460E+01  0.8700E+02
     -4.440  0.8360E+01  0.8835E+02
     -4.288  0.1420E+02  0.9015E+02
     -4.136  0.1931E+02  0.9248E+02
     -3.983  0.9406E+01  0.9502E+02
     -3.831  0.1568E+02  0.9680E+02
     -3.679  0.9896E+01  0.9908E+02
     -3.527  0.1434E+02  0.1008E+03
     -3.375  0.9517E+01  0.1025E+03
     -3.223  0.6636E+01  0.1036E+03
     -3.071  0.1381E+02  0.1050E+03
     -2.919  0.1008E+02  0.1066E+03
     -2.767  0.1406E+02  0.1099E+03
     -2.614  0.5591E+01  0.1113E+03
     -2.462  0.1130E+01  0.1120E+03
     -2.310  0.1722E+02  0.1129E+03
     -2.158  0.7677E+01  0.1142E+03
     -2.006  0.1281E+02  0.1159E+03
     -1.854  0.2699E+01  0.1178E+03
     -1.702  0.9568E+01  0.1184E+03
     -1.550  0.6249E+01  0.1195E+03
     -1.398  0.3235E+01  0.1201E+03
     -1.245  0.1816E+02  0.1214E+03
     -1.093  0.2643E+02  0.1231E+03
     -0.941  0.1665E+02  0.1251E+03
     -0.789  0.1905E+02  0.1275E+03
     -0.637  0.7849E+01  0.1308E+03
     -0.485  0.7834E+01  0.1319E+03
     -0.333  0.8742E+01  0.1332E+03
     -0.181  0.4696E+01  0.1341E+03
     -0.029  0.3292E+01  0.1346E+03
      0.123  0.7453E+01  0.1354E+03
      0.276  0.3333E+01  0.1360E+03
      0.428  0.8771E+01  0.1370E+03
      0.580  0.5698E+01  0.1382E+03
      0.732  0.6308E+01  0.1393E+03
      0.884  0.5633E+01  0.1403E+03
      1.036  0.5374E+01  0.1412E+03
      1.188  0.4541E+01  0.1420E+03
      1.340  0.9342E+01  0.1429E+03
      1.492  0.5444E+01  0.1444E+03
      1.645  0.3773E+01  0.1450E+03
      1.797  0.4008E+01  0.1456E+03
      1.949  0.3247E+01  0.1467E+03
      2.101  0.2949E+01  0.1471E+03
      2.253  0.7903E+01  0.1478E+03
      2.405  0.0000E+00  0.1480E+03
      2.557  0.0000E+00  0.1480E+03
      2.709  0.4674E+01  0.1483E+03
      2.861  0.2303E+01  0.1489E+03
      3.014  0.2589E+01  0.1492E+03
      3.166  0.1359E+01  0.1504E+03
      3.318  0.1537E+01  0.1506E+03
      3.470  0.4672E+01  0.1510E+03
      3.622  0.5570E+00  0.1513E+03
      3.774  0.5383E+00  0.1513E+03
      3.926  0.5196E+00  0.1514E+03
      4.078  0.5009E+00  0.1515E+03
      4.230  0.1464E+01  0.1516E+03
      4.383  0.9776E+00  0.1518E+03
      4.535  0.4275E+00  0.1519E+03
      4.687  0.1999E+00  0.1520E+03
      4.839  0.5331E-01  0.1520E+03
      4.991  0.0000E+00  0.1520E+03
      5.143  0.0000E+00  0.1520E+03
      5.295  0.0000E+00  0.1520E+03
      5.447  0.0000E+00  0.1520E+03
      5.599  0.0000E+00  0.1520E+03
      5.752  0.0000E+00  0.1520E+03
      5.904  0.0000E+00  0.1520E+03
      6.056  0.0000E+00  0.1520E+03
      6.208  0.0000E+00  0.1520E+03
      6.360  0.0000E+00  0.1520E+03
      6.512  0.0000E+00  0.1520E+03
      6.664  0.0000E+00  0.1520E+03
      6.816  0.0000E+00  0.1520E+03
      6.968  0.0000E+00  0.1520E+03
