   20   20    1    1
  0.2336395E+02  0.5522883E-09  0.3905268E-09  0.2166505E-08  0.5000000E-15
  1.000000000000000E-004
  CAR 
 unknown system                          
    128     12     76
 
  0.0000000E+00  0.0000000E+00  0.0000000E+00  0.2857143E-01
    1      -36.590415   1.000000
    2      -35.265804   1.000000
    3      -34.305684   1.000000
    4      -33.416999   1.000000
    5      -20.504619   1.000000
    6      -20.033453   1.000000
    7      -19.847288   1.000000
    8      -19.356560   1.000000
    9      -19.045365   1.000000
   10      -18.678914   1.000000
   11      -18.589211   1.000000
   12      -18.534176   1.000000
   13      -18.517296   1.000000
   14      -18.344631   1.000000
   15      -18.092601   1.000000
   16      -17.826683   1.000000
   17      -17.308914   1.000000
   18      -17.290183   1.000000
   19      -17.131832   1.000000
   20      -17.050732   1.000000
   21      -16.519468   1.000000
   22      -16.344171   1.000000
   23      -16.291465   1.000000
   24      -16.158840   1.000000
   25      -16.091182   1.000000
   26      -15.436376   1.000000
   27      -15.168895   1.000000
   28      -15.117921   1.000000
   29       -7.106739   1.000000
   30       -6.796284   1.000000
   31       -6.631860   1.000000
   32       -6.006390   1.000000
   33       -5.889354   1.000000
   34       -5.537011   1.000000
   35       -5.442510   1.000000
   36       -5.296643   1.000000
   37       -5.141108   1.000000
   38       -5.058686   1.000000
   39       -4.998262   1.000000
   40       -4.858204   1.000000
   41       -4.763892   1.000000
   42       -4.581459   1.000000
   43       -4.246572   1.000000
   44       -4.122340   1.000000
   45       -4.080502   1.000000
   46       -3.992930   1.000000
   47       -3.805879   1.000000
   48       -3.767355   1.000000
   49       -3.543211   1.000000
   50       -3.250280   1.000000
   51       -3.016625   1.000000
   52       -2.924229   1.000000
   53       -2.909892   1.000000
   54       -2.698318   1.000000
   55       -2.664941   1.000000
   56       -2.390824   1.000000
   57       -2.296344   1.000000
   58       -1.954051   1.000000
   59       -1.915299   1.000000
   60       -1.370309   1.000000
   61       -1.343495   1.000000
   62       -1.087623   1.000000
   63       -1.080135   1.000000
   64       -1.035898   1.000000
   65       -0.866681   1.117694
   66       -0.776184   0.186831
   67       -0.750753   0.000000
   68       -0.514545   0.000000
   69        0.071953   0.000000
   70        0.290180   0.000000
   71        0.387063   0.000000
   72        0.650876   0.000000
   73        1.329379   0.000000
   74        1.564057   0.000000
   75        2.667053   0.000000
   76        4.114997   0.000000
 
  0.2000000E+00  0.0000000E+00  0.0000000E+00  0.5714286E-01
    1      -36.590114   1.000000
    2      -35.265473   1.000000
    3      -34.305357   1.000000
    4      -33.416735   1.000000
    5      -20.564477   1.000000
    6      -20.190352   1.000000
    7      -19.719054   1.000000
    8      -19.345134   1.000000
    9      -19.124747   1.000000
   10      -18.714811   1.000000
   11      -18.589546   1.000000
   12      -18.467871   1.000000
   13      -18.399818   1.000000
   14      -18.351884   1.000000
   15      -18.163272   1.000000
   16      -17.793150   1.000000
   17      -17.309551   1.000000
   18      -17.275820   1.000000
   19      -17.091616   1.000000
   20      -17.058329   1.000000
   21      -16.491780   1.000000
   22      -16.344850   1.000000
   23      -16.292243   1.000000
   24      -16.134779   1.000000
   25      -16.031165   1.000000
   26      -15.437295   1.000000
   27      -15.174675   1.000000
   28      -15.099158   1.000000
   29       -6.936632   1.000000
   30       -6.752967   1.000000
   31       -6.661259   1.000000
   32       -5.978969   1.000000
   33       -5.748472   1.000000
   34       -5.609101   1.000000
   35       -5.536937   1.000000
   36       -5.337776   1.000000
   37       -5.174521   1.000000
   38       -5.129752   1.000000
   39       -4.924448   1.000000
   40       -4.772922   1.000000
   41       -4.692040   1.000000
   42       -4.640043   1.000000
   43       -4.368659   1.000000
   44       -4.344440   1.000000
   45       -4.078404   1.000000
   46       -4.035811   1.000000
   47       -3.956333   1.000000
   48       -3.739935   1.000000
   49       -3.505386   1.000000
   50       -3.362149   1.000000
   51       -3.188253   1.000000
   52       -3.028627   1.000000
   53       -2.935783   1.000000
   54       -2.792823   1.000000
   55       -2.612701   1.000000
   56       -2.521580   1.000000
   57       -2.302498   1.000000
   58       -2.202907   1.000000
   59       -1.891797   1.000000
   60       -1.412426   1.000000
   61       -1.389291   1.000000
   62       -1.101398   1.000000
   63       -1.074177   1.000000
   64       -0.960661   1.000000
   65       -0.868590   1.081093
   66       -0.739962   0.040203
   67       -0.723163   0.000000
   68       -0.617260   0.000000
   69        0.090771   0.000000
   70        0.328307   0.000000
   71        0.364783   0.000000
   72        0.815486   0.000000
   73        1.297665   0.000000
   74        1.311199   0.000000
   75        2.656556   0.000000
   76        4.305092   0.000000
 
  0.4000000E+00  0.0000000E+00  0.0000000E+00  0.5714286E-01
    1      -36.589627   1.000000
    2      -35.264936   1.000000
    3      -34.304828   1.000000
    4      -33.416307   1.000000
    5      -20.665401   1.000000
    6      -20.302858   1.000000
    7      -19.669545   1.000000
    8      -19.302459   1.000000
    9      -19.230735   1.000000
   10      -18.725894   1.000000
   11      -18.590089   1.000000
   12      -18.382283   1.000000
   13      -18.346703   1.000000
   14      -18.294445   1.000000
   15      -18.228841   1.000000
   16      -17.769744   1.000000
   17      -17.310580   1.000000
   18      -17.262251   1.000000
   19      -17.062789   1.000000
   20      -17.024863   1.000000
   21      -16.421679   1.000000
   22      -16.345946   1.000000
   23      -16.312470   1.000000
   24      -16.061921   1.000000
   25      -15.985922   1.000000
   26      -15.438781   1.000000
   27      -15.175730   1.000000
   28      -15.062357   1.000000
   29       -6.825077   1.000000
   30       -6.707564   1.000000
   31       -6.301301   1.000000
   32       -5.918778   1.000000
   33       -5.820751   1.000000
   34       -5.669202   1.000000
   35       -5.610077   1.000000
   36       -5.490974   1.000000
   37       -5.307391   1.000000
   38       -5.104944   1.000000
   39       -4.802216   1.000000
   40       -4.781992   1.000000
   41       -4.687440   1.000000
   42       -4.635755   1.000000
   43       -4.569603   1.000000
   44       -4.499025   1.000000
   45       -4.129880   1.000000
   46       -4.112125   1.000000
   47       -3.896805   1.000000
   48       -3.889652   1.000000
   49       -3.673563   1.000000
   50       -3.514987   1.000000
   51       -3.349394   1.000000
   52       -3.108111   1.000000
   53       -3.068350   1.000000
   54       -3.006237   1.000000
   55       -2.763044   1.000000
   56       -2.506935   1.000000
   57       -2.365708   1.000000
   58       -2.317093   1.000000
   59       -1.747046   1.000000
   60       -1.548899   1.000000
   61       -1.459553   1.000000
   62       -1.198127   1.000000
   63       -1.061729   1.000000
   64       -1.026895   1.000000
   65       -0.846872   1.012388
   66       -0.810031   0.589246
   67       -0.738857   0.000000
   68       -0.395211   0.000000
   69        0.050519   0.000000
   70        0.317357   0.000000
   71        0.396461   0.000000
   72        1.240388   0.000000
   73        1.309623   0.000000
   74        1.807913   0.000000
   75        2.610123   0.000000
   76        2.710092   0.000000
 
  0.0000000E+00  0.1428571E+00  0.0000000E+00  0.5714286E-01
    1      -36.586986   1.000000
    2      -35.261893   1.000000
    3      -34.301782   1.000000
    4      -33.413157   1.000000
    5      -20.450354   1.000000
    6      -19.992936   1.000000
    7      -19.800344   1.000000
    8      -19.312550   1.000000
    9      -19.063210   1.000000
   10      -18.634070   1.000000
   11      -18.604151   1.000000
   12      -18.547739   1.000000
   13      -18.496420   1.000000
   14      -18.305837   1.000000
   15      -18.107812   1.000000
   16      -17.785816   1.000000
   17      -17.281539   1.000000
   18      -17.237097   1.000000
   19      -17.181007   1.000000
   20      -17.066096   1.000000
   21      -16.566688   1.000000
   22      -16.303215   1.000000
   23      -16.263924   1.000000
   24      -16.202480   1.000000
   25      -16.108730   1.000000
   26      -15.385681   1.000000
   27      -15.200023   1.000000
   28      -15.182757   1.000000
   29       -7.048825   1.000000
   30       -6.726276   1.000000
   31       -6.626170   1.000000
   32       -6.332642   1.000000
   33       -5.857435   1.000000
   34       -5.831333   1.000000
   35       -5.541185   1.000000
   36       -5.496483   1.000000
   37       -5.282761   1.000000
   38       -5.219172   1.000000
   39       -5.053168   1.000000
   40       -4.980336   1.000000
   41       -4.867594   1.000000
   42       -4.622834   1.000000
   43       -4.423947   1.000000
   44       -4.421124   1.000000
   45       -4.077948   1.000000
   46       -4.067283   1.000000
   47       -4.021244   1.000000
   48       -3.726046   1.000000
   49       -3.705593   1.000000
   50       -3.354929   1.000000
   51       -3.168680   1.000000
   52       -3.070238   1.000000
   53       -2.934893   1.000000
   54       -2.822244   1.000000
   55       -2.702914   1.000000
   56       -2.559464   1.000000
   57       -2.340015   1.000000
   58       -2.003401   1.000000
   59       -1.975119   1.000000
   60       -1.502373   1.000000
   61       -1.311819   1.000000
   62       -1.095420   1.000000
   63       -0.972597   1.000000
   64       -0.964622   1.038669
   65       -0.745241   0.260614
   66       -0.652813  -0.030172
   67       -0.521218   0.000000
   68       -0.463855   0.000000
   69        0.130611   0.000000
   70        0.488263   0.000000
   71        0.568686   0.000000
   72        0.681160   0.000000
   73        1.421543   0.000000
   74        1.488542   0.000000
   75        2.796271   0.000000
   76        4.223644   0.000000
 
  0.2000000E+00  0.1428571E+00  0.0000000E+00  0.1142857E+00
    1      -36.586718   1.000000
    2      -35.261601   1.000000
    3      -34.301494   1.000000
    4      -33.412928   1.000000
    5      -20.490800   1.000000
    6      -20.146959   1.000000
    7      -19.695283   1.000000
    8      -19.310427   1.000000
    9      -19.111867   1.000000
   10      -18.706602   1.000000
   11      -18.587227   1.000000
   12      -18.484588   1.000000
   13      -18.381885   1.000000
   14      -18.319337   1.000000
   15      -18.161522   1.000000
   16      -17.774275   1.000000
   17      -17.277005   1.000000
   18      -17.236892   1.000000
   19      -17.124270   1.000000
   20      -17.081991   1.000000
   21      -16.538630   1.000000
   22      -16.314133   1.000000
   23      -16.259850   1.000000
   24      -16.173144   1.000000
   25      -16.043721   1.000000
   26      -15.380774   1.000000
   27      -15.212175   1.000000
   28      -15.141182   1.000000
   29       -6.912861   1.000000
   30       -6.704738   1.000000
   31       -6.651295   1.000000
   32       -6.314317   1.000000
   33       -5.952016   1.000000
   34       -5.761008   1.000000
   35       -5.603051   1.000000
   36       -5.503724   1.000000
   37       -5.332824   1.000000
   38       -5.173010   1.000000
   39       -5.051466   1.000000
   40       -4.970433   1.000000
   41       -4.820408   1.000000
   42       -4.651395   1.000000
   43       -4.577247   1.000000
   44       -4.413746   1.000000
   45       -4.351005   1.000000
   46       -4.054752   1.000000
   47       -3.931148   1.000000
   48       -3.820338   1.000000
   49       -3.689087   1.000000
   50       -3.479165   1.000000
   51       -3.165525   1.000000
   52       -3.087837   1.000000
   53       -3.023693   1.000000
   54       -2.960092   1.000000
   55       -2.844051   1.000000
   56       -2.537025   1.000000
   57       -2.365521   1.000000
   58       -2.184880   1.000000
   59       -1.938671   1.000000
   60       -1.622599   1.000000
   61       -1.307064   1.000000
   62       -1.099571   1.000000
   63       -0.970862   1.000000
   64       -0.934637   1.018011
   65       -0.728640   0.309959
   66       -0.710162  -0.013604
   67       -0.528097   0.000000
   68       -0.415942   0.000000
   69        0.172017   0.000000
   70        0.519391   0.000000
   71        0.554245   0.000000
   72        0.836715   0.000000
   73        1.451113   0.000000
   74        1.468833   0.000000
   75        2.783992   0.000000
   76        4.565218   0.000000
 
  0.4000000E+00  0.1428571E+00  0.0000000E+00  0.1142857E+00
    1      -36.586284   1.000000
    2      -35.261128   1.000000
    3      -34.301029   1.000000
    4      -33.412559   1.000000
    5      -20.573762   1.000000
    6      -20.251412   1.000000
    7      -19.666244   1.000000
    8      -19.297930   1.000000
    9      -19.180970   1.000000
   10      -18.734793   1.000000
   11      -18.577029   1.000000
   12      -18.372045   1.000000
   13      -18.333190   1.000000
   14      -18.307793   1.000000
   15      -18.214590   1.000000
   16      -17.774920   1.000000
   17      -17.257744   1.000000
   18      -17.243119   1.000000
   19      -17.095973   1.000000
   20      -17.045611   1.000000
   21      -16.473353   1.000000
   22      -16.333138   1.000000
   23      -16.255734   1.000000
   24      -16.099317   1.000000
   25      -15.999329   1.000000
   26      -15.363136   1.000000
   27      -15.203344   1.000000
   28      -15.091679   1.000000
   29       -6.841804   1.000000
   30       -6.714920   1.000000
   31       -6.416507   1.000000
   32       -6.294140   1.000000
   33       -6.021700   1.000000
   34       -5.780826   1.000000
   35       -5.594910   1.000000
   36       -5.528579   1.000000
   37       -5.444999   1.000000
   38       -5.282493   1.000000
   39       -5.067846   1.000000
   40       -4.946378   1.000000
   41       -4.819183   1.000000
   42       -4.721299   1.000000
   43       -4.678700   1.000000
   44       -4.520214   1.000000
   45       -4.344492   1.000000
   46       -4.136811   1.000000
   47       -3.962560   1.000000
   48       -3.817331   1.000000
   49       -3.779110   1.000000
   50       -3.545708   1.000000
   51       -3.474702   1.000000
   52       -3.223414   1.000000
   53       -3.108379   1.000000
   54       -2.987685   1.000000
   55       -2.886651   1.000000
   56       -2.816009   1.000000
   57       -2.426868   1.000000
   58       -2.147907   1.000000
   59       -1.863237   1.000000
   60       -1.699550   1.000000
   61       -1.298802   1.000000
   62       -1.246603   1.000000
   63       -1.104868   1.000000
   64       -0.929272   1.000000
   65       -0.874590   1.062617
   66       -0.616337  -0.058056
   67       -0.367995   0.000000
   68       -0.329413   0.000000
   69        0.165890   0.000000
   70        0.528108   0.000000
   71        0.584732   0.000000
   72        1.386743   0.000000
   73        1.432372   0.000000
   74        1.827971   0.000000
   75        2.723235   0.000000
   76        2.836384   0.000000
 
  0.0000000E+00  0.2857143E+00  0.0000000E+00  0.5714286E-01
    1      -36.579267   1.000000
    2      -35.253084   1.000000
    3      -34.292993   1.000000
    4      -33.404503   1.000000
    5      -20.384521   1.000000
    6      -19.868657   1.000000
    7      -19.680988   1.000000
    8      -19.218863   1.000000
    9      -19.090043   1.000000
   10      -18.633778   1.000000
   11      -18.580884   1.000000
   12      -18.516903   1.000000
   13      -18.446496   1.000000
   14      -18.219780   1.000000
   15      -18.116019   1.000000
   16      -17.681477   1.000000
   17      -17.306598   1.000000
   18      -17.221263   1.000000
   19      -17.170604   1.000000
   20      -17.045600   1.000000
   21      -16.633195   1.000000
   22      -16.358433   1.000000
   23      -16.215679   1.000000
   24      -16.137865   1.000000
   25      -16.134338   1.000000
   26      -15.373597   1.000000
   27      -15.347916   1.000000
   28      -15.197141   1.000000
   29       -6.992018   1.000000
   30       -6.929772   1.000000
   31       -6.610962   1.000000
   32       -6.528817   1.000000
   33       -6.370159   1.000000
   34       -6.275389   1.000000
   35       -6.006447   1.000000
   36       -5.794724   1.000000
   37       -5.561894   1.000000
   38       -5.459873   1.000000
   39       -5.302078   1.000000
   40       -5.173084   1.000000
   41       -5.046399   1.000000
   42       -4.984414   1.000000
   43       -4.740154   1.000000
   44       -4.528468   1.000000
   45       -4.517612   1.000000
   46       -4.247734   1.000000
   47       -4.181830   1.000000
   48       -3.990315   1.000000
   49       -3.904924   1.000000
   50       -3.710516   1.000000
   51       -3.411651   1.000000
   52       -3.368988   1.000000
   53       -2.973351   1.000000
   54       -2.814106   1.000000
   55       -2.768685   1.000000
   56       -2.696520   1.000000
   57       -2.264565   1.000000
   58       -2.141597   1.000000
   59       -1.984411   1.000000
   60       -1.500413   1.000000
   61       -1.295156   1.000000
   62       -0.985775   1.000000
   63       -0.813331   1.038957
   64       -0.739855   0.388831
   65       -0.692195   0.000000
   66       -0.535934   0.000000
   67       -0.304853   0.000000
   68        0.164156   0.000000
   69        0.372994   0.000000
   70        0.734479   0.000000
   71        0.978888   0.000000
   72        1.019421   0.000000
   73        1.836660   0.000000
   74        1.886262   0.000000
   75        3.141413   0.000000
   76        4.894230   0.000000
 
  0.2000000E+00  0.2857143E+00  0.0000000E+00  0.1142857E+00
    1      -36.579072   1.000000
    2      -35.252881   1.000000
    3      -34.292794   1.000000
    4      -33.404355   1.000000
    5      -20.363134   1.000000
    6      -20.029158   1.000000
    7      -19.647459   1.000000
    8      -19.234999   1.000000
    9      -19.089947   1.000000
   10      -18.626570   1.000000
   11      -18.585494   1.000000
   12      -18.506261   1.000000
   13      -18.380870   1.000000
   14      -18.234843   1.000000
   15      -18.145095   1.000000
   16      -17.717143   1.000000
   17      -17.265532   1.000000
   18      -17.175387   1.000000
   19      -17.158362   1.000000
   20      -17.087588   1.000000
   21      -16.609104   1.000000
   22      -16.295418   1.000000
   23      -16.232324   1.000000
   24      -16.175122   1.000000
   25      -16.041595   1.000000
   26      -15.375887   1.000000
   27      -15.298298   1.000000
   28      -15.156078   1.000000
   29       -6.972331   1.000000
   30       -6.895040   1.000000
   31       -6.693361   1.000000
   32       -6.552453   1.000000
   33       -6.415840   1.000000
   34       -6.278407   1.000000
   35       -6.019125   1.000000
   36       -5.799057   1.000000
   37       -5.634793   1.000000
   38       -5.410578   1.000000
   39       -5.354603   1.000000
   40       -5.184554   1.000000
   41       -5.042976   1.000000
   42       -4.964212   1.000000
   43       -4.835425   1.000000
   44       -4.700236   1.000000
   45       -4.385404   1.000000
   46       -4.282497   1.000000
   47       -4.144155   1.000000
   48       -4.062158   1.000000
   49       -3.877806   1.000000
   50       -3.763938   1.000000
   51       -3.542703   1.000000
   52       -3.349164   1.000000
   53       -3.156354   1.000000
   54       -2.893958   1.000000
   55       -2.885223   1.000000
   56       -2.551151   1.000000
   57       -2.325723   1.000000
   58       -2.085155   1.000000
   59       -2.032707   1.000000
   60       -1.659697   1.000000
   61       -1.259683   1.000000
   62       -0.965805   1.000000
   63       -0.830547   1.033025
   64       -0.792239   0.877696
   65       -0.713677   0.022636
   66       -0.549007   0.000000
   67       -0.223399   0.000000
   68        0.197457   0.000000
   69        0.416303   0.000000
   70        0.872983   0.000000
   71        0.992168   0.000000
   72        1.016434   0.000000
   73        1.851741   0.000000
   74        1.867684   0.000000
   75        3.099924   0.000000
   76        3.128798   0.000000
 
  0.4000000E+00  0.2857143E+00  0.0000000E+00  0.1142857E+00
    1      -36.578754   1.000000
    2      -35.252550   1.000000
    3      -34.292470   1.000000
    4      -33.404115   1.000000
    5      -20.349859   1.000000
    6      -20.151983   1.000000
    7      -19.700456   1.000000
    8      -19.282400   1.000000
    9      -19.052822   1.000000
   10      -18.723800   1.000000
   11      -18.550049   1.000000
   12      -18.385231   1.000000
   13      -18.344130   1.000000
   14      -18.278404   1.000000
   15      -18.132382   1.000000
   16      -17.802541   1.000000
   17      -17.225829   1.000000
   18      -17.182568   1.000000
   19      -17.110607   1.000000
   20      -17.063804   1.000000
   21      -16.553268   1.000000
   22      -16.311206   1.000000
   23      -16.172320   1.000000
   24      -16.133065   1.000000
   25      -16.008312   1.000000
   26      -15.379004   1.000000
   27      -15.173863   1.000000
   28      -15.117047   1.000000
   29       -7.034921   1.000000
   30       -6.941976   1.000000
   31       -6.693821   1.000000
   32       -6.621253   1.000000
   33       -6.496653   1.000000
   34       -6.068943   1.000000
   35       -6.019350   1.000000
   36       -5.855198   1.000000
   37       -5.731861   1.000000
   38       -5.470112   1.000000
   39       -5.333424   1.000000
   40       -5.215092   1.000000
   41       -5.193711   1.000000
   42       -5.069958   1.000000
   43       -4.904948   1.000000
   44       -4.737579   1.000000
   45       -4.241404   1.000000
   46       -4.232284   1.000000
   47       -4.149699   1.000000
   48       -4.088621   1.000000
   49       -3.945661   1.000000
   50       -3.813296   1.000000
   51       -3.683033   1.000000
   52       -3.479368   1.000000
   53       -3.439101   1.000000
   54       -2.916223   1.000000
   55       -2.879174   1.000000
   56       -2.838800   1.000000
   57       -2.151909   1.000000
   58       -2.047588   1.000000
   59       -1.995154   1.000000
   60       -1.736899   1.000000
   61       -1.243638   1.000000
   62       -1.202884   1.000000
   63       -0.943547   1.005262
   64       -0.798863   0.992835
   65       -0.778472   0.531427
   66       -0.336658   0.000000
   67       -0.173155   0.000000
   68        0.257615   0.000000
   69        0.463657   0.000000
   70        0.999959   0.000000
   71        1.024654   0.000000
   72        1.051978   0.000000
   73        1.828986   0.000000
   74        1.883336   0.000000
   75        3.070799   0.000000
   76        3.115531   0.000000
 
  0.0000000E+00  0.4285714E+00  0.0000000E+00  0.5714286E-01
    1      -36.573059   1.000000
    2      -35.245996   1.000000
    3      -34.285922   1.000000
    4      -33.397539   1.000000
    5      -20.392583   1.000000
    6      -19.718343   1.000000
    7      -19.563447   1.000000
    8      -19.191558   1.000000
    9      -19.071625   1.000000
   10      -18.723462   1.000000
   11      -18.543474   1.000000
   12      -18.403923   1.000000
   13      -18.397469   1.000000
   14      -18.187508   1.000000
   15      -18.062417   1.000000
   16      -17.576875   1.000000
   17      -17.432527   1.000000
   18      -17.200795   1.000000
   19      -17.156552   1.000000
   20      -16.979232   1.000000
   21      -16.636393   1.000000
   22      -16.481855   1.000000
   23      -16.179515   1.000000
   24      -16.109126   1.000000
   25      -16.002909   1.000000
   26      -15.524990   1.000000
   27      -15.455858   1.000000
   28      -15.131402   1.000000
   29       -7.573788   1.000000
   30       -6.977560   1.000000
   31       -6.709998   1.000000
   32       -6.597023   1.000000
   33       -6.591168   1.000000
   34       -6.526144   1.000000
   35       -6.359812   1.000000
   36       -5.970280   1.000000
   37       -5.829991   1.000000
   38       -5.640891   1.000000
   39       -5.565621   1.000000
   40       -5.476042   1.000000
   41       -5.141870   1.000000
   42       -4.971396   1.000000
   43       -4.911591   1.000000
   44       -4.730122   1.000000
   45       -4.611565   1.000000
   46       -4.580524   1.000000
   47       -4.437321   1.000000
   48       -4.163687   1.000000
   49       -4.069166   1.000000
   50       -3.716519   1.000000
   51       -3.549803   1.000000
   52       -3.491942   1.000000
   53       -3.004624   1.000000
   54       -2.860190   1.000000
   55       -2.764193   1.000000
   56       -2.736097   1.000000
   57       -2.303937   1.000000
   58       -2.143080   1.000000
   59       -1.887182   1.000000
   60       -1.434326   1.000000
   61       -1.283578   1.000000
   62       -0.872311   1.000000
   63       -0.737167   0.136990
   64       -0.712061  -0.035588
   65       -0.552748   0.000000
   66       -0.412121   0.000000
   67       -0.184245   0.000000
   68        0.650423   0.000000
   69        0.717506   0.000000
   70        0.770111   0.000000
   71        1.394405   0.000000
   72        1.437196   0.000000
   73        1.813235   0.000000
   74        2.283968   0.000000
   75        3.151252   0.000000
   76        3.513931   0.000000
 
  0.2000000E+00  0.4285714E+00  0.0000000E+00  0.1142857E+00
    1      -36.572921   1.000000
    2      -35.245863   1.000000
    3      -34.285793   1.000000
    4      -33.397456   1.000000
    5      -20.330635   1.000000
    6      -19.859845   1.000000
    7      -19.633138   1.000000
    8      -19.156316   1.000000
    9      -19.103467   1.000000
   10      -18.569502   1.000000
   11      -18.512221   1.000000
   12      -18.497358   1.000000
   13      -18.418084   1.000000
   14      -18.164632   1.000000
   15      -18.129636   1.000000
   16      -17.661174   1.000000
   17      -17.302235   1.000000
   18      -17.217245   1.000000
   19      -17.109087   1.000000
   20      -17.043327   1.000000
   21      -16.619489   1.000000
   22      -16.350512   1.000000
   23      -16.218225   1.000000
   24      -16.101088   1.000000
   25      -16.016435   1.000000
   26      -15.457791   1.000000
   27      -15.392826   1.000000
   28      -15.092421   1.000000
   29       -7.584026   1.000000
   30       -6.945755   1.000000
   31       -6.795310   1.000000
   32       -6.754309   1.000000
   33       -6.629572   1.000000
   34       -6.578097   1.000000
   35       -6.272361   1.000000
   36       -5.983722   1.000000
   37       -5.849438   1.000000
   38       -5.771998   1.000000
   39       -5.536433   1.000000
   40       -5.442075   1.000000
   41       -5.159941   1.000000
   42       -5.111109   1.000000
   43       -4.957881   1.000000
   44       -4.817240   1.000000
   45       -4.659424   1.000000
   46       -4.413552   1.000000
   47       -4.299485   1.000000
   48       -4.187772   1.000000
   49       -4.130356   1.000000
   50       -3.764706   1.000000
   51       -3.670711   1.000000
   52       -3.499184   1.000000
   53       -3.201246   1.000000
   54       -2.877294   1.000000
   55       -2.808189   1.000000
   56       -2.632958   1.000000
   57       -2.304189   1.000000
   58       -2.050877   1.000000
   59       -1.921628   1.000000
   60       -1.627858   1.000000
   61       -1.218807   1.000000
   62       -0.853259   1.000000
   63       -0.756978   0.557716
   64       -0.734794   0.015819
   65       -0.701078  -0.005943
   66       -0.383295   0.000000
   67       -0.035104   0.000000
   68        0.713952   0.000000
   69        0.890885   0.000000
   70        1.396429   0.000000
   71        1.425984   0.000000
   72        1.859458   0.000000
   73        2.253655   0.000000
   74        2.262652   0.000000
   75        3.138186   0.000000
   76        3.497348   0.000000
 
  0.4000000E+00  0.4285714E+00  0.0000000E+00  0.1142857E+00
    1      -36.572700   1.000000
    2      -35.245649   1.000000
    3      -34.285586   1.000000
    4      -33.397323   1.000000
    5      -20.175902   1.000000
    6      -20.033406   1.000000
    7      -19.805605   1.000000
    8      -19.222845   1.000000
    9      -18.968466   1.000000
   10      -18.707360   1.000000
   11      -18.492838   1.000000
   12      -18.415028   1.000000
   13      -18.352928   1.000000
   14      -18.236725   1.000000
   15      -18.060863   1.000000
   16      -17.838088   1.000000
   17      -17.232409   1.000000
   18      -17.185109   1.000000
   19      -17.083710   1.000000
   20      -17.022546   1.000000
   21      -16.577418   1.000000
   22      -16.267074   1.000000
   23      -16.160982   1.000000
   24      -16.155394   1.000000
   25      -15.987123   1.000000
   26      -15.460519   1.000000
   27      -15.197970   1.000000
   28      -15.039055   1.000000
   29       -7.604710   1.000000
   30       -7.108729   1.000000
   31       -6.969355   1.000000
   32       -6.845170   1.000000
   33       -6.664596   1.000000
   34       -6.557839   1.000000
   35       -6.089712   1.000000
   36       -6.017723   1.000000
   37       -5.918456   1.000000
   38       -5.844272   1.000000
   39       -5.602424   1.000000
   40       -5.368246   1.000000
   41       -5.293829   1.000000
   42       -5.282061   1.000000
   43       -5.146248   1.000000
   44       -4.750116   1.000000