unknown system                          
   1.00000000000000     
     5.581684    0.000000    0.000000
     2.790842    4.833880    0.000000
     0.000000    0.000000   19.975495
   O    Sr   Ti
    12     4     4
Direct
  0.500377  0.500377  0.298277
  0.500377  0.999246  0.298277
  0.999246  0.500377  0.298277
  0.165946  0.165946  0.418487
  0.165946  0.668108  0.418487
  0.668108  0.165946  0.418487
  0.834617  0.834617  0.540352
  0.834617  0.330766  0.540352
  0.330766  0.834617  0.540352
  0.503172  0.503172  0.660402
  0.503172  0.993656  0.660402
  0.993656  0.503172  0.660402
  0.000000  0.000000  0.290161
  0.666667  0.666667  0.389625
  0.333333  0.333333  0.512223
  0.000000  0.000000  0.633523
  0.333333  0.333333  0.339199
  0.000000  0.000000  0.462743
  0.666667  0.666667  0.583298
  0.333333  0.333333  0.694445
 
   32   32  112
 0.54480E-05 0.46001E-09 0.67766E-09 0.32615E-09 0.46070E-09 0.60944E-10 0.58701E-10 0.25344E-09 0.13189E-08 0.18348E-05
 0.34865E-07 0.77922E-09 0.17311E-07 0.11869E-11 0.11241E-13 0.99920E-15 0.38858E-15 0.74940E-15 0.11380E-13 0.13954E-11
 0.20577E-08 0.23007E-09 0.65027E-09 0.12157E-08 0.19718E-08 0.22819E-08 0.30794E-07 0.21775E-09 0.18744E-08 0.30179E-08
 0.62787E-08 0.57315E-05 0.46001E-09 0.24192E-09 0.73370E-09 0.10708E-08 0.51264E-10 0.43959E-10 0.39655E-10 0.43410E-09
 0.42050E-08 0.30730E-08 0.63591E-09 0.31969E-09 0.60119E-10 0.23109E-12 0.61062E-14 0.11935E-14 0.11935E-14 0.61895E-14
 0.22515E-12 0.88345E-10 0.32757E-09 0.13203E-09 0.21915E-09 0.53055E-08 0.46605E-08 0.24325E-06 0.22437E-09 0.11836E-09
 0.25495E-09 0.22627E-07 0.25760E-08 0.45218E-08 0.67767E-09 0.73370E-09 0.79431E-09 0.27820E-09 0.54690E-10 0.50931E-10
 0.49147E-10 0.25745E-08 0.81214E-10 0.18621E-07 0.96958E-09 0.11221E-08 0.50657E-10 0.28674E-12 0.18596E-13 0.81324E-14
 0.17569E-13 0.25985E-12 0.42428E-10 0.80010E-09 0.35285E-09 0.19037E-09 0.18294E-09 0.37082E-09 0.79495E-10 0.58114E-07
 0.21769E-09 0.25109E-09 0.33558E-08 0.20067E-08 0.55234E-09 0.20710E-07 0.32615E-09 0.10708E-08 0.27820E-09 0.59821E-10
 0.12385E-09 0.36662E-10 0.43179E-11 0.43144E-11 0.22393E-09 0.12912E-09 0.60049E-09 0.12687E-08 0.12345E-08 0.26451E-11
 0.41131E-12 0.33068E-12 0.25977E-11 0.58607E-09 0.94833E-08 0.11402E-09 0.32817E-06 0.50338E-10 0.84935E-11 0.38241E-11
 0.55492E-10 0.51700E-10 0.15906E-08 0.37572E-07 0.86015E-09 0.12316E-09 0.15893E-09 0.16881E-09 0.46070E-09 0.51264E-10
 0.54690E-10 0.12385E-09 0.72716E-11 0.79278E-12 0.51625E-12 0.20085E-11 0.16679E-10 0.11301E-09 0.12405E-08 0.10577E-09
 0.40453E-09 0.50416E-10 0.18859E-10 0.47573E-09 0.21324E-09 0.45678E-10 0.93050E-10 0.26067E-09 0.21808E-10 0.14840E-11
 0.59708E-12 0.10430E-11 0.59987E-11 0.69360E-10 0.59724E-09 0.36022E-10 0.61336E-10 0.14649E-09 0.15857E-09 0.10634E-09
 0.60945E-10 0.43959E-10 0.50931E-10 0.36663E-10 0.79267E-12 0.44892E-12 0.36075E-12 0.32197E-11 0.28955E-10 0.17993E-09
 0.10266E-09 0.80641E-10 0.10347E-09 0.10410E-09 0.12712E-09 0.79275E-08 0.37039E-10 0.39850E-10 0.51425E-10 0.33645E-09
 0.19550E-11 0.58643E-12 0.29607E-12 0.13799E-11 0.10711E-10 0.24432E-09 0.42613E-10 0.31803E-10 0.45117E-10 0.11712E-09
 0.92946E-10 0.90203E-10 0.58701E-10 0.39655E-10 0.49147E-10 0.43177E-11 0.51623E-12 0.36061E-12 0.11524E-11 0.13191E-10
 0.49659E-10 0.16015E-09 0.15899E-09 0.95499E-10 0.67243E-09 0.11721E-09 0.25455E-09 0.24970E-07 0.21640E-10 0.38807E-10
 0.23995E-09 0.11406E-10 0.99867E-12 0.38061E-12 0.68251E-12 0.39545E-11 0.29141E-10 0.95558E-10 0.31613E-10 0.26771E-10
 0.23879E-09 0.86158E-10 0.64232E-10 0.68161E-10 0.25345E-09 0.43410E-09 0.25745E-08 0.43145E-11 0.20086E-11 0.32198E-11
 0.13191E-10 0.40113E-10 0.21103E-09 0.27317E-09 0.51565E-09 0.10935E-08 0.63250E-09 0.70385E-09 0.40171E-09 0.61912E-10
 0.24381E-08 0.86934E-08 0.14527E-08 0.87278E-11 0.32118E-11 0.20852E-11 0.90421E-11 0.28379E-10 0.13409E-09 0.96253E-10
 0.66061E-09 0.39244E-08 0.90783E-09 0.82101E-10 0.13099E-09 0.13782E-09 0.13189E-08 0.42050E-08 0.81214E-10 0.22393E-09
 0.16679E-10 0.28955E-10 0.49659E-10 0.21103E-09 0.49974E-09 0.16909E-08 0.27093E-08 0.58998E-07 0.42813E-08 0.71791E-07
 0.16626E-09 0.12667E-09 0.13414E-09 0.31805E-09 0.14962E-09 0.36668E-09 0.21134E-10 0.32193E-10 0.72065E-10 0.37198E-09
 0.31845E-09 0.34088E-09 0.27515E-09 0.35151E-10 0.11785E-10 0.14477E-09 0.22503E-09 0.70582E-09 0.18348E-05 0.30730E-08
 0.18621E-07 0.12912E-09 0.11301E-09 0.17993E-09 0.16015E-09 0.27317E-09 0.16909E-08 0.49788E-08 0.26799E-05 0.49792E-08
 0.72139E-07 0.24677E-07 0.36598E-07 0.15255E-09 0.23090E-09 0.27881E-09 0.61861E-09 0.20043E-09 0.53969E-09 0.87672E-09
 0.10660E-08 0.46288E-09 0.80274E-09 0.16723E-09 0.61671E-11 0.10265E-11 0.89487E-12 0.58009E-11 0.67658E-08 0.20518E-08
 0.34865E-07 0.63591E-09 0.96958E-09 0.60049E-09 0.12405E-08 0.10266E-09 0.15899E-09 0.51565E-09 0.27093E-08 0.26799E-05
 0.42068E-07 0.13449E-08 0.15561E-07 0.23803E-08 0.33039E-09 0.24148E-09 0.26173E-09 0.15311E-09 0.12104E-08 0.12813E-08
 0.30005E-07 0.21830E-09 0.57406E-09 0.14255E-08 0.57000E-09 0.83830E-11 0.37712E-12 0.14122E-12 0.36826E-12 0.82175E-11
 0.10778E-08 0.53439E-06 0.77922E-09 0.31969E-09 0.11221E-08 0.12687E-08 0.10577E-09 0.80641E-10 0.95499E-10 0.10935E-08
 0.58998E-07 0.49792E-08 0.13449E-08 0.57345E-09 0.10324E-08 0.87241E-09 0.18314E-08 0.35629E-09 0.10317E-09 0.11113E-09
 0.22673E-09 0.38083E-08 0.34310E-09 0.13503E-09 0.21772E-09 0.12069E-07 0.64890E-10 0.10362E-11 0.14727E-12 0.16598E-12
 0.91885E-12 0.74636E-10 0.37350E-08 0.40148E-08 0.17311E-07 0.60119E-10 0.50657E-10 0.12345E-08 0.40453E-09 0.10347E-09
 0.67243E-09 0.63250E-09 0.42813E-08 0.72139E-07 0.15561E-07 0.10324E-08 0.22525E-08 0.16241E-08 0.11043E-08 0.25456E-09
 0.11105E-09 0.41046E-10 0.55386E-10 0.25487E-09 0.13597E-08 0.17794E-09 0.50418E-07 0.44321E-08 0.21059E-10 0.10852E-11
 0.39493E-12 0.90825E-12 0.25622E-10 0.14014E-06 0.23138E-05 0.12983E-06 0.11871E-11 0.23131E-12 0.28658E-12 0.26452E-11
 0.50416E-10 0.10410E-09 0.11721E-09 0.70385E-09 0.71791E-07 0.24677E-07 0.23803E-08 0.87241E-09 0.16241E-08 0.13714E-08
 0.31997E-08 0.69160E-10 0.21341E-11 0.35502E-12 0.21333E-12 0.12117E-11 0.36312E-10 0.17396E-09 0.27425E-09 0.12493E-08
 0.77622E-10 0.75431E-11 0.59414E-11 0.59027E-09 0.29517E-09 0.21908E-07 0.16785E-07 0.83724E-10 0.11435E-13 0.63005E-14
 0.18596E-13 0.41123E-12 0.18859E-10 0.12712E-09 0.25455E-09 0.40171E-09 0.16626E-09 0.36598E-07 0.33039E-09 0.18314E-08
 0.11043E-08 0.31997E-08 0.35216E-10 0.45527E-12 0.17403E-13 0.55234E-14 0.11241E-13 0.14408E-12 0.81260E-11 0.17303E-09
 0.26780E-09 0.13881E-08 0.70312E-10 0.36826E-08 0.45866E-10 0.20050E-09 0.35001E-09 0.56932E-08 0.97624E-11 0.13245E-12
 0.10825E-14 0.11102E-14 0.81601E-14 0.33051E-12 0.47573E-09 0.79275E-08 0.24970E-07 0.61912E-10 0.12667E-09 0.15255E-09
 0.24148E-09 0.35629E-09 0.25456E-09 0.69160E-10 0.45508E-12 0.68834E-14 0.11102E-14 0.94369E-15 0.39690E-14 0.93009E-13
 0.13688E-09 0.61988E-09 0.28001E-09 0.49215E-10 0.59602E-10 0.55897E-10 0.21253E-09 0.50175E-09 0.20341E-09 0.11701E-10
 0.12554E-12 0.38858E-14 0.52736E-15 0.12212E-14 0.17458E-13 0.25976E-11 0.21324E-09 0.37039E-10 0.21640E-10 0.24381E-08
 0.13414E-09 0.23090E-09 0.26173E-09 0.10317E-09 0.11105E-09 0.21340E-11 0.17347E-13 0.13045E-14 0.30531E-15 0.80491E-15
 0.71887E-14 0.54978E-12 0.63338E-10 0.27957E-10 0.17674E-10 0.12644E-09 0.40503E-10 0.10340E-09 0.11248E-09 0.29171E-10
 0.19808E-10 0.53174E-12 0.69111E-14 0.74940E-15 0.86042E-15 0.62450E-14 0.25996E-12 0.58607E-09 0.45678E-10 0.39850E-10
 0.38807E-10 0.86934E-08 0.31805E-09 0.27881E-09 0.15311E-09 0.11113E-09 0.41046E-10 0.35516E-12 0.54956E-14 0.10270E-14
 0.74940E-15 0.34694E-14 0.76134E-13 0.59894E-10 0.60695E-10 0.39902E-10 0.51897E-10 0.33972E-09 0.21495E-09 0.24986E-09
 0.59151E-10 0.43421E-10 0.10673E-10 0.95035E-13 0.27200E-14 0.91593E-15 0.11269E-13 0.22521E-12 0.42428E-10 0.94833E-08
 0.93050E-10 0.51425E-10 0.23995E-09 0.14527E-08 0.14962E-09 0.61861E-09 0.12104E-08 0.22673E-09 0.55386E-10 0.21350E-12
 0.11158E-13 0.41356E-14 0.71054E-14 0.76522E-13 0.10232E-10 0.65664E-08 0.15965E-09 0.67849E-10 0.37495E-08 0.30372E-08
 0.34865E-09 0.14871E-08 0.15847E-09 0.71906E-10 0.10331E-10 0.87264E-13 0.71887E-14 0.34972E-14 0.13951E-11 0.88345E-10
 0.80010E-09 0.11402E-09 0.26067E-09 0.33645E-09 0.11406E-10 0.87277E-11 0.36668E-09 0.20043E-09 0.12813E-08 0.38083E-08
 0.25487E-09 0.12115E-11 0.14402E-12 0.93037E-13 0.54956E-12 0.59894E-10 0.65664E-08 0.10980E-09 0.51272E-08 0.40785E-08
 0.30015E-06 0.12874E-09 0.18677E-09 0.16089E-09 0.59996E-08 0.24426E-07 0.39058E-10 0.51648E-12 0.11585E-12 0.14153E-12
 0.20577E-08 0.32757E-09 0.35285E-09 0.32817E-06 0.21809E-10 0.19550E-11 0.99862E-12 0.32118E-11 0.21133E-10 0.53969E-09
 0.30005E-07 0.34310E-09 0.13597E-08 0.36312E-10 0.81259E-11 0.13688E-09 0.63338E-10 0.60695E-10 0.15965E-09 0.51272E-08
 0.45149E-08 0.10095E-09 0.13026E-09 0.66336E-07 0.52784E-09 0.60183E-07 0.76912E-08 0.11491E-09 0.14012E-09 0.37850E-10
 0.13951E-10 0.51998E-10 0.23007E-09 0.13203E-09 0.19037E-09 0.50338E-10 0.14840E-11 0.58632E-12 0.38070E-12 0.20850E-11
 0.32193E-10 0.87672E-09 0.21830E-09 0.13503E-09 0.17794E-09 0.17396E-09 0.17303E-09 0.61988E-09 0.27957E-10 0.39902E-10
 0.67849E-10 0.40785E-08 0.10096E-09 0.61032E-10 0.82831E-10 0.17312E-08 0.65823E-09 0.89867E-09 0.10023E-09 0.65893E-10
 0.10960E-09 0.97423E-09 0.40254E-09 0.47960E-09 0.65027E-09 0.21915E-09 0.18294E-09 0.84933E-11 0.59688E-12 0.29579E-12
 0.68251E-12 0.90419E-11 0.72065E-10 0.10660E-08 0.57406E-09 0.21772E-09 0.50418E-07 0.27425E-09 0.26780E-09 0.28001E-09
 0.17674E-10 0.51897E-10 0.37495E-08 0.30015E-06 0.13026E-09 0.82830E-10 0.17565E-08 0.26251E-07 0.29245E-09 0.55817E-08
 0.14385E-09 0.96425E-10 0.77053E-08 0.51004E-08 0.54546E-09 0.14492E-08 0.12157E-08 0.53055E-08 0.37082E-09 0.38241E-11
 0.10430E-11 0.13799E-11 0.39546E-11 0.28379E-10 0.37198E-09 0.46288E-09 0.14255E-08 0.12069E-07 0.44321E-08 0.12493E-08
 0.13881E-08 0.49215E-10 0.12644E-09 0.33972E-09 0.30372E-08 0.12874E-09 0.66336E-07 0.17312E-08 0.26251E-07 0.15811E-09
 0.23537E-09 0.20526E-09 0.54253E-07 0.31675E-08 0.27503E-05 0.18453E-09 0.37391E-09 0.41063E-09 0.19718E-08 0.46605E-08
 0.79495E-10 0.55492E-10 0.59986E-11 0.10711E-10 0.29141E-10 0.13409E-09 0.31845E-09 0.80274E-09 0.57000E-09 0.64890E-10
 0.21059E-10 0.77622E-10 0.70312E-10 0.59602E-10 0.40503E-10 0.21495E-09 0.34865E-09 0.18677E-09 0.52784E-09 0.65823E-09
 0.29245E-09 0.23537E-09 0.43523E-09 0.31032E-09 0.28087E-09 0.43045E-10 0.16796E-10 0.22736E-09 0.34238E-09 0.64453E-09
 0.22819E-08 0.24325E-06 0.58114E-07 0.51700E-10 0.69360E-10 0.24432E-09 0.95559E-10 0.96253E-10 0.34088E-09 0.16723E-09
 0.83831E-11 0.10361E-11 0.10854E-11 0.75431E-11 0.36826E-08 0.55897E-10 0.10340E-09 0.24986E-09 0.14871E-08 0.16089E-09
 0.60183E-07 0.89867E-09 0.55817E-08 0.20526E-09 0.31032E-09 0.10706E-09 0.77602E-11 0.11142E-11 0.10361E-11 0.56083E-11
 0.14180E-07 0.55817E-09 0.30794E-07 0.22437E-09 0.21769E-09 0.15906E-08 0.59724E-09 0.42613E-10 0.31613E-10 0.66061E-09
 0.27515E-09 0.61670E-11 0.37698E-12 0.14724E-12 0.39488E-12 0.59413E-11 0.45866E-10 0.21253E-09 0.11248E-09 0.59151E-10
 0.15847E-09 0.59996E-08 0.76912E-08 0.10023E-09 0.14385E-09 0.54253E-07 0.28087E-09 0.77600E-11 0.39718E-12 0.14388E-12
 0.35574E-12 0.67347E-11 0.41793E-09 0.21540E-08 0.21775E-09 0.11836E-09 0.25109E-09 0.37572E-07 0.36022E-10 0.31803E-10
 0.26771E-10 0.39244E-08 0.35151E-10 0.10264E-11 0.14133E-12 0.16612E-12 0.90816E-12 0.59027E-09 0.20050E-09 0.50175E-09
 0.29171E-10 0.43420E-10 0.71906E-10 0.24426E-07 0.11491E-09 0.65893E-10 0.96425E-10 0.31675E-08 0.43045E-10 0.11142E-11
 0.14397E-12 0.16337E-12 0.78929E-12 0.96156E-10 0.49453E-09 0.49802E-09 0.18744E-08 0.25495E-09 0.33558E-08 0.86015E-09
 0.61336E-10 0.45116E-10 0.23879E-09 0.90783E-09 0.11785E-10 0.89478E-12 0.36823E-12 0.91874E-12 0.25622E-10 0.29517E-09
 0.35001E-09 0.20341E-09 0.19808E-10 0.10673E-10 0.10331E-10 0.39059E-10 0.14012E-09 0.10960E-09 0.77053E-08 0.27503E-05
 0.16796E-10 0.10361E-11 0.35591E-12 0.78923E-12 0.18461E-10 0.52555E-08 0.14430E-08 0.34850E-08 0.30179E-08 0.22627E-07
 0.20067E-08 0.12316E-09 0.14649E-09 0.11712E-09 0.86159E-10 0.82101E-10 0.14477E-09 0.58009E-11 0.82176E-11 0.74636E-10
 0.14014E-06 0.21908E-07 0.56932E-08 0.11701E-10 0.53169E-12 0.94647E-13 0.87375E-13 0.51653E-12 0.37850E-10 0.97423E-09
 0.51004E-08 0.18453E-09 0.22736E-09 0.56084E-11 0.67347E-11 0.96156E-10 0.52555E-08 0.35656E-09 0.57524E-09 0.63756E-09
 0.62787E-08 0.25760E-08 0.55234E-09 0.15893E-09 0.15857E-09 0.92946E-10 0.64232E-10 0.13099E-09 0.22503E-09 0.67658E-08
 0.10778E-08 0.37350E-08 0.23138E-05 0.16785E-07 0.97626E-11 0.12554E-12 0.71609E-14 0.27478E-14 0.71609E-14 0.11616E-12
 0.13951E-10 0.40254E-09 0.54546E-09 0.37391E-09 0.34238E-09 0.14180E-07 0.41793E-09 0.49453E-09 0.14430E-08 0.57524E-09
 0.15685E-08 0.11984E-08 0.57315E-05 0.45218E-08 0.20710E-07 0.16881E-09 0.10634E-09 0.90203E-10 0.68161E-10 0.13782E-09
 0.70582E-09 0.20518E-08 0.53439E-06 0.40148E-08 0.12983E-06 0.83724E-10 0.13251E-12 0.39413E-14 0.69389E-15 0.83267E-15
 0.35527E-14 0.14150E-12 0.51998E-10 0.47960E-09 0.14492E-08 0.41063E-09 0.64453E-09 0.55817E-09 0.21540E-08 0.49802E-09
 0.34850E-08 0.63756E-09 0.11984E-08 0.12044E-08 0.35599E-08 0.15367E-09 0.98810E-10 0.52683E-09 0.11686E-09 0.38084E-10
 0.12611E-10 0.33148E-09 0.53336E-09 0.17492E-08 0.25578E-07 0.38226E-09 0.29007E-08 0.61029E-12 0.51348E-14 0.55511E-15
 0.16653E-15 0.52736E-15 0.51070E-14 0.71795E-12 0.75347E-09 0.10205E-09 0.80762E-10 0.29012E-08 0.71321E-09 0.23083E-07
 0.88932E-08 0.17957E-09 0.37644E-09 0.51278E-08 0.58091E-09 0.11004E-05 0.15367E-09 0.10157E-09 0.15869E-09 0.14690E-08
 0.19684E-10 0.29924E-10 0.14670E-10 0.90911E-09 0.10261E-08 0.44367E-09 0.28486E-09 0.18442E-09 0.35316E-10 0.10830E-12
 0.25813E-14 0.47184E-15 0.58287E-15 0.26645E-14 0.97228E-13 0.74273E-10 0.10053E-09 0.67192E-10 0.77932E-10 0.44253E-07
 0.15247E-08 0.11123E-08 0.16685E-09 0.11143E-09 0.17452E-09 0.95346E-09 0.90945E-09 0.32920E-08 0.98811E-10 0.15869E-09
 0.33788E-09 0.50439E-09 0.15504E-10 0.35364E-10 0.25805E-10 0.11371E-08 0.45189E-10 0.17119E-08 0.33383E-09 0.43454E-09
 0.26295E-10 0.11974E-12 0.70499E-14 0.30531E-14 0.68556E-14 0.11008E-12 0.19722E-10 0.83711E-09 0.71708E-10 0.98897E-10
 0.13006E-09 0.21705E-09 0.56881E-10 0.43064E-08 0.13062E-09 0.17408E-09 0.11870E-08 0.51848E-08 0.30586E-09 0.29777E-04
 0.52683E-09 0.14690E-08 0.50439E-09 0.46348E-10 0.55395E-10 0.20239E-10 0.17142E-11 0.20175E-11 0.11454E-09 0.11500E-09
 0.22760E-09 0.39728E-09 0.23032E-08 0.11357E-11 0.15288E-12 0.12804E-12 0.83764E-12 0.14490E-08 0.89838E-09 0.57278E-10
 0.11668E-07 0.28770E-10 0.34066E-11 0.18027E-11 0.29238E-10 0.58142E-10 0.43712E-09 0.11297E-08 0.43292E-09 0.11820E-09
 0.12229E-09 0.89219E-10 0.11686E-09 0.19684E-10 0.15504E-10 0.55395E-10 0.32087E-11 0.30836E-12 0.16429E-12 0.64204E-12
 0.67585E-11 0.36560E-10 0.14105E-09 0.31741E-10 0.83902E-10 0.15951E-10 0.43849E-11 0.15192E-09 0.25123E-10 0.12610E-10
 0.12443E-10 0.85733E-10 0.83430E-11 0.50995E-12 0.19296E-12 0.37984E-12 0.28751E-11 0.29459E-10 0.12821E-09 0.20182E-10
 0.25196E-10 0.37307E-10 0.36125E-10 0.43113E-10 0.38084E-10 0.29924E-10 0.35364E-10 0.20239E-10 0.30836E-12 0.13180E-12
 0.11099E-12 0.10043E-11 0.14799E-10 0.60741E-10 0.49868E-10 0.40979E-10 0.45889E-10 0.37366E-10 0.32218E-10 0.15400E-06
 0.64833E-11 0.14887E-10 0.17523E-10 0.18436E-09 0.66505E-12 0.16370E-12 0.97158E-13 0.49594E-12 0.65638E-11 0.94528E-10
 0.38815E-10 0.31653E-10 0.40415E-10 0.74870E-10 0.74216E-10 0.97627E-10 0.12611E-10 0.14669E-10 0.25805E-10 0.17140E-11
 0.16406E-12 0.11083E-12 0.33035E-12 0.40409E-11 0.13671E-10 0.29866E-10 0.29454E-10 0.22708E-10 0.63219E-10 0.21523E-10
 0.41617E-10 0.40643E-09 0.25180E-11 0.99856E-11 0.70193E-10 0.36784E-11 0.28166E-12 0.11513E-12 0.22285E-12 0.15922E-11
 0.12847E-10 0.26409E-10 0.13767E-10 0.13957E-10 0.52158E-10 0.23206E-10 0.26215E-10 0.26655E-10 0.33148E-09 0.90911E-09
 0.11371E-08 0.20176E-11 0.64215E-12 0.10043E-11 0.40410E-11 0.22684E-10 0.91675E-10 0.13245E-09 0.17961E-09 0.28246E-09
 0.21329E-09 0.36686E-09 0.59699E-09 0.20982E-10 0.33885E-10 0.49383E-09 0.23103E-09 0.35375E-11 0.97694E-12 0.71382E-12
 0.35417E-11 0.21526E-10 0.86626E-10 0.91560E-10 0.34507E-09 0.45617E-09 0.10171E-08 0.61626E-10 0.11989E-09 0.75437E-10
 0.53336E-09 0.10261E-08 0.45189E-10 0.11454E-09 0.67586E-11 0.14799E-10 0.13671E-10 0.91675E-10 0.20015E-09 0.17204E-08
 0.98419E-09 0.71220E-07 0.13290E-08 0.89383E-08 0.26767E-10 0.41122E-10 0.16291E-10 0.90822E-10 0.40071E-10 0.22363E-09
 0.94905E-11 0.17671E-10 0.36944E-10 0.23839E-09 0.24687E-09 0.78025E-09 0.13634E-09 0.16494E-10 0.55020E-11 0.29739E-10
 0.85481E-10 0.50120E-09 0.17492E-08 0.44367E-09 0.17119E-08 0.11500E-09 0.36560E-10 0.60741E-10 0.29866E-10 0.13245E-09
 0.17204E-08 0.17421E-07 0.38613E-07 0.25770E-08 0.73460E-08 0.13806E-08 0.67550E-09 0.51871E-10 0.15989E-10 0.64986E-10
 0.93819E-10 0.17184E-09 0.27671E-09 0.23463E-09 0.27037E-09 0.40205E-09 0.16105E-08 0.10732E-09 0.29583E-11 0.50401E-12
 0.46105E-12 0.29764E-11 0.39522E-09 0.71791E-09 0.25578E-07 0.28486E-09 0.33383E-09 0.22760E-09 0.14105E-09 0.49868E-10
 0.29454E-10 0.17961E-09 0.98419E-09 0.38613E-07 0.22104E-07 0.90969E-09 0.42064E-08 0.64115E-09 0.51116E-10 0.62048E-10
 0.19229E-10 0.54616E-10 0.14850E-09 0.36806E-09 0.22713E-08 0.15182E-09 0.19301E-09 0.80167E-09 0.26354E-09 0.36851E-11
 0.20342E-12 0.79686E-13 0.20114E-12 0.36411E-11 0.29623E-09 0.25574E-08 0.38226E-09 0.18442E-09 0.43454E-09 0.39728E-09
 0.31741E-10 0.40978E-10 0.22708E-10 0.28246E-09 0.71220E-07 0.25770E-08 0.90969E-09 0.45717E-09 0.64882E-09 0.33577E-09
 0.22383E-09 0.80651E-10 0.12524E-10 0.44242E-10 0.57271E-10 0.78772E-09 0.18358E-09 0.10990E-09 0.12075E-09 0.11878E-08
 0.27882E-10 0.54945E-12 0.84738E-13 0.90900E-13 0.51115E-12 0.29933E-10 0.55119E-08 0.19291E-07 0.29007E-08 0.35316E-10
 0.26295E-10 0.23032E-08 0.83902E-10 0.45889E-10 0.63219E-10 0.21329E-09 0.13290E-08 0.73460E-08 0.42064E-08 0.64882E-09
 0.85058E-09 0.47752E-09 0.10571E-09 0.69417E-10 0.13459E-10 0.20218E-10 0.21610E-10 0.27585E-09 0.58600E-09 0.13125E-09
 0.10799E-08 0.10992E-07 0.10002E-10 0.57479E-12 0.22404E-12 0.51995E-12 0.11520E-10 0.25320E-08 0.12596E-05 0.41442E-08
 0.61035E-12 0.10825E-12 0.11971E-12 0.11360E-11 0.15951E-10 0.37366E-10 0.21523E-10 0.36686E-09 0.89383E-08 0.13806E-08
 0.64115E-09 0.33577E-09 0.47752E-09 0.26202E-09 0.17157E-09 0.33556E-10 0.69900E-12 0.14674E-12 0.94841E-13 0.64568E-12
 0.21525E-10 0.95551E-10 0.99291E-10 0.79905E-09 0.27465E-10 0.42029E-11 0.31816E-11 0.89888E-10 0.17617E-09 0.52711E-08
 0.50188E-08 0.58635E-10 0.53568E-14 0.25535E-14 0.72720E-14 0.15296E-12 0.43850E-11 0.32218E-10 0.41617E-10 0.59699E-09
 0.26767E-10 0.67550E-09 0.51116E-10 0.22383E-09 0.10571E-09 0.17157E-09 0.11541E-10 0.16626E-12 0.65781E-14 0.22760E-14
 0.51625E-14 0.73913E-13 0.36892E-11 0.57019E-10 0.78691E-10 0.20175E-08 0.22118E-10 0.94730E-10 0.17534E-10 0.78272E-10
 0.90962E-10 0.55364E-09 0.56009E-11 0.70249E-13 0.55511E-15 0.41633E-15 0.30531E-14 0.12795E-12 0.15192E-09 0.15400E-06
 0.40643E-09 0.20982E-10 0.41122E-10 0.51871E-10 0.62048E-10 0.80651E-10 0.69417E-10 0.33556E-10 0.16609E-12 0.29143E-14
 0.49960E-15 0.47184E-15 0.18041E-14 0.53790E-13 0.13329E-09 0.24975E-09 0.23348E-09 0.30276E-10 0.40399E-10 0.39826E-10
 0.87193E-10 0.12400E-09 0.80898E-10 0.92702E-11 0.68640E-13 0.18596E-14 0.13878E-15 0.58287E-15 0.67724E-14 0.83747E-12
 0.25123E-10 0.64831E-11 0.25180E-11 0.33885E-10 0.16291E-10 0.15988E-10 0.19229E-10 0.12524E-10 0.13458E-10 0.69894E-12
 0.64393E-14 0.61062E-15 0.22204E-15 0.38858E-15 0.37470E-14 0.29077E-12 0.14920E-10 0.70081E-11 0.37439E-11 0.14322E-10
 0.96940E-11 0.12017E-10 0.16153E-10 0.80158E-11 0.58192E-11 0.27675E-12 0.34972E-14 0.33307E-15 0.49960E-15 0.26645E-14
 0.11013E-12 0.14490E-08 0.12610E-10 0.14887E-10 0.99858E-11 0.49383E-09 0.90822E-10 0.64986E-10 0.54616E-10 0.44242E-10
 0.20218E-10 0.14677E-12 0.22204E-14 0.41633E-15 0.16653E-15 0.16931E-14 0.45242E-13 0.66410E-10 0.30403E-10 0.25479E-10
 0.25441E-10 0.15426E-09 0.94909E-10 0.90471E-10 0.41305E-10 0.33838E-10 0.83833E-11 0.56066E-13 0.12212E-14 0.33307E-15
 0.50793E-14 0.97061E-13 0.19722E-10 0.89838E-09 0.12443E-10 0.17523E-10 0.70193E-10 0.23103E-09 0.40071E-10 0.93819E-10
 0.14850E-09 0.57271E-10 0.21611E-10 0.95035E-13 0.49960E-14 0.20539E-14 0.35805E-14 0.45380E-13 0.64176E-11 0.25389E-09
 0.27901E-10 0.26641E-10 0.37141E-09 0.17336E-09 0.77474E-10 0.99609E-10 0.51779E-10 0.35749E-10 0.67066E-11 0.50127E-13
 0.37192E-14 0.16376E-14 0.71784E-12 0.74273E-10 0.83711E-09 0.57278E-10 0.85733E-10 0.18436E-09 0.36783E-11 0.35374E-11
 0.22363E-09 0.17184E-09 0.36806E-09 0.78772E-09 0.27585E-09 0.64554E-12 0.73802E-13 0.53624E-13 0.29063E-12 0.66410E-10
 0.25389E-09 0.70320E-10 0.33813E-07 0.60555E-08 0.76726E-08 0.90978E-10 0.14289E-09 0.15445E-09 0.10390E-08 0.41283E-08
 0.41144E-10 0.33723E-12 0.64448E-13 0.71998E-13 0.75347E-09 0.10053E-09 0.71708E-10 0.11668E-07 0.83431E-11 0.66505E-12
 0.28161E-12 0.97683E-12 0.94904E-11 0.27671E-09 0.22713E-08 0.18358E-09 0.58600E-09 0.21525E-10 0.36888E-11 0.13329E-09
 0.14920E-10 0.30403E-10 0.27901E-10 0.33813E-07 0.73168E-09 0.62513E-10 0.40025E-10 0.13049E-07 0.29077E-09 0.89485E-09
 0.16206E-08 0.99526E-10 0.94481E-10 0.22886E-10 0.84930E-11 0.40886E-10 0.10205E-09 0.67192E-10 0.98897E-10 0.28771E-10
 0.51001E-12 0.16359E-12 0.11530E-12 0.71368E-12 0.17671E-10 0.23463E-09 0.15182E-09 0.10990E-09 0.13125E-09 0.95551E-10
 0.57019E-10 0.24975E-09 0.70082E-11 0.25479E-10 0.26641E-10 0.60555E-08 0.62513E-10 0.47937E-10 0.49355E-10 0.13971E-08
 0.43811E-09 0.38705E-09 0.98780E-10 0.72512E-10 0.10802E-09 0.33672E-09 0.32697E-09 0.58614E-09 0.80762E-10 0.77932E-10
 0.13006E-09 0.34064E-11 0.19307E-12 0.97033E-13 0.22282E-12 0.35415E-11 0.36944E-10 0.27037E-09 0.19301E-09 0.12075E-09
 0.10799E-08 0.99291E-10 0.78691E-10 0.23348E-09 0.37438E-11 0.25441E-10 0.37141E-09 0.76726E-08 0.40025E-10 0.49355E-10
 0.44912E-09 0.16039E-08 0.11978E-09 0.40857E-09 0.82914E-10 0.74779E-10 0.11246E-08 0.37106E-09 0.24751E-09 0.73233E-09
 0.29012E-08 0.44253E-07 0.21705E-09 0.18026E-11 0.37978E-12 0.49596E-12 0.15923E-11 0.21526E-10 0.23839E-09 0.40205E-09
 0.80167E-09 0.11878E-08 0.10992E-07 0.79905E-09 0.20175E-08 0.30276E-10 0.14322E-10 0.15426E-09 0.17336E-09 0.90978E-10
 0.13049E-07 0.13971E-08 0.16039E-08 0.11979E-09 0.20642E-09 0.22279E-09 0.33688E-08 0.21526E-07 0.42385E-06 0.14490E-09
 0.31900E-09 0.16698E-09 0.71321E-09 0.15247E-08 0.56881E-10 0.29238E-10 0.28751E-11 0.65638E-11 0.12847E-10 0.86625E-10
 0.24687E-09 0.16105E-08 0.26354E-09 0.27882E-10 0.10002E-10 0.27465E-10 0.22118E-10 0.40399E-10 0.96940E-11 0.94909E-10
 0.77474E-10 0.14289E-09 0.29077E-09 0.43811E-09 0.11978E-09 0.20642E-09 0.44360E-09 0.53619E-09 0.20696E-09 0.23801E-10
 0.84795E-11 0.45208E-10 0.15177E-09 0.37512E-09 0.23083E-07 0.11123E-08 0.43064E-08 0.58142E-10 0.29459E-10 0.94528E-10
 0.26409E-10 0.91560E-10 0.78025E-09 0.10732E-09 0.36850E-11 0.54953E-12 0.57482E-12 0.42028E-11 0.94730E-10 0.39826E-10
 0.12017E-10 0.90471E-10 0.99609E-10 0.15445E-09 0.89485E-09 0.38705E-09 0.40857E-09 0.22279E-09 0.53619E-09 0.92526E-10
 0.39012E-11 0.58969E-12 0.54498E-12 0.30518E-11 0.91968E-09 0.33242E-09 0.88932E-08 0.16685E-09 0.13062E-09 0.43712E-09
 0.12821E-09 0.38815E-10 0.13767E-10 0.34507E-09 0.13634E-09 0.29581E-11 0.20325E-12 0.84710E-13 0.22383E-12 0.31815E-11
 0.17534E-10 0.87193E-10 0.16153E-10 0.41305E-10 0.51779E-10 0.10390E-08 0.16206E-08 0.98780E-10 0.82914E-10 0.33688E-08
 0.20696E-09 0.39011E-11 0.22342E-12 0.83517E-13 0.19695E-12 0.31138E-11 0.15769E-09 0.12457E-05 0.17957E-09 0.11143E-09
 0.17408E-09 0.11297E-08 0.20182E-10 0.31653E-10 0.13957E-10 0.45617E-09 0.16494E-10 0.50401E-12 0.79797E-13 0.90955E-13
 0.51992E-12 0.89889E-10 0.78272E-10 0.12400E-09 0.80158E-11 0.33838E-10 0.35749E-10 0.41283E-08 0.99526E-10 0.72512E-10
 0.74779E-10 0.21526E-07 0.23801E-10 0.58983E-12 0.83544E-13 0.86819E-13 0.43132E-12 0.27989E-10 0.70403E-09 0.46057E-08
 0.37644E-09 0.17452E-09 0.11870E-08 0.43292E-09 0.25196E-10 0.40415E-10 0.52158E-10 0.10171E-08 0.55021E-11 0.46096E-12
 0.20117E-12 0.51120E-12 0.11520E-10 0.17617E-09 0.90962E-10 0.80898E-10 0.58193E-11 0.83833E-11 0.67066E-11 0.41144E-10
 0.94481E-10 0.10802E-09 0.11246E-08 0.42385E-06 0.84796E-11 0.54501E-12 0.19701E-12 0.43116E-12 0.78770E-11 0.78512E-09
 0.23327E-08 0.34179E-07 0.51278E-08 0.95346E-09 0.51848E-08 0.11820E-09 0.37307E-10 0.74869E-10 0.23206E-10 0.61626E-10
 0.29739E-10 0.29763E-11 0.36412E-11 0.29933E-10 0.25320E-08 0.52711E-08 0.55364E-09 0.92703E-11 0.27678E-12 0.55844E-13
 0.50071E-13 0.33737E-12 0.22887E-10 0.33672E-09 0.37106E-09 0.14490E-09 0.45208E-10 0.30518E-11 0.31140E-11 0.27989E-10
 0.78512E-09 0.87290E-09 0.93626E-09 0.42339E-09 0.58091E-09 0.90945E-09 0.30586E-09 0.12229E-09 0.36125E-10 0.74216E-10
 0.26215E-10 0.11989E-09 0.85481E-10 0.39522E-09 0.29623E-09 0.55119E-08 0.12596E-05 0.50188E-08 0.56008E-11 0.68806E-13
 0.38025E-14 0.13878E-14 0.36637E-14 0.64615E-13 0.84931E-11 0.32697E-09 0.24751E-09 0.31900E-09 0.15177E-09 0.91968E-09
 0.15769E-09 0.70403E-09 0.23327E-08 0.93626E-09 0.93509E-09 0.45604E-09 0.11004E-05 0.32920E-08 0.29777E-04 0.89219E-10
 0.43113E-10 0.97627E-10 0.26655E-10 0.75437E-10 0.50120E-09 0.71791E-09 0.25574E-08 0.19291E-07 0.41442E-08 0.58635E-10
 0.70305E-13 0.18319E-14 0.36082E-15 0.41633E-15 0.16931E-14 0.71942E-13 0.40886E-10 0.58614E-09 0.73233E-09 0.16698E-09
 0.37512E-09 0.33242E-09 0.12457E-05 0.46057E-08 0.34179E-07 0.42339E-09 0.45604E-09 0.25864E-09 0.21414E-09 0.46148E-10
 0.19010E-10 0.11595E-07 0.37734E-10 0.20440E-10 0.35443E-11 0.24403E-08 0.16811E-09 0.18657E-09 0.53500E-09 0.13543E-09
 0.21404E-09 0.32210E-12 0.29143E-14 0.30531E-15 0.22204E-15 0.16653E-15 0.29976E-14 0.37687E-12 0.13461E-09 0.45419E-10
 0.18144E-10 0.31136E-08 0.19538E-09 0.27605E-09 0.59955E-09 0.88184E-10 0.10633E-09 0.21529E-09 0.72732E-10 0.78469E-09
 0.46148E-10 0.57110E-10 0.53754E-10 0.32034E-08 0.86821E-11 0.22131E-10 0.60053E-11 0.59363E-09 0.18707E-09 0.23852E-09
 0.18092E-09 0.14482E-09 0.17038E-10 0.60701E-13 0.15543E-14 0.38858E-15 0.30531E-15 0.14988E-14 0.53874E-13 0.33838E-10
 0.46192E-10 0.46884E-10 0.33234E-10 0.43301E-06 0.25934E-09 0.41927E-09 0.13406E-09 0.10064E-09 0.14430E-09 0.26554E-09
 0.33600E-09 0.54011E-08 0.19010E-10 0.53755E-10 0.13335E-09 0.49716E-08 0.48320E-11 0.15138E-10 0.68106E-11 0.26945E-10
 0.11029E-10 0.11237E-09 0.11938E-09 0.15384E-09 0.98320E-11 0.65448E-13 0.41911E-14 0.17208E-14 0.38858E-14 0.59897E-13
 0.70978E-11 0.23084E-07 0.20505E-10 0.33640E-10 0.24076E-10 0.18223E-10 0.12548E-10 0.10018E-09 0.62791E-10 0.92969E-10
 0.32173E-09 0.23760E-09 0.13955E-09 0.13217E-08 0.11595E-07 0.32034E-08 0.49716E-08 0.32610E-10 0.11312E-10 0.34988E-11
 0.44395E-12 0.60671E-12 0.87742E-11 0.45398E-10 0.18054E-09 0.20431E-09 0.25744E-09 0.60646E-12 0.80158E-13 0.71332E-13
 0.33618E-12 0.35461E-09 0.61843E-10 0.39291E-10 0.25669E-09 0.54290E-11 0.77344E-12 0.52722E-12 0.40069E-11 0.23542E-10
 0.27650E-09 0.36689E-09 0.21449E-09 0.12296E-09 0.10251E-09 0.57218E-10 0.37734E-10 0.86823E-11 0.48321E-11 0.11311E-10
 0.79819E-12 0.95202E-13 0.48461E-13 0.16837E-12 0.16308E-11 0.10333E-10 0.34115E-10 0.14960E-10 0.27072E-10 0.63974E-11
 0.14718E-11 0.31869E-10 0.56204E-11 0.61045E-11 0.32795E-11 0.18158E-10 0.18024E-11 0.14733E-12 0.55955E-13 0.10783E-12
 0.78143E-12 0.75016E-11 0.30047E-10 0.10415E-10 0.11797E-10 0.13402E-10 0.10733E-10 0.17689E-10 0.20440E-10 0.22132E-10
 0.15139E-10 0.34989E-11 0.95091E-13 0.35610E-13 0.33529E-13 0.24514E-12 0.40426E-11 0.62961E-10 0.42333E-10 0.37484E-10
 0.37933E-10 0.28579E-10 0.13310E-10 0.21773E-08 0.20963E-11 0.10726E-10 0.70632E-11 0.12300E-10 0.19007E-12 0.43687E-13
 0.29726E-13 0.13212E-12 0.18934E-11 0.11947E-09 0.36079E-10 0.31190E-10 0.37749E-10 0.50462E-10 0.56725E-10 0.10341E-09
 0.35443E-11 0.60053E-11 0.68105E-11 0.44367E-12 0.48433E-13 0.33390E-13 0.89984E-13 0.89961E-12 0.40123E-11 0.10604E-10
 0.11744E-10 0.10140E-10 0.17002E-10 0.88361E-11 0.14977E-10 0.63753E-10 0.68984E-12 0.45102E-11 0.12845E-10 0.86928E-12
 0.78160E-13 0.34167E-13 0.63810E-13 0.42760E-12 0.35940E-11 0.87734E-11 0.66134E-11 0.68153E-11 0.15040E-10 0.84253E-11
 0.11694E-10 0.10496E-10 0.24403E-08 0.59363E-09 0.26945E-10 0.60685E-12 0.16834E-12 0.24503E-12 0.89981E-12 0.94411E-11
 0.11503E-09 0.12102E-09 0.13428E-09 0.16732E-09 0.16819E-09 0.37851E-09 0.96187E-09 0.14638E-10 0.50140E-11 0.29868E-09
 0.15624E-10 0.99026E-12 0.23623E-12 0.18985E-12 0.79198E-12 0.75226E-11 0.10502E-09 0.90255E-10 0.18079E-09 0.23223E-09
 0.34774E-09 0.66859E-10 0.96447E-10 0.50186E-10 0.16811E-09 0.18707E-09 0.11029E-10 0.87741E-11 0.16307E-11 0.40425E-11
 0.40123E-11 0.11503E-09 0.13677E-09 0.19618E-07 0.53589E-09 0.19421E-07 0.76682E-09 0.94517E-09 0.89345E-11 0.31596E-10
 0.41908E-11 0.39460E-10 0.78290E-11 0.13001E-10 0.21653E-11 0.40215E-11 0.96637E-11 0.47393E-09 0.18229E-09 0.35139E-08
 0.12823E-09 0.13788E-10 0.41751E-11 0.18996E-10 0.51709E-10 0.36679E-09 0.18657E-09 0.23852E-09 0.11237E-09 0.45398E-10
 0.10333E-10 0.62961E-10 0.10604E-10 0.12102E-09 0.19618E-07 0.71840E-07 0.13308E-07 0.26872E-08 0.32634E-08 0.50593E-09
 0.61808E-10 0.36300E-10 0.34225E-11 0.39876E-10 0.18449E-10 0.58310E-10 0.45757E-10 0.34805E-09 0.81165E-10 0.39559E-09
 0.38016E-08 0.15438E-09 0.22454E-11 0.34366E-12 0.32203E-12 0.23400E-11 0.28700E-09 0.46340E-09 0.53500E-09 0.18092E-09
 0.11938E-09 0.18054E-09 0.34115E-10 0.42333E-10 0.11744E-10 0.13428E-09 0.53589E-09 0.13308E-07 0.13329E-07 0.20248E-08
 0.22336E-08 0.42637E-09 0.17557E-10 0.38500E-10 0.39017E-11 0.36147E-10 0.33238E-10 0.26407E-09 0.33512E-09 0.13187E-09
 0.86429E-10 0.48128E-09 0.30243E-09 0.27152E-11 0.14165E-12 0.54817E-13 0.14121E-12 0.26879E-11 0.24133E-09 0.59287E-09