PROCAR lm decomposed
# of k-points:    5         # of bands:   76         # of ions:   20

 k-point     1 :    0.00000000 0.00000000 0.00000000     weight = 0.04000000

band     1 # energy  -34.94726295 # occ.  2.00000000
 
ion      s     py     pz     px    dxy    dyz    dz2    dxz  x2-y2    tot
    1  0.000  0.000  0.000  0.000  0.000  0.000  0.000  0.000  0.000  0.000
    2  0.000  0.000  0.000  0.000  0.000  0.000  0.000  0.000  0.000  0.000
    3  0.000  0.000  0.000  0.000  0.000  0.000  0.000  0.000  0.000  0.000
    4  0.000  0.000  0.000  0.000  0.000  0.000  0.000  0.000  0.000  0.000
    5  0.000  0.000  0.000  0.000  0.000  0.000  0.000  0.000  0.000  0.000
    6  0.000  0.000  0.000  0.000  0.000  0.000  0.000  0.000  0.000  0.000
    7  0.000  0.000  0.000  0.000  0.000  0.000  0.000  0.000  0.000  0.000
    8  0.000  0.000  0.000  0.000  0.000  0.000  0.000  0.000  0.000  0.000
    9  0.000  0.000  0.000  0.000  0.000  0.000  0.000  0.000  0.000  0.000
   10  0.000  0.000  0.000  0.000  0.000  0.000  0.000  0.000  0.000  0.000
   11  0.000  0.000  0.000  0.000  0.000  0.000  0.000  0.000  0.000  0.000
   12  0.000  0.000  0.000  0.000  0.000  0.000  0.000  0.000  0.000  0.000
   13  0.000  0.000  0.000  0.000  0.000  0.000  0.000  0.000  0.000  0.000
   14  0.000  0.000  0.000  0.000  0.000  0.000  0.000  0.000  0.000  0.000
   15  0.000  0.000  0.000  0.000  0.000  0.000  0.000  0.000  0.000  0.000
   16  0.976  0.000  0.000  0.000  0.000  0.000  0.000  0.000  0.000  0.976
   17  0.000  0.000  0.000  0.000  0.000  0.000  0.000  0.000  0.000  0.000
   18  0.000  0.000  0.000  0.000  0.000  0.000  0.000  0.000  0.000  0.000
   19  0.000  0.000  0.000  0.000  0.000  0.000  0.000  0.000  0.000  0.000
   20  0.000  0.000  0.000  0.000  0.000  0.000  0.000  0.000  0.000  0.000
tot    0.977  0.000  0.000  0.000  0.000  0.000  0.000  0.000  0.000  0.977
 
band     2 # energy  -34.26909848 # occ.  2.00000000
 
ion      s     py     pz     px    dxy    dyz    dz2    dxz  x2-y2    tot
    1  0.000  0.000  0.000  0.000  0.000  0.000  0.000  0.000  0.000  0.000
    2  0.000  0.000  0.000  0.000  0.000  0.000  0.000  0.000  0.000  0.000
    3  0.000  0.000  0.000  0.000  0.000  0.000  0.000  0.000  0.000  0.000
    4  0.000  0.000  0.000  0.000  0.000  0.000  0.000  0.000  0.000  0.000
    5  0.000  0.000  0.000  0.000  0.000  0.000  0.000  0.000  0.000  0.000
    6  0.000  0.000  0.000  0.000  0.000  0.000  0.000  0.000  0.000  0.000
    7  0.000  0.000  0.000  0.000  0.000  0.000  0.000  0.000  0.000  0.000
    8  0.000  0.000  0.000  0.000  0.000  0.000  0.000  0.000  0.000  0.000
    9  0.000  0.000  0.000  0.000  0.000  0.000  0.000  0.000  0.000  0.000
   10  0.000  0.000  0.000  0.000  0.000  0.000  0.000  0.000  0.000  0.000
   11  0.000  0.000  0.000  0.000  0.000  0.000  0.000  0.000  0.000  0.000
   12  0.000  0.000  0.000  0.000  0.000  0.000  0.000  0.000  0.000  0.000
   13  0.978  0.000  0.000  0.000  0.000  0.000  0.000  0.000  0.000  0.978
   14  0.000  0.000  0.000  0.000  0.000  0.000  0.000  0.000  0.000  0.000
   15  0.000  0.000  0.000  0.000  0.000  0.000  0.000  0.000  0.000  0.000
   16  0.000  0.000  0.000  0.000  0.000  0.000  0.000  0.000  0.000  0.000
   17  0.000  0.000  0.000  0.000  0.000  0.000  0.000  0.000  0.000  0.000
   18  0.000  0.000  0.000  0.000  0.000  0.000  0.000  0.000  0.000  0.000
   19  0.000  0.000  0.000  0.000  0.000  0.000  0.000  0.000  0.000  0.000
   20  0.000  0.000  0.000  0.000  0.000  0.000  0.000  0.000  0.000  0.000
tot    0.978  0.000  0.000  0.000  0.000  0.000  0.000  0.000  0.000  0.979
 
band     3 # energy  -34.15824409 # occ.  2.00000000
 
ion      s     py     pz     px    dxy    dyz    dz2    dxz  x2-y2    tot
    1  0.000  0.000  0.000  0.000  0.000  0.000  0.000  0.000  0.000  0.000
    2  0.000  0.000  0.000  0.000  0.000  0.000  0.000  0.000  0.000  0.000
    3  0.000  0.000  0.000  0.000  0.000  0.000  0.000  0.000  0.000  0.000
    4  0.000  0.000  0.000  0.000  0.000  0.000  0.000  0.000  0.000  0.000
    5  0.000  0.000  0.000  0.000  0.000  0.000  0.000  0.000  0.000  0.000
    6  0.000  0.000  0.000  0.000  0.000  0.000  0.000  0.000  0.000  0.000
    7  0.000  0.000  0.000  0.000  0.000  0.000  0.000  0.000  0.000  0.000
    8  0.000  0.000  0.000  0.000  0.000  0.000  0.000  0.000  0.000  0.000
    9  0.000  0.000  0.000  0.000  0.000  0.000  0.000  0.000  0.000  0.000
   10  0.000  0.000  0.000  0.000  0.000  0.000  0.000  0.000  0.000  0.000
   11  0.000  0.000  0.000  0.000  0.000  0.000  0.000  0.000  0.000  0.000
   12  0.000  0.000  0.000  0.000  0.000  0.000  0.000  0.000  0.000  0.000
   13  0.000  0.000  0.000  0.000  0.000  0.000  0.000  0.000  0.000  0.000
   14  0.000  0.000  0.000  0.000  0.000  0.000  0.000  0.000  0.000  0.000
   15  0.976  0.000  0.000  0.000  0.000  0.000  0.000  0.000  0.000  0.976
   16  0.000  0.000  0.000  0.000  0.000  0.000  0.000  0.000  0.000  0.000
   17  0.000  0.000  0.000  0.000  0.000  0.000  0.000  0.000  0.000  0.000
   18  0.000  0.000  0.000  0.000  0.000  0.000  0.000  0.000  0.000  0.000
   19  0.000  0.000  0.000  0.000  0.000  0.000  0.000  0.000  0.000  0.000
   20  0.000  0.000  0.000  0.000  0.000  0.000  0.000  0.000  0.000  0.000
tot    0.977  0.000  0.000  0.000  0.000  0.000  0.000  0.000  0.000  0.977
 
band     4 # energy  -33.02393658 # occ.  2.00000000
 
ion      s     py     pz     px    dxy    dyz    dz2    dxz  x2-y2    tot
    1  0.000  0.000  0.000  0.000  0.000  0.000  0.000  0.000  0.000  0.000
    2  0.000  0.000  0.000  0.000  0.000  0.000  0.000  0.000  0.000  0.000
    3  0.000  0.000  0.000  0.000  0.000  0.000  0.000  0.000  0.000  0.000
    4  0.000  0.000  0.000  0.000  0.000  0.000  0.000  0.000  0.000  0.000
    5  0.000  0.000  0.000  0.000  0.000  0.000  0.000  0.000  0.000  0.000
    6  0.000  0.000  0.000  0.000  0.000  0.000  0.000  0.000  0.000  0.000
    7  0.000  0.000  0.000  0.000  0.000  0.000  0.000  0.000  0.000  0.000
    8  0.000  0.000  0.000  0.000  0.000  0.000  0.000  0.000  0.000  0.000
    9  0.000  0.000  0.000  0.000  0.000  0.000  0.000  0.000  0.000  0.000
   10  0.000  0.000  0.000  0.000  0.000  0.000  0.000  0.000  0.000  0.000
   11  0.000  0.000  0.000  0.000  0.000  0.000  0.000  0.000  0.000  0.000
   12  0.000  0.000  0.000  0.000  0.000  0.000  0.000  0.000  0.000  0.000
   13  0.000  0.000  0.000  0.000  0.000  0.000  0.000  0.000  0.000  0.000
   14  0.976  0.000  0.000  0.000  0.000  0.000  0.000  0.000  0.000  0.976
   15  0.000  0.000  0.000  0.000  0.000  0.000  0.000  0.000  0.000  0.000
   16  0.000  0.000  0.000  0.000  0.000  0.000  0.000  0.000  0.000  0.000
   17  0.000  0.000  0.000  0.000  0.000  0.000  0.000  0.000  0.000  0.000
   18  0.000  0.000  0.000  0.000  0.000  0.000  0.000  0.000  0.000  0.000
   19  0.000  0.000  0.000  0.000  0.000  0.000  0.000  0.000  0.000  0.000
   20  0.000  0.000  0.000  0.000  0.000  0.000  0.000  0.000  0.000  0.000
tot    0.977  0.000  0.000  0.000  0.000  0.000  0.000  0.000  0.000  0.977
 
band     5 # energy  -19.19515173 # occ.  2.00000000
 
ion      s     py     pz     px    dxy    dyz    dz2    dxz  x2-y2    tot
    1  0.000  0.000  0.000  0.000  0.000  0.000  0.000  0.000  0.000  0.000
    2  0.000  0.000  0.000  0.000  0.000  0.000  0.000  0.000  0.000  0.000
    3  0.000  0.000  0.000  0.000  0.000  0.000  0.000  0.000  0.000  0.000
    4  0.000  0.000  0.000  0.000  0.000  0.000  0.000  0.000  0.000  0.000
    5  0.000  0.000  0.000  0.000  0.000  0.000  0.000  0.000  0.000  0.000
    6  0.000  0.000  0.000  0.000  0.000  0.000  0.000  0.000  0.000  0.000
    7  0.031  0.000  0.000  0.000  0.000  0.000  0.000  0.000  0.000  0.031
    8  0.031  0.000  0.000  0.000  0.000  0.000  0.000  0.000  0.000  0.031
    9  0.031  0.000  0.000  0.000  0.000  0.000  0.000  0.000  0.000  0.031
   10  0.215  0.000  0.000  0.000  0.000  0.000  0.000  0.000  0.000  0.215
   11  0.215  0.000  0.000  0.000  0.000  0.000  0.000  0.000  0.000  0.215
   12  0.215  0.000  0.000  0.000  0.000  0.000  0.000  0.000  0.000  0.215
   13  0.000  0.000  0.000  0.000  0.000  0.000  0.000  0.000  0.000  0.000
   14  0.000  0.000  0.000  0.000  0.000  0.000  0.000  0.000  0.000  0.000
   15  0.000  0.000  0.003  0.000  0.000  0.000  0.000  0.000  0.000  0.003
   16  0.003  0.000  0.005  0.000  0.000  0.000  0.000  0.000  0.000  0.008
   17  0.000  0.000  0.000  0.000  0.000  0.000  0.000  0.000  0.000  0.000
   18  0.002  0.000  0.001  0.000  0.000  0.000  0.000  0.000  0.000  0.002
   19  0.037  0.000  0.001  0.000  0.000  0.000  0.000  0.000  0.000  0.038
   20  0.080  0.000  0.014  0.000  0.000  0.000  0.011  0.000  0.000  0.105
tot    0.861  0.000  0.023  0.000  0.000  0.000  0.012  0.000  0.000  0.897
 
band     6 # energy  -18.84003046 # occ.  2.00000000
 
ion      s     py     pz     px    dxy    dyz    dz2    dxz  x2-y2    tot
    1  0.000  0.000  0.000  0.000  0.000  0.000  0.000  0.000  0.000  0.000
    2  0.000  0.000  0.000  0.000  0.000  0.000  0.000  0.000  0.000  0.000
    3  0.000  0.000  0.000  0.000  0.000  0.000  0.000  0.000  0.000  0.000
    4  0.005  0.000  0.000  0.000  0.000  0.000  0.000  0.000  0.000  0.005
    5  0.005  0.000  0.000  0.000  0.000  0.000  0.000  0.000  0.000  0.005
    6  0.005  0.000  0.000  0.000  0.000  0.000  0.000  0.000  0.000  0.005
    7  0.159  0.000  0.000  0.000  0.000  0.000  0.000  0.000  0.000  0.160
    8  0.159  0.000  0.000  0.000  0.000  0.000  0.000  0.000  0.000  0.160
    9  0.159  0.000  0.000  0.000  0.000  0.000  0.000  0.000  0.000  0.160
   10  0.032  0.000  0.000  0.000  0.000  0.000  0.000  0.000  0.000  0.033
   11  0.032  0.000  0.000  0.000  0.000  0.000  0.000  0.000  0.000  0.033
   12  0.032  0.000  0.000  0.000  0.000  0.000  0.000  0.000  0.000  0.033
   13  0.000  0.000  0.000  0.000  0.000  0.000  0.000  0.000  0.000  0.000
   14  0.000  0.000  0.001  0.000  0.000  0.000  0.000  0.000  0.000  0.001
   15  0.001  0.000  0.000  0.000  0.000  0.000  0.000  0.000  0.000  0.002
   16  0.000  0.000  0.188  0.000  0.000  0.000  0.000  0.000  0.000  0.188
   17  0.000  0.000  0.000  0.000  0.000  0.000  0.000  0.000  0.000  0.000
   18  0.015  0.000  0.002  0.000  0.000  0.000  0.000  0.000  0.000  0.018
   19  0.029  0.000  0.017  0.000  0.000  0.000  0.004  0.000  0.000  0.050
   20  0.014  0.000  0.002  0.000  0.000  0.000  0.002  0.000  0.000  0.018
tot    0.651  0.000  0.210  0.000  0.000  0.000  0.008  0.000  0.000  0.870
 
band     7 # energy  -18.56994512 # occ.  2.00000000
 
ion      s     py     pz     px    dxy    dyz    dz2    dxz  x2-y2    tot
    1  0.000  0.000  0.000  0.000  0.000  0.000  0.000  0.000  0.000  0.000
    2  0.000  0.000  0.000  0.000  0.000  0.000  0.000  0.000  0.000  0.000
    3  0.000  0.000  0.000  0.000  0.000  0.000  0.000  0.000  0.000  0.000
    4  0.000  0.000  0.000  0.000  0.000  0.000  0.000  0.000  0.000  0.000
    5  0.000  0.000  0.000  0.000  0.000  0.000  0.000  0.000  0.000  0.000
    6  0.000  0.000  0.000  0.000  0.000  0.000  0.000  0.000  0.000  0.000
    7  0.001  0.000  0.000  0.000  0.000  0.000  0.000  0.000  0.000  0.001
    8  0.000  0.000  0.000  0.000  0.000  0.000  0.000  0.000  0.000  0.000
    9  0.000  0.000  0.000  0.000  0.000  0.000  0.000  0.000  0.000  0.000
   10  0.525  0.000  0.000  0.001  0.000  0.000  0.000  0.000  0.000  0.527
   11  0.131  0.000  0.000  0.000  0.000  0.000  0.000  0.000  0.000  0.132
   12  0.131  0.000  0.000  0.000  0.000  0.000  0.000  0.000  0.000  0.132
   13  0.000  0.000  0.000  0.000  0.000  0.000  0.000  0.000  0.000  0.000
   14  0.000  0.000  0.000  0.000  0.000  0.000  0.000  0.000  0.000  0.000
   15  0.000  0.000  0.000  0.000  0.000  0.000  0.000  0.000  0.000  0.001
   16  0.000  0.000  0.000  0.000  0.001  0.000  0.000  0.000  0.000  0.001
   17  0.000  0.000  0.000  0.000  0.000  0.000  0.000  0.000  0.000  0.000
   18  0.000  0.000  0.000  0.000  0.000  0.000  0.000  0.000  0.000  0.000
   19  0.000  0.001  0.000  0.002  0.002  0.002  0.000  0.007  0.001  0.014
   20  0.000  0.013  0.000  0.039  0.041  0.010  0.000  0.029  0.014  0.145
tot    0.789  0.015  0.000  0.043  0.044  0.012  0.000  0.035  0.015  0.953
 
band     8 # energy  -18.56994410 # occ.  2.00000000
 
ion      s     py     pz     px    dxy    dyz    dz2    dxz  x2-y2    tot
    1  0.000  0.000  0.000  0.000  0.000  0.000  0.000  0.000  0.000  0.000
    2  0.000  0.000  0.000  0.000  0.000  0.000  0.000  0.000  0.000  0.000
    3  0.000  0.000  0.000  0.000  0.000  0.000  0.000  0.000  0.000  0.000
    4  0.000  0.000  0.000  0.000  0.000  0.000  0.000  0.000  0.000  0.000
    5  0.000  0.000  0.000  0.000  0.000  0.000  0.000  0.000  0.000  0.000
    6  0.000  0.000  0.000  0.000  0.000  0.000  0.000  0.000  0.000  0.000
    7  0.000  0.000  0.000  0.000  0.000  0.000  0.000  0.000  0.000  0.000
    8  0.001  0.000  0.000  0.000  0.000  0.000  0.000  0.000  0.000  0.001
    9  0.001  0.000  0.000  0.000  0.000  0.000  0.000  0.000  0.000  0.001
   10  0.000  0.000  0.000  0.000  0.000  0.000  0.000  0.000  0.000  0.000
   11  0.394  0.001  0.000  0.000  0.000  0.000  0.000  0.000  0.000  0.395
   12  0.394  0.000  0.000  0.001  0.000  0.000  0.000  0.000  0.000  0.395
   13  0.000  0.000  0.000  0.000  0.000  0.000  0.000  0.000  0.000  0.000
   14  0.000  0.000  0.000  0.000  0.000  0.000  0.000  0.000  0.000  0.000
   15  0.000  0.000  0.000  0.000  0.000  0.000  0.000  0.000  0.000  0.001
   16  0.000  0.000  0.000  0.000  0.000  0.000  0.000  0.000  0.001  0.001
   17  0.000  0.000  0.000  0.000  0.000  0.000  0.000  0.000  0.000  0.000
   18  0.000  0.000  0.000  0.000  0.000  0.000  0.000  0.000  0.000  0.000
   19  0.000  0.002  0.000  0.001  0.001  0.007  0.000  0.002  0.002  0.014
   20  0.000  0.039  0.000  0.013  0.014  0.029  0.000  0.010  0.041  0.145
tot    0.789  0.043  0.000  0.015  0.015  0.035  0.000  0.012  0.044  0.953
 
band     9 # energy  -18.18283279 # occ.  2.00000000
 
ion      s     py     pz     px    dxy    dyz    dz2    dxz  x2-y2    tot
    1  0.000  0.000  0.000  0.000  0.000  0.000  0.000  0.000  0.000  0.000
    2  0.000  0.000  0.000  0.000  0.000  0.000  0.000  0.000  0.000  0.000
    3  0.000  0.000  0.000  0.000  0.000  0.000  0.000  0.000  0.000  0.000
    4  0.000  0.000  0.000  0.000  0.000  0.000  0.000  0.000  0.000  0.000
    5  0.000  0.000  0.000  0.000  0.000  0.000  0.000  0.000  0.000  0.000
    6  0.000  0.000  0.000  0.000  0.000  0.000  0.000  0.000  0.000  0.000
    7  0.407  0.000  0.001  0.000  0.000  0.000  0.000  0.000  0.000  0.408
    8  0.102  0.000  0.000  0.000  0.000  0.000  0.000  0.000  0.000  0.102
    9  0.102  0.000  0.000  0.000  0.000  0.000  0.000  0.000  0.000  0.102
   10  0.001  0.000  0.000  0.000  0.000  0.000  0.000  0.000  0.000  0.001
   11  0.000  0.000  0.000  0.000  0.000  0.000  0.000  0.000  0.000  0.001
   12  0.000  0.000  0.000  0.000  0.000  0.000  0.000  0.000  0.000  0.001
   13  0.000  0.000  0.000  0.000  0.000  0.000  0.000  0.000  0.000  0.000
   14  0.000  0.000  0.000  0.000  0.000  0.000  0.000  0.000  0.000  0.000
   15  0.000  0.000  0.000  0.000  0.000  0.000  0.000  0.000  0.000  0.001
   16  0.000  0.048  0.000  0.145  0.000  0.000  0.000  0.001  0.000  0.195
   17  0.000  0.000  0.000  0.000  0.000  0.000  0.000  0.000  0.000  0.000
   18  0.000  0.001  0.000  0.002  0.001  0.001  0.000  0.004  0.000  0.009
   19  0.000  0.008  0.000  0.023  0.022  0.006  0.000  0.019  0.007  0.084
   20  0.000  0.000  0.000  0.000  0.000  0.000  0.000  0.000  0.000  0.000
tot    0.612  0.057  0.001  0.171  0.024  0.008  0.000  0.024  0.008  0.904
 
band    10 # energy  -18.18283163 # occ.  2.00000000
 
ion      s     py     pz     px    dxy    dyz    dz2    dxz  x2-y2    tot
    1  0.000  0.000  0.000  0.000  0.000  0.000  0.000  0.000  0.000  0.000
    2  0.000  0.000  0.000  0.000  0.000  0.000  0.000  0.000  0.000  0.000
    3  0.000  0.000  0.000  0.000  0.000  0.000  0.000  0.000  0.000  0.000
    4  0.000  0.000  0.000  0.000  0.000  0.000  0.000  0.000  0.000  0.000
    5  0.000  0.000  0.000  0.000  0.000  0.000  0.000  0.000  0.000  0.000
    6  0.000  0.000  0.000  0.000  0.000  0.000  0.000  0.000  0.000  0.000
    7  0.000  0.000  0.000  0.000  0.000  0.000  0.000  0.000  0.000  0.000
    8  0.305  0.000  0.001  0.000  0.000  0.000  0.000  0.000  0.000  0.306
    9  0.305  0.000  0.001  0.000  0.000  0.000  0.000  0.000  0.000  0.306
   10  0.000  0.000  0.000  0.000  0.000  0.000  0.000  0.000  0.000  0.000
   11  0.000  0.000  0.000  0.000  0.000  0.000  0.000  0.000  0.000  0.001
   12  0.000  0.000  0.000  0.000  0.000  0.000  0.000  0.000  0.000  0.001
   13  0.000  0.000  0.000  0.000  0.000  0.000  0.000  0.000  0.000  0.000
   14  0.000  0.000  0.000  0.000  0.000  0.000  0.000  0.000  0.000  0.000
   15  0.000  0.000  0.000  0.000  0.000  0.000  0.000  0.000  0.000  0.001
   16  0.000  0.145  0.000  0.048  0.000  0.001  0.000  0.000  0.000  0.195
   17  0.000  0.000  0.000  0.000  0.000  0.000  0.000  0.000  0.000  0.000
   18  0.000  0.002  0.000  0.001  0.000  0.004  0.000  0.001  0.001  0.009
   19  0.000  0.023  0.000  0.008  0.007  0.019  0.000  0.006  0.022  0.084
   20  0.000  0.000  0.000  0.000  0.000  0.000  0.000  0.000  0.000  0.000
tot    0.612  0.171  0.001  0.057  0.008  0.024  0.000  0.008  0.024  0.904
 
band    11 # energy  -18.09378800 # occ.  2.00000000
 
ion      s     py     pz     px    dxy    dyz    dz2    dxz  x2-y2    tot
    1  0.002  0.000  0.000  0.000  0.000  0.000  0.000  0.000  0.000  0.002
    2  0.002  0.000  0.000  0.000  0.000  0.000  0.000  0.000  0.000  0.002
    3  0.002  0.000  0.000  0.000  0.000  0.000  0.000  0.000  0.000  0.002
    4  0.190  0.000  0.000  0.000  0.000  0.000  0.000  0.000  0.000  0.191
    5  0.190  0.000  0.000  0.000  0.000  0.000  0.000  0.000  0.000  0.191
    6  0.190  0.000  0.000  0.000  0.000  0.000  0.000  0.000  0.000  0.191
    7  0.002  0.000  0.000  0.000  0.000  0.000  0.000  0.000  0.000  0.002
    8  0.002  0.000  0.000  0.000  0.000  0.000  0.000  0.000  0.000  0.002
    9  0.002  0.000  0.000  0.000  0.000  0.000  0.000  0.000  0.000  0.002
   10  0.001  0.000  0.000  0.000  0.000  0.000  0.000  0.000  0.000  0.001
   11  0.001  0.000  0.000  0.000  0.000  0.000  0.000  0.000  0.000  0.001
   12  0.001  0.000  0.000  0.000  0.000  0.000  0.000  0.000  0.000  0.001
   13  0.000  0.000  0.017  0.000  0.000  0.000  0.000  0.000  0.000  0.018
   14  0.002  0.000  0.001  0.000  0.000  0.000  0.000  0.000  0.000  0.002
   15  0.001  0.000  0.159  0.000  0.000  0.000  0.000  0.000  0.000  0.160
   16  0.000  0.000  0.011  0.000  0.000  0.000  0.000  0.000  0.000  0.011
   17  0.012  0.000  0.002  0.000  0.000  0.000  0.000  0.000  0.000  0.015
   18  0.051  0.000  0.016  0.000  0.000  0.000  0.003  0.000  0.000  0.070
   19  0.001  0.000  0.000  0.000  0.000  0.000  0.000  0.000  0.000  0.001
   20  0.000  0.000  0.000  0.000  0.000  0.000  0.000  0.000  0.000  0.000
tot    0.652  0.000  0.208  0.000  0.000  0.000  0.004  0.000  0.000  0.863
 
band    12 # energy  -17.41943983 # occ.  2.00000000
 
ion      s     py     pz     px    dxy    dyz    dz2    dxz  x2-y2    tot
    1  0.000  0.000  0.000  0.000  0.000  0.000  0.000  0.000  0.000  0.000
    2  0.000  0.000  0.000  0.000  0.000  0.000  0.000  0.000  0.000  0.000
    3  0.000  0.000  0.000  0.000  0.000  0.000  0.000  0.000  0.000  0.000
    4  0.416  0.000  0.001  0.000  0.000  0.000  0.000  0.000  0.000  0.417
    5  0.104  0.000  0.000  0.000  0.000  0.000  0.000  0.000  0.000  0.104
    6  0.104  0.000  0.000  0.000  0.000  0.000  0.000  0.000  0.000  0.104
    7  0.000  0.000  0.000  0.000  0.000  0.000  0.000  0.000  0.000  0.000
    8  0.000  0.000  0.000  0.000  0.000  0.000  0.000  0.000  0.000  0.000
    9  0.000  0.000  0.000  0.000  0.000  0.000  0.000  0.000  0.000  0.000
   10  0.000  0.000  0.000  0.000  0.000  0.000  0.000  0.000  0.000  0.000
   11  0.000  0.000  0.000  0.000  0.000  0.000  0.000  0.000  0.000  0.000
   12  0.000  0.000  0.000  0.000  0.000  0.000  0.000  0.000  0.000  0.000
   13  0.000  0.002  0.000  0.005  0.000  0.000  0.000  0.000  0.000  0.007
   14  0.000  0.000  0.000  0.000  0.000  0.000  0.000  0.000  0.000  0.001
   15  0.000  0.043  0.000  0.128  0.000  0.000  0.000  0.001  0.000  0.172
   16  0.000  0.001  0.000  0.002  0.000  0.000  0.000  0.000  0.000  0.002
   17  0.000  0.001  0.000  0.002  0.001  0.001  0.000  0.003  0.000  0.008
   18  0.000  0.008  0.000  0.023  0.022  0.007  0.000  0.022  0.007  0.090
   19  0.000  0.000  0.000  0.000  0.000  0.000  0.000  0.000  0.000  0.000
   20  0.000  0.000  0.000  0.000  0.000  0.000  0.000  0.000  0.000  0.000
tot    0.624  0.053  0.001  0.160  0.024  0.009  0.000  0.026  0.008  0.905
 
band    13 # energy  -17.41943873 # occ.  2.00000000
 
ion      s     py     pz     px    dxy    dyz    dz2    dxz  x2-y2    tot
    1  0.000  0.000  0.000  0.000  0.000  0.000  0.000  0.000  0.000  0.000
    2  0.000  0.000  0.000  0.000  0.000  0.000  0.000  0.000  0.000  0.000
    3  0.000  0.000  0.000  0.000  0.000  0.000  0.000  0.000  0.000  0.000
    4  0.000  0.000  0.000  0.000  0.000  0.000  0.000  0.000  0.000  0.000
    5  0.312  0.000  0.001  0.000  0.000  0.000  0.000  0.000  0.000  0.313
    6  0.312  0.000  0.001  0.000  0.000  0.000  0.000  0.000  0.000  0.313
    7  0.000  0.000  0.000  0.000  0.000  0.000  0.000  0.000  0.000  0.000
    8  0.000  0.000  0.000  0.000  0.000  0.000  0.000  0.000  0.000  0.000
    9  0.000  0.000  0.000  0.000  0.000  0.000  0.000  0.000  0.000  0.000
   10  0.000  0.000  0.000  0.000  0.000  0.000  0.000  0.000  0.000  0.000
   11  0.000  0.000  0.000  0.000  0.000  0.000  0.000  0.000  0.000  0.000
   12  0.000  0.000  0.000  0.000  0.000  0.000  0.000  0.000  0.000  0.000
   13  0.000  0.005  0.000  0.002  0.000  0.000  0.000  0.000  0.000  0.007
   14  0.000  0.000  0.000  0.000  0.000  0.000  0.000  0.000  0.000  0.001
   15  0.000  0.128  0.000  0.043  0.000  0.001  0.000  0.000  0.000  0.172
   16  0.000  0.002  0.000  0.001  0.000  0.000  0.000  0.000  0.000  0.002
   17  0.000  0.002  0.000  0.001  0.000  0.003  0.000  0.001  0.001  0.008
   18  0.000  0.023  0.000  0.008  0.007  0.022  0.000  0.007  0.022  0.090
   19  0.000  0.000  0.000  0.000  0.000  0.000  0.000  0.000  0.000  0.000
   20  0.000  0.000  0.000  0.000  0.000  0.000  0.000  0.000  0.000  0.000
tot    0.624  0.160  0.001  0.053  0.008  0.026  0.000  0.009  0.024  0.905
 
band    14 # energy  -16.82879731 # occ.  2.00000000
 
ion      s     py     pz     px    dxy    dyz    dz2    dxz  x2-y2    tot
    1  0.000  0.000  0.000  0.000  0.000  0.000  0.000  0.000  0.000  0.000
    2  0.000  0.000  0.000  0.000  0.000  0.000  0.000  0.000  0.000  0.000
    3  0.000  0.000  0.000  0.000  0.000  0.000  0.000  0.000  0.000  0.000
    4  0.000  0.000  0.000  0.000  0.000  0.000  0.000  0.000  0.000  0.000
    5  0.001  0.000  0.000  0.000  0.000  0.000  0.000  0.000  0.000  0.001
    6  0.001  0.000  0.000  0.000  0.000  0.000  0.000  0.000  0.000  0.001
    7  0.000  0.000  0.000  0.000  0.000  0.000  0.000  0.000  0.000  0.000
    8  0.087  0.001  0.000  0.000  0.000  0.000  0.000  0.000  0.000  0.088
    9  0.087  0.000  0.000  0.000  0.000  0.000  0.000  0.000  0.000  0.088
   10  0.000  0.001  0.000  0.000  0.000  0.000  0.000  0.000  0.000  0.002
   11  0.000  0.000  0.000  0.000  0.000  0.000  0.000  0.000  0.000  0.001
   12  0.000  0.000  0.000  0.000  0.000  0.000  0.000  0.000  0.000  0.001
   13  0.000  0.000  0.000  0.000  0.000  0.000  0.000  0.000  0.000  0.000
   14  0.000  0.000  0.000  0.000  0.000  0.000  0.000  0.000  0.000  0.000
   15  0.000  0.000  0.000  0.000  0.000  0.000  0.000  0.000  0.000  0.000
   16  0.000  0.551  0.000  0.184  0.000  0.001  0.000  0.000  0.000  0.735
   17  0.000  0.000  0.000  0.000  0.000  0.000  0.000  0.000  0.000  0.000
   18  0.000  0.001  0.000  0.000  0.000  0.001  0.000  0.000  0.000  0.003
   19  0.000  0.005  0.000  0.002  0.001  0.009  0.000  0.003  0.004  0.024
   20  0.000  0.000  0.000  0.000  0.000  0.000  0.000  0.000  0.000  0.001
tot    0.178  0.560  0.000  0.188  0.001  0.010  0.000  0.003  0.004  0.946
 
band    15 # energy  -16.82879701 # occ.  2.00000000
 
ion      s     py     pz     px    dxy    dyz    dz2    dxz  x2-y2    tot
    1  0.000  0.000  0.000  0.000  0.000  0.000  0.000  0.000  0.000  0.000
    2  0.000  0.000  0.000  0.000  0.000  0.000  0.000  0.000  0.000  0.000
    3  0.000  0.000  0.000  0.000  0.000  0.000  0.000  0.000  0.000  0.000
    4  0.002  0.000  0.000  0.000  0.000  0.000  0.000  0.000  0.000  0.002
    5  0.000  0.000  0.000  0.000  0.000  0.000  0.000  0.000  0.000  0.000
    6  0.000  0.000  0.000  0.000  0.000  0.000  0.000  0.000  0.000  0.000
    7  0.117  0.000  0.000  0.001  0.000  0.000  0.000  0.000  0.000  0.118
    8  0.029  0.000  0.000  0.000  0.000  0.000  0.000  0.000  0.000  0.029
    9  0.029  0.000  0.000  0.000  0.000  0.000  0.000  0.000  0.000  0.029
   10  0.000  0.000  0.000  0.000  0.000  0.000  0.000  0.000  0.000  0.000
   11  0.000  0.000  0.000  0.001  0.000  0.000  0.000  0.000  0.000  0.001
   12  0.000  0.001  0.000  0.000  0.000  0.000  0.000  0.000  0.000  0.001
   13  0.000  0.000  0.000  0.000  0.000  0.000  0.000  0.000  0.000  0.000
   14  0.000  0.000  0.000  0.000  0.000  0.000  0.000  0.000  0.000  0.000
   15  0.000  0.000  0.000  0.000  0.000  0.000  0.000  0.000  0.000  0.000
   16  0.000  0.184  0.000  0.551  0.000  0.000  0.000  0.001  0.000  0.735
   17  0.000  0.000  0.000  0.000  0.000  0.000  0.000  0.000  0.000  0.000
   18  0.000  0.000  0.000  0.001  0.000  0.000  0.000  0.001  0.000  0.003
   19  0.000  0.002  0.000  0.005  0.004  0.003  0.000  0.009  0.001  0.024
   20  0.000  0.000  0.000  0.000  0.000  0.000  0.000  0.000  0.000  0.001
tot    0.178  0.188  0.000  0.560  0.004  0.003  0.000  0.010  0.001  0.946
 
band    16 # energy  -16.79334898 # occ.  2.00000000
 
ion      s     py     pz     px    dxy    dyz    dz2    dxz  x2-y2    tot
    1  0.156  0.000  0.001  0.000  0.000  0.000  0.000  0.000  0.000  0.157
    2  0.156  0.000  0.001  0.000  0.000  0.000  0.000  0.000  0.000  0.157
    3  0.156  0.000  0.001  0.000  0.000  0.000  0.000  0.000  0.000  0.157
    4  0.001  0.000  0.000  0.000  0.000  0.000  0.000  0.000  0.000  0.001
    5  0.001  0.000  0.000  0.000  0.000  0.000  0.000  0.000  0.000  0.001
    6  0.001  0.000  0.000  0.000  0.000  0.000  0.000  0.000  0.000  0.001
    7  0.001  0.000  0.000  0.000  0.000  0.000  0.000  0.000  0.000  0.001
    8  0.001  0.000  0.000  0.000  0.000  0.000  0.000  0.000  0.000  0.001
    9  0.001  0.000  0.000  0.000  0.000  0.000  0.000  0.000  0.000  0.001
   10  0.000  0.000  0.000  0.000  0.000  0.000  0.000  0.000  0.000  0.000
   11  0.000  0.000  0.000  0.000  0.000  0.000  0.000  0.000  0.000  0.000
   12  0.000  0.000  0.000  0.000  0.000  0.000  0.000  0.000  0.000  0.000
   13  0.001  0.000  0.095  0.000  0.000  0.000  0.001  0.000  0.000  0.097
   14  0.001  0.000  0.190  0.000  0.000  0.000  0.000  0.000  0.000  0.191
   15  0.000  0.000  0.018  0.000  0.000  0.000  0.000  0.000  0.000  0.018
   16  0.000  0.000  0.026  0.000  0.000  0.000  0.000  0.000  0.000  0.026
   17  0.052  0.000  0.012  0.000  0.000  0.000  0.006  0.000  0.000  0.069
   18  0.001  0.000  0.000  0.000  0.000  0.000  0.000  0.000  0.000  0.001
   19  0.000  0.000  0.000  0.000  0.000  0.000  0.000  0.000  0.000  0.001
   20  0.000  0.000  0.000  0.000  0.000  0.000  0.000  0.000  0.000  0.000
tot    0.530  0.000  0.344  0.000  0.000  0.000  0.007  0.000  0.000  0.881
 
band    17 # energy  -16.63747788 # occ.  2.00000000
 
ion      s     py     pz     px    dxy    dyz    dz2    dxz  x2-y2    tot
    1  0.003  0.000  0.000  0.000  0.000  0.000  0.000  0.000  0.000  0.003
    2  0.003  0.000  0.000  0.000  0.000  0.000  0.000  0.000  0.000  0.003
    3  0.003  0.000  0.000  0.000  0.000  0.000  0.000  0.000  0.000  0.003
    4  0.000  0.000  0.000  0.000  0.000  0.000  0.000  0.000  0.000  0.000
    5  0.000  0.000  0.000  0.000  0.000  0.000  0.000  0.000  0.000  0.000
    6  0.000  0.000  0.000  0.000  0.000  0.000  0.000  0.000  0.000  0.000
    7  0.051  0.000  0.000  0.001  0.000  0.000  0.000  0.000  0.000  0.052
    8  0.051  0.001  0.000  0.000  0.000  0.000  0.000  0.000  0.000  0.052
    9  0.051  0.000  0.000  0.001  0.000  0.000  0.000  0.000  0.000  0.052
   10  0.004  0.000  0.000  0.000  0.000  0.000  0.000  0.000  0.000  0.004
   11  0.004  0.000  0.000  0.000  0.000  0.000  0.000  0.000  0.000  0.004
   12  0.004  0.000  0.000  0.000  0.000  0.000  0.000  0.000  0.000  0.004
   13  0.000  0.000  0.015  0.000  0.000  0.000  0.000  0.000  0.000  0.015
   14  0.000  0.000  0.001  0.000  0.000  0.000  0.000  0.000  0.000  0.002
   15  0.000  0.000  0.029  0.000  0.000  0.000  0.000  0.000  0.000  0.029
   16  0.001  0.000  0.698  0.000  0.000  0.000  0.000  0.000  0.000  0.700
   17  0.001  0.000  0.000  0.000  0.000  0.000  0.000  0.000  0.000  0.002
   18  0.002  0.000  0.001  0.000  0.000  0.000  0.000  0.000  0.000  0.003
   19  0.014  0.000  0.007  0.000  0.000  0.000  0.001  0.000  0.000  0.022
   20  0.001  0.000  0.000  0.000  0.000  0.000  0.000  0.000  0.000  0.002
tot    0.194  0.002  0.754  0.002  0.000  0.000  0.002  0.000  0.000  0.952
 
band    18 # energy  -16.48974196 # occ.  2.00000000
 
ion      s     py     pz     px    dxy    dyz    dz2    dxz  x2-y2    tot
    1  0.027  0.000  0.000  0.000  0.000  0.000  0.000  0.000  0.000  0.027
    2  0.027  0.000  0.000  0.000  0.000  0.000  0.000  0.000  0.000  0.027
    3  0.027  0.000  0.000  0.000  0.000  0.000  0.000  0.000  0.000  0.027
    4  0.000  0.000  0.000  0.000  0.000  0.000  0.000  0.000  0.000  0.000