Starting job 28603816 ("jobname") on c31-32 at Mon Nov 25 09:22:55 CET 2019
 running on   16 total cores
 distrk:  each k-point on   16 cores,    1 groups
 distr:  one band on    4 cores,    4 groups
 using from now: INCAR     
 vasp.5.4.4.18Apr17-6-g9f103f2a35 (build Jun 30 2017 11:15:00) complex          
  
 POSCAR found type information on POSCAR  O  Sr Ti
 POSCAR found :  3 types and      20 ions
 scaLAPACK will be used
 LDA part: xc-table for Pade appr. of Perdew
 POSCAR, INCAR and KPOINTS ok, starting setup
 FFT: planning ...
 WAVECAR not read
 entering main loop
       N       E                     dE             d eps       ncg     rms          rms(c)
DAV:   1     0.154677293713E+04    0.15468E+04   -0.54314E+04   776   0.144E+03
DAV:   2     0.162629758861E+03   -0.13841E+04   -0.13374E+04   996   0.366E+02
DAV:   3    -0.177472667444E+03   -0.34010E+03   -0.33406E+03  1000   0.183E+02
DAV:   4    -0.197712011818E+03   -0.20239E+02   -0.20179E+02   992   0.550E+01
DAV:   5    -0.198905867870E+03   -0.11939E+01   -0.11930E+01  1328   0.114E+01    0.375E+01
RMM:   6    -0.162405599863E+03    0.36500E+02   -0.36461E+02   940   0.552E+01    0.187E+01
RMM:   7    -0.154282760219E+03    0.81228E+01   -0.36602E+01   857   0.229E+01    0.788E+00
RMM:   8    -0.153358900544E+03    0.92386E+00   -0.41058E+00  1068   0.639E+00    0.480E+00
RMM:   9    -0.156548585767E+03   -0.31897E+01   -0.11309E+01   967   0.885E+00    0.165E+01
RMM:  10    -0.153753366559E+03    0.27952E+01   -0.13525E+00  1084   0.269E+00    0.106E+01
RMM:  11    -0.153150097042E+03    0.60327E+00   -0.93551E-01  1098   0.240E+00    0.779E+00
RMM:  12    -0.152839758283E+03    0.31034E+00   -0.99710E-01   981   0.278E+00    0.179E+00
RMM:  13    -0.152683497579E+03    0.15626E+00   -0.14892E-01   996   0.116E+00    0.121E+00
RMM:  14    -0.152618237397E+03    0.65260E-01   -0.18431E-01   971   0.116E+00    0.142E+00
RMM:  15    -0.152577909855E+03    0.40328E-01   -0.82230E-02  1071   0.659E-01    0.893E-01
RMM:  16    -0.152548029931E+03    0.29880E-01   -0.83295E-02   998   0.684E-01    0.364E-01
RMM:  17    -0.152543423247E+03    0.46067E-02   -0.44930E-02  1048   0.448E-01    0.331E-01
RMM:  18    -0.152541982682E+03    0.14406E-02   -0.16004E-02   977   0.358E-01    0.378E-01
RMM:  19    -0.152542353356E+03   -0.37067E-03   -0.16170E-02   962   0.301E-01    0.192E-01
RMM:  20    -0.152541478361E+03    0.87499E-03   -0.36649E-03   946   0.170E-01    0.234E-01
RMM:  21    -0.152541527945E+03   -0.49585E-04   -0.24277E-03   965   0.132E-01    0.361E-02
RMM:  22    -0.152542425283E+03   -0.89734E-03   -0.13172E-03   917   0.935E-02    0.798E-02
RMM:  23    -0.152543329397E+03   -0.90411E-03   -0.44942E-04   955   0.381E-02    0.274E-02
RMM:  24    -0.152543986031E+03   -0.65663E-03   -0.42410E-04   916   0.388E-02    0.179E-02
RMM:  25    -0.152544225617E+03   -0.23959E-03   -0.16955E-04   886   0.192E-02    0.102E-02
RMM:  26    -0.152544331995E+03   -0.10638E-03   -0.84673E-05   812   0.127E-02    0.688E-03
RMM:  27    -0.152544355649E+03   -0.23654E-04   -0.40931E-05   762   0.971E-03    0.398E-03
RMM:  28    -0.152544359237E+03   -0.35874E-05   -0.20391E-05   581   0.531E-03    0.191E-03
RMM:  29    -0.152544362577E+03   -0.33401E-05   -0.17831E-05   575   0.438E-03    0.235E-03
RMM:  30    -0.152544364511E+03   -0.19340E-05   -0.14181E-05   560   0.308E-03    0.924E-04
RMM:  31    -0.152544365842E+03   -0.13311E-05   -0.80581E-06   535   0.224E-03    0.201E-03
RMM:  32    -0.152544366453E+03   -0.61107E-06   -0.58467E-06   509   0.192E-03
   1 F= -.15254437E+03 E0= -.15252905E+03  d E =-.306325E-01

Currently Loaded Modulefiles:
  1) intel/2017.4         2) perf-reports/7.0.6

Job script resource usage:
       JobID  MaxVMSize     MaxRSS 
------------ ---------- ---------- 
28603816.ba+    216884K      2892K 

Job step resource usage:
       JobID    JobName  AllocCPUS  MaxVMSize     MaxRSS    Elapsed ExitCode 
------------ ---------- ---------- ---------- ---------- ---------- -------- 
28603816        jobname         16                         00:00:31      0:0 
28603816.0    pmi_proxy          1    279832K       559K   00:00:28      0:0 

Job 28603816 ("jobname") completed on c31-32 at Mon Nov 25 09:23:25 CET 2019
