unknown system                          
           1
     5.581684    0.000000    0.000000
     2.790842    4.833880    0.000000
     0.000000    0.000000   19.975495
   O    Sr   Ti
  12   4   4
Direct configuration=     1
   0.50037697  0.50037697  0.29827697
   0.50037697  0.99924607  0.29827697
   0.99924607  0.50037697  0.29827697
   0.16594597  0.16594597  0.41848720
   0.16594597  0.66810805  0.41848720
   0.66810805  0.16594597  0.41848720
   0.83461720  0.83461720  0.54035250
   0.83461720  0.33076559  0.54035250
   0.33076559  0.83461720  0.54035250
   0.50317178  0.50317178  0.66040191
   0.50317178  0.99365645  0.66040191
   0.99365645  0.50317178  0.66040191
   0.00000000  0.00000000  0.29016071
   0.66666667  0.66666667  0.38962479
   0.33333333  0.33333333  0.51222329
   0.00000000  0.00000000  0.63352324
   0.33333333  0.33333333  0.33919927
   0.00000000  0.00000000  0.46274325
   0.66666667  0.66666667  0.58329837
   0.33333333  0.33333333  0.69444509
