   25   25   50    1
  0.1012713E+03  0.5431010E-09  0.2159101E-08  0.2159101E-08  0.5000000E-15
  1.000000000000000E-004
  CAR 
 unknown system                          
     64      3     46
