 vasp.5.4.1 05Feb16 (build Mar 02 2016 14:09:44) complex                        
  
 executed on   Abel-impi-ifc-cuda date 2019.10.04  11:18:46
 running on    4 total cores
 distrk:  each k-point on    4 cores,    1 groups
 distr:  one band on NCORES_PER_BAND=   2 cores,    2 groups


--------------------------------------------------------------------------------------------------------


 INCAR:
 POTCAR:   PAW_PBE Si 05Jan2001                   
 POTCAR:   PAW_PBE H 15Jun2001                    
 POTCAR:   PAW_PBE Si 05Jan2001                   
   VRHFIN =Si: s2p2                                                             
   LEXCH  = PE                                                                  
   EATOM  =   103.0669 eV,    7.5752 Ry                                         
                                                                                
   TITEL  = PAW_PBE Si 05Jan2001                                                
   LULTRA =        F    use ultrasoft PP ?                                      
   IUNSCR =        1    unscreen: 0-lin 1-nonlin 2-no                           
   RPACOR =    1.500    partial core radius                                     
   POMASS =   28.085; ZVAL   =    4.000    mass and valenz                      
   RCORE  =    1.900    outmost cutoff radius                                   
   RWIGS  =    2.480; RWIGS  =    1.312    wigner-seitz radius (au A)           
   ENMAX  =  245.345; ENMIN  =  184.009 eV                                      
   ICORE  =        2    local potential                                         
   LCOR   =        T    correct aug charges                                     
   LPAW   =        T    paw PP                                                  
   EAUG   =  322.069                                                            
   DEXC   =    -.007                                                            
   RMAX   =    2.944    core radius for proj-oper                               
   RAUG   =    1.300    factor for augmentation sphere                          
   RDEP   =    1.993    radius for radial grids                                 
   QCUT   =   -4.246; QGAM   =    8.493    optimization parameters              
                                                                                
   Description                                                                  
     l     E      TYP  RCUT    TYP  RCUT                                        
     0   .000     23  1.900                                                     
     0   .000     23  1.900                                                     
     1   .000     23  1.900                                                     
     1   .000     23  1.900                                                     
     2   .000      7  1.900                                                     
  local pseudopotential read in
  partial core-charges read in
  atomic valenz-charges read in
  non local Contribution for L=           0  read in
    real space projection operators read in
  non local Contribution for L=           0  read in
    real space projection operators read in
  non local Contribution for L=           1  read in
    real space projection operators read in
  non local Contribution for L=           1  read in
    real space projection operators read in
    PAW grid and wavefunctions read in
 
   number of l-projection  operators is LMAX  =           4
   number of lm-projection operators is LMMAX =           8
 
 POTCAR:   PAW_PBE H 15Jun2001                    
   VRHFIN =H: ultrasoft test                                                    
   LEXCH  = PE                                                                  
   EATOM  =    12.4884 eV,     .9179 Ry                                         
                                                                                
   TITEL  = PAW_PBE H 15Jun2001                                                 
   LULTRA =        F    use ultrasoft PP ?                                      
   IUNSCR =        0    unscreen: 0-lin 1-nonlin 2-no                           
   RPACOR =     .000    partial core radius                                     
   POMASS =    1.000; ZVAL   =    1.000    mass and valenz                      
   RCORE  =    1.100    outmost cutoff radius                                   
   RWIGS  =     .700; RWIGS  =     .370    wigner-seitz radius (au A)           
   ENMAX  =  250.000; ENMIN  =  200.000 eV                                      
   RCLOC  =     .701    cutoff for local pot                                    
   LCOR   =        T    correct aug charges                                     
   LPAW   =        T    paw PP                                                  
   EAUG   =  400.000                                                            
   RMAX   =    2.174    core radius for proj-oper                               
   RAUG   =    1.200    factor for augmentation sphere                          
   RDEP   =    1.112    radius for radial grids                                 
   QCUT   =   -5.749; QGAM   =   11.498    optimization parameters              
                                                                                
   Description                                                                  
     l     E      TYP  RCUT    TYP  RCUT                                        
     0   .000     23  1.100                                                     
     0   .500     23  1.100                                                     
     1  -.300     23  1.100                                                     
  local pseudopotential read in
  atomic valenz-charges read in
  non local Contribution for L=           0  read in
    real space projection operators read in
  non local Contribution for L=           0  read in
    real space projection operators read in
  non local Contribution for L=           1  read in
    real space projection operators read in
    PAW grid and wavefunctions read in
 
   number of l-projection  operators is LMAX  =           3
   number of lm-projection operators is LMMAX =           5
 
 Optimization of the real space projectors (new method)

 maximal supplied QI-value         = 19.84
 optimisation between [QCUT,QGAM] = [  7.94, 16.07] = [ 17.64, 72.34] Ry 
 Optimized for a Real-space Cutoff    1.55 Angstroem

   l    n(q)    QCUT    max X(q) W(low)/X(q) W(high)/X(q)  e(spline) 
   0      7     7.937     8.708    0.25E-04    0.20E-04    0.11E-07
   0      7     7.937   106.241    0.95E-04    0.31E-03    0.13E-06
   1      7     7.937     5.901    0.19E-04    0.32E-04    0.50E-07
   1      7     7.937    73.241    0.39E-03    0.64E-03    0.12E-06
 Optimization of the real space projectors (new method)

 maximal supplied QI-value         = 34.20
 optimisation between [QCUT,QGAM] = [  7.87, 16.08] = [ 17.33, 72.37] Ry 
 Optimized for a Real-space Cutoff    1.85 Angstroem

   l    n(q)    QCUT    max X(q) W(low)/X(q) W(high)/X(q)  e(spline) 
   0      9     7.867     4.436    0.44E-04    0.71E-04    0.23E-06
   0      9     7.867    15.341    0.29E-03    0.73E-03    0.99E-06
   1      8     7.867     4.196    0.27E-03    0.13E-02    0.91E-06
 PAW_PBE Si 05Jan2001                   :
 energy of atom  1       EATOM= -103.0669
 kinetic energy error for atom=    0.0052 (will be added to EATOM!!)
 PAW_PBE H 15Jun2001                    :
 energy of atom  2       EATOM=  -12.4884
 kinetic energy error for atom=    0.0868 (will be added to EATOM!!)
 
 
 POSCAR: Si_bulk_icsd_60385                      
  positions in cartesian coordinates
  velocities in cartesian coordinates
  No initial velocities read in
 exchange correlation table for  LEXCH =        8
   RHO(1)=    0.500       N(1)  =     2000
   RHO(2)=  100.500       N(2)  =     4000
 


--------------------------------------------------------------------------------------------------------


 ion  position               nearest neighbor table
   1  0.000  0.000  0.000-  17 1.40  23 1.40   3 2.35
   2  0.500  0.126  0.000-  18 1.40   3 2.35   4 2.35
   3  0.250  0.063  0.063-   5 2.35   2 2.35   6 2.35   1 2.35
   4  0.750  0.189  0.063-  11 2.35  12 2.35   5 2.35   2 2.35
   5  0.000  0.126  0.126-   3 2.35   4 2.35   8 2.35   7 2.35
   6  0.500  0.000  0.126-  24 1.40   3 2.35   8 2.35
   7  0.250  0.189  0.189-  13 2.35  12 2.35  10 2.35   5 2.35
   8  0.750  0.063  0.189-   9 2.35  10 2.35   5 2.35   6 2.35
   9  0.000  0.000  0.252-  14 1.40  25 1.40   8 2.35
  10  0.500  0.126  0.252-  15 1.40   8 2.35   7 2.35
  11  0.000  0.252  0.000-  20 1.40  19 1.40   4 2.35
  12  0.500  0.252  0.126-  21 1.40   4 2.35   7 2.35
  13  0.000  0.252  0.252-  16 1.40  22 1.40   7 2.35
  14  0.000  0.000  0.316-   9 1.40
  15  0.500  0.126  0.316-  10 1.40
  16  0.000  0.252  0.316-  13 1.40
  17  0.000  0.000  0.935-   1 1.40
  18  0.500  0.126  0.935-   2 1.40
  19  0.000  0.252  0.935-  11 1.40
  20  0.000  0.316  0.000-  11 1.40
  21  0.500  0.316  0.126-  12 1.40
  22  0.000  0.316  0.252-  13 1.40
  23  0.000  0.935  0.000-   1 1.40
  24  0.500  0.935  0.126-   6 1.40
  25  0.000  0.935  0.252-   9 1.40
 
  LATTYP: Found a simple tetragonal cell.
 ALAT       =    21.5910100000
 C/A-ratio  =     0.2515403402
  
  Lattice vectors:
  
 A1 = (   0.0000000000,  21.5910100000,   0.0000000000)
 A2 = (   0.0000000000,   0.0000000000, -21.5910100000)
 A3 = (  -5.4310100000,   0.0000000000,   0.0000000000)


Analysis of symmetry for initial positions (statically):
=====================================================================
 Subroutine PRICEL returns:
 Original cell was already a primitive cell.
 

 Routine SETGRP: Setting up the symmetry group for a 
 simple tetragonal supercell.


 Subroutine GETGRP returns: Found  8 space group operations
 (whereof  2 operations were pure point group operations)
 out of a pool of 16 trial point group operations.


The static configuration has the point symmetry C_1h.
 The point group associated with its full space group is D_2d.


Analysis of symmetry for dynamics (positions and initial velocities):
=====================================================================
 Subroutine PRICEL returns:
 Original cell was already a primitive cell.
 

 Routine SETGRP: Setting up the symmetry group for a 
 simple tetragonal supercell.


 Subroutine GETGRP returns: Found  8 space group operations
 (whereof  2 operations were pure point group operations)
 out of a pool of 16 trial point group operations.


The dynamic configuration has the point symmetry C_1h.
 The point group associated with its full space group is D_2d.


 Subroutine INISYM returns: Found  8 space group operations
 (whereof  2 operations are pure point group operations),
 and found     1 'primitive' translations

 
 
 KPOINTS: k-density: 4.0                          

Automatic generation of k-mesh.
Space group operators:
 irot       det(A)        alpha          n_x          n_y          n_z        tau_x        tau_y        tau_z
    1     1.000000     0.000001     1.000000     0.000000     0.000000     0.000000     0.000000     0.000000
    2    -1.000000   180.000000     0.000000    -0.707107     0.707107     0.000000     0.000000     0.000000
    3    -1.000000    90.000000     1.000000     0.000000     0.000000     0.000000     0.251540     0.000000
    4     1.000000   179.999999     1.000000     0.000000     0.000000     0.000000     0.251540    -0.748460
    5    -1.000000    90.000000    -1.000000     0.000000     0.000000     0.000000     0.000000    -0.748460
    6     1.000000   180.000000     0.000000     0.000000     1.000000     0.000000     0.251540     0.000000
    7     1.000000   180.000000     0.000000     1.000000     0.000000     0.000000     0.000000    -0.748460
    8    -1.000000   180.000000     0.000000     0.707107     0.707107     0.000000     0.251540    -0.748460
 
 Subroutine IBZKPT returns following result:
 ===========================================
 
 Found      3 irreducible k-points:
 
 Following reciprocal coordinates:
            Coordinates               Weight
  0.000000  0.000000  0.000000      1.000000
  0.200000  0.000000  0.000000      2.000000
  0.400000  0.000000  0.000000      2.000000
 
 Following cartesian coordinates:
            Coordinates               Weight
  0.000000  0.000000  0.000000      1.000000
  0.036826  0.000000  0.000000      2.000000
  0.073651  0.000000  0.000000      2.000000
 


--------------------------------------------------------------------------------------------------------




 Dimension of arrays:
   k-points           NKPTS =      3   k-points in BZ     NKDIM =      3   number of bands    NBANDS=     46
   number of dos      NEDOS =    301   number of ions     NIONS =     25
   non local maximal  LDIM  =      4   non local SUM 2l+1 LMDIM =      8
   total plane-waves  NPLWV = 169344
   max r-space proj   IRMAX =   1831   max aug-charges    IRDMAX=   2436
   dimension x,y,z NGX =    24 NGY =   84 NGZ =   84
   dimension x,y,z NGXF=    48 NGYF=  168 NGZF=  168
   support grid    NGXF=    48 NGYF=  168 NGZF=  168
   ions per type =              13  12
 NGX,Y,Z   is equivalent  to a cutoff of   7.35,  6.47,  6.47 a.u.
 NGXF,Y,Z  is equivalent  to a cutoff of  14.69, 12.94, 12.94 a.u.


 I would recommend the setting:
   dimension x,y,z NGX =    21 NGY =   84 NGZ =   84
 SYSTEM =  unknown system                          
 POSCAR =  Si_bulk_icsd_60385                      

 Startparameter for this run:
   NWRITE =      2    write-flag & timer
   PREC   = normal    normal or accurate (medium, high low for compatibility)
   ISTART =      0    job   : 0-new  1-cont  2-samecut
   ICHARG =      2    charge: 1-file 2-atom 10-const
   ISPIN  =      1    spin polarized calculation?
   LNONCOLLINEAR =      F non collinear calculations
   LSORBIT =      F    spin-orbit coupling
   INIWAV =      1    electr: 0-lowe 1-rand  2-diag
   LASPH  =      F    aspherical Exc in radial PAW
   METAGGA=      F    non-selfconsistent MetaGGA calc.

 Electronic Relaxation 1
   ENCUT  =  250.0 eV  18.37 Ry    4.29 a.u.   7.00 27.84 27.84*2*pi/ulx,y,z
   ENINI  =  250.0     initial cutoff
   ENAUG  =  400.0 eV  augmentation charge cutoff
   NELM   =     60;   NELMIN=  4; NELMDL= -5     # of ELM steps 
   EDIFF  = 0.1E-04   stopping-criterion for ELM
   LREAL  =      T    real-space projection
   NLSPLINE    = F    spline interpolate recip. space projectors
   LCOMPAT=      F    compatible to vasp.4.4
   GGA_COMPAT  = T    GGA compatible to vasp.4.4-vasp.4.6
   LMAXPAW     = -100 max onsite density
   LMAXMIX     =    2 max onsite mixed and CHGCAR
   VOSKOWN=      0    Vosko Wilk Nusair interpolation
   ROPT   =   -0.00050  -0.00050
 Ionic relaxation
   EDIFFG = -.5E-01   stopping-criterion for IOM
   NSW    =     50    number of steps for IOM
   NBLOCK =      1;   KBLOCK =     50    inner block; outer block 
   IBRION =      1    ionic relax: 0-MD 1-quasi-New 2-CG
   NFREE  =      0    steps in history (QN), initial steepest desc. (CG)
   ISIF   =      2    stress and relaxation
   IWAVPR =     11    prediction:  0-non 1-charg 2-wave 3-comb
   ISYM   =      2    0-nonsym 1-usesym 2-fastsym
   LCORR  =      T    Harris-Foulkes like correction to forces

   POTIM  = 0.5000    time-step for ionic-motion
   TEIN   =    0.0    initial temperature
   TEBEG  =    0.0;   TEEND  =   0.0 temperature during run
   SMASS  =  -3.00    Nose mass-parameter (am)
   estimated Nose-frequenzy (Omega)   =  0.10E-29 period in steps =****** mass=  -0.674E-27a.u.
   SCALEE = 1.0000    scale energy and forces
   NPACO  =    256;   APACO  = 16.0  distance and # of slots for P.C.
   PSTRESS=    0.0 pullay stress

  Mass of Ions in am
   POMASS =  28.09  1.00
  Ionic Valenz
   ZVAL   =   4.00  1.00
  Atomic Wigner-Seitz radii
   RWIGS  =  -1.00 -1.00
  virtual crystal weights 
   VCA    =   1.00  1.00
   NELECT =      64.0000    total number of electrons
   NUPDOWN=      -1.0000    fix difference up-down

 DOS related values:
   EMIN   =  10.00;   EMAX   =-10.00  energy-range for DOS
   EFERMI =   0.00
   ISMEAR =     0;   SIGMA  =   0.20  broadening in eV -4-tet -1-fermi 0-gaus

 Electronic relaxation 2 (details)
   IALGO  =     68    algorithm
   LDIAG  =      T    sub-space diagonalisation (order eigenvalues)
   LSUBROT=      F    optimize rotation matrix (better conditioning)
   TURBO    =      0    0=normal 1=particle mesh
   IRESTART =      0    0=no restart 2=restart with 2 vectors
   NREBOOT  =      0    no. of reboots
   NMIN     =      0    reboot dimension
   EREF     =   0.00    reference energy to select bands
   IMIX   =      4    mixing-type and parameters
     AMIX     =   0.40;   BMIX     =  1.00
     AMIX_MAG =   1.60;   BMIX_MAG =  1.00
     AMIN     =   0.10
     WC   =   100.;   INIMIX=   1;  MIXPRE=   1;  MAXMIX=  80

 Intra band minimization:
   WEIMIN = 0.0010     energy-eigenvalue tresh-hold
   EBREAK =  0.54E-07  absolut break condition
   DEPER  =   0.30     relativ break condition  

   TIME   =   0.40     timestep for ELM

  volume/ion in A,a.u.               =     101.27       683.41
  Fermi-wavevector in a.u.,A,eV,Ry     =   0.480462  0.907942  3.140824  0.230844
  Thomas-Fermi vector in A             =   1.478031
 
 Write flags
   LWAVE  =      F    write WAVECAR
   LCHARG =      T    write CHGCAR
   LVTOT  =      F    write LOCPOT, total local potential
   LVHAR  =      F    write LOCPOT, Hartree potential only
   LELF   =      F    write electronic localiz. function (ELF)
   LORBIT =      0    0 simple, 1 ext, 2 COOP (PROOUT)


 Dipole corrections
   LMONO  =      F    monopole corrections only (constant potential shift)
   LDIPOL =      F    correct potential (dipole corrections)
   IDIPOL =      0    1-x, 2-y, 3-z, 4-all directions 
   EPSILON=  1.0000000 bulk dielectric constant

 Exchange correlation treatment:
   GGA     =    --    GGA type
   LEXCH   =     8    internal setting for exchange type
   VOSKOWN=      0    Vosko Wilk Nusair interpolation
   LHFCALC =     F    Hartree Fock is set to
   LHFONE  =     F    Hartree Fock one center treatment
   AEXX    =    0.0000 exact exchange contribution

 Linear response parameters
   LEPSILON=     F    determine dielectric tensor
   LRPA    =     F    only Hartree local field effects (RPA)
   LNABLA  =     F    use nabla operator in PAW spheres
   LVEL    =     F    velocity operator in full k-point grid
   LINTERFAST=   F  fast interpolation
   KINTER  =     0    interpolate to denser k-point grid
   CSHIFT  =0.1000    complex shift for real part using Kramers Kronig
   OMEGAMAX=  -1.0    maximum frequency
   DEG_THRESHOLD= 0.2000000E-02 threshold for treating states as degnerate
   RTIME   =    0.100 relaxation time in fs

 Orbital magnetization related:
   ORBITALMAG=     F  switch on orbital magnetization
   LCHIMAG   =     F  perturbation theory with respect to B field
   DQ        =  0.001000  dq finite difference perturbation B field



--------------------------------------------------------------------------------------------------------


 quasi-Newton-method for relaxation of ions
 charge density and potential will be updated during run
 non-spin polarized calculation
 RMM-DIIS sequential band-by-band and
  variant of blocked Davidson during initial phase
 perform sub-space diagonalisation
    before iterative eigenvector-optimisation
 modified Broyden-mixing scheme, WC =      100.0
 initial mixing is a Kerker type mixing with AMIX =  0.4000 and BMIX =      1.0000
 Hartree-type preconditioning will be used
 using additional bands           14
 real space projection scheme for non local part
 use partial core corrections
 calculate Harris-corrections to forces 
   (improved forces if not selfconsistent)
 use gradient corrections 
 use of overlap-Matrix (Vanderbilt PP)
 Gauss-broadening in eV      SIGMA  =   0.20


--------------------------------------------------------------------------------------------------------


  energy-cutoff  :      250.00
  volume of cell :     2531.78
      direct lattice vectors                 reciprocal lattice vectors
     5.431010000  0.000000000  0.000000000     0.184127814  0.000000000  0.000000000
     0.000000000 21.591010000  0.000000000     0.000000000  0.046315573  0.000000000
     0.000000000  0.000000000 21.591010000     0.000000000  0.000000000  0.046315573

  length of vectors
     5.431010000 21.591010000 21.591010000     0.184127814  0.046315573  0.046315573


 
 k-points in units of 2pi/SCALE and weight: k-density: 4.0                          
   0.00000000  0.00000000  0.00000000       0.200
   0.03682556  0.00000000  0.00000000       0.400
   0.07365113  0.00000000  0.00000000       0.400
 
 k-points in reciprocal lattice and weights: k-density: 4.0                          
   0.00000000  0.00000000  0.00000000       0.200
   0.20000000  0.00000000  0.00000000       0.400
   0.40000000  0.00000000  0.00000000       0.400
 
 position of ions in fractional coordinates (direct lattice) 
   0.00000000  0.00000000  0.00000000
   0.49999908  0.12576994  0.00000000
   0.24999954  0.06288497  0.06288497
   0.75000046  0.18865537  0.06288497
   0.00000000  0.12576994  0.12576994
   0.49999908  0.00000000  0.12576994
   0.24999954  0.18865537  0.18865537
   0.75000046  0.06288497  0.18865537
   0.00000000  0.00000000  0.25154034
   0.49999908  0.12576994  0.25154034
   0.00000000  0.25154034  0.00000000
   0.49999908  0.25154034  0.12576994
   0.00000000  0.25154034  0.25154034
   0.00000000  0.00000000  0.31638214
   0.49999908  0.12576994  0.31638214
   0.00000000  0.25154034  0.31638214
   0.00000000  0.00000000  0.93515773
   0.49999908  0.12576994  0.93515773
   0.00000000  0.25154034  0.93515773
   0.00000000  0.31638214  0.00000000
   0.49999908  0.31638214  0.12576994
   0.00000000  0.31638214  0.25154034
   0.00000000  0.93515773  0.00000000
   0.49999908  0.93515773  0.12576994
   0.00000000  0.93515773  0.25154034
 
 position of ions in cartesian coordinates  (Angst):
   0.00000000  0.00000000  0.00000000
   2.71550000  2.71550000  0.00000000
   1.35775000  1.35775000  1.35775000
   4.07326000  4.07326000  1.35775000
   0.00000000  2.71550000  2.71550000
   2.71550000  0.00000000  2.71550000
   1.35775000  4.07326000  4.07326000
   4.07326000  1.35775000  4.07326000
   0.00000000  0.00000000  5.43101000
   2.71550000  2.71550000  5.43101000
   0.00000000  5.43101000  0.00000000
   2.71550000  5.43101000  2.71550000
   0.00000000  5.43101000  5.43101000
   0.00000000  0.00000000  6.83101000
   2.71550000  2.71550000  6.83101000
   0.00000000  5.43101000  6.83101000
   0.00000000  0.00000000 20.19100000
   2.71550000  2.71550000 20.19100000
   0.00000000  5.43101000 20.19100000
   0.00000000  6.83101000  0.00000000
   2.71550000  6.83101000  2.71550000
   0.00000000  6.83101000  5.43101000
   0.00000000 20.19100000  0.00000000
   2.71550000 20.19100000  2.71550000
   0.00000000 20.19100000  5.43101000
 


--------------------------------------------------------------------------------------------------------


 k-point  1 :   0.0000 0.0000 0.0000  plane waves:   22655
 k-point  2 :   0.2000 0.0000 0.0000  plane waves:   22730
 k-point  3 :   0.4000 0.0000 0.0000  plane waves:   22774

 maximum and minimum number of plane-waves per node :     11394    11325

 maximum number of plane-waves:     22774
 maximum index in each direction: 
   IXMAX=    7   IYMAX=   27   IZMAX=   27
   IXMIN=   -7   IYMIN=  -27   IZMIN=  -27

 WARNING: aliasing errors must be expected set NGX to  30 to avoid them
 WARNING: aliasing errors must be expected set NGY to 110 to avoid them
 WARNING: aliasing errors must be expected set NGZ to 110 to avoid them
 aliasing errors are usually negligible using standard VASP settings
 and one can safely disregard these warnings

 real space projection operators:
  total allocation   :       1636.12 KBytes
  max/ min on nodes  :        819.00        817.12


 parallel 3D FFT for wavefunctions:
    minimum data exchange during FFTs selected (reduces bandwidth)
 parallel 3D FFT for charge:
    minimum data exchange during FFTs selected (reduces bandwidth)


 total amount of memory used by VASP on root node    81110. kBytes
========================================================================

   base      :      30000. kBytes
   nonlr-proj:       1771. kBytes
   fftplans  :      14097. kBytes
   grid      :      22530. kBytes
   one-center:         39. kBytes
   wavefun   :      12673. kBytes
 
     INWAV:  cpu time    0.0000: real time    0.0000
 Broyden mixing: mesh for mixing (old mesh)
   NGX = 15   NGY = 55   NGZ = 55
  (NGX  = 48   NGY  =168   NGZ  =168)
  gives a total of  45375 points

 initial charge density was supplied:
 charge density of overlapping atoms calculated
 number of electron      64.0000000 magnetization 
 keeping initial charge density in first step


--------------------------------------------------------------------------------------------------------


 Maximum index for non-local projection operator          872
 Maximum index for augmentation-charges          545 (set IRDMAX)


--------------------------------------------------------------------------------------------------------


 First call to EWALD:  gamma=   0.130
 Maximum number of real-space cells 6x 2x 2
 Maximum number of reciprocal cells 1x 4x 4

 FEWALD executed in parallel
    FEWALD:  cpu time    0.0030: real time    0.0022


----------------------------------------- Iteration    1(   1)  ---------------------------------------


    POTLOK:  cpu time    0.2660: real time    0.2658
    SETDIJ:  cpu time    0.0090: real time    0.0092
     EDDAV:  cpu time    1.9617: real time    1.9615
       DOS:  cpu time    0.0000: real time    0.0004
    --------------------------------------------
      LOOP:  cpu time    2.2397: real time    2.5256

 eigenvalue-minimisations  :   340
 total energy-change (2. order) : 0.2202831E+03  (-0.1249934E+04)
 number of electron      64.0000000 magnetization 
 augmentation part       64.0000000 magnetization 

 Free energy of the ion-electron system (eV)
  ---------------------------------------------------
  alpha Z        PSCENC =         3.50461401
  Ewald energy   TEWEN  =      4768.58676805
  -Hartree energ DENC   =     -5830.58450839
  -exchange      EXHF   =         0.00000000
  -V(xc)+E(xc)   XCENC  =       -98.18046116
  PAW double counting   =       438.08476127     -209.47942531
  entropy T*S    EENTRO =        -0.22311682
  eigenvalues    EBANDS =      -340.04765862
  atomic energy  EATOM  =      1488.62216486
  Solvation  Ediel_sol  =         0.00000000
  ---------------------------------------------------
  free energy    TOTEN  =       220.28313789 eV

  energy without entropy =      220.50625471  energy(sigma->0) =      220.39469630


--------------------------------------------------------------------------------------------------------




----------------------------------------- Iteration    1(   2)  ---------------------------------------


     EDDAV:  cpu time    2.1847: real time    2.1843
       DOS:  cpu time    0.0000: real time    0.0004
    --------------------------------------------
      LOOP:  cpu time    2.1867: real time    2.1907

 eigenvalue-minimisations  :   384
 total energy-change (2. order) :-0.2845608E+03  (-0.2765158E+03)
 number of electron      64.0000000 magnetization 
 augmentation part       64.0000000 magnetization 

 Free energy of the ion-electron system (eV)
  ---------------------------------------------------
  alpha Z        PSCENC =         3.50461401
  Ewald energy   TEWEN  =      4768.58676805
  -Hartree energ DENC   =     -5830.58450839
  -exchange      EXHF   =         0.00000000
  -V(xc)+E(xc)   XCENC  =       -98.18046116
  PAW double counting   =       438.08476127     -209.47942531
  entropy T*S    EENTRO =        -0.01311024
  eigenvalues    EBANDS =      -624.81842801
  atomic energy  EATOM  =      1488.62216486
  Solvation  Ediel_sol  =         0.00000000
  ---------------------------------------------------
  free energy    TOTEN  =       -64.27762491 eV

  energy without entropy =      -64.26451467  energy(sigma->0) =      -64.27106979


--------------------------------------------------------------------------------------------------------




----------------------------------------- Iteration    1(   3)  ---------------------------------------


     EDDAV:  cpu time    1.9637: real time    1.9635
       DOS:  cpu time    0.0000: real time    0.0004
    --------------------------------------------
      LOOP:  cpu time    1.9647: real time    1.9693

 eigenvalue-minimisations  :   344
 total energy-change (2. order) :-0.3885948E+02  (-0.3847729E+02)
 number of electron      64.0000000 magnetization 
 augmentation part       64.0000000 magnetization 

 Free energy of the ion-electron system (eV)
  ---------------------------------------------------
  alpha Z        PSCENC =         3.50461401
  Ewald energy   TEWEN  =      4768.58676805
  -Hartree energ DENC   =     -5830.58450839
  -exchange      EXHF   =         0.00000000
  -V(xc)+E(xc)   XCENC  =       -98.18046116
  PAW double counting   =       438.08476127     -209.47942531
  entropy T*S    EENTRO =        -0.02242223
  eigenvalues    EBANDS =      -663.66859891
  atomic energy  EATOM  =      1488.62216486
  Solvation  Ediel_sol  =         0.00000000
  ---------------------------------------------------
  free energy    TOTEN  =      -103.13710781 eV

  energy without entropy =     -103.11468558  energy(sigma->0) =     -103.12589669


--------------------------------------------------------------------------------------------------------




----------------------------------------- Iteration    1(   4)  ---------------------------------------


     EDDAV:  cpu time    1.9907: real time    1.9914
       DOS:  cpu time    0.0010: real time    0.0005
    --------------------------------------------
      LOOP:  cpu time    1.9937: real time    2.0114

 eigenvalue-minimisations  :   344
 total energy-change (2. order) :-0.1243541E+01  (-0.1239678E+01)
 number of electron      64.0000000 magnetization 
 augmentation part       64.0000000 magnetization 

 Free energy of the ion-electron system (eV)
  ---------------------------------------------------
  alpha Z        PSCENC =         3.50461401
  Ewald energy   TEWEN  =      4768.58676805
  -Hartree energ DENC   =     -5830.58450839
  -exchange      EXHF   =         0.00000000
  -V(xc)+E(xc)   XCENC  =       -98.18046116
  PAW double counting   =       438.08476127     -209.47942531
  entropy T*S    EENTRO =        -0.02067711
  eigenvalues    EBANDS =      -664.91388527
  atomic energy  EATOM  =      1488.62216486
  Solvation  Ediel_sol  =         0.00000000
  ---------------------------------------------------
  free energy    TOTEN  =      -104.38064904 eV

  energy without entropy =     -104.35997193  energy(sigma->0) =     -104.37031049


--------------------------------------------------------------------------------------------------------




----------------------------------------- Iteration    1(   5)  ---------------------------------------


     EDDAV:  cpu time    2.2457: real time    2.2454
       DOS:  cpu time    0.0010: real time    0.0005
    CHARGE:  cpu time    0.1390: real time    0.1389
    MIXING:  cpu time    0.0070: real time    0.0072
    --------------------------------------------
      LOOP:  cpu time    2.3936: real time    2.3974

 eigenvalue-minimisations  :   402
 total energy-change (2. order) :-0.4399153E-01  (-0.4396788E-01)
 number of electron      64.0000135 magnetization 
 augmentation part       -2.7854591 magnetization 

 Broyden mixing:
  rms(total) = 0.14067E+01    rms(broyden)= 0.14062E+01
  rms(prec ) = 0.15189E+01
  weight for this iteration     100.00

 Free energy of the ion-electron system (eV)
  ---------------------------------------------------
  alpha Z        PSCENC =         3.50461401
  Ewald energy   TEWEN  =      4768.58676805
  -Hartree energ DENC   =     -5830.58450839
  -exchange      EXHF   =         0.00000000
  -V(xc)+E(xc)   XCENC  =       -98.18046116
  PAW double counting   =       438.08476127     -209.47942531
  entropy T*S    EENTRO =        -0.02053097
  eigenvalues    EBANDS =      -664.95802293
  atomic energy  EATOM  =      1488.62216486
  Solvation  Ediel_sol  =         0.00000000
  ---------------------------------------------------
  free energy    TOTEN  =      -104.42464057 eV

  energy without entropy =     -104.40410960  energy(sigma->0) =     -104.41437508


--------------------------------------------------------------------------------------------------------




----------------------------------------- Iteration    1(   6)  ---------------------------------------


    POTLOK:  cpu time    0.2560: real time    0.2563
    SETDIJ:  cpu time    0.0090: real time    0.0095
    EDDIAG:  cpu time    0.3070: real time    0.3064
  RMM-DIIS:  cpu time    1.1258: real time    1.1266
    ORTHCH:  cpu time    0.0410: real time    0.0404
       DOS:  cpu time    0.0000: real time    0.0004
    CHARGE:  cpu time    0.1190: real time    0.1191
    MIXING:  cpu time    0.0080: real time    0.0075
    --------------------------------------------
      LOOP:  cpu time    1.8677: real time    1.8716

 eigenvalue-minimisations  :   276
 total energy-change (2. order) : 0.4372590E+01  (-0.3542187E+00)
 number of electron      64.0000132 magnetization 
 augmentation part       -2.7817486 magnetization 

 Broyden mixing:
  rms(total) = 0.76270E+00    rms(broyden)= 0.76265E+00
  rms(prec ) = 0.82631E+00
  weight for this iteration     100.00

 eigenvalues of (default mixing * dielectric matrix)
  average eigenvalue GAMMA=   2.0581
  2.0581

 Free energy of the ion-electron system (eV)
  ---------------------------------------------------
  alpha Z        PSCENC =         3.50461401
  Ewald energy   TEWEN  =      4768.58676805
  -Hartree energ DENC   =     -5861.51366063
  -exchange      EXHF   =         0.00000000
  -V(xc)+E(xc)   XCENC  =       -94.48419081
  PAW double counting   =       480.12051687     -252.29361601
  entropy T*S    EENTRO =        -0.08419435
  eigenvalues    EBANDS =      -632.51045221
  atomic energy  EATOM  =      1488.62216486
  Solvation  Ediel_sol  =         0.00000000
  ---------------------------------------------------
  free energy    TOTEN  =      -100.05205022 eV

  energy without entropy =      -99.96785586  energy(sigma->0) =     -100.00995304


--------------------------------------------------------------------------------------------------------




----------------------------------------- Iteration    1(   7)  ---------------------------------------


    POTLOK:  cpu time    0.2370: real time    0.2368
    SETDIJ:  cpu time    0.0090: real time    0.0096
    EDDIAG:  cpu time    0.3120: real time    0.3117
  RMM-DIIS:  cpu time    1.0378: real time    1.0371
    ORTHCH:  cpu time    0.0380: real time    0.0389
       DOS:  cpu time    0.0000: real time    0.0004
    CHARGE:  cpu time    0.1230: real time    0.1224
    MIXING:  cpu time    0.0070: real time    0.0074
    --------------------------------------------
      LOOP:  cpu time    1.7657: real time    1.7846

 eigenvalue-minimisations  :   276
 total energy-change (2. order) : 0.1730143E+01  (-0.4947743E+00)
 number of electron      64.0000129 magnetization 
 augmentation part       -2.7814863 magnetization 

 Broyden mixing:
  rms(total) = 0.12784E+00    rms(broyden)= 0.12722E+00
  rms(prec ) = 0.15736E+00
  weight for this iteration     100.00

 eigenvalues of (default mixing * dielectric matrix)
  average eigenvalue GAMMA=   1.4934
  0.8924  2.0945

 Free energy of the ion-electron system (eV)
  ---------------------------------------------------
  alpha Z        PSCENC =         3.50461401
  Ewald energy   TEWEN  =      4768.58676805
  -Hartree energ DENC   =     -5912.51449040
  -exchange      EXHF   =         0.00000000
  -V(xc)+E(xc)   XCENC  =       -89.73522611
  PAW double counting   =       533.35018523     -306.41127799
  entropy T*S    EENTRO =        -0.05343656
  eigenvalues    EBANDS =      -583.67120876
  atomic energy  EATOM  =      1488.62216486
  Solvation  Ediel_sol  =         0.00000000
  ---------------------------------------------------
  free energy    TOTEN  =       -98.32190767 eV

  energy without entropy =      -98.26847111  energy(sigma->0) =      -98.29518939


--------------------------------------------------------------------------------------------------------




----------------------------------------- Iteration    1(   8)  ---------------------------------------


    POTLOK:  cpu time    0.2360: real time    0.2365
    SETDIJ:  cpu time    0.0100: real time    0.0096
    EDDIAG:  cpu time    0.2750: real time    0.2746
  RMM-DIIS:  cpu time    1.0588: real time    1.0588
    ORTHCH:  cpu time    0.0380: real time    0.0379
       DOS:  cpu time    0.0010: real time    0.0005
    CHARGE:  cpu time    0.1280: real time    0.1286
    MIXING:  cpu time    0.0070: real time    0.0079
    --------------------------------------------
      LOOP:  cpu time    1.7557: real time    1.7601

 eigenvalue-minimisations  :   292
 total energy-change (2. order) : 0.6025031E-01  (-0.2617636E-01)
 number of electron      64.0000129 magnetization 
 augmentation part       -2.7793672 magnetization 

 Broyden mixing:
  rms(total) = 0.73547E-01    rms(broyden)= 0.73461E-01
  rms(prec ) = 0.98873E-01
  weight for this iteration     100.00

 eigenvalues of (default mixing * dielectric matrix)
  average eigenvalue GAMMA=   1.7830
  0.8580  2.2455  2.2455

 Free energy of the ion-electron system (eV)
  ---------------------------------------------------
  alpha Z        PSCENC =         3.50461401
  Ewald energy   TEWEN  =      4768.58676805
  -Hartree energ DENC   =     -5921.99824833
  -exchange      EXHF   =         0.00000000
  -V(xc)+E(xc)   XCENC  =       -89.25835424
  PAW double counting   =       536.76930179     -309.89104818
  entropy T*S    EENTRO =        -0.07203658
  eigenvalues    EBANDS =      -574.52481874
  atomic energy  EATOM  =      1488.62216486
  Solvation  Ediel_sol  =         0.00000000
  ---------------------------------------------------
  free energy    TOTEN  =       -98.26165736 eV

  energy without entropy =      -98.18962078  energy(sigma->0) =      -98.22563907


--------------------------------------------------------------------------------------------------------




----------------------------------------- Iteration    1(   9)  ---------------------------------------


    POTLOK:  cpu time    0.2460: real time    0.2460
    SETDIJ:  cpu time    0.0110: real time    0.0100
    EDDIAG:  cpu time    0.3190: real time    0.3189
  RMM-DIIS:  cpu time    1.0748: real time    1.0750
    ORTHCH:  cpu time    0.0410: real time    0.0408
       DOS:  cpu time    0.0000: real time    0.0004
    CHARGE:  cpu time    0.1000: real time    0.0998
    MIXING:  cpu time    0.0090: real time    0.0084
    --------------------------------------------
      LOOP:  cpu time    1.8027: real time    1.8201

 eigenvalue-minimisations  :   279
 total energy-change (2. order) : 0.4181348E-01  (-0.2393050E-01)
 number of electron      64.0000129 magnetization 
 augmentation part       -2.7671349 magnetization 

 Broyden mixing:
  rms(total) = 0.40566E-01    rms(broyden)= 0.40559E-01
  rms(prec ) = 0.50592E-01
  weight for this iteration     100.00

 eigenvalues of (default mixing * dielectric matrix)
  average eigenvalue GAMMA=   1.6170
  2.4509  0.8632  1.5770  1.5770

 Free energy of the ion-electron system (eV)
  ---------------------------------------------------
  alpha Z        PSCENC =         3.50461401
  Ewald energy   TEWEN  =      4768.58676805
  -Hartree energ DENC   =     -5935.74718502
  -exchange      EXHF   =         0.00000000
  -V(xc)+E(xc)   XCENC  =       -89.04779788
  PAW double counting   =       534.42311894     -307.51070889
  entropy T*S    EENTRO =        -0.07285484
  eigenvalues    EBANDS =      -560.97796309
  atomic energy  EATOM  =      1488.62216486
  Solvation  Ediel_sol  =         0.00000000
  ---------------------------------------------------
  free energy    TOTEN  =       -98.21984388 eV

  energy without entropy =      -98.14698904  energy(sigma->0) =      -98.18341646


--------------------------------------------------------------------------------------------------------




----------------------------------------- Iteration    1(  10)  ---------------------------------------


    POTLOK:  cpu time    0.2430: real time    0.2434
    SETDIJ:  cpu time    0.0100: real time    0.0097
    EDDIAG:  cpu time    0.3339: real time    0.3338
  RMM-DIIS:  cpu time    1.1518: real time    1.1546
    ORTHCH:  cpu time    0.0460: real time    0.0456
       DOS:  cpu time    0.0000: real time    0.0004
    CHARGE:  cpu time    0.1080: real time    0.1081
    MIXING:  cpu time    0.0080: real time    0.0073
    --------------------------------------------
      LOOP:  cpu time    1.9017: real time    1.9110

 eigenvalue-minimisations  :   280
 total energy-change (2. order) : 0.6757093E-02  (-0.3582001E-02)
 number of electron      64.0000129 magnetization 
 augmentation part       -2.7702141 magnetization 

 Broyden mixing:
  rms(total) = 0.26264E-01    rms(broyden)= 0.26252E-01
  rms(prec ) = 0.34825E-01
  weight for this iteration     100.00

 eigenvalues of (default mixing * dielectric matrix)
  average eigenvalue GAMMA=   1.8815
  2.8670  2.8670  1.7175  0.8976  1.0584

 Free energy of the ion-electron system (eV)
  ---------------------------------------------------
  alpha Z        PSCENC =         3.50461401
  Ewald energy   TEWEN  =      4768.58676805
  -Hartree energ DENC   =     -5940.33251811
  -exchange      EXHF   =         0.00000000
  -V(xc)+E(xc)   XCENC  =       -88.69066689
  PAW double counting   =       536.58993770     -309.68922027
  entropy T*S    EENTRO =        -0.06858202
  eigenvalues    EBANDS =      -556.73558411
  atomic energy  EATOM  =      1488.62216486
  Solvation  Ediel_sol  =         0.00000000
  ---------------------------------------------------
  free energy    TOTEN  =       -98.21308679 eV

  energy without entropy =      -98.14450477  energy(sigma->0) =      -98.17879578


--------------------------------------------------------------------------------------------------------




----------------------------------------- Iteration    1(  11)  ---------------------------------------


    POTLOK:  cpu time    0.2470: real time    0.2478
    SETDIJ:  cpu time    0.0110: real time    0.0098
    EDDIAG:  cpu time    0.3290: real time    0.3284
  RMM-DIIS:  cpu time    1.1458: real time    1.1467
    ORTHCH:  cpu time    0.0390: real time    0.0381
       DOS:  cpu time    0.0000: real time    0.0004
    CHARGE:  cpu time    0.1470: real time    0.1472
    MIXING:  cpu time    0.0110: real time    0.0105
    --------------------------------------------
      LOOP:  cpu time    1.9297: real time    1.9441

 eigenvalue-minimisations  :   277
 total energy-change (2. order) : 0.2660199E-02  (-0.9774227E-03)
 number of electron      64.0000129 magnetization 
 augmentation part       -2.7709611 magnetization 

 Broyden mixing:
  rms(total) = 0.79155E-02    rms(broyden)= 0.79143E-02
  rms(prec ) = 0.13181E-01
  weight for this iteration     100.00

 eigenvalues of (default mixing * dielectric matrix)
  average eigenvalue GAMMA=   1.8307
  3.0819  2.3472  1.8489  1.8489  0.9267  0.9308

 Free energy of the ion-electron system (eV)
  ---------------------------------------------------
  alpha Z        PSCENC =         3.50461401
  Ewald energy   TEWEN  =      4768.58676805
  -Hartree energ DENC   =     -5946.74224254
  -exchange      EXHF   =         0.00000000
  -V(xc)+E(xc)   XCENC  =       -88.65487560
  PAW double counting   =       533.17030123     -306.19238987
  entropy T*S    EENTRO =        -0.06888306
  eigenvalues    EBANDS =      -550.43588366
  atomic energy  EATOM  =      1488.62216486
  Solvation  Ediel_sol  =         0.00000000
  ---------------------------------------------------
  free energy    TOTEN  =       -98.21042659 eV

  energy without entropy =      -98.14154353  energy(sigma->0) =      -98.17598506


--------------------------------------------------------------------------------------------------------




----------------------------------------- Iteration    1(  12)  ---------------------------------------


    POTLOK:  cpu time    0.2370: real time    0.2372
    SETDIJ:  cpu time    0.0100: real time    0.0097
    EDDIAG:  cpu time    0.3150: real time    0.3142
  RMM-DIIS:  cpu time    1.1478: real time    1.1485
    ORTHCH:  cpu time    0.0400: real time    0.0396
       DOS:  cpu time    0.0000: real time    0.0004
    CHARGE:  cpu time    0.1280: real time    0.1272
    MIXING:  cpu time    0.0130: real time    0.0132
    --------------------------------------------
      LOOP:  cpu time    1.8917: real time    1.8952

 eigenvalue-minimisations  :   277
 total energy-change (2. order) :-0.1225866E-02  (-0.5318624E-03)
 number of electron      64.0000129 magnetization 
 augmentation part       -2.7690394 magnetization 

 Broyden mixing:
  rms(total) = 0.72811E-02    rms(broyden)= 0.72787E-02
  rms(prec ) = 0.10373E-01
  weight for this iteration     100.00

 eigenvalues of (default mixing * dielectric matrix)
  average eigenvalue GAMMA=   1.9956
  4.4224  2.7779  2.2540  1.6213  0.8661  1.0139  1.0139

 Free energy of the ion-electron system (eV)
  ---------------------------------------------------
  alpha Z        PSCENC =         3.50461401
  Ewald energy   TEWEN  =      4768.58676805
  -Hartree energ DENC   =     -5948.91734159
  -exchange      EXHF   =         0.00000000
  -V(xc)+E(xc)   XCENC  =       -88.63198154
  PAW double counting   =       533.53490582     -306.57140376
  entropy T*S    EENTRO =        -0.06982443
  eigenvalues    EBANDS =      -548.26955387
  atomic energy  EATOM  =      1488.62216486
  Solvation  Ediel_sol  =         0.00000000
  ---------------------------------------------------
  free energy    TOTEN  =       -98.21165245 eV

  energy without entropy =      -98.14182802  energy(sigma->0) =      -98.17674024


--------------------------------------------------------------------------------------------------------




----------------------------------------- Iteration    1(  13)  ---------------------------------------


    POTLOK:  cpu time    0.2740: real time    0.2746
    SETDIJ:  cpu time    0.0100: real time    0.0094
    EDDIAG:  cpu time    0.3290: real time    0.3289
  RMM-DIIS:  cpu time    1.1998: real time    1.2000
    ORTHCH:  cpu time    0.0400: real time    0.0395
       DOS:  cpu time    0.0000: real time    0.0004
    CHARGE:  cpu time    0.1190: real time    0.1188
    MIXING:  cpu time    0.0090: real time    0.0094
    --------------------------------------------
      LOOP:  cpu time    1.9827: real time    2.0004

 eigenvalue-minimisations  :   276
 total energy-change (2. order) :-0.3570211E-02  (-0.1715934E-03)
 number of electron      64.0000129 magnetization 
 augmentation part       -2.7690270 magnetization 

 Broyden mixing:
  rms(total) = 0.24844E-02    rms(broyden)= 0.24837E-02
  rms(prec ) = 0.40432E-02
  weight for this iteration     100.00

 eigenvalues of (default mixing * dielectric matrix)
  average eigenvalue GAMMA=   2.0055
  4.5087  2.7575  1.9647  1.9647  1.9486  0.8727  1.0137  1.0137

 Free energy of the ion-electron system (eV)
  ---------------------------------------------------
  alpha Z        PSCENC =         3.50461401
  Ewald energy   TEWEN  =      4768.58676805
  -Hartree energ DENC   =     -5951.97345020
  -exchange      EXHF   =         0.00000000
  -V(xc)+E(xc)   XCENC  =       -88.58643728
  PAW double counting   =       533.83744636     -306.88038870
  entropy T*S    EENTRO =        -0.06943725
  eigenvalues    EBANDS =      -545.25650251
  atomic energy  EATOM  =      1488.62216486
  Solvation  Ediel_sol  =         0.00000000
  ---------------------------------------------------
  free energy    TOTEN  =       -98.21522266 eV

  energy without entropy =      -98.14578541  energy(sigma->0) =      -98.18050404


--------------------------------------------------------------------------------------------------------




----------------------------------------- Iteration    1(  14)  ---------------------------------------


    POTLOK:  cpu time    0.2670: real time    0.2685
    SETDIJ:  cpu time    0.0110: real time    0.0097
    EDDIAG:  cpu time    0.3200: real time    0.3198
  RMM-DIIS:  cpu time    1.1928: real time    1.1929
    ORTHCH:  cpu time    0.0410: real time    0.0412
       DOS:  cpu time    0.0000: real time    0.0004
    CHARGE:  cpu time    0.1150: real time    0.1150
    MIXING:  cpu time    0.0110: real time    0.0108
    --------------------------------------------
      LOOP:  cpu time    1.9597: real time    1.9650

 eigenvalue-minimisations  :   276
 total energy-change (2. order) :-0.1194330E-02  (-0.2875844E-04)
 number of electron      64.0000129 magnetization 
 augmentation part       -2.7694407 magnetization 

 Broyden mixing:
  rms(total) = 0.21984E-02    rms(broyden)= 0.21979E-02
  rms(prec ) = 0.31139E-02
  weight for this iteration     100.00

 eigenvalues of (default mixing * dielectric matrix)
  average eigenvalue GAMMA=   2.1048
  5.6410  3.2180  2.4006  2.2312  1.3390  1.3390  0.9505  0.9505  0.8731

 Free energy of the ion-electron system (eV)
  ---------------------------------------------------
  alpha Z        PSCENC =         3.50461401
  Ewald energy   TEWEN  =      4768.58676805
  -Hartree energ DENC   =     -5952.68125428
  -exchange      EXHF   =         0.00000000
  -V(xc)+E(xc)   XCENC  =       -88.58635665
  PAW double counting   =       533.62533292     -306.66120137
  entropy T*S    EENTRO =        -0.06880261
  eigenvalues    EBANDS =      -544.55768191
  atomic energy  EATOM  =      1488.62216486
  Solvation  Ediel_sol  =         0.00000000
  ---------------------------------------------------
  free energy    TOTEN  =       -98.21641699 eV

  energy without entropy =      -98.14761438  energy(sigma->0) =      -98.18201569


--------------------------------------------------------------------------------------------------------




----------------------------------------- Iteration    1(  15)  ---------------------------------------


    POTLOK:  cpu time    0.2570: real time    0.2573
    SETDIJ:  cpu time    0.0100: real time    0.0098
    EDDIAG:  cpu time    0.3100: real time    0.3101
  RMM-DIIS:  cpu time    1.1118: real time    1.1111
    ORTHCH:  cpu time    0.0400: real time    0.0413
       DOS:  cpu time    0.0010: real time    0.0004
    CHARGE:  cpu time    0.1280: real time    0.1287
    MIXING:  cpu time    0.0110: real time    0.0112
    --------------------------------------------
      LOOP:  cpu time    1.8717: real time    1.9037

 eigenvalue-minimisations  :   265
 total energy-change (2. order) :-0.4343390E-03  (-0.3009559E-04)
 number of electron      64.0000129 magnetization 
 augmentation part       -2.7691332 magnetization 

 Broyden mixing:
  rms(total) = 0.14821E-02    rms(broyden)= 0.14815E-02
  rms(prec ) = 0.20493E-02
  weight for this iteration     100.00

 eigenvalues of (default mixing * dielectric matrix)
  average eigenvalue GAMMA=   2.2074
  5.8957  3.8439  2.6899  2.0431  2.0431  1.6419  0.9073  0.9216  1.0438  1.0438

 Free energy of the ion-electron system (eV)
  ---------------------------------------------------
  alpha Z        PSCENC =         3.50461401
  Ewald energy   TEWEN  =      4768.58676805
  -Hartree energ DENC   =     -5953.14422195
  -exchange      EXHF   =         0.00000000
  -V(xc)+E(xc)   XCENC  =       -88.59808347
  PAW double counting   =       533.62931093     -306.66713755
  entropy T*S    EENTRO =        -0.06931311
  eigenvalues    EBANDS =      -544.08095310
  atomic energy  EATOM  =      1488.62216486
  Solvation  Ediel_sol  =         0.00000000
  ---------------------------------------------------
  free energy    TOTEN  =       -98.21685133 eV

  energy without entropy =      -98.14753822  energy(sigma->0) =      -98.18219478


--------------------------------------------------------------------------------------------------------




----------------------------------------- Iteration    1(  16)  ---------------------------------------


    POTLOK:  cpu time    0.2710: real time    0.2723
    SETDIJ:  cpu time    0.0110: real time    0.0097
    EDDIAG:  cpu time    0.2830: real time    0.2834
  RMM-DIIS:  cpu time    1.0428: real time    1.0431
    ORTHCH:  cpu time    0.0410: real time    0.0405
       DOS:  cpu time    0.0010: real time    0.0004
    CHARGE:  cpu time    0.1140: real time    0.1146
    MIXING:  cpu time    0.0120: real time    0.0117
    --------------------------------------------
      LOOP:  cpu time    1.7777: real time    1.7812

 eigenvalue-minimisations  :   251
 total energy-change (2. order) :-0.9491067E-03  (-0.1087977E-04)
 number of electron      64.0000129 magnetization 
 augmentation part       -2.7693088 magnetization 

 Broyden mixing:
  rms(total) = 0.47750E-03    rms(broyden)= 0.47745E-03
  rms(prec ) = 0.80146E-03
  weight for this iteration     100.00

 eigenvalues of (default mixing * dielectric matrix)
  average eigenvalue GAMMA=   2.2074
  6.2411  4.4364  2.7708  2.3139  1.6980  1.4590  1.4590  1.0609  1.0609  0.8908
  0.8908

 Free energy of the ion-electron system (eV)
  ---------------------------------------------------
  alpha Z        PSCENC =         3.50461401
  Ewald energy   TEWEN  =      4768.58676805
  -Hartree energ DENC   =     -5953.40131378
  -exchange      EXHF   =         0.00000000
  -V(xc)+E(xc)   XCENC  =       -88.59477364
  PAW double counting   =       533.62787823     -306.66464025
  entropy T*S    EENTRO =        -0.06924348
  eigenvalues    EBANDS =      -543.82925444
  atomic energy  EATOM  =      1488.62216486
  Solvation  Ediel_sol  =         0.00000000
  ---------------------------------------------------
  free energy    TOTEN  =       -98.21780044 eV

  energy without entropy =      -98.14855696  energy(sigma->0) =      -98.18317870


--------------------------------------------------------------------------------------------------------




----------------------------------------- Iteration    1(  17)  ---------------------------------------


    POTLOK:  cpu time    0.2540: real time    0.2537
    SETDIJ:  cpu time    0.0100: real time    0.0098
    EDDIAG:  cpu time    0.3210: real time    0.3212
  RMM-DIIS:  cpu time    0.9699: real time    0.9702
    ORTHCH:  cpu time    0.0360: real time    0.0366
       DOS:  cpu time    0.0010: real time    0.0004
    CHARGE:  cpu time    0.1160: real time    0.1165
    MIXING:  cpu time    0.0130: real time    0.0126
    --------------------------------------------
      LOOP:  cpu time    1.7217: real time    1.7649

 eigenvalue-minimisations  :   230
 total energy-change (2. order) :-0.4034100E-03  (-0.4713444E-05)
 number of electron      64.0000129 magnetization 
 augmentation part       -2.7694458 magnetization 

 Broyden mixing:
  rms(total) = 0.47502E-03    rms(broyden)= 0.47481E-03
  rms(prec ) = 0.65349E-03
  weight for this iteration     100.00

 eigenvalues of (default mixing * dielectric matrix)
  average eigenvalue GAMMA=   2.4382
  7.1352  5.7178  3.1726  2.7295  2.0425  2.0425  1.2710  1.2710  0.8925  0.9251
  1.0294  1.0294

 Free energy of the ion-electron system (eV)
  ---------------------------------------------------
  alpha Z        PSCENC =         3.50461401
  Ewald energy   TEWEN  =      4768.58676805
  -Hartree energ DENC   =     -5953.41499412
  -exchange      EXHF   =         0.00000000
  -V(xc)+E(xc)   XCENC  =       -88.59576379
  PAW double counting   =       533.60339697     -306.63929542
  entropy T*S    EENTRO =        -0.06909168
  eigenvalues    EBANDS =      -543.81600272
  atomic energy  EATOM  =      1488.62216486
  Solvation  Ediel_sol  =         0.00000000
  ---------------------------------------------------
  free energy    TOTEN  =       -98.21820385 eV

  energy without entropy =      -98.14911217  energy(sigma->0) =      -98.18365801


--------------------------------------------------------------------------------------------------------




----------------------------------------- Iteration    1(  18)  ---------------------------------------


    POTLOK:  cpu time    0.2400: real time    0.2397
    SETDIJ:  cpu time    0.0100: real time    0.0096
    EDDIAG:  cpu time    0.2930: real time    0.2929
  RMM-DIIS:  cpu time    0.8349: real time    0.8354
    ORTHCH:  cpu time    0.0380: real time    0.0386
       DOS:  cpu time    0.0010: real time    0.0005
    CHARGE:  cpu time    0.1210: real time    0.1206
    MIXING:  cpu time    0.0140: real time    0.0133
    --------------------------------------------
      LOOP:  cpu time    1.5538: real time    1.5568

 eigenvalue-minimisations  :   213
 total energy-change (2. order) :-0.4136159E-03  (-0.4078343E-05)
 number of electron      64.0000129 magnetization 
 augmentation part       -2.7693976 magnetization 

 Broyden mixing:
  rms(total) = 0.13034E-03    rms(broyden)= 0.13033E-03
  rms(prec ) = 0.18666E-03
  weight for this iteration     100.00

 eigenvalues of (default mixing * dielectric matrix)
  average eigenvalue GAMMA=   2.3976
  7.4385  5.7238  3.3471  2.5995  2.2139  1.7295  1.5922  1.5922  1.0818  1.0818
  0.8872  0.9405  0.9405

 Free energy of the ion-electron system (eV)
  ---------------------------------------------------
  alpha Z        PSCENC =         3.50461401
  Ewald energy   TEWEN  =      4768.58676805
  -Hartree energ DENC   =     -5953.51504850
  -exchange      EXHF   =         0.00000000
  -V(xc)+E(xc)   XCENC  =       -88.59615578
  PAW double counting   =       533.62379934     -306.66096038
  entropy T*S    EENTRO =        -0.06917683
  eigenvalues    EBANDS =      -543.71462223
  atomic energy  EATOM  =      1488.62216486
  Solvation  Ediel_sol  =         0.00000000
  ---------------------------------------------------
  free energy    TOTEN  =       -98.21861746 eV

  energy without entropy =      -98.14944063  energy(sigma->0) =      -98.18402905


--------------------------------------------------------------------------------------------------------




----------------------------------------- Iteration    1(  19)  ---------------------------------------


    POTLOK:  cpu time    0.2490: real time    0.2491
    SETDIJ:  cpu time    0.0100: real time    0.0096
    EDDIAG:  cpu time    0.2620: real time    0.2623
  RMM-DIIS:  cpu time    0.7059: real time    0.7058
    ORTHCH:  cpu time    0.0390: real time    0.0389
       DOS:  cpu time    0.0000: real time    0.0004
    CHARGE:  cpu time    0.1160: real time    0.1155
    MIXING:  cpu time    0.0140: real time    0.0140
    --------------------------------------------
      LOOP:  cpu time    1.3968: real time    1.4119

 eigenvalue-minimisations  :   177
 total energy-change (2. order) :-0.4831884E-04  (-0.4090338E-06)
 number of electron      64.0000129 magnetization 
 augmentation part       -2.7693757 magnetization 

 Broyden mixing:
  rms(total) = 0.12015E-03    rms(broyden)= 0.12014E-03
  rms(prec ) = 0.16130E-03
  weight for this iteration     100.00

 eigenvalues of (default mixing * dielectric matrix)
  average eigenvalue GAMMA=   2.5398
  8.6619  6.1697  3.7384  2.9822  2.5866  2.2638  1.8001  1.2539  1.2539  1.0903
  0.9836  0.9836  0.8944  0.8944

 Free energy of the ion-electron system (eV)
  ---------------------------------------------------
  alpha Z        PSCENC =         3.50461401
  Ewald energy   TEWEN  =      4768.58676805
  -Hartree energ DENC   =     -5953.55969908
  -exchange      EXHF   =         0.00000000
  -V(xc)+E(xc)   XCENC  =       -88.59544669
  PAW double counting   =       533.62399787     -306.66109982
  entropy T*S    EENTRO =        -0.06919700
  eigenvalues    EBANDS =      -543.67076799
  atomic energy  EATOM  =      1488.62216486
  Solvation  Ediel_sol  =         0.00000000
  ---------------------------------------------------
  free energy    TOTEN  =       -98.21866578 eV

  energy without entropy =      -98.14946879  energy(sigma->0) =      -98.18406728


--------------------------------------------------------------------------------------------------------




----------------------------------------- Iteration    1(  20)  ---------------------------------------


    POTLOK:  cpu time    0.2550: real time    0.2554
    SETDIJ:  cpu time    0.0100: real time    0.0095
    EDDIAG:  cpu time    0.3200: real time    0.3199
  RMM-DIIS:  cpu time    0.6999: real time    0.7001
    ORTHCH:  cpu time    0.0400: real time    0.0393
       DOS:  cpu time    0.0000: real time    0.0004
    CHARGE:  cpu time    0.1260: real time    0.1253
    MIXING:  cpu time    0.0140: real time    0.0143
    --------------------------------------------
      LOOP:  cpu time    1.4658: real time    1.4686

 eigenvalue-minimisations  :   151
 total energy-change (2. order) :-0.5248620E-04  (-0.3297564E-06)
 number of electron      64.0000129 magnetization 
 augmentation part       -2.7693792 magnetization 

 Broyden mixing:
  rms(total) = 0.80560E-04    rms(broyden)= 0.80558E-04
  rms(prec ) = 0.10159E-03
  weight for this iteration     100.00

 eigenvalues of (default mixing * dielectric matrix)
  average eigenvalue GAMMA=   2.4903
  8.6711  6.4545  3.8373  2.8166  2.6035  2.1196  1.7014  1.7014  1.3182  1.3182
  1.0355  0.9931  0.9931  0.8958  0.8958

 Free energy of the ion-electron system (eV)
  ---------------------------------------------------
  alpha Z        PSCENC =         3.50461401
  Ewald energy   TEWEN  =      4768.58676805
  -Hartree energ DENC   =     -5953.54838550
  -exchange      EXHF   =         0.00000000
  -V(xc)+E(xc)   XCENC  =       -88.59619824
  PAW double counting   =       533.61625199     -306.65307581
  entropy T*S    EENTRO =        -0.06917844
  eigenvalues    EBANDS =      -543.68167919
  atomic energy  EATOM  =      1488.62216486
  Solvation  Ediel_sol  =         0.00000000
  ---------------------------------------------------
  free energy    TOTEN  =       -98.21871827 eV

  energy without entropy =      -98.14953983  energy(sigma->0) =      -98.18412905


--------------------------------------------------------------------------------------------------------




----------------------------------------- Iteration    1(  21)  ---------------------------------------


    POTLOK:  cpu time    0.2600: real time    0.2597
    SETDIJ:  cpu time    0.0100: real time    0.0099
    EDDIAG:  cpu time    0.3110: real time    0.3110
  RMM-DIIS:  cpu time    0.5149: real time    0.5148
    ORTHCH:  cpu time    0.0380: real time    0.0383
       DOS:  cpu time    0.0000: real time    0.0005
    --------------------------------------------
      LOOP:  cpu time    1.1348: real time    1.1391

 eigenvalue-minimisations  :    89
 total energy-change (2. order) :-0.6097990E-05  (-0.4655322E-07)
 number of electron      64.0000129 magnetization 
 augmentation part       -2.7693792 magnetization 

 Free energy of the ion-electron system (eV)
  ---------------------------------------------------
  alpha Z        PSCENC =         3.50461401
  Ewald energy   TEWEN  =      4768.58676805
  -Hartree energ DENC   =     -5953.54431822
  -exchange      EXHF   =         0.00000000
  -V(xc)+E(xc)   XCENC  =       -88.59592825
  PAW double counting   =       533.61853824     -306.65537417
  entropy T*S    EENTRO =        -0.06917164
  eigenvalues    EBANDS =      -543.68601725
  atomic energy  EATOM  =      1488.62216486
  Solvation  Ediel_sol  =         0.00000000
  ---------------------------------------------------
  free energy    TOTEN  =       -98.21872437 eV

  energy without entropy =      -98.14955273  energy(sigma->0) =      -98.18413855


--------------------------------------------------------------------------------------------------------




 average (electrostatic) potential at core
  the test charge radii are     0.9892  0.5201
  (the norm of the test charge is              1.0000)
       1 -92.4036       2 -93.1697       3 -92.8708       4 -92.8708       5 -92.6035
       6 -93.1697       7 -92.8709       8 -92.8708       9 -92.4040      10 -93.1701
      11 -92.4040      12 -93.1701      13 -92.4043      14 -40.2253      15 -41.2428
      16 -40.2250      17 -40.2251      18 -41.2424      19 -40.2248      20 -40.2253
      21 -41.2428      22 -40.2250      23 -40.2251      24 -41.2424      25 -40.2248
 
 
 
 E-fermi :  -3.0816     XC(G=0):  -1.7948     alpha+bet : -1.3624


 k-point     1 :       0.0000    0.0000    0.0000
  band No.  band energies     occupation 
      1     -14.6128      2.00000
      2     -13.4158      2.00000
      3     -13.4158      2.00000
      4     -12.5778      2.00000
      5     -11.9707      2.00000
      6     -11.9440      2.00000
      7     -11.8102      2.00000
      8     -11.8102      2.00000
      9     -11.5986      2.00000
     10     -10.8015      2.00000
     11     -10.3007      2.00000
     12     -10.3007      2.00000
     13      -8.9002      2.00000
     14      -7.6525      2.00000
     15      -7.4824      2.00000
     16      -7.4823      2.00000
     17      -7.4238      2.00000
     18      -7.1628      2.00000
     19      -7.1628      2.00000
     20      -7.1447      2.00000
     21      -7.1417      2.00000
     22      -6.9919      2.00000
     23      -6.6154      2.00000
     24      -6.6154      2.00000
     25      -5.9043      2.00000
     26      -5.8182      2.00000
     27      -5.8182      2.00000
     28      -5.8157      2.00000
     29      -4.3064      2.00000
     30      -3.9897      2.00000
     31      -3.9896      2.00000
     32      -3.7949      2.00000
     33      -2.6509      0.00232
     34      -2.6509      0.00232
     35      -2.6285      0.00136
     36      -2.0099      0.00000
     37      -1.8097      0.00000
     38      -1.7047      0.00000
     39      -0.9263      0.00000
     40      -0.8916      0.00000
     41      -0.8916      0.00000
     42      -0.7249      0.00000
     43      -0.3253      0.00000
     44      -0.3253      0.00000
     45      -0.1481      0.00000
     46       0.3982      0.00000

 k-point     2 :       0.2000    0.0000    0.0000
  band No.  band energies     occupation 
      1     -14.4642      2.00000
      2     -13.3411      2.00000
      3     -13.3411      2.00000
      4     -12.7707      2.00000
      5     -11.9476      2.00000
      6     -11.9270      2.00000
      7     -11.8938      2.00000
      8     -11.8794      2.00000
      9     -11.8794      2.00000
     10     -10.4748      2.00000
     11     -10.3292      2.00000
     12     -10.3292      2.00000
     13      -9.0242      2.00000
     14      -7.8188      2.00000
     15      -7.8188      2.00000
     16      -7.7599      2.00000
     17      -7.4081      2.00000
     18      -7.1828      2.00000
     19      -7.1013      2.00000
     20      -7.1013      2.00000
     21      -7.0033      2.00000
     22      -6.7251      2.00000
     23      -6.4466      2.00000
     24      -6.4466      2.00000
     25      -6.1253      2.00000
     26      -6.0157      2.00000
     27      -5.7008      2.00000
     28      -5.7008      2.00000
     29      -4.5868      2.00000
     30      -3.9808      2.00000
     31      -3.9808      2.00000
     32      -3.2192      1.66949
     33      -2.8116      0.05626
     34      -2.6203      0.00111
     35      -2.6203      0.00111
     36      -2.1919      0.00000
     37      -1.7770      0.00000
     38      -1.0932      0.00000
     39      -1.0033      0.00000
     40      -1.0033      0.00000
     41      -0.7207      0.00000
     42      -0.5478      0.00000
     43      -0.2272      0.00000
     44      -0.1982      0.00000
     45      -0.1982      0.00000
     46       0.6214      0.00000

 k-point     3 :       0.4000    0.0000    0.0000
  band No.  band energies     occupation 
      1     -14.0367      2.00000
      2     -13.3857      2.00000
      3     -13.1939      2.00000
      4     -13.1938      2.00000
      5     -12.0484      2.00000
      6     -12.0252      2.00000
      7     -12.0252      2.00000
      8     -11.9089      2.00000
      9     -11.8674      2.00000
     10     -10.3716      2.00000
     11     -10.3716      2.00000
     12     -10.1443      2.00000
     13      -9.2302      2.00000
     14      -8.1039      2.00000
     15      -8.1039      2.00000
     16      -7.8709      2.00000
     17      -7.3949      2.00000
     18      -7.2872      2.00000
     19      -7.0816      2.00000
     20      -7.0816      2.00000
     21      -6.9726      2.00000
     22      -6.4914      2.00000
     23      -6.2284      2.00000
     24      -6.2284      2.00000
     25      -6.1664      2.00000
     26      -6.1660      2.00000
     27      -5.7972      2.00000
     28      -5.7972      2.00000
     29      -4.5032      2.00000
     30      -3.8052      2.00000
     31      -3.8052      2.00000
     32      -3.3691      1.95792
     33      -2.9383      0.31108
     34      -2.4747      0.00002
     35      -2.4747      0.00002
     36      -2.2428      0.00000
     37      -1.4552      0.00000
     38      -0.9792      0.00000
     39      -0.9792      0.00000
     40      -0.6401      0.00000
     41      -0.4947      0.00000
     42      -0.1729      0.00000
     43      -0.1142      0.00000
     44      -0.1141      0.00000
     45       0.1759      0.00000
     46       0.6175      0.00000


--------------------------------------------------------------------------------------------------------


 soft charge-density along one line, spin component           1
         0         1         2         3         4         5         6         7         8         9
 total charge-density along one line
 
 pseudopotential strength for first ion, spin component:           1
 19.515   0.006   0.005   0.005  -0.000   0.000   0.000  -0.000
  0.006   0.006  -0.000  -0.000  -0.000  -0.000  -0.000   0.000
  0.005  -0.000   4.350  -0.000   0.000   0.000   0.000  -0.000
  0.005  -0.000  -0.000   4.350   0.000   0.000   0.000  -0.000
 -0.000  -0.000   0.000   0.000   4.350  -0.000  -0.000   0.000
  0.000  -0.000   0.000   0.000  -0.000   0.004   0.000   0.000
  0.000  -0.000   0.000   0.000  -0.000   0.000   0.004   0.000
 -0.000   0.000  -0.000  -0.000   0.000   0.000   0.000   0.004
 total augmentation occupancy for first ion, spin component:           1
  1.492  -0.980  -0.017  -0.017  -0.006   0.155   0.155  -0.091
 -0.980   0.916   0.275   0.275  -0.164  -0.228  -0.228   0.122
 -0.017   0.275   1.207  -0.001   0.029  -0.790  -0.028  -0.083
 -0.017   0.275  -0.001   1.207   0.029  -0.028  -0.790  -0.083
 -0.006  -0.164   0.029   0.029   0.808  -0.083  -0.083  -0.319
  0.155  -0.228  -0.790  -0.028  -0.083   0.551   0.067   0.081
  0.155  -0.228  -0.028  -0.790  -0.083   0.067   0.551   0.081
 -0.091   0.122  -0.083  -0.083  -0.319   0.081   0.081   0.160


------------------------ aborting loop because EDIFF is reached ----------------------------------------


    CHARGE:  cpu time    0.1270: real time    0.1267
    FORLOC:  cpu time    0.0520: real time    0.0523
    FORNL :  cpu time    0.4939: real time    0.4938
    STRESS:  cpu time    1.4098: real time    1.4105
    FORCOR:  cpu time    0.2930: real time    0.2918
    FORHAR:  cpu time    0.1050: real time    0.1052
    MIXING:  cpu time    0.0130: real time    0.0136
    OFIELD:  cpu time    0.0000: real time    0.0000

  FORCE on cell =-STRESS in cart. coord.  units (eV):
  Direction    XX          YY          ZZ          XY          YZ          ZX
  --------------------------------------------------------------------------------------
  Alpha Z     3.50461     3.50461     3.50461
  Ewald    5451.39262  -341.40436  -341.40436    -0.00092    -0.00087    -0.00092
  Hartree  5724.35943   114.58805   114.58805     0.00005     0.00004     0.00005
  E(xc)    -196.65979  -198.13210  -198.13210     0.00002    -0.00002     0.00002
  Local  -11852.70079  -449.28751  -449.28751     0.00045     0.00043     0.00045
  n-local   445.57915   488.16336   488.16336     0.00099    -0.00321     0.00099
  augment   -72.70755   -75.68855   -75.68855     0.00001    -0.00106     0.00001
  Kinetic   490.05974   464.28714   464.28713     0.00085     0.00016     0.00083
  Fock        0.00000     0.00000     0.00000     0.00000     0.00000     0.00000
  -------------------------------------------------------------------------------------
  Total      -7.17257     6.03064     6.03064     0.00000     0.00000     0.00000
  in kB      -4.53899     3.81634     3.81634     0.00000     0.00000     0.00000
  external pressure =        1.03 kB  Pullay stress =        0.00 kB


 VOLUME and BASIS-vectors are now :
 -----------------------------------------------------------------------------
  energy-cutoff  :      250.00
  volume of cell :     2531.78
      direct lattice vectors                 reciprocal lattice vectors
     5.431010000  0.000000000  0.000000000     0.184127814  0.000000000  0.000000000
     0.000000000 21.591010000  0.000000000     0.000000000  0.046315573  0.000000000
     0.000000000  0.000000000 21.591010000     0.000000000  0.000000000  0.046315573

  length of vectors
     5.431010000 21.591010000 21.591010000     0.184127814  0.046315573  0.046315573


 FORCES acting on ions
    electron-ion (+dipol)            ewald-force                    non-local-force                 convergence-correction
 -----------------------------------------------------------------------------------------------
   0.164E+02 0.105E+03 0.105E+03   -.153E+02 -.109E+03 -.109E+03   -.205E+01 0.601E+01 0.601E+01   -.555E-04 0.277E-03 0.277E-03
   0.516E-03 -.409E-03 0.152E+03   0.319E-03 0.147E-03 -.152E+03   0.000E+00 0.000E+00 0.287E+01   0.174E-08 0.248E-06 0.190E-03
   -.781E+00 0.775E+02 0.775E+02   0.306E+00 -.777E+02 -.777E+02   0.408E+00 -.359E+00 -.359E+00   -.102E-04 0.801E-04 0.801E-04
   0.781E+00 -.775E+02 0.775E+02   -.306E+00 0.777E+02 -.777E+02   -.408E+00 0.359E+00 -.359E+00   0.102E-04 -.796E-04 0.801E-04
   -.722E-05 0.107E-03 0.130E-03   -.124E-03 0.138E-04 0.138E-04   0.000E+00 0.000E+00 0.000E+00   0.364E-08 0.260E-06 0.260E-06
   0.516E-03 0.152E+03 -.408E-03   0.319E-03 -.152E+03 0.147E-03   0.000E+00 0.287E+01 0.000E+00   0.174E-08 0.190E-03 0.248E-06
   -.781E+00 -.775E+02 -.775E+02   0.306E+00 0.777E+02 0.777E+02   0.408E+00 0.359E+00 0.359E+00   -.102E-04 -.796E-04 -.796E-04
   0.781E+00 0.775E+02 -.775E+02   -.306E+00 -.777E+02 0.777E+02   -.408E+00 -.359E+00 0.359E+00   0.102E-04 0.801E-04 -.796E-04
   -.164E+02 0.105E+03 -.105E+03   0.153E+02 -.109E+03 0.109E+03   0.205E+01 0.601E+01 -.601E+01   0.555E-04 0.277E-03 -.276E-03
   0.428E-03 0.743E-04 -.152E+03   0.626E-05 -.166E-03 0.152E+03   0.000E+00 0.000E+00 -.287E+01   -.252E-08 0.247E-06 -.190E-03
   -.164E+02 -.105E+03 0.105E+03   0.153E+02 0.109E+03 -.109E+03   0.205E+01 -.601E+01 0.601E+01   0.555E-04 -.276E-03 0.277E-03
   0.428E-03 -.152E+03 0.111E-03   0.626E-05 0.152E+03 -.166E-03   0.000E+00 -.287E+01 0.678E-20   -.252E-08 -.190E-03 0.247E-06
   0.164E+02 -.105E+03 -.105E+03   -.153E+02 0.109E+03 0.109E+03   -.205E+01 -.601E+01 -.601E+01   -.555E-04 -.276E-03 -.276E-03
   -.879E+00 0.222E+02 -.593E+02   0.789E+00 -.215E+02 0.650E+02   -.534E-01 0.224E+00 -.334E+01   0.165E-04 0.941E-04 -.761E-04
   0.324E-03 0.808E-04 -.660E+02   0.112E-04 -.188E-04 0.715E+02   0.000E+00 0.000E+00 -.348E+01   -.462E-09 0.604E-07 -.412E-04
   0.879E+00 -.222E+02 -.593E+02   -.789E+00 0.215E+02 0.650E+02   0.534E-01 -.224E+00 -.334E+01   -.165E-04 -.940E-04 -.762E-04
   0.879E+00 0.222E+02 0.593E+02   -.789E+00 -.215E+02 -.650E+02   0.534E-01 0.224E+00 0.334E+01   -.165E-04 0.941E-04 0.762E-04
   0.341E-03 0.726E-04 0.660E+02   0.214E-04 -.864E-05 -.715E+02   0.000E+00 0.847E-20 0.348E+01   0.564E-09 0.603E-07 0.413E-04
   -.879E+00 -.222E+02 0.593E+02   0.789E+00 0.215E+02 -.650E+02   -.534E-01 -.224E+00 0.334E+01   0.165E-04 -.940E-04 0.762E-04
   -.879E+00 -.593E+02 0.222E+02   0.789E+00 0.650E+02 -.215E+02   -.534E-01 -.334E+01 0.224E+00   0.165E-04 -.761E-04 0.941E-04
   0.324E-03 -.660E+02 0.799E-04   0.112E-04 0.715E+02 -.188E-04   0.000E+00 -.348E+01 0.678E-20   -.462E-09 -.412E-04 0.604E-07
   0.879E+00 -.593E+02 -.222E+02   -.789E+00 0.650E+02 0.215E+02   0.534E-01 -.334E+01 -.224E+00   -.165E-04 -.762E-04 -.940E-04
   0.879E+00 0.593E+02 0.222E+02   -.789E+00 -.650E+02 -.215E+02   0.534E-01 0.334E+01 0.224E+00   -.165E-04 0.762E-04 0.941E-04
   0.341E-03 0.660E+02 0.720E-04   0.214E-04 -.715E+02 -.864E-05   0.000E+00 0.348E+01 0.000E+00   0.564E-09 0.413E-04 0.603E-07
   -.879E+00 0.593E+02 -.222E+02   0.789E+00 -.650E+02 0.215E+02   -.534E-01 0.334E+01 -.224E+00   0.165E-04 0.762E-04 -.940E-04
 -----------------------------------------------------------------------------------------------
   0.318E-02 -.324E-02 -.317E-02   -.355E-14 0.711E-13 -.178E-13   0.458E-15 0.888E-15 -.888E-15   0.230E-07 0.313E-05 0.313E-05
 
 
 POSITION                                       TOTAL-FORCE (eV/Angst)
 -----------------------------------------------------------------------------------
      0.00000      0.00000      0.00000        -0.992311      2.004547      2.004547
      2.71550      2.71550      0.00000         0.000000      0.000000      2.924743
      1.35775      1.35775      1.35775        -0.066900     -0.554783     -0.554783
      4.07326      4.07326      1.35775         0.066900      0.554783     -0.554783
      0.00000      2.71550      2.71550         0.000000      0.000000      0.000000
      2.71550      0.00000      2.71550         0.000000      2.924743      0.000000
      1.35775      4.07326      4.07326        -0.066900      0.554783      0.554783
      4.07326      1.35775      4.07326         0.066900     -0.554783      0.554783
      0.00000      0.00000      5.43101         0.992311      2.004547     -2.004547
      2.71550      2.71550      5.43101         0.000000      0.000000     -2.924743
      0.00000      5.43101      0.00000         0.992311     -2.004547      2.004547
      2.71550      5.43101      2.71550         0.000000     -2.924743      0.000000
      0.00000      5.43101      5.43101        -0.992311     -2.004547     -2.004547
      0.00000      0.00000      6.83101        -0.143453      0.947861      2.326559
      2.71550      2.71550      6.83101         0.000000      0.000000      2.063389
      0.00000      5.43101      6.83101         0.143453     -0.947861      2.326559
      0.00000      0.00000     20.19100         0.143453      0.947861     -2.326559
      2.71550      2.71550     20.19100         0.000000      0.000000     -2.063389
      0.00000      5.43101     20.19100        -0.143453     -0.947861     -2.326559
      0.00000      6.83101      0.00000        -0.143453      2.326559      0.947861
      2.71550      6.83101      2.71550         0.000000      2.063389      0.000000
      0.00000      6.83101      5.43101         0.143453      2.326559     -0.947861
      0.00000     20.19100      0.00000         0.143453     -2.326559      0.947861
      2.71550     20.19100      2.71550         0.000000     -2.063389      0.000000
      0.00000     20.19100      5.43101        -0.143453     -2.326559     -0.947861
 -----------------------------------------------------------------------------------
[...]
  1.5496  1.5496  1.8028  1.8028  2.7319  2.7319  3.2384  1.8128  2.0667  2.0667
  2.3966  2.3966  1.9725  2.0750  2.0750  2.6558  2.6558  2.7688  2.7688  2.9434
  2.9434  2.9944  2.1359  2.4830  2.4830  2.8913  2.8913  2.2854  2.2854  2.8444
  2.8444  2.3472  2.7590  2.7590  2.6692  2.6692  2.4971  2.4971  2.7632  2.5080
  2.5080  2.7133  2.6322  2.6322  2.6621  2.6621  2.6096  2.5434  2.5561

 Free energy of the ion-electron system (eV)
  ---------------------------------------------------
  alpha Z        PSCENC =         3.50461401
  Ewald energy   TEWEN  =      5482.26840125
  -Hartree energ DENC   =     -6674.22713749
  -exchange      EXHF   =         0.00000000
  -V(xc)+E(xc)   XCENC  =       -87.86005836
  PAW double counting   =       519.33641012     -292.17747246
  entropy T*S    EENTRO =        -0.00346870
  eigenvalues    EBANDS =      -542.97019771
  atomic energy  EATOM  =      1488.62216486
  Solvation  Ediel_sol  =         0.00000000
  ---------------------------------------------------
  free energy    TOTEN  =      -103.50674448 eV

  energy without entropy =     -103.50327579  energy(sigma->0) =     -103.50501013


--------------------------------------------------------------------------------------------------------




----------------------------------------- Iteration   46(   4)  ---------------------------------------


    POTLOK:  cpu time    0.2160: real time    0.2156
    SETDIJ:  cpu time    0.0090: real time    0.0104
    EDDIAG:  cpu time    0.2110: real time    0.2107
  RMM-DIIS:  cpu time    0.4989: real time    0.4990
    ORTHCH:  cpu time    0.0340: real time    0.0335
       DOS:  cpu time    0.0000: real time    0.0004
    --------------------------------------------
      LOOP:  cpu time    0.9699: real time    0.9752

 eigenvalue-minimisations  :   178
 total energy-change (2. order) :-0.2410052E-05  (-0.1052420E-05)
 number of electron      64.0000040 magnetization 
 augmentation part       -2.7833884 magnetization 

 Free energy of the ion-electron system (eV)
  ---------------------------------------------------
  alpha Z        PSCENC =         3.50461401
  Ewald energy   TEWEN  =      5482.26840125
  -Hartree energ DENC   =     -6674.22860493
  -exchange      EXHF   =         0.00000000
  -V(xc)+E(xc)   XCENC  =       -87.86008454
  PAW double counting   =       519.33649397     -292.17756448
  entropy T*S    EENTRO =        -0.00346892
  eigenvalues    EBANDS =      -542.96869811
  atomic energy  EATOM  =      1488.62216486
  Solvation  Ediel_sol  =         0.00000000
  ---------------------------------------------------
  free energy    TOTEN  =      -103.50674689 eV

  energy without entropy =     -103.50327797  energy(sigma->0) =     -103.50501243


--------------------------------------------------------------------------------------------------------




 average (electrostatic) potential at core
  the test charge radii are     0.9892  0.5201
  (the norm of the test charge is              1.0000)
       1 -92.5015       2 -93.2977       3 -92.5820       4 -92.5819       5 -91.9219
       6 -93.2977       7 -92.5820       8 -92.5819       9 -92.5018      10 -93.2982
      11 -92.5018      12 -93.2982      13 -92.5021      14 -39.7888      15 -40.3167
      16 -39.7889      17 -39.7893      18 -40.3174      19 -39.7894      20 -39.7888
      21 -40.3167      22 -39.7889      23 -39.7893      24 -40.3174      25 -39.7894
 
 
 
 E-fermi :  -3.3069     XC(G=0):  -1.7156     alpha+bet : -1.3624


 k-point     1 :       0.0000    0.0000    0.0000
  band No.  band energies     occupation 
      1     -14.9942      2.00000
      2     -13.6507      2.00000
      3     -13.6506      2.00000
      4     -12.4134      2.00000
      5     -11.7306      2.00000
      6     -11.6459      2.00000
      7     -11.2813      2.00000
      8     -11.2711      2.00000
      9     -11.2711      2.00000
     10     -10.6888      2.00000
     11     -10.0043      2.00000
     12     -10.0042      2.00000
     13      -8.3269      2.00000
     14      -7.6298      2.00000
     15      -7.6298      2.00000
     16      -7.3784      2.00000
     17      -7.2470      2.00000
     18      -7.2469      2.00000
     19      -7.1786      2.00000
     20      -7.1217      2.00000
     21      -7.1167      2.00000
     22      -6.9887      2.00000
     23      -6.9887      2.00000
     24      -6.7813      2.00000
     25      -6.4327      2.00000
     26      -5.9864      2.00000
     27      -5.4197      2.00000
     28      -5.4197      2.00000
     29      -4.8588      2.00000
     30      -4.8504      2.00000
     31      -4.5397      2.00000
     32      -4.5397      2.00000
     33      -2.6930      0.00001
     34      -2.3069      0.00000
     35      -2.3069      0.00000
     36      -2.2392      0.00000
     37      -2.0954      0.00000
     38      -1.1496      0.00000
     39      -1.1496      0.00000
     40      -0.5836      0.00000
     41      -0.5493      0.00000
     42      -0.1105      0.00000
     43      -0.1105      0.00000
     44       0.0589      0.00000
     45       0.3502      0.00000
     46       0.4225      0.00000

 k-point     2 :       0.2000    0.0000    0.0000
  band No.  band energies     occupation 
      1     -14.8238      2.00000
      2     -13.5085      2.00000
      3     -13.5084      2.00000
      4     -12.5735      2.00000
      5     -12.1075      2.00000
      6     -11.6881      2.00000
      7     -11.5839      2.00000
      8     -11.5839      2.00000
      9     -11.4513      2.00000
     10      -9.9882      2.00000
     11      -9.9557      2.00000
     12      -9.9557      2.00000
     13      -8.5730      2.00000
     14      -8.0307      2.00000
     15      -8.0307      2.00000
     16      -7.5144      2.00000
     17      -7.4446      2.00000
     18      -7.2571      2.00000
     19      -7.1481      2.00000
     20      -7.1481      2.00000
     21      -6.7569      2.00000
     22      -6.7171      2.00000
     23      -6.3976      2.00000
     24      -6.3976      2.00000
     25      -6.3950      2.00000
     26      -6.0358      2.00000
     27      -5.4368      2.00000
     28      -5.4368      2.00000
     29      -5.0920      2.00000
     30      -4.5987      2.00000
     31      -4.5987      2.00000
     32      -4.0940      2.00000
     33      -2.8162      0.00052
     34      -2.3545      0.00000
     35      -2.3544      0.00000
     36      -1.9198      0.00000
     37      -1.4828      0.00000
     38      -0.8724      0.00000
     39      -0.8245      0.00000
     40      -0.8245      0.00000
     41      -0.6563      0.00000
     42      -0.4280      0.00000
     43      -0.3173      0.00000
     44      -0.3173      0.00000
     45       0.3430      0.00000
     46       0.5116      0.00000

 k-point     3 :       0.4000    0.0000    0.0000
  band No.  band energies     occupation 
      1     -14.3256      2.00000
      2     -13.4941      2.00000
      3     -13.1434      2.00000
      4     -13.1433      2.00000
      5     -12.1961      2.00000
      6     -12.1961      2.00000
      7     -12.0702      2.00000
      8     -11.6144      2.00000
      9     -11.4380      2.00000
     10      -9.8785      2.00000
     11      -9.8785      2.00000
     12      -9.4774      2.00000
     13      -9.0757      2.00000
     14      -8.1767      2.00000
     15      -8.1767      2.00000
     16      -7.8338      2.00000
     17      -7.6636      2.00000
     18      -7.2573      2.00000
     19      -7.2573      2.00000
     20      -7.2353      2.00000
     21      -6.5576      2.00000
     22      -6.4637      2.00000
     23      -6.1885      2.00000
     24      -6.0188      2.00000
     25      -6.0188      2.00000
     26      -5.7823      2.00000
     27      -5.4371      2.00000
     28      -5.4371      2.00000
     29      -5.2626      2.00000
     30      -4.1859      2.00000
     31      -4.1859      2.00000
     32      -3.6685      1.98944
     33      -2.9428      0.01003
     34      -2.2432      0.00000
     35      -2.2431      0.00000
     36      -1.5429      0.00000
     37      -1.1110      0.00000
     38      -1.0699      0.00000
     39      -1.0699      0.00000
     40      -0.6851      0.00000
     41      -0.5424      0.00000
     42       0.0573      0.00000
     43       0.0573      0.00000
     44       0.2601      0.00000
     45       0.3746      0.00000
     46       0.4675      0.00000


--------------------------------------------------------------------------------------------------------


 soft charge-density along one line, spin component           1
         0         1         2         3         4         5         6         7         8         9
 total charge-density along one line
 
 pseudopotential strength for first ion, spin component:           1
 19.505   0.006   0.004   0.004  -0.003  -0.000  -0.000   0.000
  0.006   0.006  -0.000  -0.000   0.000   0.000   0.000  -0.000
  0.004  -0.000   4.341  -0.000   0.001   0.001   0.000  -0.000
  0.004  -0.000  -0.000   4.341   0.001   0.000   0.001  -0.000
 -0.003   0.000   0.001   0.001   4.342  -0.000  -0.000   0.001
 -0.000   0.000   0.001   0.000  -0.000   0.004  -0.000  -0.000
 -0.000   0.000   0.000   0.001  -0.000  -0.000   0.004  -0.000
  0.000  -0.000  -0.000  -0.000   0.001  -0.000  -0.000   0.004
 total augmentation occupancy for first ion, spin component:           1
  1.486  -0.851   0.032   0.032  -0.057   0.086   0.086  -0.087
 -0.851   0.857   0.235   0.235  -0.244  -0.141  -0.141   0.189
  0.032   0.235   1.069   0.007  -0.040  -0.679   0.041  -0.019
  0.032   0.235   0.007   1.069  -0.040   0.041  -0.679  -0.019
 -0.057  -0.244  -0.040  -0.040   0.879  -0.018  -0.018  -0.458
  0.086  -0.141  -0.679   0.041  -0.018   0.462  -0.034   0.031
  0.086  -0.141   0.041  -0.679  -0.018  -0.034   0.462   0.031
 -0.087   0.189  -0.019  -0.019  -0.458   0.031   0.031   0.282


------------------------ aborting loop because EDIFF is reached ----------------------------------------


    CHARGE:  cpu time    0.0870: real time    0.0882
    FORLOC:  cpu time    0.0470: real time    0.0469
    FORNL :  cpu time    0.2990: real time    0.2986
    STRESS:  cpu time    1.0208: real time    1.0214
    FORCOR:  cpu time    0.2480: real time    0.2478
    FORHAR:  cpu time    0.1000: real time    0.0994
    MIXING:  cpu time    0.1610: real time    0.1614
    OFIELD:  cpu time    0.0000: real time    0.0000

  FORCE on cell =-STRESS in cart. coord.  units (eV):
  Direction    XX          YY          ZZ          XY          YZ          ZX
  --------------------------------------------------------------------------------------
  Alpha Z     3.50461     3.50461     3.50461
  Ewald    6397.94748  -457.84087  -457.84087    -0.00077    -0.00079    -0.00077
  Hartree  6520.62204    76.79250    76.79250     0.00003     0.00006     0.00003
  E(xc)    -197.07419  -197.76421  -197.76421     0.00000     0.00002     0.00000
  Local  -13597.29917  -296.35707  -296.35707     0.00037     0.00035     0.00037
  n-local   465.27299   477.87774   477.87773    -0.00011     0.00176    -0.00011
  augment   -73.90937   -75.14295   -75.14295     0.00011     0.00003     0.00011
  Kinetic   476.74608   464.58706   464.58701     0.00025     0.00016     0.00025
  Fock        0.00000     0.00000     0.00000     0.00000     0.00000     0.00000
  -------------------------------------------------------------------------------------
  Total      -4.18952    -4.34322    -4.34322     0.00000     0.00000     0.00000
  in kB      -2.65123    -2.74850    -2.74850     0.00000     0.00000     0.00000
  external pressure =       -2.72 kB  Pullay stress =        0.00 kB


 VOLUME and BASIS-vectors are now :
 -----------------------------------------------------------------------------
  energy-cutoff  :      250.00
  volume of cell :     2531.78
      direct lattice vectors                 reciprocal lattice vectors
     5.431010000  0.000000000  0.000000000     0.184127814  0.000000000  0.000000000
     0.000000000 21.591010000  0.000000000     0.000000000  0.046315573  0.000000000
     0.000000000  0.000000000 21.591010000     0.000000000  0.000000000  0.046315573

  length of vectors
     5.431010000 21.591010000 21.591010000     0.184127814  0.046315573  0.046315573


 FORCES acting on ions
    electron-ion (+dipol)            ewald-force                    non-local-force                 convergence-correction
 -----------------------------------------------------------------------------------------------
   0.133E+02 0.126E+03 0.126E+03   -.118E+02 -.128E+03 -.128E+03   -.152E+01 0.186E+01 0.186E+01   -.547E-03 0.998E-03 0.998E-03
   0.409E-03 -.329E-03 0.163E+03   0.348E-03 0.101E-03 -.164E+03   0.000E+00 0.678E-20 0.320E+00   -.261E-06 0.367E-04 0.156E-02
   -.575E+01 0.102E+03 0.102E+03   0.385E+01 -.101E+03 -.101E+03   0.189E+01 -.119E+01 -.119E+01   0.225E-03 0.830E-03 0.830E-03
   0.575E+01 -.102E+03 0.102E+03   -.385E+01 0.101E+03 -.101E+03   -.189E+01 0.119E+01 -.119E+01   -.224E-03 -.765E-03 0.824E-03
   -.788E-05 0.172E-03 0.196E-03   -.162E-03 0.449E-04 0.449E-04   0.000E+00 -.271E-19 -.271E-19   -.543E-07 0.311E-04 0.311E-04
   0.409E-03 0.163E+03 -.340E-03   0.348E-03 -.164E+03 0.101E-03   0.000E+00 0.320E+00 0.678E-20   -.261E-06 0.156E-02 0.367E-04
   -.575E+01 -.102E+03 -.102E+03   0.385E+01 0.101E+03 0.101E+03   0.189E+01 0.119E+01 0.119E+01   0.224E-03 -.771E-03 -.771E-03
   0.575E+01 0.102E+03 -.102E+03   -.385E+01 -.101E+03 0.101E+03   -.189E+01 -.119E+01 0.119E+01   -.224E-03 0.824E-03 -.765E-03
   -.133E+02 0.126E+03 -.126E+03   0.118E+02 -.128E+03 0.128E+03   0.152E+01 0.186E+01 -.186E+01   0.547E-03 0.992E-03 -.941E-03
   0.273E-03 0.806E-04 -.163E+03   0.156E-03 -.861E-04 0.164E+03   0.000E+00 -.678E-20 -.320E+00   0.340E-06 0.260E-04 -.151E-02
   -.133E+02 -.126E+03 0.126E+03   0.118E+02 0.128E+03 -.128E+03   0.152E+01 -.186E+01 0.186E+01   0.547E-03 -.941E-03 0.992E-03
   0.274E-03 -.163E+03 0.992E-04   0.156E-03 0.164E+03 -.861E-04   0.000E+00 -.320E+00 0.678E-20   0.340E-06 -.151E-02 0.260E-04
   0.133E+02 -.126E+03 -.126E+03   -.118E+02 0.128E+03 0.128E+03   -.152E+01 -.186E+01 -.186E+01   -.547E-03 -.949E-03 -.949E-03
   0.205E+01 0.216E+02 -.631E+02   -.225E+01 -.213E+02 0.658E+02   0.280E+00 -.262E+00 -.271E+01   0.131E-03 0.150E-03 -.723E-04
   0.296E-03 0.687E-04 -.692E+02   0.279E-04 -.101E-04 0.720E+02   0.000E+00 0.000E+00 -.289E+01   0.110E-06 0.608E-05 -.993E-04
   -.205E+01 -.216E+02 -.631E+02   0.225E+01 0.213E+02 0.658E+02   -.280E+00 0.262E+00 -.271E+01   -.131E-03 -.140E-03 -.739E-04
   -.205E+01 0.216E+02 0.631E+02   0.225E+01 -.213E+02 -.658E+02   -.280E+00 -.262E+00 0.271E+01   -.131E-03 0.151E-03 0.800E-04
   0.317E-03 0.809E-04 0.692E+02   0.136E-04 -.250E-04 -.720E+02   0.000E+00 0.000E+00 0.289E+01   -.120E-06 0.976E-05 0.107E-03
   0.205E+01 -.216E+02 0.631E+02   -.225E+01 0.213E+02 -.658E+02   0.280E+00 0.262E+00 0.271E+01   0.131E-03 -.136E-03 0.805E-04
   0.205E+01 -.631E+02 0.216E+02   -.225E+01 0.658E+02 -.213E+02   0.280E+00 -.271E+01 -.262E+00   0.131E-03 -.723E-04 0.150E-03
   0.296E-03 -.692E+02 0.679E-04   0.279E-04 0.720E+02 -.101E-04   0.000E+00 -.289E+01 0.000E+00   0.110E-06 -.993E-04 0.608E-05
   -.205E+01 -.631E+02 -.216E+02   0.225E+01 0.658E+02 0.213E+02   -.280E+00 -.271E+01 0.262E+00   -.131E-03 -.739E-04 -.140E-03
   -.205E+01 0.631E+02 0.216E+02   0.225E+01 -.658E+02 -.213E+02   -.280E+00 0.271E+01 -.262E+00   -.131E-03 0.800E-04 0.151E-03
   0.317E-03 0.692E+02 0.806E-04   0.136E-04 -.720E+02 -.250E-04   0.000E+00 0.289E+01 0.000E+00   -.120E-06 0.107E-03 0.976E-05
   0.205E+01 0.631E+02 -.216E+02   -.225E+01 -.658E+02 0.213E+02   0.280E+00 0.271E+01 0.262E+00   0.131E-03 0.805E-04 -.136E-03
 -----------------------------------------------------------------------------------------------
   0.253E-02 -.309E-02 -.302E-02   -.266E-14 0.568E-13 -.107E-13   0.000E+00 -.133E-14 -.833E-15   -.203E-06 0.426E-03 0.426E-03
 
 
 POSITION                                       TOTAL-FORCE (eV/Angst)
 -----------------------------------------------------------------------------------
     -0.74290      0.37152      0.37152        -0.038974      0.025448      0.025448
      2.71550      2.71550      0.23098        -0.000000      0.000000     -0.007166
      1.18697      1.33875      1.33875        -0.007954     -0.002136     -0.002136
      4.24404      4.09226      1.33875         0.007954      0.002136     -0.002136
     -0.00000      2.71550      2.71550         0.000000      0.000000      0.000000
      2.71550      0.23098      2.71550        -0.000000     -0.007166      0.000000
      1.18697      4.09226      4.09226        -0.007954      0.002136      0.002136
      4.24404      1.33875      4.09226         0.007954     -0.002136      0.002136
      0.74290      0.37152      5.05949         0.038974      0.025448     -0.025448
      2.71550      2.71550      5.20003         0.000000      0.000000      0.007166
      0.74290      5.05949      0.37152         0.038974     -0.025448      0.025448
      2.71550      5.20003      2.71550         0.000000      0.007166      0.000000
     -0.74290      5.05949      5.05949        -0.038974     -0.025448     -0.025448
      0.60228      0.52872      6.56076         0.081780      0.018297     -0.020541
      2.71550      2.71550      6.70616         0.000000      0.000000     -0.009009
     -0.60228      4.90229      6.56076        -0.081780     -0.018297     -0.020541
     -0.60228      0.52872     20.46125        -0.081780      0.018297      0.020541
      2.71550      2.71550     20.31585        -0.000000      0.000000      0.009009
      0.60228      4.90229     20.46125         0.081780     -0.018297      0.020541
      0.60228      6.56076      0.52872         0.081780     -0.020541      0.018297
      2.71550      6.70616      2.71550         0.000000     -0.009009      0.000000
     -0.60228      6.56076      4.90229        -0.081780     -0.020541     -0.018297
     -0.60228     20.46125      0.52872        -0.081780      0.020541      0.018297
      2.71550     20.31585      2.71550         0.000000      0.009009      0.000000
      0.60228     20.46125      4.90229         0.081780      0.020541     -0.018297
 -----------------------------------------------------------------------------------
    total drift:                                0.002531     -0.002661     -0.002599


--------------------------------------------------------------------------------------------------------



  FREE ENERGIE OF THE ION-ELECTRON SYSTEM (eV)
  ---------------------------------------------------
  free  energy   TOTEN  =      -103.50674689 eV

  energy  without entropy=     -103.50327797  energy(sigma->0) =     -103.50501243
 
 d Force = 0.4891385E-02[ 0.481E-02, 0.497E-02]  d Energy = 0.4914789E-02-0.234E-04
 d Force =-0.2812113E+01[-0.281E+01,-0.281E+01]  d Ewald  =-0.2812112E+01-0.688E-06


--------------------------------------------------------------------------------------------------------


    POTLOK:  cpu time    0.2780: real time    0.2772


--------------------------------------------------------------------------------------------------------


 Quasi-Newton relaxation of ions (Broydens 2nd method)
  g(Force)  = 0.346E-02   g(Stress)= 0.000E+00

 retain information from N=  1 steps
 eigenvalues of (default step * inverse Hessian matrix)
  average eigenvalue of G=  14.6732
 eigenvalue spectrum of G is 14.6732


--------------------------------------------------------------------------------------------------------


    WAVPRE:  cpu time    0.0830: real time    0.0829
 FEWALD executed in parallel
    FEWALD:  cpu time    0.0010: real time    0.0008

 real space projection operators:
  total allocation   :       1641.39 KBytes
  max/ min on nodes  :        822.39        819.00

