<?xml version="1.0" encoding="ISO-8859-1"?>
<modeling>
 <generator>
  <i name="program" type="string">vasp </i>
  <i name="version" type="string">5.4.1  </i>
  <i name="subversion" type="string">05Feb16 (build Mar 02 2016 14:09:44) complex                          parallel </i>
  <i name="platform" type="string">Abel-impi-ifc-cuda </i>
  <i name="date" type="string">2019 10 04 </i>
  <i name="time" type="string">11:18:46 </i>
 </generator>
 <incar>
  <i type="string" name="PREC">normal    ! low/normal/accurate</i>
  <i type="string" name="ALGO"> Fast      ! Algorithm for electronic re</i>
  <i type="int" name="ISPIN">     1</i>
  <i type="int" name="MAXMIX">    80</i>
  <i type="int" name="NELMIN">     4</i>
  <i type="int" name="IBRION">     1</i>
  <i name="EDIFF">      0.00001000</i>
  <i name="EDIFFG">     -0.05000000</i>
  <i type="int" name="NSW">    50</i>
  <i type="int" name="ISIF">     2</i>
  <i name="ENCUT">    250.00000000</i>
  <i type="string" name="LREAL"> Auto      ! Projection in reciprocal sp</i>
  <i type="int" name="ISMEAR">     0</i>
  <i name="SIGMA">      0.20000000</i>
  <i type="logical" name="LWAVE"> F  </i>
  <v type="int" name="KPOINT_BSE">    -1     0     0     0</v>
 </incar>
 <kpoints>
  <generation param="Gamma">
   <v type="int" name="divisions">       5        1        1 </v>
   <v name="usershift">      0.00000000       0.00000000       0.00000000 </v>
   <v name="genvec1">      0.20000000       0.00000000       0.00000000 </v>
   <v name="genvec2">      0.00000000       1.00000000       0.00000000 </v>
   <v name="genvec3">      0.00000000       0.00000000       1.00000000 </v>
   <v name="shift">      0.00000000       0.00000000       0.00000000 </v>
  </generation>
  <varray name="kpointlist" >
   <v>       0.00000000       0.00000000       0.00000000 </v>
   <v>       0.20000000       0.00000000       0.00000000 </v>
   <v>       0.40000000       0.00000000       0.00000000 </v>
  </varray>
  <varray name="weights" >
   <v>       0.20000000 </v>
   <v>       0.40000000 </v>
   <v>       0.40000000 </v>
  </varray>
 </kpoints>
 <parameters>
  <separator name="general" >
   <i type="string" name="SYSTEM">unknown system</i>
   <i type="logical" name="LCOMPAT"> F  </i>
  </separator>
  <separator name="electronic" >
   <i type="string" name="PREC">normal</i>
   <i name="ENMAX">    250.00000000</i>
   <i name="ENAUG">    400.00000000</i>
   <i name="EDIFF">      0.00001000</i>
   <i type="int" name="IALGO">    68</i>
   <i type="int" name="IWAVPR">    11</i>
   <i type="int" name="NBANDS">    46</i>
   <i name="NELECT">     64.00000000</i>
   <i type="int" name="TURBO">     0</i>
   <i type="int" name="IRESTART">     0</i>
   <i type="int" name="NREBOOT">     0</i>
   <i type="int" name="NMIN">     0</i>
   <i name="EREF">      0.00000000</i>
   <separator name="electronic smearing" >
    <i type="int" name="ISMEAR">     0</i>
    <i name="SIGMA">      0.20000000</i>
    <i name="KSPACING">      0.50000000</i>
    <i type="logical" name="KGAMMA"> T  </i>
   </separator>
   <separator name="electronic projectors" >
    <i type="logical" name="LREAL"> T  </i>
    <v name="ROPT">     -0.00050000     -0.00050000</v>
    <i type="int" name="LMAXPAW">  -100</i>
    <i type="int" name="LMAXMIX">     2</i>
    <i type="logical" name="NLSPLINE"> F  </i>
   </separator>
   <separator name="electronic startup" >
    <i type="int" name="ISTART">     0</i>
    <i type="int" name="ICHARG">     2</i>
    <i type="int" name="INIWAV">     1</i>
   </separator>
   <separator name="electronic spin" >
    <i type="int" name="ISPIN">     1</i>
    <i type="logical" name="LNONCOLLINEAR"> F  </i>
    <v name="MAGMOM">      1.00000000      1.00000000      1.00000000      1.00000000      1.00000000      1.00000000      1.00000000      1.00000000      1.00000000      1.00000000      1.00000000      1.00000000      1.00000000      1.00000000      1.00000000      1.00000000      1.00000000      1.00000000      1.00000000      1.00000000
      1.00000000      1.00000000      1.00000000      1.00000000      1.00000000</v>
    <i name="NUPDOWN">     -1.00000000</i>
    <i type="logical" name="LSORBIT"> F  </i>
    <v name="SAXIS">      0.00000000      0.00000000      1.00000000</v>
    <i type="logical" name="LSPIRAL"> F  </i>
    <v name="QSPIRAL">      0.00000000      0.00000000      0.00000000</v>
    <i type="logical" name="LZEROZ"> F  </i>
   </separator>
   <separator name="electronic exchange-correlation" >
    <i type="logical" name="LASPH"> F  </i>
    <i type="logical" name="LMETAGGA"> F  </i>
   </separator>
   <separator name="electronic convergence" >
    <i type="int" name="NELM">    60</i>
    <i type="int" name="NELMDL">    -5</i>
    <i type="int" name="NELMIN">     4</i>
    <i name="ENINI">    250.00000000</i>
    <separator name="electronic convergence detail" >
     <i type="logical" name="LDIAG"> T  </i>
     <i type="logical" name="LSUBROT"> F  </i>
     <i name="WEIMIN">      0.00100000</i>
     <i name="EBREAK">      0.00000005</i>
     <i name="DEPER">      0.30000000</i>
     <i type="int" name="NRMM">     4</i>
     <i name="TIME">      0.40000000</i>
    </separator>
   </separator>
   <separator name="electronic mixer" >
    <i name="AMIX">      0.40000000</i>
    <i name="BMIX">      1.00000000</i>
    <i name="AMIN">      0.10000000</i>
    <i name="AMIX_MAG">      1.60000000</i>
    <i name="BMIX_MAG">      1.00000000</i>
    <separator name="electronic mixer details" >
     <i type="int" name="IMIX">     4</i>
     <i type="logical" name="MIXFIRST"> F  </i>
     <i type="int" name="MAXMIX">    80</i>
     <i name="WC">    100.00000000</i>
     <i type="int" name="INIMIX">     1</i>
     <i type="int" name="MIXPRE">     1</i>
     <i type="int" name="MREMOVE">     5</i>
    </separator>
   </separator>
   <separator name="electronic dipolcorrection" >
    <i type="logical" name="LDIPOL"> F  </i>
    <i type="logical" name="LMONO"> F  </i>
    <i type="int" name="IDIPOL">     0</i>
    <i name="EPSILON">      1.00000000</i>
    <v name="DIPOL">   -100.00000000   -100.00000000   -100.00000000</v>
    <i name="EFIELD">      0.00000000</i>
   </separator>
  </separator>
  <separator name="grids" >
   <i type="int" name="NGX">    24</i>
   <i type="int" name="NGY">    84</i>
   <i type="int" name="NGZ">    84</i>
   <i type="int" name="NGXF">    48</i>
   <i type="int" name="NGYF">   168</i>
   <i type="int" name="NGZF">   168</i>
   <i type="logical" name="ADDGRID"> F  </i>
  </separator>
  <separator name="ionic" >
   <i type="int" name="NSW">    50</i>
   <i type="int" name="IBRION">     1</i>
   <i type="int" name="ISIF">     2</i>
   <i name="PSTRESS">      0.00000000</i>
   <i name="EDIFFG">     -0.05000000</i>
   <i type="int" name="NFREE">     0</i>
   <i name="POTIM">      0.50000000</i>
   <i name="SMASS">     -3.00000000</i>
   <i name="SCALEE">      1.00000000</i>
  </separator>
  <separator name="ionic md" >
   <i name="TEBEG">      0.00010000</i>
   <i name="TEEND">      0.00010000</i>
   <i type="int" name="NBLOCK">     1</i>
   <i type="int" name="KBLOCK">    50</i>
   <i type="int" name="NPACO">   256</i>
   <i name="APACO">     16.00000000</i>
  </separator>
  <separator name="symmetry" >
   <i type="int" name="ISYM">     2</i>
   <i name="SYMPREC">      0.00001000</i>
  </separator>
  <separator name="dos" >
   <i type="logical" name="LORBIT"> F  </i>
   <v name="RWIGS">     -1.00000000     -1.00000000</v>
   <i type="int" name="NEDOS">   301</i>
   <i name="EMIN">     10.00000000</i>
   <i name="EMAX">    -10.00000000</i>
   <i name="EFERMI">      0.00000000</i>
  </separator>
  <separator name="writing" >
   <i type="int" name="NWRITE">     2</i>
   <i type="logical" name="LWAVE"> F  </i>
   <i type="logical" name="LCHARG"> T  </i>
   <i type="logical" name="LPARD"> F  </i>
   <i type="logical" name="LVTOT"> F  </i>
   <i type="logical" name="LVHAR"> F  </i>
   <i type="logical" name="LELF"> F  </i>
   <i type="logical" name="LOPTICS"> F  </i>
   <v name="STM">      0.00000000      0.00000000      0.00000000      0.00000000      0.00000000      0.00000000      0.00000000</v>
  </separator>
  <separator name="performance" >
   <i type="int" name="NPAR">     2</i>
   <i type="int" name="NSIM">     4</i>
   <i type="int" name="NBLK">    -1</i>
   <i type="logical" name="LPLANE"> T  </i>
   <i type="logical" name="LSCALAPACK"> F  </i>
   <i type="logical" name="LSCAAWARE"> F  </i>
   <i type="logical" name="LSCALU"> F  </i>
   <i type="logical" name="LASYNC"> F  </i>
   <i type="logical" name="LORBITALREAL"> F  </i>
  </separator>
  <separator name="miscellaneous" >
   <i type="int" name="IDIOT">     3</i>
   <i type="logical" name="LMUSIC"> F  </i>
   <v name="POMASS">     28.08500000      1.00000000</v>
   <v name="DARWINR">      0.00000000      0.00000000</v>
   <v name="DARWINV">      1.00000000      1.00000000</v>
   <i type="logical" name="LCORR"> T  </i>
  </separator>
  <i type="logical" name="GGA_COMPAT"> T  </i>
  <i type="logical" name="LBERRY"> F  </i>
  <i type="int" name="ICORELEVEL">     0</i>
  <i type="logical" name="LDAU"> F  </i>
  <i type="int" name="I_CONSTRAINED_M">     0</i>
  <separator name="electronic exchange-correlation" >
   <i type="string" name="GGA">--</i>
   <i type="int" name="VOSKOWN">     0</i>
   <i type="logical" name="LHFCALC"> F  </i>
   <i type="string" name="PRECFOCK"></i>
   <i type="logical" name="LSYMGRAD"> F  </i>
   <i type="logical" name="LHFONE"> F  </i>
   <i type="logical" name="LRHFCALC"> F  </i>
   <i type="logical" name="LTHOMAS"> F  </i>
   <i type="logical" name="LMODELHF"> F  </i>
   <i name="ENCUT4O">     -1.00000000</i>
   <i type="int" name="EXXOEP">     0</i>
   <i type="int" name="FOURORBIT">     0</i>
   <i name="AEXX">      0.00000000</i>
   <i name="HFALPHA">      0.00000000</i>
   <i name="MCALPHA">      0.00000000</i>
   <i name="ALDAX">      1.00000000</i>
   <i name="AGGAX">      1.00000000</i>
   <i name="ALDAC">      1.00000000</i>
   <i name="AGGAC">      1.00000000</i>
   <i type="int" name="NKREDX">     1</i>
   <i type="int" name="NKREDY">     1</i>
   <i type="int" name="NKREDZ">     1</i>
   <i type="logical" name="SHIFTRED"> F  </i>
   <i type="logical" name="ODDONLY"> F  </i>
   <i type="logical" name="EVENONLY"> F  </i>
   <i type="int" name="LMAXFOCK">     0</i>
   <i type="int" name="NMAXFOCKAE">     0</i>
   <i type="logical" name="LFOCKAEDFT"> F  </i>
   <i name="HFSCREEN">      0.00000000</i>
   <i name="HFSCREENC">      0.00000000</i>
   <i type="int" name="NBANDSGWLOW">     0</i>
  </separator>
  <separator name="vdW DFT" >
   <i type="logical" name="LUSE_VDW"> F  </i>
   <i name="Zab_VDW">     -0.84910000</i>
   <i name="PARAM1">      0.12340000</i>
   <i name="PARAM2">      1.00000000</i>
   <i name="PARAM3">      0.00000000</i>
  </separator>
  <separator name="model GW" >
   <i type="int" name="MODEL_GW">     0</i>
   <i name="MODEL_EPS0">     60.76279762</i>
   <i name="MODEL_ALPHA">      1.00000000</i>
  </separator>
  <separator name="linear response parameters" >
   <i type="logical" name="LEPSILON"> F  </i>
   <i type="logical" name="LRPA"> F  </i>
   <i type="logical" name="LNABLA"> F  </i>
   <i type="logical" name="LVEL"> F  </i>
   <i type="int" name="KINTER">     0</i>
   <i name="CSHIFT">      0.10000000</i>
   <i name="OMEGAMAX">     -1.00000000</i>
   <i name="DEG_THRESHOLD">      0.00200000</i>
  </separator>
  <separator name="orbital magnetization" >
   <i type="logical" name="NUCIND"> F  </i>
   <v name="MAGPOS">      0.00000000      0.00000000      0.00000000</v>
   <i type="logical" name="LNICSALL"> T  </i>
   <i type="logical" name="ORBITALMAG"> F  </i>
   <i type="logical" name="LMAGBLOCH"> F  </i>
   <i type="logical" name="LCHIMAG"> F  </i>
   <i type="logical" name="LGAUGE"> T  </i>
   <i type="int" name="MAGATOM">     0</i>
   <v name="MAGDIPOL">      0.00000000      0.00000000      0.00000000</v>
   <v name="AVECCONST">      0.00000000      0.00000000      0.00000000</v>
  </separator>
  <separator name="response functions" >
   <i type="logical" name="LADDER"> F  </i>
   <i type="logical" name="LFXC"> F  </i>
   <i type="logical" name="LHARTREE"> T  </i>
   <i type="int" name="IBSE">     0</i>
   <v type="int" name="KPOINT">    -1     0     0     0</v>
   <i type="logical" name="LTCTE"> F  </i>
   <i type="logical" name="LTETE"> F  </i>
   <i type="logical" name="LTRIPLET"> F  </i>
   <i type="logical" name="LFXCEPS"> F  </i>
   <i type="logical" name="LFXHEG"> F  </i>
   <i type="int" name="NATURALO">     0</i>
   <i type="logical" name="L2ORDER"> F  </i>
   <i type="logical" name="LUSEW"> F  </i>
   <i name="ENCUTGW">     -2.00000000</i>
   <i name="ENCUTGWSOFT">     -2.00000000</i>
   <i name="ENCUTLF">     -1.00000000</i>
   <i type="int" name="LMAXMP2">    -1</i>
   <i name="SCISSOR">      0.00000000</i>
   <i type="int" name="NOMEGA">     0</i>
   <i type="int" name="NOMEGAR">     0</i>
   <i type="int" name="NBANDSGW">    -1</i>
   <i type="int" name="NBANDSO">    -1</i>
   <i type="int" name="NBANDSV">    -1</i>
   <i type="int" name="NELM">     1</i>
   <i type="int" name="NELMHF">     1</i>
   <i type="int" name="DIM">     3</i>
   <i type="int" name="ANTIRES">     0</i>
   <i name="OMEGAMAX">    -30.00000000</i>
   <i name="OMEGAMIN">    -30.00000000</i>
   <i name="OMEGATL">   -200.00000000</i>
   <i type="int" name="OMEGAGRID">     0</i>
   <i name="CSHIFT">     -0.10000000</i>
   <i type="logical" name="SELFENERGY"> F  </i>
   <i type="logical" name="LSPECTRAL"> F  </i>
   <i type="logical" name="LSPECTRALGW"> F  </i>
   <i type="logical" name="LSINGLES"> F  </i>
   <i type="logical" name="LFERMIGW"> F  </i>
   <i type="logical" name="ODDONLYGW"> F  </i>
   <i type="logical" name="EVENONLYGW"> F  </i>
   <i type="int" name="NKREDLFX">     1</i>
   <i type="int" name="NKREDLFY">     1</i>
   <i type="int" name="NKREDLFZ">     1</i>
   <i type="int" name="MAXMEM">  1800</i>
   <i type="int" name="TELESCOPE">     0</i>
   <i type="int" name="TAUPAR">     1</i>
   <i type="int" name="OMEGAPAR">    -1</i>
   <i name="LAMBDA">      1.00000000</i>
  </separator>
  <separator name="External order field" >
   <i name="OFIELD_KAPPA">      0.00000000</i>
   <v name="OFIELD_K">      0.00000000      0.00000000      0.00000000</v>
   <i name="OFIELD_Q6_NEAR">      0.00000000</i>
   <i name="OFIELD_Q6_FAR">      0.00000000</i>
   <i name="OFIELD_A">      0.00000000</i>
  </separator>
 </parameters>
 <atominfo>
  <atoms>      25 </atoms>
  <types>       2 </types>
  <array name="atoms" >
   <dimension dim="1">ion</dimension>
   <field type="string">element</field>
   <field type="int">atomtype</field>
   <set>
    <rc><c>Si</c><c>   1</c></rc>
    <rc><c>Si</c><c>   1</c></rc>
    <rc><c>Si</c><c>   1</c></rc>
    <rc><c>Si</c><c>   1</c></rc>
    <rc><c>Si</c><c>   1</c></rc>
    <rc><c>Si</c><c>   1</c></rc>
    <rc><c>Si</c><c>   1</c></rc>
    <rc><c>Si</c><c>   1</c></rc>
    <rc><c>Si</c><c>   1</c></rc>
    <rc><c>Si</c><c>   1</c></rc>
    <rc><c>Si</c><c>   1</c></rc>
    <rc><c>Si</c><c>   1</c></rc>
    <rc><c>Si</c><c>   1</c></rc>
    <rc><c>H </c><c>   2</c></rc>
    <rc><c>H </c><c>   2</c></rc>
    <rc><c>H </c><c>   2</c></rc>
    <rc><c>H </c><c>   2</c></rc>
    <rc><c>H </c><c>   2</c></rc>
    <rc><c>H </c><c>   2</c></rc>
    <rc><c>H </c><c>   2</c></rc>
    <rc><c>H </c><c>   2</c></rc>
    <rc><c>H </c><c>   2</c></rc>
    <rc><c>H </c><c>   2</c></rc>
    <rc><c>H </c><c>   2</c></rc>
    <rc><c>H </c><c>   2</c></rc>
   </set>
  </array>
  <array name="atomtypes" >
   <dimension dim="1">type</dimension>
   <field type="int">atomspertype</field>
   <field type="string">element</field>
   <field>mass</field>
   <field>valence</field>
   <field type="string">pseudopotential</field>
   <set>
    <rc><c>  13</c><c>Si</c><c>     28.08500000</c><c>      4.00000000</c><c> PAW_PBE Si 05Jan2001                   </c></rc>
    <rc><c>  12</c><c>H </c><c>      1.00000000</c><c>      1.00000000</c><c> PAW_PBE H 15Jun2001                    </c></rc>
   </set>
  </array>
 </atominfo>
 <structure name="initialpos" >
  <crystal>
   <varray name="basis" >
    <v>       5.43101000       0.00000000       0.00000000 </v>
    <v>       0.00000000      21.59101000       0.00000000 </v>
    <v>       0.00000000       0.00000000      21.59101000 </v>
   </varray>
   <i name="volume">   2531.78323404 </i>
   <varray name="rec_basis" >
    <v>       0.18412781       0.00000000       0.00000000 </v>
    <v>       0.00000000       0.04631557       0.00000000 </v>
    <v>       0.00000000       0.00000000       0.04631557 </v>
   </varray>
  </crystal>
  <varray name="positions" >
   <v>       0.00000000       0.00000000       0.00000000 </v>
   <v>       0.49999908       0.12576994       0.00000000 </v>
   <v>       0.24999954       0.06288497       0.06288497 </v>
   <v>       0.75000046       0.18865537       0.06288497 </v>
   <v>       0.00000000       0.12576994       0.12576994 </v>
   <v>       0.49999908       0.00000000       0.12576994 </v>
   <v>       0.24999954       0.18865537       0.18865537 </v>
   <v>       0.75000046       0.06288497       0.18865537 </v>
   <v>       0.00000000       0.00000000       0.25154034 </v>
   <v>       0.49999908       0.12576994       0.25154034 </v>
   <v>       0.00000000       0.25154034       0.00000000 </v>
   <v>       0.49999908       0.25154034       0.12576994 </v>
   <v>       0.00000000       0.25154034       0.25154034 </v>
   <v>       0.00000000       0.00000000       0.31638214 </v>
   <v>       0.49999908       0.12576994       0.31638214 </v>
   <v>       0.00000000       0.25154034       0.31638214 </v>
   <v>       0.00000000       0.00000000       0.93515773 </v>
   <v>       0.49999908       0.12576994       0.93515773 </v>
   <v>       0.00000000       0.25154034       0.93515773 </v>
   <v>       0.00000000       0.31638214       0.00000000 </v>
   <v>       0.49999908       0.31638214       0.12576994 </v>
   <v>       0.00000000       0.31638214       0.25154034 </v>
   <v>       0.00000000       0.93515773       0.00000000 </v>
   <v>       0.49999908       0.93515773       0.12576994 </v>
   <v>       0.00000000       0.93515773       0.25154034 </v>
  </varray>
 </structure>
 <calculation>
  <scstep>
   <time name="dav">    1.96    1.96</time>
   <time name="total">    2.24    2.53</time>
   <energy>
    <i name="alphaZ">      3.50461401 </i>
    <i name="ewald">   4768.58676805 </i>
    <i name="hartreedc">  -5830.58450839 </i>
    <i name="XCdc">    -98.18046116 </i>
    <i name="pawpsdc">    438.08476127 </i>
    <i name="pawaedc">   -209.47942531 </i>
    <i name="eentropy">     -0.22311682 </i>
    <i name="bandstr">   -340.04765862 </i>
    <i name="atom">   1488.62216486 </i>
    <i name="e_fr_energy">    220.28313789 </i>
    <i name="e_wo_entrp">    220.50625471 </i>
    <i name="e_0_energy">    220.39469630 </i>
   </energy>
  </scstep>
  <scstep>
   <time name="dav">    2.18    2.18</time>
   <time name="total">    2.19    2.19</time>
   <energy>
    <i name="e_fr_energy">    -64.27762491 </i>
    <i name="e_wo_entrp">    -64.26451467 </i>
    <i name="e_0_energy">    -64.27106979 </i>
   </energy>
  </scstep>
  <scstep>
   <time name="dav">    1.96    1.96</time>
   <time name="total">    1.96    1.97</time>
   <energy>
    <i name="e_fr_energy">   -103.13710781 </i>
    <i name="e_wo_entrp">   -103.11468558 </i>
    <i name="e_0_energy">   -103.12589669 </i>
   </energy>
  </scstep>
  <scstep>
   <time name="dav">    1.99    1.99</time>
   <time name="total">    1.99    2.01</time>
   <energy>
    <i name="e_fr_energy">   -104.38064904 </i>
    <i name="e_wo_entrp">   -104.35997193 </i>
    <i name="e_0_energy">   -104.37031049 </i>
   </energy>
  </scstep>
  <scstep>
   <time name="dav">    2.25    2.25</time>
   <time name="total">    2.39    2.40</time>
   <energy>
    <i name="e_fr_energy">   -104.42464057 </i>
    <i name="e_wo_entrp">   -104.40410960 </i>
    <i name="e_0_energy">   -104.41437508 </i>
   </energy>
  </scstep>
  <scstep>
   <time name="diag">    0.31    0.31</time>
   <time name="diis">    1.13    1.13</time>
   <time name="orth">    0.04    0.04</time>
   <time name="total">    1.87    1.87</time>
   <energy>
    <i name="e_fr_energy">   -100.05205022 </i>
    <i name="e_wo_entrp">    -99.96785586 </i>
    <i name="e_0_energy">   -100.00995304 </i>
   </energy>
  </scstep>
  <scstep>
   <time name="diag">    0.31    0.31</time>
   <time name="diis">    1.04    1.04</time>
   <time name="orth">    0.04    0.04</time>
   <time name="total">    1.77    1.78</time>
   <energy>
    <i name="e_fr_energy">    -98.32190767 </i>
    <i name="e_wo_entrp">    -98.26847111 </i>
    <i name="e_0_energy">    -98.29518939 </i>
   </energy>
  </scstep>
  <scstep>
   <time name="diag">    0.27    0.27</time>
   <time name="diis">    1.06    1.06</time>
   <time name="orth">    0.04    0.04</time>
   <time name="total">    1.76    1.76</time>
   <energy>
    <i name="e_fr_energy">    -98.26165736 </i>
    <i name="e_wo_entrp">    -98.18962078 </i>
    <i name="e_0_energy">    -98.22563907 </i>
   </energy>
  </scstep>
  <scstep>
   <time name="diag">    0.32    0.32</time>
   <time name="diis">    1.07    1.07</time>
   <time name="orth">    0.04    0.04</time>
   <time name="total">    1.80    1.82</time>
   <energy>
    <i name="e_fr_energy">    -98.21984388 </i>
    <i name="e_wo_entrp">    -98.14698904 </i>
    <i name="e_0_energy">    -98.18341646 </i>
   </energy>
  </scstep>
  <scstep>
   <time name="diag">    0.33    0.33</time>
   <time name="diis">    1.15    1.15</time>
   <time name="orth">    0.05    0.05</time>
   <time name="total">    1.90    1.91</time>
   <energy>
    <i name="e_fr_energy">    -98.21308679 </i>
    <i name="e_wo_entrp">    -98.14450477 </i>
    <i name="e_0_energy">    -98.17879578 </i>
   </energy>
  </scstep>
  <scstep>
   <time name="diag">    0.33    0.33</time>
   <time name="diis">    1.15    1.15</time>
   <time name="orth">    0.04    0.04</time>
   <time name="total">    1.93    1.94</time>
   <energy>
    <i name="e_fr_energy">    -98.21042659 </i>
    <i name="e_wo_entrp">    -98.14154353 </i>
    <i name="e_0_energy">    -98.17598506 </i>
   </energy>
  </scstep>
  <scstep>
   <time name="diag">    0.31    0.31</time>
   <time name="diis">    1.15    1.15</time>
   <time name="orth">    0.04    0.04</time>
   <time name="total">    1.89    1.90</time>
   <energy>
    <i name="e_fr_energy">    -98.21165245 </i>
    <i name="e_wo_entrp">    -98.14182802 </i>
    <i name="e_0_energy">    -98.17674024 </i>
   </energy>
  </scstep>
  <scstep>
   <time name="diag">    0.33    0.33</time>
   <time name="diis">    1.20    1.20</time>
   <time name="orth">    0.04    0.04</time>
   <time name="total">    1.98    2.00</time>
   <energy>
    <i name="e_fr_energy">    -98.21522266 </i>
    <i name="e_wo_entrp">    -98.14578541 </i>
    <i name="e_0_energy">    -98.18050404 </i>
   </energy>
  </scstep>
  <scstep>
   <time name="diag">    0.32    0.32</time>
   <time name="diis">    1.19    1.19</time>
   <time name="orth">    0.04    0.04</time>
   <time name="total">    1.96    1.97</time>
   <energy>
    <i name="e_fr_energy">    -98.21641699 </i>
    <i name="e_wo_entrp">    -98.14761438 </i>
    <i name="e_0_energy">    -98.18201569 </i>
   </energy>
  </scstep>
  <scstep>
   <time name="diag">    0.31    0.31</time>
   <time name="diis">    1.11    1.11</time>
   <time name="orth">    0.04    0.04</time>
   <time name="total">    1.87    1.90</time>
   <energy>
    <i name="e_fr_energy">    -98.21685133 </i>
    <i name="e_wo_entrp">    -98.14753822 </i>
    <i name="e_0_energy">    -98.18219478 </i>
   </energy>
  </scstep>
  <scstep>
   <time name="diag">    0.28    0.28</time>
   <time name="diis">    1.04    1.04</time>
   <time name="orth">    0.04    0.04</time>
   <time name="total">    1.78    1.78</time>
   <energy>
    <i name="e_fr_energy">    -98.21780044 </i>
    <i name="e_wo_entrp">    -98.14855696 </i>
    <i name="e_0_energy">    -98.18317870 </i>
   </energy>
  </scstep>
  <scstep>
   <time name="diag">    0.32    0.32</time>
   <time name="diis">    0.97    0.97</time>
   <time name="orth">    0.04    0.04</time>
   <time name="total">    1.72    1.76</time>
   <energy>
    <i name="e_fr_energy">    -98.21820385 </i>
    <i name="e_wo_entrp">    -98.14911217 </i>
    <i name="e_0_energy">    -98.18365801 </i>
   </energy>
  </scstep>
  <scstep>
   <time name="diag">    0.29    0.29</time>
   <time name="diis">    0.83    0.84</time>
   <time name="orth">    0.04    0.04</time>
   <time name="total">    1.55    1.56</time>
   <energy>
    <i name="e_fr_energy">    -98.21861746 </i>
    <i name="e_wo_entrp">    -98.14944063 </i>
    <i name="e_0_energy">    -98.18402905 </i>
   </energy>
  </scstep>
  <scstep>
   <time name="diag">    0.26    0.26</time>
   <time name="diis">    0.71    0.71</time>
   <time name="orth">    0.04    0.04</time>
   <time name="total">    1.40    1.41</time>
   <energy>
    <i name="e_fr_energy">    -98.21866578 </i>
    <i name="e_wo_entrp">    -98.14946879 </i>
    <i name="e_0_energy">    -98.18406728 </i>
   </energy>
  </scstep>
  <scstep>
   <time name="diag">    0.32    0.32</time>
   <time name="diis">    0.70    0.70</time>
   <time name="orth">    0.04    0.04</time>
   <time name="total">    1.47    1.47</time>
   <energy>
    <i name="e_fr_energy">    -98.21871827 </i>
    <i name="e_wo_entrp">    -98.14953983 </i>
    <i name="e_0_energy">    -98.18412905 </i>
   </energy>
  </scstep>
  <scstep>
   <time name="diag">    0.31    0.31</time>
   <time name="diis">    0.51    0.51</time>
   <time name="orth">    0.04    0.04</time>
   <time name="total">    1.13    1.14</time>
   <energy>
    <i name="alphaZ">      3.50461401 </i>
    <i name="ewald">   4768.58676805 </i>
    <i name="hartreedc">  -5953.54431822 </i>
    <i name="XCdc">    -88.59592825 </i>
    <i name="pawpsdc">    533.61853824 </i>
    <i name="pawaedc">   -306.65537417 </i>
    <i name="eentropy">     -0.06917164 </i>
    <i name="bandstr">   -543.68601725 </i>
    <i name="atom">   1488.62216486 </i>
    <i name="e_fr_energy">    -98.21872437 </i>
    <i name="e_wo_entrp">    -98.14955273 </i>
    <i name="e_0_energy">    -98.18413855 </i>
   </energy>
  </scstep>
  <structure>
   <crystal>
    <varray name="basis" >
     <v>       5.43101000       0.00000000       0.00000000 </v>
     <v>       0.00000000      21.59101000       0.00000000 </v>
     <v>       0.00000000       0.00000000      21.59101000 </v>
    </varray>
    <i name="volume">   2531.78323404 </i>
    <varray name="rec_basis" >
     <v>       0.18412781       0.00000000       0.00000000 </v>
     <v>       0.00000000       0.04631557       0.00000000 </v>
     <v>       0.00000000       0.00000000       0.04631557 </v>
    </varray>
   </crystal>
   <varray name="positions" >
    <v>       0.00000000       0.00000000       0.00000000 </v>
    <v>       0.49999908       0.12576994       0.00000000 </v>
    <v>       0.24999954       0.06288497       0.06288497 </v>
    <v>       0.75000046       0.18865537       0.06288497 </v>
    <v>       0.00000000       0.12576994       0.12576994 </v>
    <v>       0.49999908       0.00000000       0.12576994 </v>
    <v>       0.24999954       0.18865537       0.18865537 </v>
    <v>       0.75000046       0.06288497       0.18865537 </v>
    <v>       0.00000000       0.00000000       0.25154034 </v>
    <v>       0.49999908       0.12576994       0.25154034 </v>
    <v>       0.00000000       0.25154034       0.00000000 </v>
    <v>       0.49999908       0.25154034       0.12576994 </v>
    <v>       0.00000000       0.25154034       0.25154034 </v>
    <v>       0.00000000       0.00000000       0.31638214 </v>
    <v>       0.49999908       0.12576994       0.31638214 </v>
    <v>       0.00000000       0.25154034       0.31638214 </v>
    <v>       0.00000000       0.00000000       0.93515773 </v>
    <v>       0.49999908       0.12576994       0.93515773 </v>
    <v>       0.00000000       0.25154034       0.93515773 </v>
    <v>       0.00000000       0.31638214       0.00000000 </v>
    <v>       0.49999908       0.31638214       0.12576994 </v>
    <v>       0.00000000       0.31638214       0.25154034 </v>
    <v>       0.00000000       0.93515773       0.00000000 </v>
    <v>       0.49999908       0.93515773       0.12576994 </v>
    <v>       0.00000000       0.93515773       0.25154034 </v>
   </varray>
  </structure>
  <varray name="forces" >
   <v>      -0.99231140       2.00454667       2.00454667 </v>
   <v>       0.00000000       0.00000000       2.92474314 </v>
   <v>      -0.06690024      -0.55478349      -0.55478349 </v>
   <v>       0.06690024       0.55478349      -0.55478349 </v>
   <v>       0.00000000       0.00000000       0.00000000 </v>
   <v>       0.00000000       2.92474314       0.00000000 </v>
   <v>      -0.06690024       0.55478349       0.55478349 </v>
   <v>       0.06690024      -0.55478349       0.55478349 </v>
   <v>       0.99231140       2.00454667      -2.00454667 </v>
   <v>       0.00000000       0.00000000      -2.92474314 </v>
   <v>       0.99231140      -2.00454667       2.00454667 </v>
   <v>       0.00000000      -2.92474314       0.00000000 </v>
   <v>      -0.99231140      -2.00454667      -2.00454667 </v>
   <v>      -0.14345287       0.94786127       2.32655891 </v>
   <v>       0.00000000       0.00000000       2.06338918 </v>
   <v>       0.14345287      -0.94786127       2.32655891 </v>
   <v>       0.14345287       0.94786127      -2.32655891 </v>
   <v>       0.00000000       0.00000000      -2.06338918 </v>
   <v>      -0.14345287      -0.94786127      -2.32655891 </v>
   <v>      -0.14345287       2.32655891       0.94786127 </v>
   <v>       0.00000000       2.06338918       0.00000000 </v>
   <v>       0.14345287       2.32655891      -0.94786127 </v>
   <v>       0.14345287      -2.32655891       0.94786127 </v>
   <v>       0.00000000      -2.06338918       0.00000000 </v>
   <v>      -0.14345287      -2.32655891      -0.94786127 </v>
  </varray>
  <varray name="stress" >
   <v>      -4.53898912       0.00000000       0.00000000 </v>
   <v>       0.00000000       3.81634322       0.00000000 </v>
   <v>       0.00000000       0.00000000       3.81634322 </v>
  </varray>
  <energy>
   <i name="e_fr_energy">    -98.21872437 </i>
   <i name="e_wo_entrp">    -98.18413855 </i>
   <i name="e_0_energy">     -0.06917164 </i>
  </energy>
  <time name="totalsc">   42.87   43.49</time>
 </calculation>
 <calculation>
  <scstep>
   <time name="dav">    1.71    1.71</time>
   <time name="total">    2.13    2.14</time>
   <energy>
    <i name="alphaZ">      3.50461401 </i>
    <i name="ewald">   4852.44653044 </i>
    <i name="hartreedc">  -6055.29014737 </i>
    <i name="XCdc">    -89.61676170 </i>
    <i name="pawpsdc">    533.61802662 </i>
    <i name="pawaedc">   -306.65484407 </i>
    <i name="eentropy">     -0.00950887 </i>
    <i name="bandstr">   -524.97969687 </i>
    <i name="atom">   1488.62216486 </i>
    <i name="e_fr_energy">    -98.35962295 </i>
    <i name="e_wo_entrp">    -98.35011408 </i>
    <i name="e_0_energy">    -98.35486851 </i>
   </energy>
  </scstep>
  <scstep>
   <time name="diag">    0.31    0.31</time>
   <time name="diis">    1.17    1.17</time>
   <time name="orth">    0.04    0.04</time>
   <time name="total">    1.91    1.92</time>
   <energy>
    <i name="e_fr_energy">    -98.92914096 </i>
    <i name="e_wo_entrp">    -98.90921290 </i>
    <i name="e_0_energy">    -98.91917693 </i>
   </energy>
  </scstep>
  <scstep>
   <time name="diag">    0.28    0.28</time>
   <time name="diis">    1.17    1.17</time>
   <time name="orth">    0.04    0.04</time>
   <time name="total">    1.90    1.91</time>
   <energy>
    <i name="e_fr_energy">    -99.02184001 </i>
    <i name="e_wo_entrp">    -98.99949770 </i>
    <i name="e_0_energy">    -99.01066885 </i>
   </energy>
  </scstep>
  <scstep>
   <time name="diag">    0.33    0.33</time>
   <time name="diis">    1.11    1.11</time>
   <time name="orth">    0.05    0.05</time>
   <time name="total">    1.89    1.90</time>
   <energy>
    <i name="e_fr_energy">    -98.87292828 </i>
    <i name="e_wo_entrp">    -98.85817821 </i>
    <i name="e_0_energy">    -98.86555325 </i>
   </energy>
  </scstep>
  <scstep>
   <time name="diag">    0.33    0.33</time>
   <time name="diis">    1.17    1.17</time>
   <time name="orth">    0.04    0.04</time>
   <time name="total">    1.91    1.92</time>
   <energy>
    <i name="e_fr_energy">    -98.87121599 </i>
    <i name="e_wo_entrp">    -98.85650366 </i>
    <i name="e_0_energy">    -98.86385983 </i>
   </energy>
  </scstep>
  <scstep>
   <time name="diag">    0.32    0.32</time>
   <time name="diis">    1.05    1.05</time>
   <time name="orth">    0.03    0.03</time>
   <time name="total">    1.79    1.80</time>
   <energy>
    <i name="e_fr_energy">    -98.87257279 </i>
    <i name="e_wo_entrp">    -98.85735092 </i>
    <i name="e_0_energy">    -98.86496185 </i>
   </energy>
  </scstep>
  <scstep>
   <time name="diag">    0.27    0.27</time>
   <time name="diis">    1.04    1.04</time>
   <time name="orth">    0.04    0.04</time>
   <time name="total">    1.76    1.76</time>
   <energy>
    <i name="e_fr_energy">    -98.87278027 </i>
    <i name="e_wo_entrp">    -98.85780217 </i>
    <i name="e_0_energy">    -98.86529122 </i>
   </energy>
  </scstep>
  <scstep>
   <time name="diag">    0.33    0.33</time>
   <time name="diis">    1.06    1.06</time>
   <time name="orth">    0.04    0.04</time>
   <time name="total">    1.84    1.84</time>
   <energy>
    <i name="e_fr_energy">    -98.87315069 </i>
    <i name="e_wo_entrp">    -98.85829826 </i>
    <i name="e_0_energy">    -98.86572447 </i>
   </energy>
  </scstep>
  <scstep>
   <time name="diag">    0.34    0.34</time>
   <time name="diis">    1.06    1.06</time>
   <time name="orth">    0.04    0.04</time>
   <time name="total">    1.86    1.86</time>
   <energy>
    <i name="e_fr_energy">    -98.87331549 </i>
    <i name="e_wo_entrp">    -98.85835472 </i>
    <i name="e_0_energy">    -98.86583511 </i>
   </energy>
  </scstep>
  <scstep>
   <time name="diag">    0.34    0.34</time>
   <time name="diis">    1.03    1.03</time>
   <time name="orth">    0.04    0.04</time>
   <time name="total">    1.83    1.84</time>
   <energy>
    <i name="e_fr_energy">    -98.87337810 </i>
    <i name="e_wo_entrp">    -98.85847878 </i>
    <i name="e_0_energy">    -98.86592844 </i>
   </energy>
  </scstep>
  <scstep>
   <time name="diag">    0.35    0.35</time>
   <time name="diis">    0.84    0.84</time>
   <time name="orth">    0.04    0.04</time>
   <time name="total">    1.68    1.68</time>
   <energy>
    <i name="e_fr_energy">    -98.87344630 </i>
    <i name="e_wo_entrp">    -98.85855965 </i>
    <i name="e_0_energy">    -98.86600297 </i>
   </energy>
  </scstep>
  <scstep>
   <time name="diag">    0.33    0.33</time>
   <time name="diis">    0.81    0.81</time>
   <time name="orth">    0.04    0.04</time>
   <time name="total">    1.60    1.61</time>
   <energy>
    <i name="e_fr_energy">    -98.87351523 </i>
    <i name="e_wo_entrp">    -98.85861210 </i>
    <i name="e_0_energy">    -98.86606367 </i>
   </energy>
  </scstep>
  <scstep>
   <time name="diag">    0.30    0.30</time>
   <time name="diis">    0.74    0.74</time>
   <time name="orth">    0.04    0.04</time>
   <time name="total">    1.52    1.53</time>
   <energy>
    <i name="e_fr_energy">    -98.87353584 </i>
    <i name="e_wo_entrp">    -98.85863170 </i>
    <i name="e_0_energy">    -98.86608377 </i>
   </energy>
  </scstep>
  <scstep>
   <time name="diag">    0.32    0.32</time>
   <time name="diis">    0.67    0.67</time>
   <time name="orth">    0.04    0.04</time>
   <time name="total">    1.47    1.47</time>
   <energy>
    <i name="e_fr_energy">    -98.87354607 </i>
    <i name="e_wo_entrp">    -98.85863463 </i>
    <i name="e_0_energy">    -98.86609035 </i>
   </energy>
  </scstep>
  <scstep>
   <time name="diag">    0.34    0.34</time>
   <time name="diis">    0.53    0.53</time>
   <time name="orth">    0.04    0.04</time>
   <time name="total">    1.20    1.20</time>
   <energy>
    <i name="alphaZ">      3.50461401 </i>
    <i name="ewald">   4852.44653044 </i>
    <i name="hartreedc">  -6032.95236147 </i>
    <i name="XCdc">    -91.07795899 </i>
    <i name="pawpsdc">    507.72636580 </i>
    <i name="pawaedc">   -280.42054789 </i>
    <i name="eentropy">     -0.01491425 </i>
    <i name="bandstr">   -546.70744326 </i>
    <i name="atom">   1488.62216486 </i>
    <i name="e_fr_energy">    -98.87355074 </i>
    <i name="e_wo_entrp">    -98.85863649 </i>
    <i name="e_0_energy">    -98.86609362 </i>
   </energy>
  </scstep>
  <structure>
   <crystal>
    <varray name="basis" >
     <v>       5.43101000       0.00000000       0.00000000 </v>
     <v>       0.00000000      21.59101000       0.00000000 </v>
     <v>       0.00000000       0.00000000      21.59101000 </v>
    </varray>
    <i name="volume">   2531.78323404 </i>
    <varray name="rec_basis" >
     <v>       0.18412781       0.00000000       0.00000000 </v>
     <v>       0.00000000       0.04631557       0.00000000 </v>
     <v>       0.00000000       0.00000000       0.04631557 </v>
    </varray>
   </crystal>
   <varray name="positions" >
    <v>      -0.00881452       0.00447893       0.00447893 </v>
    <v>       0.49999908       0.12576994       0.00653501 </v>
    <v>       0.24940528       0.06164537       0.06164537 </v>
    <v>       0.75059472       0.18989497       0.06164537 </v>
    <v>       0.00000000       0.12576994       0.12576994 </v>
    <v>       0.49999908       0.00653501       0.12576994 </v>
    <v>       0.24940528       0.18989497       0.18989497 </v>
    <v>       0.75059472       0.06164537       0.18989497 </v>
    <v>       0.00881452       0.00447893       0.24706141 </v>
    <v>       0.49999908       0.12576994       0.24500533 </v>
    <v>       0.00881452       0.24706141       0.00447893 </v>
    <v>       0.49999908       0.24500533       0.12576994 </v>
    <v>      -0.00881452       0.24706141       0.24706141 </v>
    <v>      -0.00127427       0.00211789       0.32158057 </v>
    <v>       0.49999908       0.12576994       0.32099255 </v>
    <v>       0.00127427       0.24942245       0.32158057 </v>
    <v>       0.00127427       0.00211789       0.92995930 </v>
    <v>       0.49999908       0.12576994       0.93054733 </v>
    <v>      -0.00127427       0.24942245       0.92995930 </v>
    <v>      -0.00127427       0.32158057       0.00211789 </v>
    <v>       0.49999908       0.32099255       0.12576994 </v>
    <v>       0.00127427       0.32158057       0.24942245 </v>
    <v>       0.00127427       0.92995930       0.00211789 </v>
    <v>       0.49999908       0.93054733       0.12576994 </v>
    <v>      -0.00127427       0.92995930       0.24942245 </v>
   </varray>
  </structure>
  <varray name="forces" >
   <v>      -1.65254117      -2.05341389      -2.05341389 </v>
   <v>       0.00000000       0.00000000      -1.98906461 </v>
   <v>      -0.23165318       0.44578205       0.44578205 </v>
   <v>       0.23165318      -0.44578205       0.44578205 </v>
   <v>       0.00000000       0.00000000       0.00000000 </v>
   <v>       0.00000000      -1.98906461       0.00000000 </v>
   <v>      -0.23165318      -0.44578205      -0.44578205 </v>
   <v>       0.23165318       0.44578205      -0.44578205 </v>
   <v>       1.65254117      -2.05341389       2.05341389 </v>
   <v>       0.00000000       0.00000000       1.98906461 </v>
   <v>       1.65254117       2.05341389      -2.05341389 </v>
   <v>       0.00000000       1.98906461       0.00000000 </v>
   <v>      -1.65254117       2.05341389       2.05341389 </v>
   <v>      -0.07876981       0.79199028      -1.19358269 </v>
   <v>       0.00000000       0.00000000      -1.72295406 </v>
   <v>       0.07876981      -0.79199028      -1.19358269 </v>
   <v>       0.07876981       0.79199028       1.19358269 </v>
   <v>       0.00000000       0.00000000       1.72295406 </v>
   <v>      -0.07876981      -0.79199028       1.19358269 </v>
   <v>      -0.07876981      -1.19358269       0.79199028 </v>
   <v>       0.00000000      -1.72295406       0.00000000 </v>
   <v>       0.07876981      -1.19358269      -0.79199028 </v>
   <v>       0.07876981       1.19358269       0.79199028 </v>
   <v>       0.00000000       1.72295406       0.00000000 </v>
   <v>      -0.07876981       1.19358269      -0.79199028 </v>
  </varray>
  <varray name="stress" >
   <v>       0.99541074       0.00000000       0.00000000 </v>
   <v>       0.00000000     -10.88919192       0.00000000 </v>
   <v>       0.00000000      -0.00000000     -10.88919192 </v>
  </varray>
  <energy>
   <i name="e_fr_energy">    -98.87355074 </i>
   <i name="e_wo_entrp">    -98.86609362 </i>
   <i name="e_0_energy">     -0.01491425 </i>
  </energy>
  <time name="totalsc">   29.31   29.41</time>
 </calculation>
 <calculation>
  <scstep>
   <time name="dav">    1.60    1.60</time>
   <time name="total">    2.00    2.02</time>
   <energy>
    <i name="alphaZ">      3.50461401 </i>
    <i name="ewald">   4800.76326423 </i>
    <i name="hartreedc">  -5978.11056190 </i>
    <i name="XCdc">    -90.89282884 </i>
    <i name="pawpsdc">    507.72740700 </i>
    <i name="pawaedc">   -280.42159746 </i>
    <i name="eentropy">     -0.03033595 </i>
    <i name="bandstr">   -551.49099945 </i>
    <i name="atom">   1488.62216486 </i>
    <i name="e_fr_energy">   -100.32887350 </i>
    <i name="e_wo_entrp">   -100.29853755 </i>
    <i name="e_0_energy">   -100.31370552 </i>
   </energy>
  </scstep>
  <scstep>
   <time name="diag">    0.32    0.32</time>
   <time name="diis">    1.06    1.06</time>
   <time name="orth">    0.04    0.04</time>
   <time name="total">    1.84    1.85</time>
   <energy>
    <i name="e_fr_energy">   -100.47657773 </i>
    <i name="e_wo_entrp">   -100.45336971 </i>
    <i name="e_0_energy">   -100.46497372 </i>
   </energy>
  </scstep>
  <scstep>
   <time name="diag">    0.34    0.35</time>
   <time name="diis">    1.15    1.15</time>
   <time name="orth">    0.04    0.04</time>
   <time name="total">    1.97    1.97</time>
   <energy>
    <i name="e_fr_energy">   -100.45714234 </i>
    <i name="e_wo_entrp">   -100.43252587 </i>
    <i name="e_0_energy">   -100.44483411 </i>
   </energy>
  </scstep>
  <scstep>
   <time name="diag">    0.34    0.34</time>
   <time name="diis">    1.14    1.15</time>
   <time name="orth">    0.04    0.04</time>
   <time name="total">    1.96    1.97</time>
   <energy>
    <i name="e_fr_energy">   -100.45572679 </i>
    <i name="e_wo_entrp">   -100.42723210 </i>
    <i name="e_0_energy">   -100.44147945 </i>
   </energy>
  </scstep>
  <scstep>
   <time name="diag">    0.35    0.35</time>
   <time name="diis">    1.14    1.14</time>
   <time name="orth">    0.04    0.04</time>
   <time name="total">    1.96    1.97</time>
   <energy>
    <i name="e_fr_energy">   -100.45568718 </i>
    <i name="e_wo_entrp">   -100.42773098 </i>
    <i name="e_0_energy">   -100.44170908 </i>
   </energy>
  </scstep>
  <scstep>
   <time name="diag">    0.34    0.34</time>
   <time name="diis">    1.22    1.22</time>
   <time name="orth">    0.04    0.04</time>
   <time name="total">    2.04    2.04</time>
   <energy>
    <i name="e_fr_energy">   -100.45649997 </i>
    <i name="e_wo_entrp">   -100.42849042 </i>
    <i name="e_0_energy">   -100.44249520 </i>
   </energy>
  </scstep>
  <scstep>
   <time name="diag">    0.34    0.34</time>
   <time name="diis">    1.09    1.09</time>
   <time name="orth">    0.04    0.04</time>
   <time name="total">    1.89    1.90</time>
   <energy>
    <i name="e_fr_energy">   -100.45671495 </i>
    <i name="e_wo_entrp">   -100.42880569 </i>
    <i name="e_0_energy">   -100.44276032 </i>
   </energy>
  </scstep>
  <scstep>
   <time name="diag">    0.31    0.31</time>
   <time name="diis">    0.88    0.88</time>
   <time name="orth">    0.04    0.04</time>
   <time name="total">    1.65    1.66</time>
   <energy>
    <i name="e_fr_energy">   -100.45674389 </i>
    <i name="e_wo_entrp">   -100.42892745 </i>
    <i name="e_0_energy">   -100.44283567 </i>
   </energy>
  </scstep>
  <scstep>
   <time name="diag">    0.32    0.32</time>
   <time name="diis">    0.91    0.91</time>
   <time name="orth">    0.04    0.04</time>
   <time name="total">    1.68    1.69</time>
   <energy>
    <i name="e_fr_energy">   -100.45680947 </i>
    <i name="e_wo_entrp">   -100.42902729 </i>
    <i name="e_0_energy">   -100.44291838 </i>
   </energy>
  </scstep>
  <scstep>
   <time name="diag">    0.32    0.32</time>
   <time name="diis">    0.73    0.73</time>
   <time name="orth">    0.04    0.04</time>
   <time name="total">    1.51    1.52</time>
   <energy>
    <i name="e_fr_energy">   -100.45683018 </i>
    <i name="e_wo_entrp">   -100.42898928 </i>
    <i name="e_0_energy">   -100.44290973 </i>
   </energy>
  </scstep>
  <scstep>
   <time name="diag">    0.33    0.33</time>
   <time name="diis">    0.70    0.70</time>
   <time name="orth">    0.04    0.04</time>
   <time name="total">    1.52    1.52</time>
   <energy>
    <i name="e_fr_energy">   -100.45684276 </i>
    <i name="e_wo_entrp">   -100.42900425 </i>
    <i name="e_0_energy">   -100.44292350 </i>
   </energy>
  </scstep>
  <scstep>
   <time name="diag">    0.28    0.28</time>
   <time name="diis">    0.62    0.62</time>
   <time name="orth">    0.04    0.04</time>
   <time name="total">    1.43    1.44</time>
   <energy>
    <i name="e_fr_energy">   -100.45685460 </i>
    <i name="e_wo_entrp">   -100.42902299 </i>
    <i name="e_0_energy">   -100.44293880 </i>
   </energy>
  </scstep>
  <scstep>
   <time name="diag">    0.32    0.32</time>
   <time name="diis">    0.54    0.54</time>
   <time name="orth">    0.04    0.04</time>
   <time name="total">    1.19    1.20</time>
   <energy>
    <i name="alphaZ">      3.50461401 </i>
    <i name="ewald">   4800.76326423 </i>
    <i name="hartreedc">  -5987.46573740 </i>
    <i name="XCdc">    -90.33307101 </i>
    <i name="pawpsdc">    513.13617092 </i>
    <i name="pawaedc">   -285.85769368 </i>
    <i name="eentropy">     -0.02783582 </i>
    <i name="bandstr">   -542.79873381 </i>
    <i name="atom">   1488.62216486 </i>
    <i name="e_fr_energy">   -100.45685769 </i>
    <i name="e_wo_entrp">   -100.42902188 </i>
    <i name="e_0_energy">   -100.44293979 </i>
   </energy>
  </scstep>
  <structure>
   <crystal>
    <varray name="basis" >
     <v>       5.43101000       0.00000000       0.00000000 </v>
     <v>       0.00000000      21.59101000       0.00000000 </v>
     <v>       0.00000000       0.00000000      21.59101000 </v>
    </varray>
    <i name="volume">   2531.78323404 </i>
    <varray name="rec_basis" >
     <v>       0.18412781       0.00000000       0.00000000 </v>
     <v>       0.00000000       0.04631557       0.00000000 </v>
     <v>       0.00000000       0.00000000       0.04631557 </v>
    </varray>
   </crystal>
   <varray name="positions" >
    <v>      -0.01708053       0.00189532       0.00189532 </v>
    <v>       0.49999908       0.12576994       0.00403236 </v>
    <v>       0.24824655       0.06220625       0.06220625 </v>
    <v>       0.75175345       0.18933409       0.06220625 </v>
    <v>       0.00000000       0.12576994       0.12576994 </v>
    <v>       0.49999908       0.00403236       0.12576994 </v>
    <v>       0.24824655       0.18933409       0.18933409 </v>
    <v>       0.75175345       0.06220625       0.18933409 </v>
    <v>       0.01708053       0.00189532       0.24964502 </v>
    <v>       0.49999908       0.12576994       0.24750798 </v>
    <v>       0.01708053       0.24964502       0.00189532 </v>
    <v>       0.49999908       0.24750798       0.12576994 </v>
    <v>      -0.01708053       0.24964502       0.24964502 </v>
    <v>      -0.00166827       0.00311437       0.32007880 </v>
    <v>       0.49999908       0.12576994       0.31882472 </v>
    <v>       0.00166827       0.24842597       0.32007880 </v>
    <v>       0.00166827       0.00311437       0.93146107 </v>
    <v>       0.49999908       0.12576994       0.93271515 </v>
    <v>      -0.00166827       0.24842597       0.93146107 </v>
    <v>      -0.00166827       0.32007880       0.00311437 </v>
    <v>       0.49999908       0.31882472       0.12576994 </v>
    <v>       0.00166827       0.32007880       0.24842597 </v>
    <v>       0.00166827       0.93146107       0.00311437 </v>
    <v>       0.49999908       0.93271515       0.12576994 </v>
    <v>      -0.00166827       0.93146107       0.24842597 </v>
   </varray>
  </structure>
  <varray name="forces" >
   <v>      -0.91336237      -0.32225908      -0.32225908 </v>
   <v>       0.00000000      -0.00000000      -0.38336402 </v>
   <v>      -0.49208920      -0.22948167      -0.22948167 </v>
   <v>       0.49208920       0.22948167      -0.22948167 </v>
   <v>       0.00000000      -0.00000000      -0.00000000 </v>
   <v>       0.00000000      -0.38336402      -0.00000000 </v>
   <v>      -0.49208920       0.22948167       0.22948167 </v>
   <v>       0.49208920      -0.22948167       0.22948167 </v>
   <v>       0.91336237      -0.32225908       0.32225908 </v>
   <v>       0.00000000      -0.00000000       0.38336402 </v>
   <v>       0.91336237       0.32225908      -0.32225908 </v>
   <v>       0.00000000       0.38336402      -0.00000000 </v>
   <v>      -0.91336237       0.32225908       0.32225908 </v>
   <v>      -0.06033391       0.63588236      -0.18928103 </v>
   <v>       0.00000000      -0.00000000      -0.61444231 </v>
   <v>       0.06033391      -0.63588236      -0.18928103 </v>
   <v>       0.06033391       0.63588236       0.18928103 </v>
   <v>       0.00000000      -0.00000000       0.61444231 </v>
   <v>      -0.06033391      -0.63588236       0.18928103 </v>
   <v>      -0.06033391      -0.18928103       0.63588236 </v>
   <v>       0.00000000      -0.61444231      -0.00000000 </v>
   <v>       0.06033391      -0.18928103      -0.63588236 </v>
   <v>       0.06033391       0.18928103       0.63588236 </v>
   <v>       0.00000000       0.61444231      -0.00000000 </v>
   <v>      -0.06033391       0.18928103      -0.63588236 </v>
  </varray>
  <varray name="stress" >
   <v>      -2.34554299       0.00000000       0.00000000 </v>
   <v>       0.00000000      -7.57692024       0.00000000 </v>
   <v>       0.00000000       0.00000000      -7.57692024 </v>
  </varray>
  <energy>
   <i name="e_fr_energy">   -100.45685769 </i>
   <i name="e_wo_entrp">   -100.44293979 </i>
   <i name="e_0_energy">     -0.02783582 </i>
  </energy>
  <time name="totalsc">   25.80   25.89</time>
 </calculation>
 <calculation>
  <scstep>
   <time name="dav">    1.71    1.71</time>
   <time name="total">    2.11    2.11</time>
   <energy>
    <i name="alphaZ">      3.50461401 </i>
    <i name="ewald">   4784.93279387 </i>
    <i name="hartreedc">  -5971.41871759 </i>
    <i name="XCdc">    -90.34486587 </i>
    <i name="pawpsdc">    513.13473901 </i>
    <i name="pawaedc">   -285.85618536 </i>
    <i name="eentropy">     -0.02225758 </i>
    <i name="bandstr">   -543.43715869 </i>
    <i name="atom">   1488.62216486 </i>
    <i name="e_fr_energy">   -100.88487335 </i>
    <i name="e_wo_entrp">   -100.86261577 </i>
    <i name="e_0_energy">   -100.87374456 </i>
   </energy>
  </scstep>
  <scstep>
   <time name="diag">    0.30    0.30</time>
   <time name="diis">    1.06    1.06</time>
   <time name="orth">    0.04    0.04</time>
   <time name="total">    1.83    1.83</time>
   <energy>
    <i name="e_fr_energy">   -100.90990493 </i>
    <i name="e_wo_entrp">   -100.88376413 </i>
    <i name="e_0_energy">   -100.89683453 </i>
   </energy>
  </scstep>
  <scstep>
   <time name="diag">    0.34    0.34</time>
   <time name="diis">    1.03    1.03</time>
   <time name="orth">    0.04    0.04</time>
   <time name="total">    1.85    1.86</time>
   <energy>
    <i name="e_fr_energy">   -100.90983706 </i>
    <i name="e_wo_entrp">   -100.88619596 </i>
    <i name="e_0_energy">   -100.89801651 </i>
   </energy>
  </scstep>
  <scstep>
   <time name="diag">    0.32    0.32</time>
   <time name="diis">    1.06    1.06</time>
   <time name="orth">    0.04    0.04</time>
   <time name="total">    1.86    1.87</time>
   <energy>
    <i name="e_fr_energy">   -100.91022425 </i>
    <i name="e_wo_entrp">   -100.88622616 </i>
    <i name="e_0_energy">   -100.89822521 </i>
   </energy>
  </scstep>
  <scstep>
   <time name="diag">    0.34    0.34</time>
   <time name="diis">    1.19    1.20</time>
   <time name="orth">    0.04    0.04</time>
   <time name="total">    2.04    2.04</time>
   <energy>
    <i name="e_fr_energy">   -100.91046516 </i>
    <i name="e_wo_entrp">   -100.88563544 </i>
    <i name="e_0_energy">   -100.89805030 </i>
   </energy>
  </scstep>
  <scstep>
   <time name="diag">    0.34    0.34</time>
   <time name="diis">    1.11    1.12</time>
   <time name="orth">    0.04    0.04</time>
   <time name="total">    1.95    1.97</time>
   <energy>
    <i name="e_fr_energy">   -100.91018870 </i>
    <i name="e_wo_entrp">   -100.88528908 </i>
    <i name="e_0_energy">   -100.89773889 </i>
   </energy>
  </scstep>
  <scstep>
   <time name="diag">    0.34    0.34</time>
   <time name="diis">    1.07    1.07</time>
   <time name="orth">    0.05    0.05</time>
   <time name="total">    1.92    1.92</time>
   <energy>
    <i name="e_fr_energy">   -100.91022839 </i>
    <i name="e_wo_entrp">   -100.88547083 </i>
    <i name="e_0_energy">   -100.89784961 </i>
   </energy>
  </scstep>
  <scstep>
   <time name="diag">    0.33    0.33</time>
   <time name="diis">    0.82    0.82</time>
   <time name="orth">    0.04    0.04</time>
   <time name="total">    1.65    1.65</time>
   <energy>
    <i name="e_fr_energy">   -100.91030816 </i>
    <i name="e_wo_entrp">   -100.88556975 </i>
    <i name="e_0_energy">   -100.89793896 </i>
   </energy>
  </scstep>
  <scstep>
   <time name="diag">    0.29    0.29</time>
   <time name="diis">    0.75    0.75</time>
   <time name="orth">    0.04    0.04</time>
   <time name="total">    1.59    1.59</time>
   <energy>
    <i name="e_fr_energy">   -100.91031870 </i>
    <i name="e_wo_entrp">   -100.88557721 </i>
    <i name="e_0_energy">   -100.89794795 </i>
   </energy>
  </scstep>
  <scstep>
   <time name="diag">    0.35    0.35</time>
   <time name="diis">    0.66    0.66</time>
   <time name="orth">    0.04    0.04</time>
   <time name="total">    1.33    1.35</time>
   <energy>
    <i name="alphaZ">      3.50461401 </i>
    <i name="ewald">   4784.93279387 </i>
    <i name="hartreedc">  -5973.64154394 </i>
    <i name="XCdc">    -90.22469236 </i>
    <i name="pawpsdc">    514.24503819 </i>
    <i name="pawaedc">   -286.96200150 </i>
    <i name="eentropy">     -0.02474524 </i>
    <i name="bandstr">   -541.36195496 </i>
    <i name="atom">   1488.62216486 </i>
    <i name="e_fr_energy">   -100.91032706 </i>
    <i name="e_wo_entrp">   -100.88558182 </i>
    <i name="e_0_energy">   -100.89795444 </i>
   </energy>
  </scstep>
  <structure>
   <crystal>
    <varray name="basis" >
     <v>       5.43101000       0.00000000       0.00000000 </v>
     <v>       0.00000000      21.59101000       0.00000000 </v>
     <v>       0.00000000       0.00000000      21.59101000 </v>
    </varray>
    <i name="volume">   2531.78323404 </i>
    <varray name="rec_basis" >
     <v>       0.18412781       0.00000000       0.00000000 </v>
     <v>       0.00000000       0.04631557       0.00000000 </v>
     <v>       0.00000000       0.00000000       0.04631557 </v>
    </varray>
   </crystal>
   <varray name="positions" >
    <v>      -0.02624893       0.00144335       0.00144335 </v>
    <v>       0.49999908       0.12576994       0.00338307 </v>
    <v>       0.24266271       0.06141500       0.06141500 </v>
    <v>       0.75733729       0.19012534       0.06141500 </v>
    <v>       0.00000000       0.12576994       0.12576994 </v>
    <v>       0.49999908       0.00338307       0.12576994 </v>
    <v>       0.24266271       0.19012534       0.19012534 </v>
    <v>       0.75733729       0.06141500       0.19012534 </v>
    <v>       0.02624893       0.00144335       0.25009699 </v>
    <v>       0.49999908       0.12576994       0.24815727 </v>
    <v>       0.02624893       0.25009699       0.00144335 </v>
    <v>       0.49999908       0.24815727       0.12576994 </v>
    <v>      -0.02624893       0.25009699       0.25009699 </v>
    <v>      -0.00230363       0.00480816       0.31981026 </v>
    <v>       0.49999908       0.12576994       0.31742364 </v>
    <v>       0.00230363       0.24673218       0.31981026 </v>
    <v>       0.00230363       0.00480816       0.93172962 </v>
    <v>       0.49999908       0.12576994       0.93411623 </v>
    <v>      -0.00230363       0.24673218       0.93172962 </v>
    <v>      -0.00230363       0.31981026       0.00480816 </v>
    <v>       0.49999908       0.31742364       0.12576994 </v>
    <v>       0.00230363       0.31981026       0.24673218 </v>
    <v>       0.00230363       0.93172962       0.00480816 </v>
    <v>       0.49999908       0.93411623       0.12576994 </v>
    <v>      -0.00230363       0.93172962       0.24673218 </v>
   </varray>
  </structure>
  <varray name="forces" >
   <v>      -0.78009922      -0.06700774      -0.06700774 </v>
   <v>      -0.00000000      -0.00000000       0.55191334 </v>
   <v>      -0.21558667      -0.14077402      -0.14077402 </v>
   <v>       0.21558667       0.14077402      -0.14077402 </v>
   <v>      -0.00000000      -0.00000000       0.00000000 </v>
   <v>      -0.00000000       0.55191334       0.00000000 </v>
   <v>      -0.21558667       0.14077402       0.14077402 </v>
   <v>       0.21558667      -0.14077402       0.14077402 </v>
   <v>       0.78009922      -0.06700774       0.06700774 </v>
   <v>      -0.00000000      -0.00000000      -0.55191334 </v>
   <v>       0.78009922       0.06700774      -0.06700774 </v>
   <v>      -0.00000000      -0.55191334       0.00000000 </v>
   <v>      -0.78009922       0.06700774       0.06700774 </v>
   <v>      -0.02153624       0.49759298      -0.07322784 </v>
   <v>      -0.00000000      -0.00000000       0.08426265 </v>
   <v>       0.02153624      -0.49759298      -0.07322784 </v>
   <v>       0.02153624       0.49759298       0.07322784 </v>
   <v>      -0.00000000      -0.00000000      -0.08426265 </v>
   <v>      -0.02153624      -0.49759298       0.07322784 </v>
   <v>      -0.02153624      -0.07322784       0.49759298 </v>
   <v>      -0.00000000       0.08426265       0.00000000 </v>
   <v>       0.02153624      -0.07322784      -0.49759298 </v>
   <v>       0.02153624       0.07322784       0.49759298 </v>
   <v>      -0.00000000      -0.08426265       0.00000000 </v>
   <v>      -0.02153624       0.07322784      -0.49759298 </v>
  </varray>
  <varray name="stress" >
   <v>      -3.43649097      -0.00000000      -0.00000000 </v>
   <v>       0.00000000      -6.89164872       0.00000000 </v>
   <v>       0.00000000       0.00000000      -6.89164872 </v>
  </varray>
  <energy>
   <i name="e_fr_energy">   -100.91032706 </i>
   <i name="e_wo_entrp">   -100.89795444 </i>
   <i name="e_0_energy">     -0.02474524 </i>
  </energy>
  <time name="totalsc">   21.27   21.34</time>
 </calculation>
 <calculation>
  <scstep>
   <time name="dav">    1.56    1.56</time>
   <time name="total">    1.94    1.95</time>
   <energy>
    <i name="alphaZ">      3.50461401 </i>
    <i name="ewald">   4787.32397476 </i>
    <i name="hartreedc">  -5977.32947858 </i>
    <i name="XCdc">    -90.28366198 </i>
    <i name="pawpsdc">    514.24496735 </i>
    <i name="pawaedc">   -286.96197383 </i>
    <i name="eentropy">     -0.01099682 </i>
    <i name="bandstr">   -540.41049092 </i>
    <i name="atom">   1488.62216486 </i>
    <i name="e_fr_energy">   -101.30088116 </i>
    <i name="e_wo_entrp">   -101.28988434 </i>
    <i name="e_0_energy">   -101.29538275 </i>
   </energy>
  </scstep>
  <scstep>
   <time name="diag">    0.33    0.33</time>
   <time name="diis">    1.09    1.09</time>
   <time name="orth">    0.04    0.04</time>
   <time name="total">    1.92    2.01</time>
   <energy>
    <i name="e_fr_energy">   -101.31972109 </i>
    <i name="e_wo_entrp">   -101.30521089 </i>
    <i name="e_0_energy">   -101.31246599 </i>
   </energy>
  </scstep>
  <scstep>
   <time name="diag">    0.31    0.31</time>
   <time name="diis">    1.07    1.07</time>
   <time name="orth">    0.04    0.04</time>
   <time name="total">    1.94    1.94</time>
   <energy>
    <i name="e_fr_energy">   -101.32162199 </i>
    <i name="e_wo_entrp">   -101.30557685 </i>
    <i name="e_0_energy">   -101.31359942 </i>
   </energy>
  </scstep>
  <scstep>
   <time name="diag">    0.33    0.33</time>
   <time name="diis">    1.09    1.09</time>
   <time name="orth">    0.04    0.04</time>
   <time name="total">    1.93    2.59</time>
   <energy>
    <i name="e_fr_energy">   -101.32031216 </i>
    <i name="e_wo_entrp">   -101.30649076 </i>
    <i name="e_0_energy">   -101.31340146 </i>
   </energy>
  </scstep>
  <scstep>
   <time name="diag">    0.32    0.32</time>
   <time name="diis">    1.20    1.20</time>
   <time name="orth">    0.04    0.04</time>
   <time name="total">    2.01    2.01</time>
   <energy>
    <i name="e_fr_energy">   -101.32105799 </i>
    <i name="e_wo_entrp">   -101.30721426 </i>
    <i name="e_0_energy">   -101.31413612 </i>
   </energy>
  </scstep>
  <scstep>
   <time name="diag">    0.26    0.26</time>
   <time name="diis">    1.13    1.13</time>
   <time name="orth">    0.04    0.04</time>
   <time name="total">    1.92    1.93</time>
   <energy>
    <i name="e_fr_energy">   -101.32077306 </i>
    <i name="e_wo_entrp">   -101.30706533 </i>
    <i name="e_0_energy">   -101.31391919 </i>
   </energy>
  </scstep>
  <scstep>
   <time name="diag">    0.32    0.32</time>
   <time name="diis">    1.13    1.13</time>
   <time name="orth">    0.04    0.04</time>
   <time name="total">    2.01    2.01</time>
   <energy>
    <i name="e_fr_energy">   -101.32083059 </i>
    <i name="e_wo_entrp">   -101.30706485 </i>
    <i name="e_0_energy">   -101.31394772 </i>
   </energy>
  </scstep>
  <scstep>
   <time name="diag">    0.34    0.34</time>
   <time name="diis">    0.74    0.74</time>
   <time name="orth">    0.04    0.04</time>
   <time name="total">    1.66    1.66</time>
   <energy>
    <i name="e_fr_energy">   -101.32084477 </i>
    <i name="e_wo_entrp">   -101.30701166 </i>
    <i name="e_0_energy">   -101.31392822 </i>
   </energy>
  </scstep>
  <scstep>
   <time name="diag">    0.33    0.33</time>
   <time name="diis">    0.79    0.79</time>
   <time name="orth">    0.04    0.04</time>
   <time name="total">    1.44    1.45</time>
   <energy>
    <i name="alphaZ">      3.50461401 </i>
    <i name="ewald">   4787.32397476 </i>
    <i name="hartreedc">  -5978.05611593 </i>
    <i name="XCdc">    -90.31201365 </i>
    <i name="pawpsdc">    513.22449829 </i>
    <i name="pawaedc">   -285.91036281 </i>
    <i name="eentropy">     -0.01381675 </i>
    <i name="bandstr">   -539.70379471 </i>
    <i name="atom">   1488.62216486 </i>
    <i name="e_fr_energy">   -101.32085193 </i>
    <i name="e_wo_entrp">   -101.30703518 </i>
    <i name="e_0_energy">   -101.31394356 </i>
   </energy>
  </scstep>
  <structure>
   <crystal>
    <varray name="basis" >
     <v>       5.43101000       0.00000000       0.00000000 </v>
     <v>       0.00000000      21.59101000       0.00000000 </v>
     <v>       0.00000000       0.00000000      21.59101000 </v>
    </varray>
    <i name="volume">   2531.78323404 </i>
    <varray name="rec_basis" >
     <v>       0.18412781       0.00000000       0.00000000 </v>
     <v>       0.00000000       0.04631557       0.00000000 </v>
     <v>       0.00000000       0.00000000       0.04631557 </v>
    </varray>
   </crystal>
   <varray name="positions" >
    <v>      -0.03903373       0.00095277       0.00095277 </v>
    <v>       0.49999908       0.12576994       0.00442502 </v>
    <v>       0.23773326       0.06069430       0.06069430 </v>
    <v>       0.76226674       0.19084604       0.06069430 </v>
    <v>       0.00000000       0.12576994       0.12576994 </v>
    <v>       0.49999908       0.00442502       0.12576994 </v>
    <v>       0.23773326       0.19084604       0.19084604 </v>
    <v>       0.76226674       0.06069430       0.19084604 </v>
    <v>       0.03903373       0.00095277       0.25058757 </v>
    <v>       0.49999908       0.12576994       0.24711532 </v>
    <v>       0.03903373       0.25058757       0.00095277 </v>
    <v>       0.49999908       0.24711532       0.12576994 </v>
    <v>      -0.03903373       0.25058757       0.25058757 </v>
    <v>      -0.00284362       0.00695169       0.31943249 </v>
    <v>       0.49999908       0.12576994       0.31689772 </v>
    <v>       0.00284362       0.24458865       0.31943249 </v>
    <v>       0.00284362       0.00695169       0.93210739 </v>
    <v>       0.49999908       0.12576994       0.93464216 </v>
    <v>      -0.00284362       0.24458865       0.93210739 </v>
    <v>      -0.00284362       0.31943249       0.00695169 </v>
    <v>       0.49999908       0.31689772       0.12576994 </v>
    <v>       0.00284362       0.31943249       0.24458865 </v>
    <v>       0.00284362       0.93210739       0.00695169 </v>
    <v>       0.49999908       0.93464216       0.12576994 </v>
    <v>      -0.00284362       0.93210739       0.24458865 </v>
   </varray>
  </structure>
  <varray name="forces" >
   <v>      -0.53403954       0.23645285       0.23645285 </v>
   <v>      -0.00000000      -0.00000000       0.34256162 </v>
   <v>      -0.26466116      -0.08717887      -0.08717887 </v>
   <v>       0.26466116       0.08717887      -0.08717887 </v>
   <v>      -0.00000000      -0.00000000       0.00000000 </v>
   <v>      -0.00000000       0.34256162       0.00000000 </v>
   <v>      -0.26466116       0.08717887       0.08717887 </v>
   <v>       0.26466116      -0.08717887       0.08717887 </v>
   <v>       0.53403954       0.23645285      -0.23645285 </v>
   <v>      -0.00000000      -0.00000000      -0.34256162 </v>
   <v>       0.53403954      -0.23645285       0.23645285 </v>
   <v>      -0.00000000      -0.34256162       0.00000000 </v>
   <v>      -0.53403954      -0.23645285      -0.23645285 </v>
   <v>       0.02070746       0.33557005       0.00348708 </v>
   <v>      -0.00000000      -0.00000000      -0.07879687 </v>
   <v>      -0.02070746      -0.33557005       0.00348708 </v>
   <v>      -0.02070746       0.33557005      -0.00348708 </v>
   <v>      -0.00000000      -0.00000000       0.07879687 </v>
   <v>       0.02070746      -0.33557005      -0.00348708 </v>
   <v>       0.02070746       0.00348708       0.33557005 </v>
   <v>      -0.00000000      -0.07879687       0.00000000 </v>
   <v>      -0.02070746       0.00348708      -0.33557005 </v>
   <v>      -0.02070746      -0.00348708       0.33557005 </v>
   <v>      -0.00000000       0.07879687       0.00000000 </v>
   <v>       0.02070746      -0.00348708      -0.33557005 </v>
  </varray>
  <varray name="stress" >
   <v>      -3.96652423       0.00000000       0.00000000 </v>
   <v>       0.00000000      -7.35420276       0.00000000 </v>
   <v>       0.00000000      -0.00000000      -7.35420276 </v>
  </varray>
  <energy>
   <i name="e_fr_energy">   -101.32085193 </i>
   <i name="e_wo_entrp">   -101.31394356 </i>
   <i name="e_0_energy">     -0.01381675 </i>
  </energy>
  <time name="totalsc">   19.90   20.72</time>
 </calculation>
 <calculation>
  <scstep>
   <time name="dav">    1.61    1.62</time>
   <time name="total">    2.03    2.03</time>
   <energy>
    <i name="alphaZ">      3.50461401 </i>
    <i name="ewald">   4809.76232772 </i>
    <i name="hartreedc">  -6002.20424054 </i>
    <i name="XCdc">    -90.34748992 </i>
    <i name="pawpsdc">    513.22446439 </i>
    <i name="pawaedc">   -285.91044356 </i>
    <i name="eentropy">     -0.00685176 </i>
    <i name="bandstr">   -538.15870491 </i>
    <i name="atom">   1488.62216486 </i>
    <i name="e_fr_energy">   -101.51415971 </i>
    <i name="e_wo_entrp">   -101.50730795 </i>
    <i name="e_0_energy">   -101.51073383 </i>
   </energy>
  </scstep>
  <scstep>
   <time name="diag">    0.31    0.31</time>
   <time name="diis">    1.03    1.03</time>
   <time name="orth">    0.04    0.04</time>
   <time name="total">    1.80    1.81</time>
   <energy>
    <i name="e_fr_energy">   -101.52714116 </i>
    <i name="e_wo_entrp">   -101.51856067 </i>
    <i name="e_0_energy">   -101.52285091 </i>
   </energy>
  </scstep>
  <scstep>
   <time name="diag">    0.21    0.21</time>
   <time name="diis">    0.76    0.76</time>
   <time name="orth">    0.03    0.03</time>
   <time name="total">    1.43    1.44</time>
   <energy>
    <i name="e_fr_energy">   -101.53036806 </i>
    <i name="e_wo_entrp">   -101.52199420 </i>
    <i name="e_0_energy">   -101.52618113 </i>
   </energy>
  </scstep>
  <scstep>
   <time name="diag">    0.32    0.32</time>
   <time name="diis">    1.10    1.10</time>
   <time name="orth">    0.04    0.04</time>
   <time name="total">    1.95    1.95</time>
   <energy>
    <i name="e_fr_energy">   -101.52870082 </i>
    <i name="e_wo_entrp">   -101.52076268 </i>
    <i name="e_0_energy">   -101.52473175 </i>
   </energy>
  </scstep>
  <scstep>
   <time name="diag">    0.29    0.29</time>
   <time name="diis">    1.22    1.22</time>
   <time name="orth">    0.04    0.04</time>
   <time name="total">    2.06    2.06</time>
   <energy>
    <i name="e_fr_energy">   -101.52899373 </i>
    <i name="e_wo_entrp">   -101.52114480 </i>
    <i name="e_0_energy">   -101.52506926 </i>
   </energy>
  </scstep>
  <scstep>
   <time name="diag">    0.31    0.31</time>
   <time name="diis">    1.15    1.15</time>
   <time name="orth">    0.04    0.04</time>
   <time name="total">    2.03    2.13</time>
   <energy>
    <i name="e_fr_energy">   -101.52917832 </i>
    <i name="e_wo_entrp">   -101.52137681 </i>
    <i name="e_0_energy">   -101.52527757 </i>
   </energy>
  </scstep>
  <scstep>
   <time name="diag">    0.29    0.29</time>
   <time name="diis">    0.89    0.89</time>
   <time name="orth">    0.04    0.04</time>
   <time name="total">    1.75    1.76</time>
   <energy>
    <i name="e_fr_energy">   -101.52921403 </i>
    <i name="e_wo_entrp">   -101.52139567 </i>
    <i name="e_0_energy">   -101.52530485 </i>
   </energy>
  </scstep>
  <scstep>
   <time name="diag">    0.34    0.34</time>
   <time name="diis">    0.70    0.70</time>
   <time name="orth">    0.04    0.04</time>
   <time name="total">    1.63    1.63</time>
   <energy>
    <i name="e_fr_energy">   -101.52923630 </i>
    <i name="e_wo_entrp">   -101.52141329 </i>
    <i name="e_0_energy">   -101.52532480 </i>
   </energy>
  </scstep>
  <scstep>
   <time name="diag">    0.33    0.33</time>
   <time name="diis">    0.72    0.72</time>
   <time name="orth">    0.04    0.04</time>
   <time name="total">    1.63    1.63</time>
   <energy>
    <i name="e_fr_energy">   -101.52924674 </i>
    <i name="e_wo_entrp">   -101.52145267 </i>
    <i name="e_0_energy">   -101.52534970 </i>
   </energy>
  </scstep>
  <scstep>
   <time name="diag">    0.34    0.34</time>
   <time name="diis">    0.67    0.67</time>
   <time name="orth">    0.04    0.04</time>
   <time name="total">    1.34    1.34</time>
   <energy>
    <i name="alphaZ">      3.50461401 </i>
    <i name="ewald">   4809.76232772 </i>
    <i name="hartreedc">  -6000.55226372 </i>
    <i name="XCdc">    -90.49106847 </i>
    <i name="pawpsdc">    511.01452194 </i>
    <i name="pawaedc">   -283.66264506 </i>
    <i name="eentropy">     -0.00779490 </i>
    <i name="bandstr">   -539.71910618 </i>
    <i name="atom">   1488.62216486 </i>
    <i name="e_fr_energy">   -101.52924979 </i>
    <i name="e_wo_entrp">   -101.52145489 </i>
    <i name="e_0_energy">   -101.52535234 </i>
   </energy>
  </scstep>
  <structure>
   <crystal>
    <varray name="basis" >
     <v>       5.43101000       0.00000000       0.00000000 </v>
     <v>       0.00000000      21.59101000       0.00000000 </v>
     <v>       0.00000000       0.00000000      21.59101000 </v>
    </varray>
    <i name="volume">   2531.78323404 </i>
    <varray name="rec_basis" >
     <v>       0.18412781       0.00000000       0.00000000 </v>
     <v>       0.00000000       0.04631557       0.00000000 </v>
     <v>       0.00000000       0.00000000       0.04631557 </v>
    </varray>
   </crystal>
   <varray name="positions" >
    <v>      -0.04717813       0.00154279       0.00154279 </v>
    <v>       0.49999908       0.12576994       0.00530624 </v>
    <v>       0.23359885       0.06031622       0.06031622 </v>
    <v>       0.76640115       0.19122412       0.06031622 </v>
    <v>       0.00000000       0.12576994       0.12576994 </v>
    <v>       0.49999908       0.00530624       0.12576994 </v>
    <v>       0.23359885       0.19122412       0.19122412 </v>
    <v>       0.76640115       0.06031622       0.19122412 </v>
    <v>       0.04717813       0.00154279       0.24999755 </v>
    <v>       0.49999908       0.12576994       0.24623410 </v>
    <v>       0.04717813       0.24999755       0.00154279 </v>
    <v>       0.49999908       0.24623410       0.12576994 </v>
    <v>      -0.04717813       0.24999755       0.24999755 </v>
    <v>      -0.00270123       0.00827017       0.31936414 </v>
    <v>       0.49999908       0.12576994       0.31637963 </v>
    <v>       0.00270123       0.24327017       0.31936414 </v>
    <v>       0.00270123       0.00827017       0.93217573 </v>
    <v>       0.49999908       0.12576994       0.93516024 </v>
    <v>      -0.00270123       0.24327017       0.93217573 </v>
    <v>      -0.00270123       0.31936414       0.00827017 </v>
    <v>       0.49999908       0.31637963       0.12576994 </v>
    <v>       0.00270123       0.31936414       0.24327017 </v>
    <v>       0.00270123       0.93217573       0.00827017 </v>
    <v>       0.49999908       0.93516024       0.12576994 </v>
    <v>      -0.00270123       0.93217573       0.24327017 </v>
   </varray>
  </structure>
  <varray name="forces" >
   <v>      -0.40664550      -0.02544163      -0.02544163 </v>
   <v>      -0.00000000       0.00000000       0.19205839 </v>
   <v>      -0.12555487       0.03595904       0.03595904 </v>
   <v>       0.12555487      -0.03595904       0.03595904 </v>
   <v>      -0.00000000       0.00000000       0.00000000 </v>
   <v>      -0.00000000       0.19205839       0.00000000 </v>
   <v>      -0.12555487      -0.03595904      -0.03595904 </v>
   <v>       0.12555487       0.03595904      -0.03595904 </v>
   <v>       0.40664550      -0.02544163       0.02544163 </v>
   <v>      -0.00000000       0.00000000      -0.19205839 </v>
   <v>       0.40664550       0.02544163      -0.02544163 </v>
   <v>      -0.00000000      -0.19205839       0.00000000 </v>
   <v>      -0.40664550       0.02544163       0.02544163 </v>
   <v>       0.09807152       0.24968510      -0.27785985 </v>
   <v>      -0.00000000       0.00000000      -0.19031251 </v>
   <v>      -0.09807152      -0.24968510      -0.27785985 </v>
   <v>      -0.09807152       0.24968510       0.27785985 </v>
   <v>      -0.00000000       0.00000000       0.19031251 </v>
   <v>       0.09807152      -0.24968510       0.27785985 </v>
   <v>       0.09807152      -0.27785985       0.24968510 </v>
   <v>      -0.00000000      -0.19031251       0.00000000 </v>
   <v>      -0.09807152      -0.27785985      -0.24968510 </v>
   <v>      -0.09807152       0.27785985       0.24968510 </v>
   <v>      -0.00000000       0.19031251       0.00000000 </v>
   <v>       0.09807152       0.27785985      -0.24968510 </v>
  </varray>
  <varray name="stress" >
   <v>      -3.95534095       0.00000000       0.00000000 </v>
   <v>       0.00000000      -8.41668241       0.00000000 </v>
   <v>       0.00000000       0.00000000      -8.41668241 </v>
  </varray>
  <energy>
   <i name="e_fr_energy">   -101.52924979 </i>
   <i name="e_wo_entrp">   -101.52535234 </i>
   <i name="e_0_energy">     -0.00779490 </i>
  </energy>
  <time name="totalsc">   20.70   20.85</time>
 </calculation>
 <calculation>
  <scstep>
   <time name="dav">    1.62    1.62</time>
   <time name="total">    2.04    2.06</time>
   <energy>
    <i name="alphaZ">      3.50461401 </i>
    <i name="ewald">   4833.53874639 </i>
    <i name="hartreedc">  -6024.89807992 </i>
    <i name="XCdc">    -90.45059634 </i>
    <i name="pawpsdc">    511.01506093 </i>
    <i name="pawaedc">   -283.66322242 </i>
    <i name="eentropy">     -0.00315654 </i>
    <i name="bandstr">   -539.39499913 </i>
    <i name="atom">   1488.62216486 </i>
    <i name="e_fr_energy">   -101.72946816 </i>
    <i name="e_wo_entrp">   -101.72631162 </i>
    <i name="e_0_energy">   -101.72788989 </i>
   </energy>
  </scstep>
  <scstep>
   <time name="diag">    0.34    0.34</time>
   <time name="diis">    1.13    1.14</time>
   <time name="orth">    0.03    0.03</time>
   <time name="total">    2.03    2.03</time>
   <energy>
    <i name="e_fr_energy">   -101.74601997 </i>
    <i name="e_wo_entrp">   -101.74245412 </i>
    <i name="e_0_energy">   -101.74423704 </i>
   </energy>
  </scstep>
  <scstep>
   <time name="diag">    0.34    0.34</time>
   <time name="diis">    1.20    1.20</time>
   <time name="orth">    0.03    0.03</time>
   <time name="total">    2.11    2.11</time>
   <energy>
    <i name="e_fr_energy">   -101.74838821 </i>
    <i name="e_wo_entrp">   -101.74493047 </i>
    <i name="e_0_energy">   -101.74665934 </i>
   </energy>
  </scstep>
  <scstep>
   <time name="diag">    0.34    0.34</time>
   <time name="diis">    1.20    1.20</time>
   <time name="orth">    0.03    0.03</time>
   <time name="total">    2.11    2.12</time>
   <energy>
    <i name="e_fr_energy">   -101.74866267 </i>
    <i name="e_wo_entrp">   -101.74495209 </i>
    <i name="e_0_energy">   -101.74680738 </i>
   </energy>
  </scstep>
  <scstep>
   <time name="diag">    0.34    0.34</time>
   <time name="diis">    1.15    1.15</time>
   <time name="orth">    0.03    0.03</time>
   <time name="total">    2.06    2.07</time>
   <energy>
    <i name="e_fr_energy">   -101.74858625 </i>
    <i name="e_wo_entrp">   -101.74493981 </i>
    <i name="e_0_energy">   -101.74676303 </i>
   </energy>
  </scstep>
  <scstep>
   <time name="diag">    0.34    0.34</time>
   <time name="diis">    1.11    1.11</time>
   <time name="orth">    0.04    0.04</time>
   <time name="total">    2.03    2.03</time>
   <energy>
    <i name="e_fr_energy">   -101.74859475 </i>
    <i name="e_wo_entrp">   -101.74492960 </i>
    <i name="e_0_energy">   -101.74676217 </i>
   </energy>
  </scstep>
  <scstep>
   <time name="diag">    0.34    0.34</time>
   <time name="diis">    0.78    0.78</time>
   <time name="orth">    0.04    0.04</time>
   <time name="total">    1.69    1.69</time>
   <energy>
    <i name="e_fr_energy">   -101.74862284 </i>
    <i name="e_wo_entrp">   -101.74495878 </i>
    <i name="e_0_energy">   -101.74679081 </i>
   </energy>
  </scstep>
  <scstep>
   <time name="diag">    0.31    0.31</time>
   <time name="diis">    0.69    0.69</time>
   <time name="orth">    0.03    0.03</time>
   <time name="total">    1.55    1.56</time>
   <energy>
[...]
   <v>       0.00000000      -0.01297991      -0.00000000 </v>
   <v>       0.08652734       0.02191469      -0.01850666 </v>
  </varray>
  <varray name="stress" >
   <v>      -2.65689188       0.00000000       0.00000000 </v>
   <v>       0.00000000      -2.74355361       0.00000000 </v>
   <v>       0.00000000       0.00000000      -2.74355361 </v>
  </varray>
  <energy>
   <i name="e_fr_energy">   -103.49616281 </i>
   <i name="e_wo_entrp">   -103.49448369 </i>
   <i name="e_0_energy">     -0.00335824 </i>
  </energy>
  <time name="totalsc">    7.21    7.26</time>
 </calculation>
 <calculation>
  <scstep>
   <time name="dav">    1.21    1.21</time>
   <time name="total">    1.52    1.52</time>
   <energy>
    <i name="alphaZ">      3.50461401 </i>
    <i name="ewald">   5478.02267764 </i>
    <i name="hartreedc">  -6670.01671093 </i>
    <i name="XCdc">    -87.87071162 </i>
    <i name="pawpsdc">    519.40036581 </i>
    <i name="pawaedc">   -292.24274370 </i>
    <i name="eentropy">     -0.00334094 </i>
    <i name="bandstr">   -542.91506438 </i>
    <i name="atom">   1488.62216486 </i>
    <i name="e_fr_energy">   -103.49874927 </i>
    <i name="e_wo_entrp">   -103.49540832 </i>
    <i name="e_0_energy">   -103.49707879 </i>
   </energy>
  </scstep>
  <scstep>
   <time name="diag">    0.20    0.20</time>
   <time name="diis">    0.70    0.70</time>
   <time name="orth">    0.03    0.03</time>
   <time name="total">    1.31    1.31</time>
   <energy>
    <i name="e_fr_energy">   -103.49878380 </i>
    <i name="e_wo_entrp">   -103.49544526 </i>
    <i name="e_0_energy">   -103.49711453 </i>
   </energy>
  </scstep>
  <scstep>
   <time name="diag">    0.20    0.20</time>
   <time name="diis">    0.54    0.54</time>
   <time name="orth">    0.03    0.03</time>
   <time name="total">    1.15    1.15</time>
   <energy>
    <i name="e_fr_energy">   -103.49879471 </i>
    <i name="e_wo_entrp">   -103.49545702 </i>
    <i name="e_0_energy">   -103.49712586 </i>
   </energy>
  </scstep>
  <scstep>
   <time name="diag">    0.20    0.20</time>
   <time name="diis">    0.45    0.45</time>
   <time name="orth">    0.03    0.03</time>
   <time name="total">    0.90    0.91</time>
   <energy>
    <i name="alphaZ">      3.50461401 </i>
    <i name="ewald">   5478.02267764 </i>
    <i name="hartreedc">  -6669.98677181 </i>
    <i name="XCdc">    -87.87594085 </i>
    <i name="pawpsdc">    519.34650662 </i>
    <i name="pawaedc">   -292.18809088 </i>
    <i name="eentropy">     -0.00333780 </i>
    <i name="bandstr">   -542.94061770 </i>
    <i name="atom">   1488.62216486 </i>
    <i name="e_fr_energy">   -103.49879591 </i>
    <i name="e_wo_entrp">   -103.49545811 </i>
    <i name="e_0_energy">   -103.49712701 </i>
   </energy>
  </scstep>
  <structure>
   <crystal>
    <varray name="basis" >
     <v>       5.43101000       0.00000000       0.00000000 </v>
     <v>       0.00000000      21.59101000       0.00000000 </v>
     <v>       0.00000000       0.00000000      21.59101000 </v>
    </varray>
    <i name="volume">   2531.78323404 </i>
    <varray name="rec_basis" >
     <v>       0.18412781       0.00000000       0.00000000 </v>
     <v>       0.00000000       0.04631557       0.00000000 </v>
     <v>       0.00000000       0.00000000       0.04631557 </v>
    </varray>
   </crystal>
   <varray name="positions" >
    <v>      -0.13599362       0.01708185       0.01708185 </v>
    <v>       0.49999908       0.12576994       0.01069285 </v>
    <v>       0.21866526       0.06201413       0.06201413 </v>
    <v>       0.78133474       0.18952621       0.06201413 </v>
    <v>      -0.00000000       0.12576994       0.12576994 </v>
    <v>       0.49999908       0.01069285       0.12576994 </v>
    <v>       0.21866526       0.18952621       0.18952621 </v>
    <v>       0.78133474       0.06201413       0.18952621 </v>
    <v>       0.13599362       0.01708185       0.23445849 </v>
    <v>       0.49999908       0.12576994       0.24084749 </v>
    <v>       0.13599362       0.23445849       0.01708185 </v>
    <v>       0.49999908       0.24084749       0.12576994 </v>
    <v>      -0.13599362       0.23445849       0.23445849 </v>
    <v>       0.10925333       0.02439719       0.30396944 </v>
    <v>       0.49999908       0.12576994       0.31061289 </v>
    <v>      -0.10925333       0.22714315       0.30396944 </v>
    <v>      -0.10925333       0.02439719       0.94757043 </v>
    <v>       0.49999908       0.12576994       0.94092699 </v>
    <v>       0.10925333       0.22714315       0.94757043 </v>
    <v>       0.10925333       0.30396944       0.02439719 </v>
    <v>       0.49999908       0.31061289       0.12576994 </v>
    <v>      -0.10925333       0.30396944       0.22714315 </v>
    <v>      -0.10925333       0.94757043       0.02439719 </v>
    <v>       0.49999908       0.94092699       0.12576994 </v>
    <v>       0.10925333       0.94757043       0.22714315 </v>
   </varray>
  </structure>
  <varray name="forces" >
   <v>      -0.04059786       0.02656811       0.02656811 </v>
   <v>      -0.00000000       0.00000000      -0.01118754 </v>
   <v>      -0.00923617      -0.00208995      -0.00208995 </v>
   <v>       0.00923617       0.00208995      -0.00208995 </v>
   <v>      -0.00000000       0.00000000       0.00000000 </v>
   <v>      -0.00000000      -0.01118754       0.00000000 </v>
   <v>      -0.00923617       0.00208995       0.00208995 </v>
   <v>       0.00923617      -0.00208995       0.00208995 </v>
   <v>       0.04059786       0.02656811      -0.02656811 </v>
   <v>      -0.00000000       0.00000000       0.01118754 </v>
   <v>       0.04059786      -0.02656811       0.02656811 </v>
   <v>      -0.00000000       0.01118754       0.00000000 </v>
   <v>      -0.04059786      -0.02656811      -0.02656811 </v>
   <v>       0.08544141       0.01872992      -0.02125929 </v>
   <v>      -0.00000000      -0.00000000      -0.01199001 </v>
   <v>      -0.08544141      -0.01872992      -0.02125929 </v>
   <v>      -0.08544141       0.01872992       0.02125929 </v>
   <v>      -0.00000000      -0.00000000       0.01199001 </v>
   <v>       0.08544141      -0.01872992       0.02125929 </v>
   <v>       0.08544141      -0.02125929       0.01872992 </v>
   <v>      -0.00000000      -0.01199001       0.00000000 </v>
   <v>      -0.08544141      -0.02125929      -0.01872992 </v>
   <v>      -0.08544141       0.02125929       0.01872992 </v>
   <v>      -0.00000000       0.01199001       0.00000000 </v>
   <v>       0.08544141       0.02125929      -0.01872992 </v>
  </varray>
  <varray name="stress" >
   <v>      -2.64268436       0.00000000       0.00000000 </v>
   <v>      -0.00000000      -2.76874864       0.00000000 </v>
   <v>      -0.00000000       0.00000000      -2.76874864 </v>
  </varray>
  <energy>
   <i name="e_fr_energy">   -103.49879591 </i>
   <i name="e_wo_entrp">   -103.49712701 </i>
   <i name="e_0_energy">     -0.00333780 </i>
  </energy>
  <time name="totalsc">    7.00    7.03</time>
 </calculation>
 <calculation>
  <scstep>
   <time name="dav">    1.21    1.21</time>
   <time name="total">    1.52    1.54</time>
   <energy>
    <i name="alphaZ">      3.50461401 </i>
    <i name="ewald">   5479.45628880 </i>
    <i name="hartreedc">  -6671.37660397 </i>
    <i name="XCdc">    -87.86736779 </i>
    <i name="pawpsdc">    519.34648273 </i>
    <i name="pawaedc">   -292.18805884 </i>
    <i name="eentropy">     -0.00342709 </i>
    <i name="bandstr">   -542.99588343 </i>
    <i name="atom">   1488.62216486 </i>
    <i name="e_fr_energy">   -103.50179072 </i>
    <i name="e_wo_entrp">   -103.49836364 </i>
    <i name="e_0_energy">   -103.50007718 </i>
   </energy>
  </scstep>
  <scstep>
   <time name="diag">    0.22    0.23</time>
   <time name="diis">    0.74    0.74</time>
   <time name="orth">    0.03    0.03</time>
   <time name="total">    1.39    1.52</time>
   <energy>
    <i name="e_fr_energy">   -103.50182220 </i>
    <i name="e_wo_entrp">   -103.49840856 </i>
    <i name="e_0_energy">   -103.50011538 </i>
   </energy>
  </scstep>
  <scstep>
   <time name="diag">    0.21    0.21</time>
   <time name="diis">    0.56    0.56</time>
   <time name="orth">    0.03    0.03</time>
   <time name="total">    1.21    1.22</time>
   <energy>
    <i name="e_fr_energy">   -103.50183092 </i>
    <i name="e_wo_entrp">   -103.49841696 </i>
    <i name="e_0_energy">   -103.50012394 </i>
   </energy>
  </scstep>
  <scstep>
   <time name="diag">    0.21    0.21</time>
   <time name="diis">    0.60    0.60</time>
   <time name="orth">    0.04    0.04</time>
   <time name="total">    1.08    1.09</time>
   <energy>
    <i name="alphaZ">      3.50461401 </i>
    <i name="ewald">   5479.45628880 </i>
    <i name="hartreedc">  -6671.42863759 </i>
    <i name="XCdc">    -87.86826566 </i>
    <i name="pawpsdc">    519.36392795 </i>
    <i name="pawaedc">   -292.20558474 </i>
    <i name="eentropy">     -0.00341400 </i>
    <i name="bandstr">   -542.94292572 </i>
    <i name="atom">   1488.62216486 </i>
    <i name="e_fr_energy">   -103.50183210 </i>
    <i name="e_wo_entrp">   -103.49841810 </i>
    <i name="e_0_energy">   -103.50012510 </i>
   </energy>
  </scstep>
  <structure>
   <crystal>
    <varray name="basis" >
     <v>       5.43101000       0.00000000       0.00000000 </v>
     <v>       0.00000000      21.59101000       0.00000000 </v>
     <v>       0.00000000       0.00000000      21.59101000 </v>
    </varray>
    <i name="volume">   2531.78323404 </i>
    <varray name="rec_basis" >
     <v>       0.18412781       0.00000000       0.00000000 </v>
     <v>       0.00000000       0.04631557       0.00000000 </v>
     <v>       0.00000000       0.00000000       0.04631557 </v>
    </varray>
   </crystal>
   <varray name="positions" >
    <v>      -0.13628766       0.01712988       0.01712988 </v>
    <v>       0.49999908       0.12576994       0.01067639 </v>
    <v>       0.21860262       0.06201034       0.06201034 </v>
    <v>       0.78139738       0.18953000       0.06201034 </v>
    <v>      -0.00000000       0.12576994       0.12576994 </v>
    <v>       0.49999908       0.01067639       0.12576994 </v>
    <v>       0.21860262       0.18953000       0.18953000 </v>
    <v>       0.78139738       0.06201034       0.18953000 </v>
    <v>       0.13628766       0.01712988       0.23441046 </v>
    <v>       0.49999908       0.12576994       0.24086395 </v>
    <v>       0.13628766       0.23441046       0.01712988 </v>
    <v>       0.49999908       0.24086395       0.12576994 </v>
    <v>      -0.13628766       0.23441046       0.23441046 </v>
    <v>       0.10987035       0.02443109       0.30393087 </v>
    <v>       0.49999908       0.12576994       0.31059402 </v>
    <v>      -0.10987035       0.22710925       0.30393087 </v>
    <v>      -0.10987035       0.02443109       0.94760901 </v>
    <v>       0.49999908       0.12576994       0.94094585 </v>
    <v>       0.10987035       0.22710925       0.94760901 </v>
    <v>       0.10987035       0.30393087       0.02443109 </v>
    <v>       0.49999908       0.31059402       0.12576994 </v>
    <v>      -0.10987035       0.30393087       0.22710925 </v>
    <v>      -0.10987035       0.94760901       0.02443109 </v>
    <v>       0.49999908       0.94094585       0.12576994 </v>
    <v>       0.10987035       0.94760901       0.22710925 </v>
   </varray>
  </structure>
  <varray name="forces" >
   <v>      -0.04097643       0.02522217       0.02522217 </v>
   <v>       0.00000000       0.00000000       0.00542017 </v>
   <v>      -0.00438072      -0.00175092      -0.00175092 </v>
   <v>       0.00438072       0.00175092      -0.00175092 </v>
   <v>       0.00000000       0.00000000      -0.00000000 </v>
   <v>       0.00000000       0.00542017      -0.00000000 </v>
   <v>      -0.00438072       0.00175092       0.00175092 </v>
   <v>       0.00438072      -0.00175092       0.00175092 </v>
   <v>       0.04097643       0.02522217      -0.02522217 </v>
   <v>       0.00000000       0.00000000      -0.00542017 </v>
   <v>       0.04097643      -0.02522217       0.02522217 </v>
   <v>       0.00000000      -0.00542017      -0.00000000 </v>
   <v>      -0.04097643      -0.02522217      -0.02522217 </v>
   <v>       0.08407200       0.01846868      -0.02129862 </v>
   <v>       0.00000000       0.00000000       0.00061303 </v>
   <v>      -0.08407200      -0.01846868      -0.02129862 </v>
   <v>      -0.08407200       0.01846868       0.02129862 </v>
   <v>       0.00000000       0.00000000      -0.00061303 </v>
   <v>       0.08407200      -0.01846868       0.02129862 </v>
   <v>       0.08407200      -0.02129862       0.01846868 </v>
   <v>       0.00000000       0.00061303      -0.00000000 </v>
   <v>      -0.08407200      -0.02129862      -0.01846868 </v>
   <v>      -0.08407200       0.02129862       0.01846868 </v>
   <v>       0.00000000      -0.00061303      -0.00000000 </v>
   <v>       0.08407200       0.02129862      -0.01846868 </v>
  </varray>
  <varray name="stress" >
   <v>      -2.65349177       0.00000000       0.00000000 </v>
   <v>       0.00000000      -2.74760800       0.00000000 </v>
   <v>       0.00000000       0.00000000      -2.74760800 </v>
  </varray>
  <energy>
   <i name="e_fr_energy">   -103.50183210 </i>
   <i name="e_wo_entrp">   -103.50012510 </i>
   <i name="e_0_energy">     -0.00341400 </i>
  </energy>
  <time name="totalsc">    7.60    7.77</time>
 </calculation>
 <calculation>
  <scstep>
   <time name="dav">    1.20    1.20</time>
   <time name="total">    1.52    1.52</time>
   <energy>
    <i name="alphaZ">      3.50461401 </i>
    <i name="ewald">   5482.26840125 </i>
    <i name="hartreedc">  -6674.20627742 </i>
    <i name="XCdc">    -87.85492767 </i>
    <i name="pawpsdc">    519.36408707 </i>
    <i name="pawaedc">   -292.20573906 </i>
    <i name="eentropy">     -0.00348464 </i>
    <i name="bandstr">   -542.99548262 </i>
    <i name="atom">   1488.62216486 </i>
    <i name="e_fr_energy">   -103.50664423 </i>
    <i name="e_wo_entrp">   -103.50315958 </i>
    <i name="e_0_energy">   -103.50490190 </i>
   </energy>
  </scstep>
  <scstep>
   <time name="diag">    0.20    0.20</time>
   <time name="diis">    0.74    0.74</time>
   <time name="orth">    0.03    0.03</time>
   <time name="total">    1.37    1.38</time>
   <energy>
    <i name="e_fr_energy">   -103.50672244 </i>
    <i name="e_wo_entrp">   -103.50325277 </i>
    <i name="e_0_energy">   -103.50498761 </i>
   </energy>
  </scstep>
  <scstep>
   <time name="diag">    0.21    0.22</time>
   <time name="diis">    0.67    0.67</time>
   <time name="orth">    0.03    0.03</time>
   <time name="total">    1.32    1.33</time>
   <energy>
    <i name="e_fr_energy">   -103.50674448 </i>
    <i name="e_wo_entrp">   -103.50327579 </i>
    <i name="e_0_energy">   -103.50501013 </i>
   </energy>
  </scstep>
  <scstep>
   <time name="diag">    0.21    0.21</time>
   <time name="diis">    0.50    0.50</time>
   <time name="orth">    0.03    0.03</time>
   <time name="total">    0.97    0.98</time>
   <energy>
    <i name="alphaZ">      3.50461401 </i>
    <i name="ewald">   5482.26840125 </i>
    <i name="hartreedc">  -6674.22860493 </i>
    <i name="XCdc">    -87.86008454 </i>
    <i name="pawpsdc">    519.33649397 </i>
    <i name="pawaedc">   -292.17756448 </i>
    <i name="eentropy">     -0.00346892 </i>
    <i name="bandstr">   -542.96869811 </i>
    <i name="atom">   1488.62216486 </i>
    <i name="e_fr_energy">   -103.50674689 </i>
    <i name="e_wo_entrp">   -103.50327797 </i>
    <i name="e_0_energy">   -103.50501243 </i>
   </energy>
  </scstep>
  <structure>
   <crystal>
    <varray name="basis" >
     <v>       5.43101000       0.00000000       0.00000000 </v>
     <v>       0.00000000      21.59101000       0.00000000 </v>
     <v>       0.00000000       0.00000000      21.59101000 </v>
    </varray>
    <i name="volume">   2531.78323404 </i>
    <varray name="rec_basis" >
     <v>       0.18412781       0.00000000       0.00000000 </v>
     <v>       0.00000000       0.04631557       0.00000000 </v>
     <v>       0.00000000       0.00000000       0.04631557 </v>
    </varray>
   </crystal>
   <varray name="positions" >
    <v>      -0.13678904       0.01720703       0.01720703 </v>
    <v>       0.49999908       0.12576994       0.01069804 </v>
    <v>       0.21855470       0.06200503       0.06200503 </v>
    <v>       0.78144530       0.18953531       0.06200503 </v>
    <v>      -0.00000000       0.12576994       0.12576994 </v>
    <v>       0.49999908       0.01069804       0.12576994 </v>
    <v>       0.21855470       0.18953531       0.18953531 </v>
    <v>       0.78144530       0.06200503       0.18953531 </v>
    <v>       0.13678904       0.01720703       0.23433331 </v>
    <v>       0.49999908       0.12576994       0.24084230 </v>
    <v>       0.13678904       0.23433331       0.01720703 </v>
    <v>       0.49999908       0.24084230       0.12576994 </v>
    <v>      -0.13678904       0.23433331       0.23433331 </v>
    <v>       0.11089656       0.02448775       0.30386542 </v>
    <v>       0.49999908       0.12576994       0.31059968 </v>
    <v>      -0.11089656       0.22705259       0.30386542 </v>
    <v>      -0.11089656       0.02448775       0.94767446 </v>
    <v>       0.49999908       0.12576994       0.94094019 </v>
    <v>       0.11089656       0.22705259       0.94767446 </v>
    <v>       0.11089656       0.30386542       0.02448775 </v>
    <v>       0.49999908       0.31059968       0.12576994 </v>
    <v>      -0.11089656       0.30386542       0.22705259 </v>
    <v>      -0.11089656       0.94767446       0.02448775 </v>
    <v>       0.49999908       0.94094019       0.12576994 </v>
    <v>       0.11089656       0.94767446       0.22705259 </v>
   </varray>
  </structure>
  <varray name="forces" >
   <v>      -0.03897408       0.02544774       0.02544774 </v>
   <v>      -0.00000000       0.00000000      -0.00716643 </v>
   <v>      -0.00795352      -0.00213554      -0.00213554 </v>
   <v>       0.00795352       0.00213554      -0.00213554 </v>
   <v>       0.00000000       0.00000000       0.00000000 </v>
   <v>      -0.00000000      -0.00716643       0.00000000 </v>
   <v>      -0.00795352       0.00213554       0.00213554 </v>
   <v>       0.00795352      -0.00213554       0.00213554 </v>
   <v>       0.03897408       0.02544774      -0.02544774 </v>
   <v>       0.00000000       0.00000000       0.00716643 </v>
   <v>       0.03897408      -0.02544774       0.02544774 </v>
   <v>       0.00000000       0.00716643       0.00000000 </v>
   <v>      -0.03897408      -0.02544774      -0.02544774 </v>
   <v>       0.08178014       0.01829675      -0.02054145 </v>
   <v>       0.00000000       0.00000000      -0.00900941 </v>
   <v>      -0.08178014      -0.01829675      -0.02054145 </v>
   <v>      -0.08178014       0.01829675       0.02054145 </v>
   <v>      -0.00000000       0.00000000       0.00900941 </v>
   <v>       0.08178014      -0.01829675       0.02054145 </v>
   <v>       0.08178014      -0.02054145       0.01829675 </v>
   <v>       0.00000000      -0.00900941       0.00000000 </v>
   <v>      -0.08178014      -0.02054145      -0.01829675 </v>
   <v>      -0.08178014       0.02054145       0.01829675 </v>
   <v>       0.00000000       0.00900941       0.00000000 </v>
   <v>       0.08178014       0.02054145      -0.01829675 </v>
  </varray>
  <varray name="stress" >
   <v>      -2.65123416       0.00000000       0.00000000 </v>
   <v>       0.00000000      -2.74850188       0.00000000 </v>
   <v>       0.00000000       0.00000000      -2.74850188 </v>
  </varray>
  <energy>
   <i name="e_fr_energy">   -103.50674689 </i>
   <i name="e_wo_entrp">   -103.50501243 </i>
   <i name="e_0_energy">     -0.00346892 </i>
  </energy>
