unknown system                          
           1
     5.431010    0.000000    0.000000
     0.000000   21.591010    0.000000
     0.000000    0.000000   21.591010
   Si   H 
  13  12
Direct configuration=     1
   0.00000000  0.00000000  0.00000000
   0.49999908  0.12576994  0.00000000
   0.24999954  0.06288497  0.06288497
   0.75000046  0.18865537  0.06288497
   0.00000000  0.12576994  0.12576994
   0.49999908  0.00000000  0.12576994
   0.24999954  0.18865537  0.18865537
   0.75000046  0.06288497  0.18865537
   0.00000000  0.00000000  0.25154034
   0.49999908  0.12576994  0.25154034
   0.00000000  0.25154034  0.00000000
   0.49999908  0.25154034  0.12576994
   0.00000000  0.25154034  0.25154034
   0.00000000  0.00000000  0.31638214
   0.49999908  0.12576994  0.31638214
   0.00000000  0.25154034  0.31638214
   0.00000000  0.00000000  0.93515773
   0.49999908  0.12576994  0.93515773
   0.00000000  0.25154034  0.93515773
   0.00000000  0.31638214  0.00000000
   0.49999908  0.31638214  0.12576994
   0.00000000  0.31638214  0.25154034
   0.00000000  0.93515773  0.00000000
   0.49999908  0.93515773  0.12576994
   0.00000000  0.93515773  0.25154034
Direct configuration=     2
  -0.00881452  0.00447893  0.00447893
   0.49999908  0.12576994  0.00653501
   0.24940528  0.06164537  0.06164537
   0.75059472  0.18989497  0.06164537
   0.00000000  0.12576994  0.12576994
   0.49999908  0.00653501  0.12576994
   0.24940528  0.18989497  0.18989497
   0.75059472  0.06164537  0.18989497
   0.00881452  0.00447893  0.24706141
   0.49999908  0.12576994  0.24500533
   0.00881452  0.24706141  0.00447893
   0.49999908  0.24500533  0.12576994
  -0.00881452  0.24706141  0.24706141
  -0.00127427  0.00211789  0.32158057
   0.49999908  0.12576994  0.32099255
   0.00127427  0.24942245  0.32158057
   0.00127427  0.00211789  0.92995930
   0.49999908  0.12576994  0.93054733
  -0.00127427  0.24942245  0.92995930
  -0.00127427  0.32158057  0.00211789
   0.49999908  0.32099255  0.12576994
   0.00127427  0.32158057  0.24942245
   0.00127427  0.92995930  0.00211789
   0.49999908  0.93054733  0.12576994
  -0.00127427  0.92995930  0.24942245
Direct configuration=     3
  -0.01708053  0.00189532  0.00189532
   0.49999908  0.12576994  0.00403236
   0.24824655  0.06220625  0.06220625
   0.75175345  0.18933409  0.06220625
   0.00000000  0.12576994  0.12576994
   0.49999908  0.00403236  0.12576994
   0.24824655  0.18933409  0.18933409
   0.75175345  0.06220625  0.18933409
   0.01708053  0.00189532  0.24964502
   0.49999908  0.12576994  0.24750798
   0.01708053  0.24964502  0.00189532
   0.49999908  0.24750798  0.12576994
  -0.01708053  0.24964502  0.24964502
  -0.00166827  0.00311437  0.32007880
   0.49999908  0.12576994  0.31882472
   0.00166827  0.24842597  0.32007880
   0.00166827  0.00311437  0.93146107
   0.49999908  0.12576994  0.93271515
  -0.00166827  0.24842597  0.93146107
  -0.00166827  0.32007880  0.00311437
   0.49999908  0.31882472  0.12576994
   0.00166827  0.32007880  0.24842597
   0.00166827  0.93146107  0.00311437
   0.49999908  0.93271515  0.12576994
  -0.00166827  0.93146107  0.24842597
Direct configuration=     4
  -0.02624893  0.00144335  0.00144335
   0.49999908  0.12576994  0.00338307
   0.24266271  0.06141500  0.06141500
   0.75733729  0.19012534  0.06141500
   0.00000000  0.12576994  0.12576994
   0.49999908  0.00338307  0.12576994
   0.24266271  0.19012534  0.19012534
   0.75733729  0.06141500  0.19012534
   0.02624893  0.00144335  0.25009699
   0.49999908  0.12576994  0.24815727
   0.02624893  0.25009699  0.00144335
   0.49999908  0.24815727  0.12576994
  -0.02624893  0.25009699  0.25009699
  -0.00230363  0.00480816  0.31981026
   0.49999908  0.12576994  0.31742364
   0.00230363  0.24673218  0.31981026
   0.00230363  0.00480816  0.93172962
   0.49999908  0.12576994  0.93411623
  -0.00230363  0.24673218  0.93172962
  -0.00230363  0.31981026  0.00480816
   0.49999908  0.31742364  0.12576994
   0.00230363  0.31981026  0.24673218
   0.00230363  0.93172962  0.00480816
   0.49999908  0.93411623  0.12576994
  -0.00230363  0.93172962  0.24673218
Direct configuration=     5
  -0.03903373  0.00095277  0.00095277
   0.49999908  0.12576994  0.00442502
   0.23773326  0.06069430  0.06069430
   0.76226674  0.19084604  0.06069430
   0.00000000  0.12576994  0.12576994
   0.49999908  0.00442502  0.12576994
   0.23773326  0.19084604  0.19084604
   0.76226674  0.06069430  0.19084604
   0.03903373  0.00095277  0.25058757
   0.49999908  0.12576994  0.24711532
   0.03903373  0.25058757  0.00095277
   0.49999908  0.24711532  0.12576994
  -0.03903373  0.25058757  0.25058757
  -0.00284362  0.00695169  0.31943249
   0.49999908  0.12576994  0.31689772
   0.00284362  0.24458865  0.31943249
   0.00284362  0.00695169  0.93210739
   0.49999908  0.12576994  0.93464216
  -0.00284362  0.24458865  0.93210739
  -0.00284362  0.31943249  0.00695169
   0.49999908  0.31689772  0.12576994
   0.00284362  0.31943249  0.24458865
   0.00284362  0.93210739  0.00695169
   0.49999908  0.93464216  0.12576994
  -0.00284362  0.93210739  0.24458865
Direct configuration=     6
  -0.04717813  0.00154279  0.00154279
   0.49999908  0.12576994  0.00530624
   0.23359885  0.06031622  0.06031622
   0.76640115  0.19122412  0.06031622
   0.00000000  0.12576994  0.12576994
   0.49999908  0.00530624  0.12576994
   0.23359885  0.19122412  0.19122412
   0.76640115  0.06031622  0.19122412
   0.04717813  0.00154279  0.24999755
   0.49999908  0.12576994  0.24623410
   0.04717813  0.24999755  0.00154279
   0.49999908  0.24623410  0.12576994
  -0.04717813  0.24999755  0.24999755
  -0.00270123  0.00827017  0.31936414
   0.49999908  0.12576994  0.31637963
   0.00270123  0.24327017  0.31936414
   0.00270123  0.00827017  0.93217573
   0.49999908  0.12576994  0.93516024
  -0.00270123  0.24327017  0.93217573
  -0.00270123  0.31936414  0.00827017
   0.49999908  0.31637963  0.12576994
   0.00270123  0.31936414  0.24327017
   0.00270123  0.93217573  0.00827017
   0.49999908  0.93516024  0.12576994
  -0.00270123  0.93217573  0.24327017
Direct configuration=     7
  -0.05869320  0.00161773  0.00161773
   0.49999908  0.12576994  0.00630585
   0.22863287  0.05994178  0.05994178
   0.77136713  0.19159856  0.05994178
  -0.00000000  0.12576994  0.12576994
   0.49999908  0.00630585  0.12576994
   0.22863287  0.19159856  0.19159856
   0.77136713  0.05994178  0.19159856
   0.05869320  0.00161773  0.24992261
   0.49999908  0.12576994  0.24523449
   0.05869320  0.24992261  0.00161773
   0.49999908  0.24523449  0.12576994
  -0.05869320  0.24992261  0.24992261
  -0.00193656  0.01015998  0.31858595
   0.49999908  0.12576994  0.31539496
   0.00193656  0.24138036  0.31858595
   0.00193656  0.01015998  0.93295393
   0.49999908  0.12576994  0.93614491
  -0.00193656  0.24138036  0.93295393
  -0.00193656  0.31858595  0.01015998
   0.49999908  0.31539496  0.12576994
   0.00193656  0.31858595  0.24138036
   0.00193656  0.93295393  0.01015998
   0.49999908  0.93614491  0.12576994
  -0.00193656  0.93295393  0.24138036
Direct configuration=     8
  -0.06224884  0.00197586  0.00197586
   0.49999908  0.12576994  0.00690145
   0.22707496  0.06004184  0.06004184
   0.77292504  0.19149850  0.06004184
  -0.00000000  0.12576994  0.12576994
   0.49999908  0.00690145  0.12576994
   0.22707496  0.19149850  0.19149850
   0.77292504  0.06004184  0.19149850
   0.06224884  0.00197586  0.24956448
   0.49999908  0.12576994  0.24463889
   0.06224884  0.24956448  0.00197586
   0.49999908  0.24463889  0.12576994
  -0.06224884  0.24956448  0.24956448
  -0.00039558  0.01078361  0.31786830
   0.49999908  0.12576994  0.31483603
   0.00039558  0.24075673  0.31786830
   0.00039558  0.01078361  0.93367157
   0.49999908  0.12576994  0.93670385
  -0.00039558  0.24075673  0.93367157
  -0.00039558  0.31786830  0.01078361
   0.49999908  0.31483603  0.12576994
   0.00039558  0.31786830  0.24075673
   0.00039558  0.93367157  0.01078361
   0.49999908  0.93670385  0.12576994
  -0.00039558  0.93367157  0.24075673
Direct configuration=     9
  -0.06625533  0.00272588  0.00272588
   0.49999908  0.12576994  0.00751105
   0.22562540  0.06024691  0.06024691
   0.77437460  0.19129343  0.06024691
  -0.00000000  0.12576994  0.12576994
   0.49999908  0.00751105  0.12576994
   0.22562540  0.19129343  0.19129343
   0.77437460  0.06024691  0.19129343
   0.06625533  0.00272588  0.24881446
   0.49999908  0.12576994  0.24402929
   0.06625533  0.24881446  0.00272588
   0.49999908  0.24402929  0.12576994
  -0.06625533  0.24881446  0.24881446
   0.00195915  0.01149574  0.31703886
   0.49999908  0.12576994  0.31402809
  -0.00195915  0.24004460  0.31703886
  -0.00195915  0.01149574  0.93450102
   0.49999908  0.12576994  0.93751178
   0.00195915  0.24004460  0.93450102
   0.00195915  0.31703886  0.01149574
   0.49999908  0.31402809  0.12576994
  -0.00195915  0.31703886  0.24004460
  -0.00195915  0.93450102  0.01149574
   0.49999908  0.93751178  0.12576994
   0.00195915  0.93450102  0.24004460
Direct configuration=    10
  -0.07823597  0.00487583  0.00487583
   0.49999908  0.12576994  0.00954573
   0.22208658  0.06082192  0.06082192
   0.77791342  0.19071842  0.06082192
  -0.00000000  0.12576994  0.12576994
   0.49999908  0.00954573  0.12576994
   0.22208658  0.19071842  0.19071842
   0.77791342  0.06082192  0.19071842
   0.07823597  0.00487583  0.24666451
   0.49999908  0.12576994  0.24199462
   0.07823597  0.24666451  0.00487583
   0.49999908  0.24199462  0.12576994
  -0.07823597  0.24666451  0.24666451
   0.00945891  0.01369252  0.31455653
   0.49999908  0.12576994  0.31200397
  -0.00945891  0.23784782  0.31455653
  -0.00945891  0.01369252  0.93698335
   0.49999908  0.12576994  0.93953591
   0.00945891  0.23784782  0.93698335
   0.00945891  0.31455653  0.01369252
   0.49999908  0.31200397  0.12576994
  -0.00945891  0.31455653  0.23784782
  -0.00945891  0.93698335  0.01369252
   0.49999908  0.93953591  0.12576994
   0.00945891  0.93698335  0.23784782
Direct configuration=    11
  -0.08626446  0.00651542  0.00651542
   0.49999908  0.12576994  0.01066786
   0.22015751  0.06124252  0.06124252
   0.77984249  0.19029782  0.06124252
  -0.00000000  0.12576994  0.12576994
   0.49999908  0.01066786  0.12576994
   0.22015751  0.19029782  0.19029782
   0.77984249  0.06124252  0.19029782
   0.08626446  0.00651542  0.24502492
   0.49999908  0.12576994  0.24087248
   0.08626446  0.24502492  0.00651542
   0.49999908  0.24087248  0.12576994
  -0.08626446  0.24502492  0.24502492
   0.01595645  0.01530163  0.31269557
   0.49999908  0.12576994  0.31052885
  -0.01595645  0.23623871  0.31269557
  -0.01595645  0.01530163  0.93884431
   0.49999908  0.12576994  0.94101103
   0.01595645  0.23623871  0.93884431
   0.01595645  0.31269557  0.01530163
   0.49999908  0.31052885  0.12576994
  -0.01595645  0.31269557  0.23623871
  -0.01595645  0.93884431  0.01530163
   0.49999908  0.94101103  0.12576994
   0.01595645  0.93884431  0.23623871
Direct configuration=    12
  -0.08782608  0.00704588  0.00704588
   0.49999908  0.12576994  0.01080765
   0.22031525  0.06129693  0.06129693
   0.77968475  0.19024341  0.06129693
  -0.00000000  0.12576994  0.12576994
   0.49999908  0.01080765  0.12576994
   0.22031525  0.19024341  0.19024341
   0.77968475  0.06129693  0.19024341
   0.08782608  0.00704588  0.24449446
   0.49999908  0.12576994  0.24073269
   0.08782608  0.24449446  0.00704588
   0.49999908  0.24073269  0.12576994
  -0.08782608  0.24449446  0.24449446
   0.01869170  0.01576051  0.31226278
   0.49999908  0.12576994  0.31042864
  -0.01869170  0.23577983  0.31226278
  -0.01869170  0.01576051  0.93927710
   0.49999908  0.12576994  0.94111124
   0.01869170  0.23577983  0.93927710
   0.01869170  0.31226278  0.01576051
   0.49999908  0.31042864  0.12576994
  -0.01869170  0.31226278  0.23577983
  -0.01869170  0.93927710  0.01576051
   0.49999908  0.94111124  0.12576994
   0.01869170  0.93927710  0.23577983
Direct configuration=    13
  -0.08960100  0.00761228  0.00761228
   0.49999908  0.12576994  0.01074057
   0.22065936  0.06140419  0.06140419
   0.77934064  0.19013615  0.06140419
  -0.00000000  0.12576994  0.12576994
   0.49999908  0.01074057  0.12576994
   0.22065936  0.19013615  0.19013615
   0.77934064  0.06140419  0.19013615
   0.08960100  0.00761228  0.24392806
   0.49999908  0.12576994  0.24079977
   0.08960100  0.24392806  0.00761228
   0.49999908  0.24079977  0.12576994
  -0.08960100  0.24392806  0.24392806
   0.02238095  0.01629555  0.31175984
   0.49999908  0.12576994  0.31036783
  -0.02238095  0.23524479  0.31175984
  -0.02238095  0.01629555  0.93978004
   0.49999908  0.12576994  0.94117205
   0.02238095  0.23524479  0.93978004
   0.02238095  0.31175984  0.01629555
   0.49999908  0.31036783  0.12576994
  -0.02238095  0.31175984  0.23524479
  -0.02238095  0.93978004  0.01629555
   0.49999908  0.94117205  0.12576994
   0.02238095  0.93978004  0.23524479
Direct configuration=    14
  -0.09595590  0.00947232  0.00947232
   0.49999908  0.12576994  0.01090411
   0.22128826  0.06175824  0.06175824
   0.77871174  0.18978210  0.06175824
  -0.00000000  0.12576994  0.12576994
   0.49999908  0.01090411  0.12576994
   0.22128826  0.18978210  0.18978210
   0.77871174  0.06175824  0.18978210
   0.09595590  0.00947232  0.24206802
   0.49999908  0.12576994  0.24063623
   0.09595590  0.24206802  0.00947232
   0.49999908  0.24063623  0.12576994
  -0.09595590  0.24206802  0.24206802
   0.03382653  0.01801180  0.31018185
   0.49999908  0.12576994  0.31027687
  -0.03382653  0.23352854  0.31018185
  -0.03382653  0.01801180  0.94135803
   0.49999908  0.12576994  0.94126301
   0.03382653  0.23352854  0.94135803
   0.03382653  0.31018185  0.01801180
   0.49999908  0.31027687  0.12576994
  -0.03382653  0.31018185  0.23352854
  -0.03382653  0.94135803  0.01801180
   0.49999908  0.94126301  0.12576994
   0.03382653  0.94135803  0.23352854
Direct configuration=    15
  -0.10778856  0.01271831  0.01271831
   0.49999908  0.12576994  0.01088023
   0.22180648  0.06233594  0.06233594
   0.77819352  0.18920440  0.06233594
  -0.00000000  0.12576994  0.12576994
   0.49999908  0.01088023  0.12576994
   0.22180648  0.18920440  0.18920440
   0.77819352  0.06233594  0.18920440
   0.10778856  0.01271831  0.23882203
   0.49999908  0.12576994  0.24066011
   0.10778856  0.23882203  0.01271831
   0.49999908  0.24066011  0.12576994
  -0.10778856  0.23882203  0.23882203
   0.05502655  0.02102769  0.30743716
   0.49999908  0.12576994  0.31021101
  -0.05502655  0.23051265  0.30743716
  -0.05502655  0.02102769  0.94410271
   0.49999908  0.12576994  0.94132886
   0.05502655  0.23051265  0.94410271
   0.05502655  0.30743716  0.02102769
   0.49999908  0.31021101  0.12576994
  -0.05502655  0.30743716  0.23051265
  -0.05502655  0.94410271  0.02102769
   0.49999908  0.94132886  0.12576994
   0.05502655  0.94410271  0.23051265
Direct configuration=    16
  -0.11258621  0.01374989  0.01374989
   0.49999908  0.12576994  0.01086388
   0.22164505  0.06240438  0.06240438
   0.77835495  0.18913596  0.06240438
  -0.00000000  0.12576994  0.12576994
   0.49999908  0.01086388  0.12576994
   0.22164505  0.18913596  0.18913596
   0.77835495  0.06240438  0.18913596
   0.11258621  0.01374989  0.23779045
   0.49999908  0.12576994  0.24067646
   0.11258621  0.23779045  0.01374989
   0.49999908  0.24067646  0.12576994
  -0.11258621  0.23779045  0.23779045
   0.06335141  0.02205701  0.30645368
   0.49999908  0.12576994  0.31034026
  -0.06335141  0.22948333  0.30645368
  -0.06335141  0.02205701  0.94508619
   0.49999908  0.12576994  0.94119961
   0.06335141  0.22948333  0.94508619
   0.06335141  0.30645368  0.02205701
   0.49999908  0.31034026  0.12576994
  -0.06335141  0.30645368  0.22948333
  -0.06335141  0.94508619  0.02205701
   0.49999908  0.94119961  0.12576994
   0.06335141  0.94508619  0.22948333
Direct configuration=    17
  -0.11752698  0.01471495  0.01471495
   0.49999908  0.12576994  0.01069365
   0.22120398  0.06237677  0.06237677
   0.77879602  0.18916357  0.06237677
  -0.00000000  0.12576994  0.12576994
   0.49999908  0.01069365  0.12576994
   0.22120398  0.18916357  0.18916357
   0.77879602  0.06237677  0.18916357
   0.11752698  0.01471495  0.23682539
   0.49999908  0.12576994  0.24084669
   0.11752698  0.23682539  0.01471495
   0.49999908  0.24084669  0.12576994
  -0.11752698  0.23682539  0.23682539
   0.07169885  0.02295668  0.30566695
   0.49999908  0.12576994  0.31041723
  -0.07169885  0.22858366  0.30566695
  -0.07169885  0.02295668  0.94587292
   0.49999908  0.12576994  0.94112265
   0.07169885  0.22858366  0.94587292
   0.07169885  0.30566695  0.02295668
   0.49999908  0.31041723  0.12576994
  -0.07169885  0.30566695  0.22858366
  -0.07169885  0.94587292  0.02295668
   0.49999908  0.94112265  0.12576994
   0.07169885  0.94587292  0.22858366
Direct configuration=    18
  -0.11901115  0.01485939  0.01485939
   0.49999908  0.12576994  0.01074839
   0.22114899  0.06233289  0.06233289
   0.77885101  0.18920745  0.06233289
  -0.00000000  0.12576994  0.12576994
   0.49999908  0.01074839  0.12576994
   0.22114899  0.18920745  0.18920745
   0.77885101  0.06233289  0.18920745
   0.11901115  0.01485939  0.23668095
   0.49999908  0.12576994  0.24079195
   0.11901115  0.23668095  0.01485939
   0.49999908  0.24079195  0.12576994
  -0.11901115  0.23668095  0.23668095
   0.07421423  0.02310000  0.30551316
   0.49999908  0.12576994  0.31055173
  -0.07421423  0.22844034  0.30551316
  -0.07421423  0.02310000  0.94602671
   0.49999908  0.12576994  0.94098815
   0.07421423  0.22844034  0.94602671
   0.07421423  0.30551316  0.02310000
   0.49999908  0.31055173  0.12576994
  -0.07421423  0.30551316  0.22844034
  -0.07421423  0.94602671  0.02310000
   0.49999908  0.94098815  0.12576994
   0.07421423  0.94602671  0.22844034
Direct configuration=    19
  -0.11946006  0.01489268  0.01489268
   0.49999908  0.12576994  0.01066725
   0.22095412  0.06230599  0.06230599
   0.77904588  0.18923435  0.06230599
  -0.00000000  0.12576994  0.12576994
   0.49999908  0.01066725  0.12576994
   0.22095412  0.18923435  0.18923435
   0.77904588  0.06230599  0.18923435
   0.11946006  0.01489268  0.23664766
   0.49999908  0.12576994  0.24087309
   0.11946006  0.23664766  0.01489268
   0.49999908  0.24087309  0.12576994
  -0.11946006  0.23664766  0.23664766
   0.07506746  0.02310048  0.30552050
   0.49999908  0.12576994  0.31052480
  -0.07506746  0.22843986  0.30552050
  -0.07506746  0.02310048  0.94601938
   0.49999908  0.12576994  0.94101508
   0.07506746  0.22843986  0.94601938
   0.07506746  0.30552050  0.02310048
   0.49999908  0.31052480  0.12576994
  -0.07506746  0.30552050  0.22843986
  -0.07506746  0.94601938  0.02310048
   0.49999908  0.94101508  0.12576994
   0.07506746  0.94601938  0.22843986
Direct configuration=    20
  -0.12020782  0.01495513  0.01495513
   0.49999908  0.12576994  0.01067543
   0.22086192  0.06228075  0.06228075
   0.77913808  0.18925959  0.06228075
  -0.00000000  0.12576994  0.12576994
   0.49999908  0.01067543  0.12576994
   0.22086192  0.18925959  0.18925959
   0.77913808  0.06228075  0.18925959
   0.12020782  0.01495513  0.23658521
   0.49999908  0.12576994  0.24086491
   0.12020782  0.23658521  0.01495513
   0.49999908  0.24086491  0.12576994
  -0.12020782  0.23658521  0.23658521
   0.07644287  0.02313308  0.30548480
   0.49999908  0.12576994  0.31057646
  -0.07644287  0.22840726  0.30548480
  -0.07644287  0.02313308  0.94605507
   0.49999908  0.12576994  0.94096341
   0.07644287  0.22840726  0.94605507
   0.07644287  0.30548480  0.02313308
   0.49999908  0.31057646  0.12576994
  -0.07644287  0.30548480  0.22840726
  -0.07644287  0.94605507  0.02313308
   0.49999908  0.94096341  0.12576994
   0.07644287  0.94605507  0.22840726
Direct configuration=    21
  -0.12157772  0.01508906  0.01508906
   0.49999908  0.12576994  0.01060112
   0.22058304  0.06223900  0.06223900
   0.77941696  0.18930134  0.06223900
  -0.00000000  0.12576994  0.12576994
   0.49999908  0.01060112  0.12576994
   0.22058304  0.18930134  0.18930134
   0.77941696  0.06223900  0.18930134
   0.12157772  0.01508906  0.23645128
   0.49999908  0.12576994  0.24093922
   0.12157772  0.23645128  0.01508906
   0.49999908  0.24093922  0.12576994
  -0.12157772  0.23645128  0.23645128
   0.07912920  0.02319774  0.30541346
   0.49999908  0.12576994  0.31059052
  -0.07912920  0.22834260  0.30541346
  -0.07912920  0.02319774  0.94612641
   0.49999908  0.12576994  0.94094936
   0.07912920  0.22834260  0.94612641
   0.07912920  0.30541346  0.02319774
   0.49999908  0.31059052  0.12576994
  -0.07912920  0.30541346  0.22834260
  -0.07912920  0.94612641  0.02319774
   0.49999908  0.94094936  0.12576994
   0.07912920  0.94612641  0.22834260
Direct configuration=    22
  -0.12255689  0.01519140  0.01519140
   0.49999908  0.12576994  0.01064869
   0.22050925  0.06221632  0.06221632
   0.77949075  0.18932402  0.06221632
  -0.00000000  0.12576994  0.12576994
   0.49999908  0.01064869  0.12576994
   0.22050925  0.18932402  0.18932402
   0.77949075  0.06221632  0.18932402
   0.12255689  0.01519140  0.23634894
   0.49999908  0.12576994  0.24089165
   0.12255689  0.23634894  0.01519140
   0.49999908  0.24089165  0.12576994
  -0.12255689  0.23634894  0.23634894
   0.08109124  0.02324665  0.30535404
   0.49999908  0.12576994  0.31066151
  -0.08109124  0.22829369  0.30535404
  -0.08109124  0.02324665  0.94618584
   0.49999908  0.12576994  0.94087837
   0.08109124  0.22829369  0.94618584
   0.08109124  0.30535404  0.02324665
   0.49999908  0.31066151  0.12576994
  -0.08109124  0.30535404  0.22829369
  -0.08109124  0.94618584  0.02324665
   0.49999908  0.94087837  0.12576994
   0.08109124  0.94618584  0.22829369
Direct configuration=    23
  -0.12305977  0.01525357  0.01525357
   0.49999908  0.12576994  0.01059380
   0.22038417  0.06220576  0.06220576
   0.77961583  0.18933458  0.06220576
  -0.00000000  0.12576994  0.12576994
   0.49999908  0.01059380  0.12576994
   0.22038417  0.18933458  0.18933458
   0.77961583  0.06220576  0.18933458
   0.12305977  0.01525357  0.23628677
   0.49999908  0.12576994  0.24094654
   0.12305977  0.23628677  0.01525357
   0.49999908  0.24094654  0.12576994
  -0.12305977  0.23628677  0.23628677
   0.08217451  0.02327553  0.30531648
   0.49999908  0.12576994  0.31062918
  -0.08217451  0.22826481  0.30531648
  -0.08217451  0.02327553  0.94622339
   0.49999908  0.12576994  0.94091069
   0.08217451  0.22826481  0.94622339
   0.08217451  0.30531648  0.02327553
   0.49999908  0.31062918  0.12576994
  -0.08217451  0.30531648  0.22826481
  -0.08217451  0.94622339  0.02327553
   0.49999908  0.94091069  0.12576994
   0.08217451  0.94622339  0.22826481
Direct configuration=    24
  -0.12363485  0.01532141  0.01532141
   0.49999908  0.12576994  0.01061810
   0.22033886  0.06219436  0.06219436
   0.77966114  0.18934598  0.06219436
  -0.00000000  0.12576994  0.12576994
   0.49999908  0.01061810  0.12576994
   0.22033886  0.18934598  0.18934598
   0.77966114  0.06219436  0.18934598
   0.12363485  0.01532141  0.23621893
   0.49999908  0.12576994  0.24092224
   0.12363485  0.23621893  0.01532141
   0.49999908  0.24092224  0.12576994
  -0.12363485  0.23621893  0.23621893
   0.08336361  0.02330794  0.30527458
   0.49999908  0.12576994  0.31065899
  -0.08336361  0.22823240  0.30527458
  -0.08336361  0.02330794  0.94626530
   0.49999908  0.12576994  0.94088088
   0.08336361  0.22823240  0.94626530
   0.08336361  0.30527458  0.02330794
   0.49999908  0.31065899  0.12576994
  -0.08336361  0.30527458  0.22823240
  -0.08336361  0.94626530  0.02330794
   0.49999908  0.94088088  0.12576994
   0.08336361  0.94626530  0.22823240
Direct configuration=    25
  -0.12452114  0.01543487  0.01543487
   0.49999908  0.12576994  0.01058107
   0.22017996  0.06217666  0.06217666
   0.77982004  0.18936368  0.06217666
  -0.00000000  0.12576994  0.12576994
   0.49999908  0.01058107  0.12576994
   0.22017996  0.18936368  0.18936368
   0.77982004  0.06217666  0.18936368
   0.12452114  0.01543487  0.23610547
   0.49999908  0.12576994  0.24095928
   0.12452114  0.23610547  0.01543487
   0.49999908  0.24095928  0.12576994
  -0.12452114  0.23610547  0.23610547
   0.08525949  0.02336283  0.30520446
   0.49999908  0.12576994  0.31064342
  -0.08525949  0.22817751  0.30520446
  -0.08525949  0.02336283  0.94633541
   0.49999908  0.12576994  0.94089645
   0.08525949  0.22817751  0.94633541
   0.08525949  0.30520446  0.02336283
   0.49999908  0.31064342  0.12576994
  -0.08525949  0.30520446  0.22817751
  -0.08525949  0.94633541  0.02336283
   0.49999908  0.94089645  0.12576994
   0.08525949  0.94633541  0.22817751
Direct configuration=    26
  -0.12556258  0.01556597  0.01556597
   0.49999908  0.12576994  0.01062808
   0.22010271  0.06215887  0.06215887
   0.77989729  0.18938147  0.06215887
  -0.00000000  0.12576994  0.12576994
   0.49999908  0.01062808  0.12576994
   0.22010271  0.18938147  0.18938147
   0.77989729  0.06215887  0.18938147
   0.12556258  0.01556597  0.23597437
   0.49999908  0.12576994  0.24091226
   0.12556258  0.23597437  0.01556597
   0.49999908  0.24091226  0.12576994
  -0.12556258  0.23597437  0.23597437
   0.08745195  0.02342962  0.30511788
   0.49999908  0.12576994  0.31068983
  -0.08745195  0.22811072  0.30511788
  -0.08745195  0.02342962  0.94642199
   0.49999908  0.12576994  0.94085004
   0.08745195  0.22811072  0.94642199
   0.08745195  0.30511788  0.02342962
   0.49999908  0.31068983  0.12576994
  -0.08745195  0.30511788  0.22811072
  -0.08745195  0.94642199  0.02342962
   0.49999908  0.94085004  0.12576994
   0.08745195  0.94642199  0.22811072
Direct configuration=    27
  -0.12603713  0.01563332  0.01563332
   0.49999908  0.12576994  0.01057832
   0.21998125  0.06215097  0.06215097
   0.78001875  0.18938938  0.06215097
  -0.00000000  0.12576994  0.12576994
   0.49999908  0.01057832  0.12576994
   0.21998125  0.18938938  0.18938938
   0.78001875  0.06215097  0.18938938
   0.12603713  0.01563332  0.23590702
   0.49999908  0.12576994  0.24096202
   0.12603713  0.23590702  0.01563332
   0.49999908  0.24096202  0.12576994
  -0.12603713  0.23590702  0.23590702
   0.08849286  0.02346506  0.30507393
   0.49999908  0.12576994  0.31065210
  -0.08849286  0.22807528  0.30507393
  -0.08849286  0.02346506  0.94646595
   0.49999908  0.12576994  0.94088778
   0.08849286  0.22807528  0.94646595
   0.08849286  0.30507393  0.02346506
   0.49999908  0.31065210  0.12576994
  -0.08849286  0.30507393  0.22807528
  -0.08849286  0.94646595  0.02346506
   0.49999908  0.94088778  0.12576994
   0.08849286  0.94646595  0.22807528
Direct configuration=    28
  -0.12652217  0.01569708  0.01569708
   0.49999908  0.12576994  0.01060956
   0.21995235  0.06214399  0.06214399
   0.78004765  0.18939635  0.06214399
  -0.00000000  0.12576994  0.12576994
   0.49999908  0.01060956  0.12576994
   0.21995235  0.18939635  0.18939635
   0.78004765  0.06214399  0.18939635
   0.12652217  0.01569708  0.23584326
   0.49999908  0.12576994  0.24093078
   0.12652217  0.23584326  0.01569708
   0.49999908  0.24093078  0.12576994
  -0.12652217  0.23584326  0.23584326
   0.08951504  0.02350027  0.30502954
   0.49999908  0.12576994  0.31067643
  -0.08951504  0.22804007  0.30502954
  -0.08951504  0.02350027  0.94651034
   0.49999908  0.12576994  0.94086344
   0.08951504  0.22804007  0.94651034
   0.08951504  0.30502954  0.02350027
   0.49999908  0.31067643  0.12576994
  -0.08951504  0.30502954  0.22804007
  -0.08951504  0.94651034  0.02350027
   0.49999908  0.94086344  0.12576994
   0.08951504  0.94651034  0.22804007
Direct configuration=    29
  -0.12719549  0.01579121  0.01579121
   0.49999908  0.12576994  0.01058461
   0.21983456  0.06213377  0.06213377
   0.78016544  0.18940657  0.06213377
  -0.00000000  0.12576994  0.12576994
   0.49999908  0.01058461  0.12576994
   0.21983456  0.18940657  0.18940657
   0.78016544  0.06213377  0.18940657
   0.12719549  0.01579121  0.23574913
   0.49999908  0.12576994  0.24095573
   0.12719549  0.23574913  0.01579121
   0.49999908  0.24095573  0.12576994
  -0.12719549  0.23574913  0.23574913
   0.09095276  0.02355171  0.30496559
   0.49999908  0.12576994  0.31065622
  -0.09095276  0.22798863  0.30496559
  -0.09095276  0.02355171  0.94657429
   0.49999908  0.12576994  0.94088365
   0.09095276  0.22798863  0.94657429
   0.09095276  0.30496559  0.02355171
   0.49999908  0.31065622  0.12576994
  -0.09095276  0.30496559  0.22798863
  -0.09095276  0.94657429  0.02355171
   0.49999908  0.94088365  0.12576994
   0.09095276  0.94657429  0.22798863
Direct configuration=    30
  -0.12814220  0.01591879  0.01591879
   0.49999908  0.12576994  0.01062904
   0.21975192  0.06211988  0.06211988
   0.78024808  0.18942046  0.06211988
  -0.00000000  0.12576994  0.12576994
   0.49999908  0.01062904  0.12576994
   0.21975192  0.18942046  0.18942046
   0.78024808  0.06211988  0.18942046
   0.12814220  0.01591879  0.23562155
   0.49999908  0.12576994  0.24091130
   0.12814220  0.23562155  0.01591879
   0.49999908  0.24091130  0.12576994
  -0.12814220  0.23562155  0.23562155
   0.09293626  0.02362479  0.30487318
   0.49999908  0.12576994  0.31068697
  -0.09293626  0.22791555  0.30487318
  -0.09293626  0.02362479  0.94666669
   0.49999908  0.12576994  0.94085291
   0.09293626  0.22791555  0.94666669
   0.09293626  0.30487318  0.02362479
   0.49999908  0.31068697  0.12576994
  -0.09293626  0.30487318  0.22791555
  -0.09293626  0.94666669  0.02362479
   0.49999908  0.94085291  0.12576994
   0.09293626  0.94666669  0.22791555
Direct configuration=    31
  -0.12876233  0.01600966  0.01600966
   0.49999908  0.12576994  0.01058256
   0.21961746  0.06211035  0.06211035
   0.78038254  0.18942999  0.06211035
  -0.00000000  0.12576994  0.12576994
   0.49999908  0.01058256  0.12576994
   0.21961746  0.18942999  0.18942999
   0.78038254  0.06211035  0.18942999
   0.12876233  0.01600966  0.23553068
   0.49999908  0.12576994  0.24095778
   0.12876233  0.23553068  0.01600966