   25   25    1    1
  0.1012713E+03  0.5431010E-09  0.2159101E-08  0.2159101E-08  0.5000000E-15
  1.000000000000000E-004
  CAR 
 unknown system                          
     64      3     46
 
  0.0000000E+00  0.0000000E+00  0.0000000E+00  0.2000000E+00
    1      -14.993989   1.000000
    2      -13.650676   1.000000
    3      -13.650641   1.000000
    4      -12.413023   1.000000
    5      -11.731211   1.000000
    6      -11.645641   1.000000
    7      -11.281125   1.000000
    8      -11.271015   1.000000
    9      -11.271010   1.000000
   10      -10.688548   1.000000
   11      -10.004315   1.000000
   12      -10.004306   1.000000
   13       -8.327223   1.000000
   14       -7.629617   1.000000
   15       -7.629597   1.000000
   16       -7.378180   1.000000
   17       -7.246991   1.000000
   18       -7.246940   1.000000
   19       -7.178461   1.000000
   20       -7.121451   1.000000
   21       -7.116275   1.000000
   22       -6.988636   1.000000
   23       -6.988624   1.000000
   24       -6.781556   1.000000
   25       -6.432507   1.000000
   26       -5.986651   1.000000
   27       -5.419528   1.000000
   28       -5.419526   1.000000
   29       -4.858396   1.000000
   30       -4.850110   1.000000
   31       -4.539465   1.000000
   32       -4.539445   1.000000
   33       -2.693422   0.000000
   34       -2.307008   0.000000
   35       -2.306979   0.000000
   36       -2.239046   0.000000
   37       -2.095362   0.000000
   38       -1.149537   0.000000
   39       -1.149517   0.000000
   40       -0.583538   0.000000
   41       -0.549286   0.000000
   42       -0.110453   0.000000
   43       -0.110429   0.000000
   44        0.059040   0.000000
   45        0.360514   0.000000
   46        0.421587   0.000000
 
  0.2000000E+00  0.0000000E+00  0.0000000E+00  0.4000000E+00
    1      -14.823559   1.000000
    2      -13.508471   1.000000
    3      -13.508432   1.000000
    4      -12.573250   1.000000
    5      -12.107164   1.000000
    6      -11.688732   1.000000
    7      -11.583773   1.000000
    8      -11.583770   1.000000
    9      -11.450823   1.000000
   10       -9.988184   1.000000
   11       -9.955706   1.000000
   12       -9.955706   1.000000
   13       -8.573209   1.000000
   14       -8.030676   1.000000
   15       -8.030672   1.000000
   16       -7.514268   1.000000
   17       -7.444228   1.000000
   18       -7.256845   1.000000
   19       -7.147945   1.000000
   20       -7.147930   1.000000
   21       -6.756759   1.000000
   22       -6.717376   1.000000
   23       -6.397656   1.000000
   24       -6.397626   1.000000
   25       -6.394654   1.000000
   26       -6.035969   1.000000
   27       -5.436574   1.000000
   28       -5.436566   1.000000
   29       -5.091640   1.000000
   30       -4.598370   1.000000
   31       -4.598349   1.000000
   32       -4.093729   1.000000
   33       -2.816576   0.000000
   34       -2.354522   0.000000
   35       -2.354485   0.000000
   36       -1.919617   0.000000
   37       -1.482821   0.000000
   38       -0.872263   0.000000
   39       -0.824436   0.000000
   40       -0.824408   0.000000
   41       -0.656273   0.000000
   42       -0.427892   0.000000
   43       -0.317236   0.000000
   44       -0.317213   0.000000
   45        0.343033   0.000000
   46        0.512265   0.000000
 
  0.4000000E+00  0.0000000E+00  0.0000000E+00  0.4000000E+00
    1      -14.325280   1.000000
    2      -13.494004   1.000000
    3      -13.143475   1.000000
    4      -13.143414   1.000000
    5      -12.195874   1.000000
    6      -12.195851   1.000000
    7      -12.069749   1.000000
    8      -11.615042   1.000000
    9      -11.437489   1.000000
   10       -9.878443   1.000000
   11       -9.878435   1.000000
   12       -9.477508   1.000000
   13       -9.075831   1.000000
   14       -8.176794   1.000000
   15       -8.176793   1.000000
   16       -7.833709   1.000000
   17       -7.663221   1.000000
   18       -7.257126   1.000000
   19       -7.257112   1.000000
   20       -7.235130   1.000000
   21       -6.557898   1.000000
   22       -6.463421   1.000000
   23       -6.188548   1.000000
   24       -6.018866   1.000000
   25       -6.018839   1.000000
   26       -5.782042   1.000000
   27       -5.436857   1.000000
   28       -5.436857   1.000000
   29       -5.262454   1.000000
   30       -4.185635   1.000000
   31       -4.185627   1.000000
   32       -3.668138   1.000000
   33       -2.943161   0.000000
   34       -2.243220   0.000000
   35       -2.243181   0.000000
   36       -1.542843   0.000000
   37       -1.110850   0.000000
   38       -1.069827   0.000000
   39       -1.069806   0.000000
   40       -0.685123   0.000000
   41       -0.542376   0.000000
   42        0.057359   0.000000
   43        0.057361   0.000000
   44        0.260326   0.000000
   45        0.374558   0.000000
   46        0.467651   0.000000
