unknown system                          
   1.00000000000000     
     5.431010    0.000000    0.000000
     0.000000   21.591010    0.000000
     0.000000    0.000000   21.591010
   Si   H 
    13    12
Direct
  0.863211  0.017207  0.017207
  0.499999  0.125770  0.010698
  0.218555  0.062005  0.062005
  0.781445  0.189535  0.062005
  0.000000  0.125770  0.125770
  0.499999  0.010698  0.125770
  0.218555  0.189535  0.189535
  0.781445  0.062005  0.189535
  0.136789  0.017207  0.234333
  0.499999  0.125770  0.240842
  0.136789  0.234333  0.017207
  0.499999  0.240842  0.125770
  0.863211  0.234333  0.234333
  0.110897  0.024488  0.303865
  0.499999  0.125770  0.310600
  0.889103  0.227053  0.303865
  0.889103  0.024488  0.947674
  0.499999  0.125770  0.940940
  0.110897  0.227053  0.947674
  0.110897  0.303865  0.024488
  0.499999  0.310600  0.125770
  0.889103  0.303865  0.227053
  0.889103  0.947674  0.024488
  0.499999  0.940940  0.125770
  0.110897  0.947674  0.227053
 
   24   84   84
 0.30928     0.33346     0.35053     0.36596     0.35508     0.31790     0.29023     0.22174     0.11739     0.54213E-01
 0.30107E-01 0.31863E-01 0.71126E-01 0.16524     0.29934     0.44788     0.50378     0.43814     0.33356     0.27595    
 0.27621     0.29081     0.28973     0.28984     0.36672     0.44146     0.48719     0.51960     0.52892     0.49681    
 0.43392     0.32400     0.18816     0.95615E-01 0.50913E-01 0.44636E-01 0.86160E-01 0.21341     0.40430     0.57117    
 0.63036     0.55919     0.41709     0.31157     0.28431     0.28478     0.27754     0.29836     0.48119     0.54814    
 0.59351     0.64133     0.65955     0.61202     0.52081     0.39821     0.26025     0.15243     0.87778E-01 0.68218E-01
 0.10094     0.22959     0.46724     0.66107     0.72909     0.69076     0.58617     0.48705     0.45026     0.43423    
 0.40326     0.41486     0.54595     0.60371     0.65560     0.70514     0.70333     0.64335     0.55814     0.45629    
 0.34373     0.23877     0.15531     0.11384     0.12729     0.22554     0.44811     0.67920     0.77953     0.77405    
 0.70353     0.60473     0.52541     0.47573     0.45389     0.48246     0.54995     0.60399     0.66329     0.69836    
 0.67671     0.62513     0.57128     0.51400     0.44897     0.36832     0.27570     0.20525     0.18831     0.24219    
 0.39298     0.60941     0.75707     0.79418     0.75506     0.66569     0.56183     0.48750     0.46782     0.49826    
 0.48813     0.54228     0.60095     0.61887     0.60048     0.58526     0.58349     0.58539     0.57480     0.53215    
 0.45395     0.36500     0.30915     0.31182     0.37997     0.51068     0.65265     0.73237     0.73321     0.67116    
 0.57579     0.49223     0.45315     0.45703     0.36579     0.41345     0.45542     0.47484     0.49923     0.54812    
 0.61197     0.66923     0.69687     0.68436     0.62791     0.53905     0.46278     0.43584     0.44873     0.48212    
 0.53434     0.58769     0.60625     0.57385     0.49992     0.41641     0.35977     0.34408     0.21284     0.24252    
 0.27598     0.32502     0.40979     0.52805     0.64961     0.73835     0.77937     0.76860     0.69899     0.58698    
 0.49868     0.48478     0.51866     0.53175     0.50044     0.46033     0.42577     0.38194     0.32393     0.25969    
 0.21153     0.19706     0.85831E-01 0.10492     0.14200     0.21699     0.34622     0.51449     0.66951     0.76926    
 0.80247     0.76276     0.64194     0.47951     0.37856     0.38537     0.46581     0.53851     0.52816     0.43394    
 0.32293     0.23339     0.16616     0.11631     0.86296E-01 0.77830E-01 0.29228E-01 0.43474E-01 0.77778E-01 0.15304    
 0.28850     0.47394     0.64632     0.74918     0.76016     0.67109     0.48808     0.30967     0.23311     0.25477    
 0.35258     0.47928     0.54453     0.48747     0.34040     0.19686     0.10512     0.55733E-01 0.32999E-01 0.25902E-01
 0.13980E-01 0.20694E-01 0.41162E-01 0.95277E-01 0.20885     0.38866     0.57164     0.67796     0.66645     0.53543    
 0.34108     0.20905     0.16949     0.19442     0.29176     0.45133     0.57257     0.57111     0.44360     0.26279    
 0.12698     0.54348E-01 0.24574E-01 0.14639E-01 0.13320E-01 0.14593E-01 0.25241E-01 0.57719E-01 0.13368     0.27729    
 0.45843     0.58354     0.57979     0.45437     0.29057     0.19187     0.16651     0.20280     0.32844     0.51982    
 0.65342     0.66577     0.55950     0.37348     0.19906     0.88419E-01 0.38329E-01 0.19094E-01 0.25827E-01 0.22986E-01
 0.29952E-01 0.52809E-01 0.10344     0.20077     0.34992     0.49754     0.54600     0.47182     0.34016     0.24250    
 0.21996     0.29123     0.46586     0.65420     0.75025     0.74236     0.63994     0.46490     0.28036     0.14504    
 0.72213E-01 0.39032E-01 0.74606E-01 0.67407E-01 0.75713E-01 0.10434     0.15282     0.22211     0.31841     0.43767    
 0.53146     0.53295     0.45170     0.36680     0.35738     0.45772     0.62612     0.75550     0.80072     0.76968    
 0.66938     0.51118     0.33899     0.20666     0.13050     0.93093E-01 0.19346     0.17868     0.19181     0.23715    
 0.29914     0.35764     0.40622     0.45080     0.50250     0.53753     0.51930     0.47921     0.49053     0.58108    
 0.69860     0.77292     0.78593     0.74485     0.65385     0.52670     0.40062     0.30854     0.25489     0.22103    
 0.34677     0.32572     0.34257     0.39996     0.48168     0.55209     0.58285     0.56739     0.52419     0.48596    
 0.46138     0.45006     0.47688     0.55438     0.64432     0.70003     0.71038     0.67963     0.61674     0.54429    
 0.48589     0.45374     0.43188     0.39241     0.47536     0.44620     0.44575     0.48777     0.57217     0.66550    
 0.72324     0.71730     0.63556     0.50134     0.38418     0.32603     0.32969     0.38974     0.47896     0.55377    
 0.59162     0.59597     0.58617     0.58005     0.58852     0.60374     0.58706     0.52950     0.54577     0.49678    
 0.46891     0.49023     0.56629     0.67029     0.75690     0.79143     0.74774     0.59620     0.38751     0.24761    
 0.19996     0.22181     0.29602     0.38818     0.46437     0.52211     0.57236     0.62037     0.66878     0.69166    
 0.65928     0.59954     0.54996     0.48693     0.45611     0.47634     0.53027     0.61503     0.71368     0.78052    
 0.78099     0.67527     0.44057     0.22606     0.13261     0.12249     0.16754     0.25265     0.35638     0.46321    
 0.56113     0.64323     0.70409     0.70874     0.66037     0.60697     0.49312     0.42749     0.41515     0.44650    
 0.46626     0.50709     0.60532     0.70495     0.73849     0.66918     0.46788     0.23046     0.10296     0.72580E-01
 0.94543E-01 0.16106     0.27093     0.40515     0.52845     0.61903     0.66980     0.65230     0.60406     0.55816    
 0.38185     0.31185     0.29209     0.30282     0.30367     0.33169     0.43816     0.57760     0.64465     0.58619    
 0.41479     0.21867     0.87425E-01 0.46992E-01 0.54621E-01 0.10152     0.19832     0.33404     0.45024     0.51666    
 0.55147     0.53810     0.50382     0.45732     0.30816     0.27855     0.27245     0.27220     0.26016     0.26612    
 0.33393     0.45002     0.52109     0.46528     0.31266     0.17312     0.73332E-01 0.33259E-01 0.32221E-01 0.58697E-01
 0.12648     0.23547     0.31068     0.34040     0.37672     0.38578     0.36795     0.34345     0.39929     0.47352    
 0.53344     0.55436     0.52241     0.46213     0.41873     0.40352     0.38907     0.32758     0.21560     0.11516    
 0.52254E-01 0.23660E-01 0.19276E-01 0.30577E-01 0.66263E-01 0.12878     0.16070     0.18217     0.21766     0.23482    
 0.25774     0.32021     0.62174     0.75249     0.82649     0.84782     0.82067     0.74489     0.62067     0.45260    
 0.30146     0.21331     0.14728     0.72489E-01 0.31550E-01 0.15864E-01 0.11775E-01 0.15985E-01 0.32028E-01 0.57560E-01
 0.70909E-01 0.97129E-01 0.12161     0.14860     0.24221     0.43253     0.81296     0.90950     0.95038     0.95771    
 0.93875     0.88231     0.76973     0.55092     0.29245     0.15964     0.11024     0.45614E-01 0.17478E-01 0.92758E-02
 0.67195E-02 0.81377E-02 0.14958E-01 0.25158E-01 0.34008E-01 0.63076E-01 0.83725E-01 0.13724     0.32938     0.62674    
 0.91845     0.97181     0.98765     0.98947     0.98094     0.94756     0.86439     0.66395     0.35065     0.14858    
 0.90767E-01 0.29874E-01 0.11297E-01 0.56778E-02 0.36778E-02 0.37482E-02 0.62471E-02 0.10730E-01 0.17421E-01 0.49051E-01
 0.77549E-01 0.18311     0.48422     0.79101     0.95887     0.98682     0.99436     0.99525     0.99134     0.97387    
 0.92381     0.76420     0.43440     0.15169     0.76768E-01 0.20048E-01 0.78134E-02 0.35900E-02 0.19712E-02 0.17108E-02
 0.27051E-02 0.52741E-02 0.10329E-01 0.44273E-01 0.87871E-01 0.26710     0.63648     0.88592     0.97470     0.98988    
 0.99484     0.99561     0.99297     0.98200     0.95049     0.81593     0.46822     0.15021     0.64515E-01 0.16045E-01
 0.60266E-02 0.27059E-02 0.10856E-02 0.89579E-03 0.15399E-02 0.31382E-02 0.76844E-02 0.42569E-01 0.10569     0.31969    
 0.71991     0.93117     0.97793     0.98876     0.99117     0.99125     0.98922     0.98057     0.94596     0.77990    
 0.39938     0.14046     0.46278E-01 0.90298E-02 0.23732E-02 0.12657E-02 0.48131E-03 0.41583E-03 0.10526E-02 0.20487E-02
 0.63386E-02 0.42694E-01 0.14412     0.30620     0.66233     0.92170     0.95061     0.98120     0.99042     0.99157    
 0.98642     0.96772     0.89608     0.65752     0.32101     0.12951     0.30681E-01 0.48895E-02 0.16496E-02 0.93936E-03
 0.23760E-03 0.16628E-03 0.55811E-03 0.13215E-02 0.35643E-02 0.27623E-01 0.17709     0.37084     0.60948     0.83968    
 0.81370     0.90004     0.92083     0.92053     0.90599     0.85016     0.70867     0.50793     0.28438     0.84831E-01
 0.11581E-01 0.15811E-02 0.59690E-03 0.33114E-03 0.97068E-04 0.65573E-04 0.31784E-03 0.12965E-02 0.32500E-02 0.13477E-01
 0.87025E-01 0.29262     0.44983     0.62947     0.88059     0.88772     0.95047     0.97571     0.95799     0.91842    
 0.84686     0.53187     0.15658     0.26427E-01 0.52453E-02 0.18954E-02 0.80459E-03 0.22389E-03 0.59585E-04 0.47939E-04
 0.14151E-03 0.84954E-03 0.26380E-02 0.83123E-02 0.51047E-01 0.43445     0.87081     0.94325     0.34321     0.55895    
 0.60543     0.52794     0.40101     0.26292     0.18754     0.13225     0.43440E-01 0.83334E-02 0.27065E-02 0.64903E-03
 0.87363E-04 0.22261E-04 0.38332E-04 0.91717E-04 0.63251E-04 0.24508E-03 0.49329E-02 0.89634E-02 0.58114E-02 0.87779E-02
 0.36573E-01 0.14189     0.75277     0.78014     0.38069     0.19713     0.15748     0.14698     0.59709     0.54377E-01
 0.11824E-01 0.88043E-02 0.15343E-01 0.12156E-01 0.33977E-02 0.13744E-03 0.13789E-03 0.91576E-04 0.24016E-04 0.33937E-04
 0.22320E-03 0.21318E-02 0.89835     0.64184E-02 0.15405E-01 0.15286     0.28783E-02 0.36461E-02 0.37414E-02 0.32732E-02
 0.20837E-02 0.14050E-02 0.17707E-02 0.71639E-02 0.93986E-02 0.15778E-02 0.14470E-03 0.12793E-04 0.46610E-05 0.69287E-05
 0.77446E-05 0.12536E-04 0.14313E-04 0.84060E-04 0.11137E-03 0.18516E-03 0.83272E-03 0.15764E-01 0.35281E-02 0.20747E-02
 0.11083E-02 0.83029E-03 0.40144E-03 0.24112E-03 0.22331E-03 0.29192E-03 0.14632E-02 0.23191E-02 0.41225E-03 0.29144E-03
 0.70438E-03 0.91304E-05 0.30412E-05 0.53685E-05 0.15338E-04 0.10455E-05 0.30277E-05 0.41437E-05 0.10732E-04 0.17480E-03
 0.42778E-05 0.63032E-05 0.47164E-04 0.46954E-03 0.33525E-04 0.69002E-04 0.27183E-02 0.29317E-02 0.12457E-03 0.20280E-04
 0.22153E-04 0.69179E-04 0.52827E-04 0.92538E-05 0.39187E-05 0.76131E-06 0.26906E-06 0.10734E-06 0.11283E-06 0.30319E-06
 0.10587E-05 0.54273E-02 0.14194E-03 0.20319     0.18900E-05 0.37000E-05 0.14022E-03 0.19044E-04 0.95944E-06 0.27078E-06
 0.30696E-07 0.12877E-07 0.31627E-07 0.16514E-06 0.14459E-05 0.56316E-03 0.30658E-04 0.49049E-04 0.22868E-05 0.25304E-07
 0.26437E-08 0.26139E-08 0.18042E-06 0.26478E-06 0.15781E-06 0.70454E-07 0.38326E-06 0.44257E-05 0.40555E-08 0.67936E-09
 0.48081E-08 0.15976E-06 0.56880E-05 0.23864E-06 0.31976E-07 0.20392E-07 0.26765E-07 0.18244E-06 0.30860E-05 0.25590E-05
 0.15749E-05 0.37523E-06 0.10211E-06 0.24702E-08 0.71824E-10 0.40551E-09 0.62031E-05 0.17242E-06 0.63242E-07 0.42164E-07
 0.41393E-07 0.29071E-05 0.93990E-08 0.57951E-08 0.14211E-07 0.21182E-06 0.34643E-08 0.95769E-10 0.44755E-13 0.39344E-14
 0.38258E-12 0.18042E-09 0.38555E-08 0.14669E-06 0.60460E-06 0.69062E-06 0.99254E-09 0.12021E-09 0.12724E-09 0.22023E-09
 0.26399E-08 0.56541E-07 0.28181E-07 0.47242E-06 0.38832E-07 0.58533E-10 0.67427E-12 0.30963E-12 0.30909E-14 0.60418E-10
 0.14963E-08 0.63857E-09 0.60859E-09 0.53366E-09 0.24309E-09 0.58757E-10 0.26935E-09 0.58035E-05 0.51332E-07 0.15785E-04
 0.10757E-08 0.24200E-10 0.33674E-11 0.11640E-10 0.11459E-08 0.10176E-06 0.34032E-04 0.39791E-08 0.50466E-08 0.15115E-08
 0.15713E-09 0.14539E-09 0.16454E-09 0.24105E-09 0.34472E-11 0.25495E-11 0.20725E-11 0.15491E-11 0.13620E-11 0.87001E-15
 0.67275E-10 0.29370E-07 0.24777E-06 0.62891E-07 0.95876E-10 0.11611E-10 0.11299E-10 0.35848E-10 0.39718E-09 0.10149E-06
 0.57128E-04 0.23015E-08 0.10989E-08 0.23669E-10 0.32863E-11 0.15375E-11 0.17148E-11 0.12166E-11 0.55558E-10 0.46366E-10
 0.16152E-09 0.18586E-09 0.59446E-10 0.70122E-11 0.48374E-10 0.39892E-07 0.36000E-07 0.12525E-06 0.58142E-10 0.96661E-13
 0.81979E-12 0.15886E-12 0.69452E-09 0.72215E-06 0.37984E-05 0.66868E-09 0.75557E-09 0.37193E-09 0.53281E-10 0.74300E-10
 0.67527E-10 0.28114E-10 0.20855E-11 0.60214E-11 0.27146E-11 0.19671E-11 0.23301E-11 0.17423E-11 0.23581E-11 0.26382E-09
 0.10768E-06 0.38705E-09 0.11019E-10 0.94265E-11 0.10774E-10 0.20680E-10 0.36538E-10 0.38864E-08 0.91744E-06 0.31280E-09
 0.11698E-09 0.10474E-09 0.61503E-11 0.26394E-11 0.31695E-11 0.58375E-11 0.20433E-10 0.15526E-10 0.81807E-10 0.10121E-09
 0.31128E-10 0.40011E-11 0.56508E-11 0.60391E-09 0.22273E-05 0.39511E-08 0.16219E-10 0.88507E-12 0.29364E-11 0.31213E-11
 0.37326E-10 0.75809E-07 0.59963E-07 0.15837E-09 0.30148E-09 0.25819E-09 0.42609E-10 0.64815E-10 0.48330E-10 0.12315E-10
 0.46681E-11 0.64268E-11 0.27311E-11 0.19791E-11 0.24314E-11 0.20037E-11 0.11027E-11 0.21831E-09 0.25836E-07 0.14146E-09
 0.32464E-11 0.53403E-11 0.70195E-11 0.14966E-10 0.28408E-10 0.14306E-07 0.15782E-07 0.18889E-10 0.72463E-12 0.11278E-09
 0.66450E-11 0.30371E-11 0.37723E-11 0.80243E-11 0.18625E-10 0.11581E-10 0.61535E-10 0.78319E-10 0.25418E-10 0.40471E-11
 0.41273E-11 0.22131E-09 0.29919E-07 0.14001E-08 0.64306E-11 0.10626E-11 0.23525E-11 0.21937E-11 0.39480E-10 0.17441E-06
 0.24839E-07 0.16813E-09 0.25273E-09 0.20246E-09 0.38571E-10 0.66006E-10 0.47457E-10 0.12440E-10 0.80044E-11 0.66483E-11
 0.26047E-11 0.19330E-11 0.25973E-11 0.29459E-11 0.24462E-15 0.10767E-09 0.25627E-07 0.18085E-09 0.51083E-11 0.50887E-11
 0.60474E-11 0.10527E-10 0.15329E-10 0.19299E-08 0.51642E-08 0.38305E-10 0.25923E-11 0.10507E-09 0.73217E-11 0.35210E-11
 0.44129E-11 0.96640E-11 0.16985E-10 0.92252E-11 0.49931E-10 0.66773E-10 0.22896E-10 0.45027E-11 0.50508E-11 0.25769E-09
 0.33730E-07 0.11232E-08 0.24254E-11 0.14233E-11 0.31667E-11 0.36424E-11 0.21463E-10 0.19512E-06 0.34684E-07 0.15253E-09
 0.27013E-09 0.17924E-09 0.39163E-10 0.75820E-10 0.53027E-10 0.13276E-10 0.91584E-11 0.62909E-11 0.23474E-11 0.17591E-11
 0.25216E-11 0.33823E-11 0.11919E-13 0.92308E-10 0.12600E-07 0.20616E-10 0.29655E-11 0.42544E-11 0.61177E-11 0.12876E-10
 0.24909E-10 0.79863E-08 0.10600E-07 0.44684E-10 0.13114E-12 0.10474E-09 0.79184E-11 0.39666E-11 0.50368E-11 0.10892E-10
 0.16429E-10 0.73410E-11 0.39486E-10 0.53811E-10 0.20235E-10 0.47007E-11 0.54528E-11 0.16373E-09 0.22680E-07 0.97845E-09
 0.40723E-11 0.13177E-11 0.31788E-11 0.34919E-11 0.44490E-10 0.13206E-05 0.20724E-07 0.62759E-10 0.22040E-09 0.15347E-09
 0.39697E-10 0.82399E-10 0.59448E-10 0.14201E-10 0.78329E-11 0.56708E-11 0.21084E-11 0.15975E-11 0.24101E-11 0.35745E-11
 0.46907E-13 0.78234E-10 0.67619E-08 0.76757E-11 0.22314E-11 0.41673E-11 0.58221E-11 0.11747E-10 0.91983E-11 0.19877E-09
 0.13697E-08 0.25834E-10 0.20965E-11 0.86835E-10 0.82090E-11 0.44692E-11 0.57477E-11 0.11578E-10 0.16018E-10 0.65695E-11
 0.31640E-10 0.44140E-10 0.17899E-10 0.52578E-11 0.71916E-11 0.27495E-09 0.12967E-07 0.54129E-09 0.26874E-11 0.11743E-11
 0.26013E-11 0.30499E-11 0.51681E-10 0.31903E-06 0.18974E-07 0.68009E-10 0.25211E-09 0.12635E-09 0.39311E-10 0.90969E-10
 0.67743E-10 0.15349E-10 0.86388E-11 0.52328E-11 0.18508E-11 0.14222E-11 0.22841E-11 0.40028E-11 0.46973E-12 0.30350E-10
 0.75206E-08 0.43400E-10 0.33501E-11 0.41586E-11 0.58660E-11 0.11588E-10 0.14809E-10 0.11242E-08 0.78497E-08 0.43259E-10
 0.18707E-10 0.72886E-10 0.85922E-11 0.49770E-11 0.65024E-11 0.12924E-10 0.16348E-10 0.60009E-11 0.25682E-10 0.35392E-10
 0.15858E-10 0.55151E-11 0.80979E-11 0.18722E-09 0.32353E-08 0.36458E-09 0.18424E-11 0.11452E-11 0.26470E-11 0.30329E-11
 0.44511E-10 0.45679E-06 0.10677E-07 0.11188E-09 0.45550E-09 0.10889E-09 0.38741E-10 0.98938E-10 0.73251E-10 0.16637E-10
 0.73258E-11 0.45415E-11 0.16197E-11 0.12544E-11 0.21077E-11 0.40807E-11 0.75602E-12 0.24958E-10 0.19143E-07 0.79703E-10
 0.28105E-11 0.38683E-11 0.50697E-11 0.10847E-10 0.20028E-10 0.32496E-07 0.52738E-08 0.26552E-10 0.74461E-10 0.57841E-10
 0.87123E-11 0.54925E-11 0.72700E-11 0.13500E-10 0.13948E-10 0.52491E-11 0.20140E-10 0.28132E-10 0.13366E-10 0.58189E-11
 0.99929E-11 0.22222E-09 0.24008E-07 0.63165E-09 0.33641E-11 0.95634E-12 0.24353E-11 0.29053E-11 0.69837E-10 0.24976E-04
 0.13304E-07 0.13040E-09 0.53608E-09 0.79427E-10 0.36402E-10 0.10536E-09 0.80129E-10 0.17172E-10 0.69113E-11 0.39925E-11
 0.13902E-11 0.10880E-11 0.19535E-11 0.43504E-11 0.51527E-12 0.12908E-09 0.18721E-07 0.59240E-10 0.19040E-11 0.37831E-11
 0.50660E-11 0.10327E-10 0.67738E-11 0.21436E-07 0.45044E-08 0.77112E-10 0.35189E-09 0.41462E-10 0.85840E-11 0.58865E-11
 0.78849E-11 0.13892E-10 0.14250E-10 0.47663E-11 0.15455E-10 0.22308E-10 0.11785E-10 0.63998E-11 0.15707E-10 0.26689E-09
 0.13777E-07 0.41353E-09 0.15910E-11 0.13733E-11 0.24673E-11 0.18943E-11 0.91602E-10 0.71549E-05 0.23367E-07 0.14481E-09
 0.62558E-09 0.63717E-10 0.33109E-10 0.10801E-09 0.84190E-10 0.18335E-10 0.53159E-11 0.33923E-11 0.11855E-11 0.95034E-12
 0.17604E-11 0.41749E-11 0.66677E-12 0.15882E-09 0.18323E-07 0.10209E-09 0.42128E-11 0.48168E-11 0.63219E-11 0.12275E-10
 0.38769E-10 0.29248E-04 0.62025E-08 0.76313E-10 0.93722E-09 0.28920E-10 0.82531E-11 0.62903E-11 0.85017E-11 0.13697E-10
 0.16847E-10 0.43905E-11 0.12097E-10 0.17605E-10 0.10163E-10 0.65365E-11 0.18419E-10 0.25187E-09 0.23001E-07 0.53738E-09
 0.26235E-11 0.67269E-12 0.19810E-11 0.16325E-11 0.77328E-10 0.38556E-05 0.47423E-07 0.29731E-09 0.15428E-07 0.52141E-10
 0.32726E-10 0.11187E-09 0.89909E-10 0.19866E-10 0.26464E-11 0.26089E-11 0.95607E-12 0.78365E-12 0.15050E-11 0.37967E-11
 0.22567E-12 0.17396E-09 0.27051E-07 0.22215E-09 0.52901E-11 0.41072E-11 0.55091E-11 0.13457E-10 0.11502E-09 0.71031E-07
 0.51016E-07 0.43390E-09 0.11958E-07 0.10208E-10 0.66827E-11 0.59574E-11 0.83319E-11 0.11674E-10 0.17381E-10 0.42767E-11
 0.10178E-10 0.14247E-10 0.88974E-11 0.75394E-11 0.45964E-10 0.10275E-08 0.35707E-07 0.29425E-09 0.24474E-11 0.17856E-12
 0.57273E-12 0.20061E-15 0.22639E-09 0.50467E-06 0.23482E-07 0.38528E-09 0.12224E-06 0.31286E-10 0.25521E-10 0.10653E-09
 0.94015E-10 0.19908E-10 0.68161E-12 0.12705E-11 0.71052E-12 0.63695E-12 0.12929E-11 0.30481E-11 0.29024E-11 0.13399E-08
 0.51256E-06 0.80985E-08 0.65811E-10 0.10769E-10 0.98617E-11 0.22710E-10 0.59176E-09 0.27822E-07 0.31026E-07 0.15125E-08
 0.77194E-07 0.21041E-13 0.43992E-11 0.47905E-11 0.66860E-11 0.58567E-11 0.53239E-10 0.14214E-10 0.19829E-10 0.23242E-10
 0.17231E-10 0.11550E-10 0.82290E-10 0.25036E-08 0.10802E-05 0.61388E-08 0.39695E-10 0.16362E-12 0.45602E-12 0.37072E-12
 0.11766E-08 0.16897E-06 0.82269E-07 0.11283E-06 0.12012E-07 0.94295E-10 0.69989E-10 0.20139E-09 0.20066E-09 0.56015E-10
 0.98607E-10 0.13444E-14 0.29804E-12 0.31740E-12 0.50281E-12 0.17749E-14 0.40498E-09 0.19164E-04 0.44574E-07 0.79079E-08
 0.54890E-10 0.21719E-10 0.35042E-10 0.21070E-09 0.32837E-06 0.32525E-07 0.21722E-06 0.18208E-07 0.14530E-05 0.69606E-10
 0.45242E-12 0.21680E-11 0.23802E-11 0.32525E-11 0.79246E-08 0.60105E-09 0.11415E-09 0.60892E-10 0.48249E-10 0.61868E-10
 0.80885E-09 0.15712E-06 0.24563E-06 0.13842E-07 0.23253E-09 0.35581E-10 0.28299E-10 0.18355E-09 0.12989E-07 0.64349E-07
 0.23437E-07 0.28585E-07 0.80144E-07 0.57658E-08 0.19160E-08 0.25193E-08 0.36107E-08 0.62402E-08 0.39093E-05 0.18740E-07
 0.33648E-10 0.46380E-12 0.15282E-11 0.38400E-09 0.18363E-06 0.46497E-07 0.28377E-07 0.70180E-07 0.11197E-07 0.23014E-09
 0.22478E-09 0.12721E-07 0.36183E-07 0.29121E-06 0.51395E-05 0.15235E-03 0.73309E-04 0.40397E-05 0.26567E-07 0.44875E-08
 0.23930E-07 0.19433E-05 0.17815E-05 0.95973E-07 0.10313E-07 0.46475E-08 0.74969E-08 0.30705E-07 0.18026E-06 0.45664E-05
 0.33463E-06 0.15969E-04 0.88051E-08 0.28014E-09 0.54225E-09 0.31741E-07 0.17336E-04 0.24419E-04 0.13727E-04 0.74797E-05
 0.48403E-05 0.16043E-05 0.18688E-06 0.14954E-06 0.23498E-06 0.69375E-06 0.40277E-04 0.37620E-05 0.11927E-05 0.18386E-05
 0.75419E-06 0.77705E-05 0.18492E-05 0.11791E-05 0.44014E-06 0.17244E-06 0.11822E-06 0.31990E-06 0.10914E-05 0.14576E-05
 0.34363E-05 0.99781E-05 0.11042E-03 0.64520E-02 0.61797E-02 0.37724E-04 0.11478E-04 0.85074E-05 0.10490E-04 0.23246E-04
 0.32095E-02 0.89564E-04 0.54140E-05 0.10597E-05 0.60437E-06 0.17934E-05 0.71057E-04 0.16671E-04 0.39864E-05 0.17859E-05
 0.10636E-04 0.26408E-05 0.87217E-05 0.15673E-03 0.91277E-04 0.14019E-03 0.23591E-03 0.41755E-03 0.16502E-02 0.22018E-02
 0.20565E-03 0.12997E-03 0.19085E-03 0.70563E-03 0.37487E-02 0.67910E-03 0.11399E-03 0.40068E-04 0.19143E-04 0.13998E-04
 0.11787E-04 0.14218E-04 0.10071E-04 0.62330E-05 0.48380E-05 0.22994E-04 0.13914E-04 0.16690E-04 0.11929E-03 0.12015E-02
 0.69959E-02 0.35757E-01 0.13958E-01 0.32079E-02 0.13843E-02 0.11143E-02 0.14329E-02 0.27342E-02 0.99696     0.20692E-01
 0.87158E-03 0.20416E-03 0.22875E-03 0.13986E-02 0.11150E-02 0.62185E-04 0.25120E-04 0.12282E-03 0.32681E-03 0.13524E-03
 0.21279E-02 0.73999E-02 0.85545E-02 0.91830E-02 0.10840E-01 0.16628E-01 0.69475E-01 0.99297     0.14685     0.96597E-01
 0.18184     0.71855     0.31515     0.66212E-01 0.70747E-02 0.12687E-02 0.71257E-03 0.12236E-02 0.12233E-02 0.12505E-03
 0.50336E-04 0.82340E-04 0.35684E-04 0.20800E-04 0.10446E-03 0.93567E-03 0.30700E-02 0.75803E-02 0.38336E-01 0.17421    
 0.32170     0.34952     0.38767     0.46590     0.53394     0.50249     0.88248     0.99884     0.40078     0.88562E-01
 0.89742E-01 0.11111     0.54668E-02 0.10385E-02 0.13626E-03 0.54672E-04 0.63286E-04 0.17933E-03 0.53955E-03 0.15008E-02
 0.45773E-02 0.22704E-01 0.13173     0.42107     0.70175     0.83336     0.89863     0.91511     0.89230     0.86154    
 0.79654     0.57533     0.27445     0.96721E-01 0.27402E-01 0.70363E-02 0.24315E-02 0.11101E-02 0.28186E-03 0.57592E-04
 0.84027E-04 0.31506E-03 0.63629E-03 0.15597E-02 0.10186E-01 0.74029E-01 0.27998     0.53304     0.72844     0.85621    
 0.91541     0.93440     0.93063     0.89704     0.94059     0.83610     0.70423     0.66447     0.38873     0.37359E-01
 0.37897E-02 0.14126E-02 0.52005E-03 0.15001E-03 0.22207E-03 0.83013E-03 0.14387E-02 0.41122E-02 0.28531E-01 0.12719    
 0.31486     0.62482     0.87539     0.95780     0.97946     0.98520     0.98415     0.97453     0.97735     0.91044    
 0.61754     0.24754     0.11558     0.34164E-01 0.57998E-02 0.17824E-02 0.98946E-03 0.36585E-03 0.42526E-03 0.12287E-02
 0.21716E-02 0.87213E-02 0.43099E-01 0.14069     0.38449     0.77272     0.94356     0.98127     0.99033     0.99249    
 0.99236     0.98946     0.97623     0.93295     0.74492     0.33537     0.13519     0.41841E-01 0.87529E-02 0.26792E-02
 0.15923E-02 0.81571E-03 0.95480E-03 0.28007E-02 0.47133E-02 0.16804E-01 0.57668E-01 0.15776     0.45233     0.82111    
 0.95032     0.98202     0.99225     0.99500     0.99426     0.98940     0.96257     0.89046     0.65627     0.25367    
 0.91885E-01 0.37255E-01 0.10971E-01 0.41375E-02 0.26994E-02 0.15144E-02 0.17082E-02 0.39565E-02 0.64927E-02 0.22170E-01
 0.68030E-01 0.16112     0.43191     0.77992     0.92775     0.97622     0.99196     0.99560     0.99477     0.98761    
 0.92697     0.80467     0.51526     0.19026     0.85349E-01 0.45268E-01 0.17994E-01 0.87057E-02 0.60498E-02 0.32849E-02
 0.32637E-02 0.58648E-02 0.94510E-02 0.31080E-01 0.82652E-01 0.15468     0.35472     0.68205     0.87279     0.95279    
 0.98310     0.99081     0.98924     0.97496     0.83224     0.64969     0.34818     0.13674     0.82096E-01 0.57474E-01
 0.32401E-01 0.21112E-01 0.14065E-01 0.72527E-02 0.61155E-02 0.90865E-02 0.15421E-01 0.45481E-01 0.10354     0.15920    
 0.29437     0.56684     0.78345     0.89402     0.94751     0.96513     0.95907     0.92227     0.65089     0.45504    
 0.24913     0.14364     0.11614     0.90391E-01 0.65536E-01 0.50743E-01 0.29763E-01 0.14570E-01 0.10978E-01 0.15168E-01
 0.28514E-01 0.69502E-01 0.13921     0.20421     0.29494     0.46410     0.64439     0.77004     0.84304     0.86907    
 0.84968     0.77926     0.42404     0.32705     0.24956     0.21782     0.20029     0.16567     0.14513     0.11591    
 0.60701E-01 0.27966E-01 0.18075E-01 0.22674E-01 0.49035E-01 0.10927     0.20416     0.31068     0.37372     0.40530    
 0.44233     0.50276     0.57065     0.60354     0.58017     0.51248     0.36675     0.44147     0.48749     0.52001    
 0.52988     0.49708     0.43476     0.32375     0.18857     0.95534E-01 0.51035E-01 0.44814E-01 0.86246E-01 0.21413    
 0.40386     0.57148     0.63022     0.55922     0.41707     0.31158     0.28430     0.28476     0.27753     0.29835    
 0.42830     0.62244     0.70379     0.72245     0.71533     0.67846     0.59419     0.44894     0.28323     0.15742    
 0.84689E-01 0.64481E-01 0.10490     0.25837     0.49730     0.69084     0.76805     0.70610     0.47781     0.20360    
 0.78951E-01 0.52988E-01 0.81302E-01 0.20073     0.63391     0.78006     0.82371     0.83226     0.82159     0.77474    
 0.67921     0.53696     0.37523     0.23345     0.13574     0.96456E-01 0.12448     0.26998     0.54314     0.75893    
 0.84724     0.83393     0.69425     0.38310     0.13829     0.78732E-01 0.13650     0.35676     0.74665     0.83833    
 0.86711     0.87292     0.85253     0.79625     0.70690     0.59692     0.47577     0.34614     0.22656     0.15668    
 0.15919     0.26721     0.51768     0.76327     0.87434     0.88996     0.82491     0.61824     0.33003     0.21201    
 0.29575     0.53737     0.76728     0.83479     0.86143     0.86101     0.82788     0.76823     0.70348     0.64956    
 0.59483     0.50938     0.38716     0.27691     0.23464     0.28655     0.45809     0.69379     0.84694     0.89511    
 0.87067     0.75387     0.54225     0.40651     0.45747     0.62635     0.70967     0.76789     0.79666     0.78903    
 0.75188     0.71601     0.70874     0.72379     0.72706     0.68798     0.59678     0.47340     0.37895     0.36300    
 0.43679     0.58683     0.74526     0.83675     0.85075     0.79022     0.66088     0.54731     0.54206     0.62254    
 0.54872     0.60443     0.63835     0.64272     0.64383     0.67803     0.74590     0.80732     0.83320     0.82325    
 0.77570     0.68155     0.57227     0.51277     0.51319     0.54891     0.61213     0.68328     0.72007     0.69568    
 0.61198     0.51610     0.47278     0.49436     0.31382     0.36796     0.42044     0.47265     0.55046     0.66956    
 0.78924     0.86261     0.89429     0.89750     0.86466     0.77570     0.65585     0.59655     0.60730     0.60923    
 0.57037     0.52916     0.49953     0.45509     0.38730     0.31540     0.27188     0.27464     0.12939     0.16976    
 0.22899     0.32478     0.47566     0.66032     0.80462     0.88393     0.91880     0.91827     0.86842     0.72822    
 0.54204     0.48335     0.55926     0.63289     0.60929     0.49903     0.37580     0.27242     0.18762     0.12840    
 0.10095     0.10377     0.48216E-01 0.74193E-01 0.12502     0.22503     0.39927     0.61402     0.77988     0.87357    
 0.90763     0.88869     0.77838     0.50295     0.25976     0.24379     0.40562     0.59265     0.65320     0.57244    
 0.40423     0.24127     0.12846     0.67257E-01 0.42040E-01 0.37725E-01 0.23588E-01 0.34108E-01 0.62215E-01 0.13361    
 0.28714     0.50844     0.70206     0.81790     0.84702     0.78275     0.54944     0.21200     0.84757E-01 0.12491    
 0.34919     0.62008     0.72849     0.69288     0.54155     0.33841     0.17022     0.74527E-01 0.35562E-01 0.23240E-01
 0.22464E-01 0.23362E-01 0.37271E-01 0.80079E-01 0.18133     0.35805     0.56165     0.70953     0.74181     0.63394    
 0.35776     0.12267     0.76493E-01 0.18797     0.51549     0.76308     0.83509     0.80637     0.68759     0.48947    
 0.27285     0.12444     0.57684E-01 0.31446E-01 0.42926E-01 0.33774E-01 0.38580E-01 0.64318E-01 0.12781     0.24755    
 0.41725     0.58660     0.65994     0.58931     0.38833     0.21788     0.22516     0.46161     0.75650     0.87998    
 0.90300     0.86925     0.77345     0.60387     0.38748     0.21242     0.11506     0.66651E-01 0.11369     0.90677E-01
 0.89322E-01 0.11621     0.17402     0.26045     0.37116     0.50405     0.61509     0.62935     0.54203     0.45483    
 0.51164     0.71027     0.86311     0.91754     0.91953     0.88450     0.80383     0.65675     0.46622     0.30921    
 0.21097     0.15200     0.28455     0.24600     0.24189     0.28234     0.35257     0.42314     0.47512     0.51757    
 0.57300     0.61721     0.61057     0.59372     0.65298     0.77763     0.86949     0.90292     0.89935     0.86712    
 0.79326     0.66951     0.54056     0.45206     0.39256     0.33782     0.52030     0.46938     0.45362     0.49989    
 0.59252     0.67090     0.69311     0.65945     0.59981     0.55308     0.52864     0.53187     0.59261     0.70175    