PROCAR lm decomposed
# of k-points:    3         # of bands:  46         # of ions:  25

 k-point    1 :    0.00000000 0.00000000 0.00000000     weight = 0.20000000

band   1 # energy  -14.99398889 # occ.  2.00000000
 
ion      s     py     pz     px    dxy    dyz    dz2    dxz    dx2    tot
  1  0.010  0.000  0.000  0.000  0.000  0.000  0.000  0.000  0.000  0.010
  2  0.028  0.000  0.001  0.000  0.000  0.000  0.000  0.000  0.000  0.029
  3  0.047  0.001  0.001  0.000  0.000  0.000  0.000  0.000  0.000  0.048
  4  0.047  0.001  0.001  0.000  0.000  0.000  0.000  0.000  0.000  0.048
  5  0.083  0.000  0.000  0.000  0.000  0.000  0.000  0.000  0.000  0.083
  6  0.028  0.001  0.000  0.000  0.000  0.000  0.000  0.000  0.000  0.029
  7  0.047  0.001  0.001  0.000  0.000  0.000  0.000  0.000  0.000  0.048
  8  0.047  0.001  0.001  0.000  0.000  0.000  0.000  0.000  0.000  0.048
  9  0.010  0.000  0.000  0.000  0.000  0.000  0.000  0.000  0.000  0.010
 10  0.028  0.000  0.001  0.000  0.000  0.000  0.000  0.000  0.000  0.029
 11  0.010  0.000  0.000  0.000  0.000  0.000  0.000  0.000  0.000  0.010
 12  0.028  0.001  0.000  0.000  0.000  0.000  0.000  0.000  0.000  0.029
 13  0.010  0.000  0.000  0.000  0.000  0.000  0.000  0.000  0.000  0.010
 14  0.001  0.000  0.000  0.000  0.000  0.000  0.000  0.000  0.000  0.001
 15  0.002  0.000  0.000  0.000  0.000  0.000  0.000  0.000  0.000  0.002
 16  0.001  0.000  0.000  0.000  0.000  0.000  0.000  0.000  0.000  0.001
 17  0.001  0.000  0.000  0.000  0.000  0.000  0.000  0.000  0.000  0.001
 18  0.002  0.000  0.000  0.000  0.000  0.000  0.000  0.000  0.000  0.002
 19  0.001  0.000  0.000  0.000  0.000  0.000  0.000  0.000  0.000  0.001
 20  0.001  0.000  0.000  0.000  0.000  0.000  0.000  0.000  0.000  0.001
 21  0.002  0.000  0.000  0.000  0.000  0.000  0.000  0.000  0.000  0.002
 22  0.001  0.000  0.000  0.000  0.000  0.000  0.000  0.000  0.000  0.001
 23  0.001  0.000  0.000  0.000  0.000  0.000  0.000  0.000  0.000  0.001
 24  0.002  0.000  0.000  0.000  0.000  0.000  0.000  0.000  0.000  0.002
 25  0.001  0.000  0.000  0.000  0.000  0.000  0.000  0.000  0.000  0.001
tot  0.434  0.006  0.006  0.000  0.000  0.000  0.000  0.000  0.000  0.446
 
band   2 # energy  -13.65067597 # occ.  2.00000000
 
ion      s     py     pz     px    dxy    dyz    dz2    dxz    dx2    tot
  1  0.043  0.000  0.000  0.000  0.000  0.000  0.000  0.000  0.000  0.043
  2  0.039  0.001  0.000  0.000  0.000  0.000  0.000  0.000  0.000  0.040
  3  0.084  0.000  0.000  0.000  0.000  0.000  0.000  0.000  0.000  0.084
  4  0.000  0.001  0.001  0.000  0.000  0.000  0.000  0.000  0.000  0.003
  5  0.000  0.004  0.004  0.000  0.000  0.000  0.000  0.000  0.000  0.009
  6  0.039  0.000  0.001  0.000  0.000  0.000  0.000  0.000  0.000  0.040
  7  0.084  0.000  0.000  0.000  0.000  0.000  0.000  0.000  0.000  0.084
  8  0.000  0.001  0.001  0.000  0.000  0.000  0.000  0.000  0.000  0.003
  9  0.000  0.000  0.000  0.000  0.000  0.000  0.000  0.000  0.000  0.000
 10  0.039  0.001  0.000  0.000  0.000  0.000  0.000  0.000  0.000  0.040
 11  0.000  0.000  0.000  0.000  0.000  0.000  0.000  0.000  0.000  0.000
 12  0.039  0.000  0.001  0.000  0.000  0.000  0.000  0.000  0.000  0.040
 13  0.043  0.000  0.000  0.000  0.000  0.000  0.000  0.000  0.000  0.044
 14  0.000  0.000  0.000  0.000  0.000  0.000  0.000  0.000  0.000  0.000
 15  0.004  0.000  0.000  0.000  0.000  0.000  0.000  0.000  0.000  0.004
 16  0.004  0.000  0.000  0.000  0.000  0.000  0.000  0.000  0.000  0.004
 17  0.004  0.000  0.000  0.000  0.000  0.000  0.000  0.000  0.000  0.004
 18  0.004  0.000  0.000  0.000  0.000  0.000  0.000  0.000  0.000  0.004
 19  0.000  0.000  0.000  0.000  0.000  0.000  0.000  0.000  0.000  0.000
 20  0.000  0.000  0.000  0.000  0.000  0.000  0.000  0.000  0.000  0.000
 21  0.004  0.000  0.000  0.000  0.000  0.000  0.000  0.000  0.000  0.004
 22  0.004  0.000  0.000  0.000  0.000  0.000  0.000  0.000  0.000  0.004
 23  0.004  0.000  0.000  0.000  0.000  0.000  0.000  0.000  0.000  0.004
 24  0.004  0.000  0.000  0.000  0.000  0.000  0.000  0.000  0.000  0.004
 25  0.000  0.000  0.000  0.000  0.000  0.000  0.000  0.000  0.000  0.000
tot  0.441  0.011  0.011  0.002  0.000  0.000  0.000  0.000  0.000  0.466
 
band   3 # energy  -13.65064122 # occ.  2.00000000
 
ion      s     py     pz     px    dxy    dyz    dz2    dxz    dx2    tot
  1  0.000  0.000  0.000  0.000  0.000  0.000  0.000  0.000  0.000  0.000
  2  0.039  0.001  0.000  0.000  0.000  0.000  0.000  0.000  0.000  0.040
  3  0.000  0.001  0.001  0.000  0.000  0.000  0.000  0.000  0.000  0.003
  4  0.084  0.000  0.000  0.000  0.000  0.000  0.000  0.000  0.000  0.084
  5  0.000  0.004  0.004  0.000  0.000  0.000  0.000  0.000  0.000  0.009
  6  0.039  0.000  0.001  0.000  0.000  0.000  0.000  0.000  0.000  0.040
  7  0.000  0.001  0.001  0.000  0.000  0.000  0.000  0.000  0.000  0.003
  8  0.084  0.000  0.000  0.000  0.000  0.000  0.000  0.000  0.000  0.084
  9  0.043  0.000  0.000  0.000  0.000  0.000  0.000  0.000  0.000  0.044
 10  0.039  0.001  0.000  0.000  0.000  0.000  0.000  0.000  0.000  0.040
 11  0.043  0.000  0.000  0.000  0.000  0.000  0.000  0.000  0.000  0.044
 12  0.039  0.000  0.001  0.000  0.000  0.000  0.000  0.000  0.000  0.040
 13  0.000  0.000  0.000  0.000  0.000  0.000  0.000  0.000  0.000  0.000
 14  0.004  0.000  0.000  0.000  0.000  0.000  0.000  0.000  0.000  0.004
 15  0.004  0.000  0.000  0.000  0.000  0.000  0.000  0.000  0.000  0.004
 16  0.000  0.000  0.000  0.000  0.000  0.000  0.000  0.000  0.000  0.000
 17  0.000  0.000  0.000  0.000  0.000  0.000  0.000  0.000  0.000  0.000
 18  0.004  0.000  0.000  0.000  0.000  0.000  0.000  0.000  0.000  0.004
 19  0.004  0.000  0.000  0.000  0.000  0.000  0.000  0.000  0.000  0.004
 20  0.004  0.000  0.000  0.000  0.000  0.000  0.000  0.000  0.000  0.004
 21  0.004  0.000  0.000  0.000  0.000  0.000  0.000  0.000  0.000  0.004
 22  0.000  0.000  0.000  0.000  0.000  0.000  0.000  0.000  0.000  0.000
 23  0.000  0.000  0.000  0.000  0.000  0.000  0.000  0.000  0.000  0.000
 24  0.004  0.000  0.000  0.000  0.000  0.000  0.000  0.000  0.000  0.004
 25  0.004  0.000  0.000  0.000  0.000  0.000  0.000  0.000  0.000  0.004
tot  0.441  0.011  0.011  0.002  0.000  0.000  0.000  0.000  0.000  0.466
 
band   4 # energy  -12.41302275 # occ.  2.00000000
 
ion      s     py     pz     px    dxy    dyz    dz2    dxz    dx2    tot
  1  0.059  0.000  0.000  0.001  0.000  0.000  0.000  0.000  0.000  0.060
  2  0.000  0.004  0.000  0.001  0.000  0.000  0.000  0.000  0.000  0.005
  3  0.041  0.000  0.000  0.000  0.000  0.000  0.000  0.000  0.000  0.042
  4  0.041  0.000  0.000  0.000  0.000  0.000  0.000  0.000  0.000  0.042
  5  0.000  0.000  0.000  0.003  0.000  0.000  0.000  0.000  0.000  0.003
  6  0.000  0.000  0.004  0.001  0.000  0.000  0.000  0.000  0.000  0.005
  7  0.041  0.000  0.000  0.000  0.000  0.000  0.000  0.000  0.000  0.042
  8  0.041  0.000  0.000  0.000  0.000  0.000  0.000  0.000  0.000  0.042
  9  0.059  0.000  0.000  0.001  0.000  0.000  0.000  0.000  0.000  0.060
 10  0.000  0.004  0.000  0.001  0.000  0.000  0.000  0.000  0.000  0.005
 11  0.059  0.000  0.000  0.001  0.000  0.000  0.000  0.000  0.000  0.060
 12  0.000  0.000  0.004  0.001  0.000  0.000  0.000  0.000  0.000  0.005
 13  0.059  0.000  0.000  0.001  0.000  0.000  0.000  0.000  0.000  0.060
 14  0.008  0.000  0.000  0.000  0.000  0.000  0.000  0.000  0.000  0.009
 15  0.000  0.000  0.000  0.000  0.000  0.000  0.000  0.000  0.000  0.000
 16  0.008  0.000  0.000  0.000  0.000  0.000  0.000  0.000  0.000  0.009
 17  0.008  0.000  0.000  0.000  0.000  0.000  0.000  0.000  0.000  0.009
 18  0.000  0.000  0.000  0.000  0.000  0.000  0.000  0.000  0.000  0.000
 19  0.008  0.000  0.000  0.000  0.000  0.000  0.000  0.000  0.000  0.009
 20  0.008  0.000  0.000  0.000  0.000  0.000  0.000  0.000  0.000  0.009
 21  0.000  0.000  0.000  0.000  0.000  0.000  0.000  0.000  0.000  0.000
 22  0.008  0.000  0.000  0.000  0.000  0.000  0.000  0.000  0.000  0.009
 23  0.008  0.000  0.000  0.000  0.000  0.000  0.000  0.000  0.000  0.009
 24  0.000  0.000  0.000  0.000  0.000  0.000  0.000  0.000  0.000  0.000
 25  0.008  0.000  0.000  0.000  0.000  0.000  0.000  0.000  0.000  0.009
tot  0.468  0.011  0.011  0.011  0.000  0.000  0.000  0.000  0.000  0.500
 
band   5 # energy  -11.73121074 # occ.  2.00000000
 
ion      s     py     pz     px    dxy    dyz    dz2    dxz    dx2    tot
  1  0.000  0.001  0.001  0.000  0.000  0.000  0.000  0.000  0.000  0.002
  2  0.090  0.000  0.002  0.000  0.000  0.000  0.000  0.000  0.000  0.092
  3  0.000  0.004  0.004  0.000  0.000  0.000  0.000  0.000  0.000  0.008
  4  0.000  0.004  0.004  0.000  0.000  0.000  0.000  0.000  0.000  0.008
  5  0.000  0.000  0.000  0.000  0.000  0.000  0.000  0.000  0.000  0.000
  6  0.090  0.002  0.000  0.000  0.000  0.000  0.000  0.000  0.000  0.092
  7  0.000  0.004  0.004  0.000  0.000  0.000  0.000  0.000  0.000  0.008
  8  0.000  0.004  0.004  0.000  0.000  0.000  0.000  0.000  0.000  0.008
  9  0.000  0.001  0.001  0.000  0.000  0.000  0.000  0.000  0.000  0.002
 10  0.090  0.000  0.002  0.000  0.000  0.000  0.000  0.000  0.000  0.092
 11  0.000  0.001  0.001  0.000  0.000  0.000  0.000  0.000  0.000  0.002
 12  0.090  0.002  0.000  0.000  0.000  0.000  0.000  0.000  0.000  0.092
 13  0.000  0.001  0.001  0.000  0.000  0.000  0.000  0.000  0.000  0.002
 14  0.000  0.000  0.000  0.000  0.000  0.000  0.000  0.000  0.000  0.000
 15  0.023  0.000  0.001  0.000  0.000  0.000  0.000  0.000  0.000  0.024
 16  0.000  0.000  0.000  0.000  0.000  0.000  0.000  0.000  0.000  0.000
 17  0.000  0.000  0.000  0.000  0.000  0.000  0.000  0.000  0.000  0.000
 18  0.023  0.000  0.001  0.000  0.000  0.000  0.000  0.000  0.000  0.024
 19  0.000  0.000  0.000  0.000  0.000  0.000  0.000  0.000  0.000  0.000
 20  0.000  0.000  0.000  0.000  0.000  0.000  0.000  0.000  0.000  0.000
 21  0.023  0.001  0.000  0.000  0.000  0.000  0.000  0.000  0.000  0.024
 22  0.000  0.000  0.000  0.000  0.000  0.000  0.000  0.000  0.000  0.000
 23  0.000  0.000  0.000  0.000  0.000  0.000  0.000  0.000  0.000  0.000
 24  0.023  0.001  0.000  0.000  0.000  0.000  0.000  0.000  0.000  0.024
 25  0.000  0.000  0.000  0.000  0.000  0.000  0.000  0.000  0.000  0.000
tot  0.456  0.025  0.025  0.000  0.000  0.000  0.000  0.000  0.000  0.506
 
band   6 # energy  -11.64564121 # occ.  2.00000000
 
ion      s     py     pz     px    dxy    dyz    dz2    dxz    dx2    tot
  1  0.016  0.001  0.001  0.000  0.000  0.000  0.000  0.000  0.000  0.018
  2  0.027  0.000  0.002  0.000  0.000  0.000  0.000  0.000  0.000  0.029
  3  0.003  0.004  0.004  0.005  0.000  0.000  0.000  0.000  0.000  0.015
  4  0.003  0.004  0.004  0.005  0.000  0.000  0.000  0.000  0.000  0.015
  5  0.182  0.000  0.000  0.000  0.000  0.000  0.000  0.000  0.000  0.182
  6  0.027  0.002  0.000  0.000  0.000  0.000  0.000  0.000  0.000  0.029
  7  0.003  0.004  0.004  0.005  0.000  0.000  0.000  0.000  0.000  0.015
  8  0.003  0.004  0.004  0.005  0.000  0.000  0.000  0.000  0.000  0.015
  9  0.016  0.001  0.001  0.000  0.000  0.000  0.000  0.000  0.000  0.018
 10  0.027  0.000  0.002  0.000  0.000  0.000  0.000  0.000  0.000  0.029
 11  0.016  0.001  0.001  0.000  0.000  0.000  0.000  0.000  0.000  0.018
 12  0.027  0.002  0.000  0.000  0.000  0.000  0.000  0.000  0.000  0.029
 13  0.016  0.001  0.001  0.000  0.000  0.000  0.000  0.000  0.000  0.018
 14  0.004  0.000  0.000  0.000  0.000  0.000  0.000  0.000  0.000  0.004
 15  0.009  0.000  0.000  0.000  0.000  0.000  0.000  0.000  0.000  0.010
 16  0.004  0.000  0.000  0.000  0.000  0.000  0.000  0.000  0.000  0.004
 17  0.004  0.000  0.000  0.000  0.000  0.000  0.000  0.000  0.000  0.004
 18  0.009  0.000  0.000  0.000  0.000  0.000  0.000  0.000  0.000  0.010
 19  0.004  0.000  0.000  0.000  0.000  0.000  0.000  0.000  0.000  0.004
 20  0.004  0.000  0.000  0.000  0.000  0.000  0.000  0.000  0.000  0.004
 21  0.009  0.000  0.000  0.000  0.000  0.000  0.000  0.000  0.000  0.010
 22  0.004  0.000  0.000  0.000  0.000  0.000  0.000  0.000  0.000  0.004
 23  0.004  0.000  0.000  0.000  0.000  0.000  0.000  0.000  0.000  0.004
 24  0.009  0.000  0.000  0.000  0.000  0.000  0.000  0.000  0.000  0.010
 25  0.004  0.000  0.000  0.000  0.000  0.000  0.000  0.000  0.000  0.004
tot  0.434  0.023  0.023  0.021  0.000  0.000  0.000  0.000  0.000  0.500
 
band   7 # energy  -11.28112515 # occ.  2.00000000
 
ion      s     py     pz     px    dxy    dyz    dz2    dxz    dx2    tot
  1  0.056  0.001  0.001  0.001  0.000  0.000  0.000  0.000  0.000  0.059
  2  0.028  0.000  0.000  0.000  0.000  0.000  0.000  0.000  0.000  0.028
  3  0.000  0.000  0.000  0.009  0.000  0.000  0.000  0.000  0.000  0.010
  4  0.000  0.000  0.000  0.010  0.000  0.000  0.000  0.000  0.000  0.010
  5  0.006  0.000  0.000  0.000  0.000  0.000  0.000  0.000  0.000  0.006
  6  0.028  0.000  0.000  0.000  0.000  0.000  0.000  0.000  0.000  0.028
  7  0.000  0.000  0.000  0.010  0.000  0.000  0.000  0.000  0.000  0.011
  8  0.000  0.000  0.000  0.010  0.000  0.000  0.000  0.000  0.000  0.010
  9  0.059  0.001  0.001  0.001  0.000  0.000  0.000  0.000  0.000  0.062
 10  0.030  0.000  0.000  0.000  0.000  0.000  0.000  0.000  0.000  0.030
 11  0.059  0.001  0.001  0.001  0.000  0.000  0.000  0.000  0.000  0.062
 12  0.030  0.000  0.000  0.000  0.000  0.000  0.000  0.000  0.000  0.030
 13  0.063  0.001  0.001  0.001  0.000  0.000  0.000  0.000  0.000  0.066
 14  0.013  0.000  0.000  0.000  0.000  0.000  0.000  0.000  0.000  0.013
 15  0.005  0.000  0.000  0.000  0.000  0.000  0.000  0.000  0.000  0.005
 16  0.013  0.000  0.000  0.000  0.000  0.000  0.000  0.000  0.000  0.014
 17  0.012  0.000  0.000  0.000  0.000  0.000  0.000  0.000  0.000  0.013
 18  0.004  0.000  0.000  0.000  0.000  0.000  0.000  0.000  0.000  0.004
 19  0.013  0.000  0.000  0.000  0.000  0.000  0.000  0.000  0.000  0.013
 20  0.013  0.000  0.000  0.000  0.000  0.000  0.000  0.000  0.000  0.013
 21  0.005  0.000  0.000  0.000  0.000  0.000  0.000  0.000  0.000  0.005
 22  0.013  0.000  0.000  0.000  0.000  0.000  0.000  0.000  0.000  0.014
 23  0.012  0.000  0.000  0.000  0.000  0.000  0.000  0.000  0.000  0.013
 24  0.004  0.000  0.000  0.000  0.000  0.000  0.000  0.000  0.000  0.004
 25  0.013  0.000  0.000  0.000  0.000  0.000  0.000  0.000  0.000  0.013
tot  0.481  0.007  0.007  0.044  0.000  0.000  0.000  0.000  0.000  0.538
 
band   8 # energy  -11.27101495 # occ.  2.00000000
 
ion      s     py     pz     px    dxy    dyz    dz2    dxz    dx2    tot
  1  0.000  0.000  0.000  0.000  0.000  0.000  0.000  0.000  0.000  0.001
  2  0.032  0.000  0.000  0.000  0.000  0.000  0.000  0.000  0.000  0.032
  3  0.000  0.001  0.001  0.000  0.000  0.000  0.000  0.000  0.000  0.002
  4  0.001  0.001  0.001  0.009  0.000  0.000  0.000  0.000  0.000  0.012
  5  0.000  0.000  0.000  0.000  0.000  0.000  0.000  0.000  0.000  0.000
  6  0.032  0.000  0.000  0.000  0.000  0.000  0.000  0.000  0.000  0.032
  7  0.000  0.001  0.001  0.000  0.000  0.000  0.000  0.000  0.000  0.002
  8  0.001  0.001  0.001  0.009  0.000  0.000  0.000  0.000  0.000  0.012
  9  0.119  0.002  0.002  0.002  0.000  0.000  0.000  0.000  0.000  0.124
 10  0.032  0.000  0.000  0.000  0.000  0.000  0.000  0.000  0.000  0.032
 11  0.119  0.002  0.002  0.002  0.000  0.000  0.000  0.000  0.000  0.124
 12  0.032  0.000  0.000  0.000  0.000  0.000  0.000  0.000  0.000  0.032
 13  0.000  0.000  0.000  0.000  0.000  0.000  0.000  0.000  0.000  0.001
 14  0.026  0.000  0.001  0.000  0.000  0.000  0.000  0.000  0.000  0.027
 15  0.007  0.000  0.000  0.000  0.000  0.000  0.000  0.000  0.000  0.007
 16  0.000  0.000  0.000  0.000  0.000  0.000  0.000  0.000  0.000  0.000
 17  0.000  0.000  0.000  0.000  0.000  0.000  0.000  0.000  0.000  0.000
 18  0.007  0.000  0.000  0.000  0.000  0.000  0.000  0.000  0.000  0.007
 19  0.026  0.000  0.001  0.000  0.000  0.000  0.000  0.000  0.000  0.027
 20  0.026  0.001  0.000  0.000  0.000  0.000  0.000  0.000  0.000  0.027
 21  0.007  0.000  0.000  0.000  0.000  0.000  0.000  0.000  0.000  0.007
 22  0.000  0.000  0.000  0.000  0.000  0.000  0.000  0.000  0.000  0.000
 23  0.000  0.000  0.000  0.000  0.000  0.000  0.000  0.000  0.000  0.000
 24  0.007  0.000  0.000  0.000  0.000  0.000  0.000  0.000  0.000  0.007
 25  0.026  0.001  0.000  0.000  0.000  0.000  0.000  0.000  0.000  0.027
tot  0.501  0.011  0.011  0.022  0.000  0.000  0.000  0.000  0.000  0.546
 
band   9 # energy  -11.27100971 # occ.  2.00000000
 
ion      s     py     pz     px    dxy    dyz    dz2    dxz    dx2    tot
  1  0.122  0.002  0.002  0.002  0.000  0.000  0.000  0.000  0.000  0.127
  2  0.033  0.000  0.000  0.000  0.000  0.000  0.000  0.000  0.000  0.034
  3  0.001  0.001  0.001  0.009  0.000  0.000  0.000  0.000  0.000  0.012
  4  0.000  0.001  0.001  0.000  0.000  0.000  0.000  0.000  0.000  0.002
  5  0.000  0.000  0.000  0.000  0.000  0.000  0.000  0.000  0.000  0.000
  6  0.033  0.000  0.000  0.000  0.000  0.000  0.000  0.000  0.000  0.034
  7  0.001  0.001  0.001  0.009  0.000  0.000  0.000  0.000  0.000  0.012
  8  0.000  0.001  0.001  0.000  0.000  0.000  0.000  0.000  0.000  0.002
  9  0.000  0.000  0.000  0.000  0.000  0.000  0.000  0.000  0.000  0.001
 10  0.031  0.000  0.000  0.000  0.000  0.000  0.000  0.000  0.000  0.031
 11  0.000  0.000  0.000  0.000  0.000  0.000  0.000  0.000  0.000  0.001
 12  0.031  0.000  0.000  0.000  0.000  0.000  0.000  0.000  0.000  0.031
 13  0.116  0.002  0.002  0.002  0.000  0.000  0.000  0.000  0.000  0.121
 14  0.000  0.000  0.000  0.000  0.000  0.000  0.000  0.000  0.000  0.000
 15  0.007  0.000  0.000  0.000  0.000  0.000  0.000  0.000  0.000  0.007
 16  0.026  0.000  0.001  0.000  0.000  0.000  0.000  0.000  0.000  0.026
 17  0.027  0.000  0.001  0.000  0.000  0.000  0.000  0.000  0.000  0.028
 18  0.007  0.000  0.000  0.000  0.000  0.000  0.000  0.000  0.000  0.008
 19  0.000  0.000  0.000  0.000  0.000  0.000  0.000  0.000  0.000  0.000
 20  0.000  0.000  0.000  0.000  0.000  0.000  0.000  0.000  0.000  0.000
 21  0.007  0.000  0.000  0.000  0.000  0.000  0.000  0.000  0.000  0.007
 22  0.026  0.001  0.000  0.000  0.000  0.000  0.000  0.000  0.000  0.026
 23  0.027  0.001  0.000  0.000  0.000  0.000  0.000  0.000  0.000  0.028
 24  0.007  0.000  0.000  0.000  0.000  0.000  0.000  0.000  0.000  0.008
 25  0.000  0.000  0.000  0.000  0.000  0.000  0.000  0.000  0.000  0.000
tot  0.501  0.011  0.011  0.022  0.000  0.000  0.000  0.000  0.000  0.546
 
band  10 # energy  -10.68854842 # occ.  2.00000000
 
ion      s     py     pz     px    dxy    dyz    dz2    dxz    dx2    tot
  1  0.027  0.001  0.001  0.000  0.000  0.000  0.000  0.000  0.000  0.030
  2  0.000  0.003  0.000  0.010  0.000  0.000  0.000  0.000  0.000  0.012
  3  0.058  0.001  0.001  0.002  0.000  0.000  0.000  0.000  0.000  0.062
  4  0.058  0.001  0.001  0.002  0.000  0.000  0.000  0.000  0.000  0.062
  5  0.000  0.000  0.000  0.022  0.000  0.000  0.000  0.000  0.000  0.022
  6  0.000  0.000  0.003  0.010  0.000  0.000  0.000  0.000  0.000  0.012
  7  0.058  0.001  0.001  0.002  0.000  0.000  0.000  0.000  0.000  0.062
  8  0.058  0.001  0.001  0.002  0.000  0.000  0.000  0.000  0.000  0.062
  9  0.027  0.001  0.001  0.000  0.000  0.000  0.000  0.000  0.000  0.030
 10  0.000  0.003  0.000  0.010  0.000  0.000  0.000  0.000  0.000  0.012
 11  0.027  0.001  0.001  0.000  0.000  0.000  0.000  0.000  0.000  0.030
 12  0.000  0.000  0.003  0.010  0.000  0.000  0.000  0.000  0.000  0.012
 13  0.027  0.001  0.001  0.000  0.000  0.000  0.000  0.000  0.000  0.030
 14  0.008  0.000  0.000  0.000  0.000  0.000  0.000  0.000  0.000  0.008
 15  0.000  0.000  0.000  0.000  0.000  0.000  0.000  0.000  0.000  0.000
 16  0.008  0.000  0.000  0.000  0.000  0.000  0.000  0.000  0.000  0.008
 17  0.008  0.000  0.000  0.000  0.000  0.000  0.000  0.000  0.000  0.008
 18  0.000  0.000  0.000  0.000  0.000  0.000  0.000  0.000  0.000  0.000
 19  0.008  0.000  0.000  0.000  0.000  0.000  0.000  0.000  0.000  0.008
 20  0.008  0.000  0.000  0.000  0.000  0.000  0.000  0.000  0.000  0.008
 21  0.000  0.000  0.000  0.000  0.000  0.000  0.000  0.000  0.000  0.000
 22  0.008  0.000  0.000  0.000  0.000  0.000  0.000  0.000  0.000  0.008
 23  0.008  0.000  0.000  0.000  0.000  0.000  0.000  0.000  0.000  0.008
 24  0.000  0.000  0.000  0.000  0.000  0.000  0.000  0.000  0.000  0.000
 25  0.008  0.000  0.000  0.000  0.000  0.000  0.000  0.000  0.000  0.008
tot  0.405  0.014  0.014  0.072  0.000  0.000  0.000  0.000  0.000  0.504
 
band  11 # energy  -10.00431548 # occ.  2.00000000
 
ion      s     py     pz     px    dxy    dyz    dz2    dxz    dx2    tot
  1  0.012  0.003  0.003  0.003  0.000  0.000  0.000  0.000  0.000  0.021
  2  0.018  0.001  0.009  0.004  0.000  0.000  0.000  0.000  0.000  0.032
  3  0.094  0.001  0.001  0.001  0.000  0.000  0.000  0.000  0.000  0.096
  4  0.000  0.001  0.001  0.000  0.000  0.000  0.000  0.000  0.000  0.002
  5  0.000  0.011  0.011  0.000  0.000  0.000  0.000  0.000  0.000  0.022
  6  0.018  0.009  0.001  0.004  0.000  0.000  0.000  0.000  0.000  0.032
  7  0.094  0.001  0.001  0.001  0.000  0.000  0.000  0.000  0.000  0.096
  8  0.000  0.001  0.001  0.000  0.000  0.000  0.000  0.000  0.000  0.002
  9  0.000  0.000  0.000  0.000  0.000  0.000  0.000  0.000  0.000  0.001
 10  0.018  0.001  0.009  0.004  0.000  0.000  0.000  0.000  0.000  0.032
 11  0.000  0.000  0.000  0.000  0.000  0.000  0.000  0.000  0.000  0.001
 12  0.018  0.009  0.001  0.004  0.000  0.000  0.000  0.000  0.000  0.032
 13  0.011  0.003  0.003  0.003  0.000  0.000  0.000  0.000  0.000  0.021
 14  0.000  0.000  0.000  0.000  0.000  0.000  0.000  0.000  0.000  0.000
 15  0.021  0.000  0.001  0.000  0.000  0.000  0.000  0.000  0.000  0.022
 16  0.008  0.000  0.000  0.000  0.000  0.000  0.000  0.000  0.000  0.008
 17  0.008  0.000  0.000  0.000  0.000  0.000  0.000  0.000  0.000  0.008
 18  0.021  0.000  0.001  0.000  0.000  0.000  0.000  0.000  0.000  0.022
 19  0.000  0.000  0.000  0.000  0.000  0.000  0.000  0.000  0.000  0.000
 20  0.000  0.000  0.000  0.000  0.000  0.000  0.000  0.000  0.000  0.000
 21  0.021  0.001  0.000  0.000  0.000  0.000  0.000  0.000  0.000  0.022
 22  0.008  0.000  0.000  0.000  0.000  0.000  0.000  0.000  0.000  0.008
 23  0.008  0.000  0.000  0.000  0.000  0.000  0.000  0.000  0.000  0.008
 24  0.021  0.001  0.000  0.000  0.000  0.000  0.000  0.000  0.000  0.022
 25  0.000  0.000  0.000  0.000  0.000  0.000  0.000  0.000  0.000  0.000
tot  0.400  0.045  0.045  0.023  0.000  0.000  0.000  0.000  0.000  0.513
 
band  12 # energy  -10.00430609 # occ.  2.00000000
 
ion      s     py     pz     px    dxy    dyz    dz2    dxz    dx2    tot
  1  0.000  0.000  0.000  0.000  0.000  0.000  0.000  0.000  0.000  0.001
  2  0.018  0.001  0.009  0.004  0.000  0.000  0.000  0.000  0.000  0.032
  3  0.000  0.001  0.001  0.000  0.000  0.000  0.000  0.000  0.000  0.002
  4  0.094  0.001  0.001  0.001  0.000  0.000  0.000  0.000  0.000  0.096
  5  0.000  0.011  0.011  0.000  0.000  0.000  0.000  0.000  0.000  0.022
  6  0.018  0.009  0.001  0.004  0.000  0.000  0.000  0.000  0.000  0.032
  7  0.000  0.001  0.001  0.000  0.000  0.000  0.000  0.000  0.000  0.002
  8  0.094  0.001  0.001  0.001  0.000  0.000  0.000  0.000  0.000  0.096
  9  0.012  0.003  0.003  0.003  0.000  0.000  0.000  0.000  0.000  0.021
 10  0.018  0.001  0.009  0.004  0.000  0.000  0.000  0.000  0.000  0.032
 11  0.012  0.003  0.003  0.003  0.000  0.000  0.000  0.000  0.000  0.021
 12  0.018  0.009  0.001  0.004  0.000  0.000  0.000  0.000  0.000  0.032
 13  0.000  0.000  0.000  0.000  0.000  0.000  0.000  0.000  0.000  0.001
 14  0.008  0.000  0.000  0.000  0.000  0.000  0.000  0.000  0.000  0.008
 15  0.021  0.000  0.001  0.000  0.000  0.000  0.000  0.000  0.000  0.022
 16  0.000  0.000  0.000  0.000  0.000  0.000  0.000  0.000  0.000  0.000
 17  0.000  0.000  0.000  0.000  0.000  0.000  0.000  0.000  0.000  0.000
 18  0.021  0.000  0.001  0.000  0.000  0.000  0.000  0.000  0.000  0.022
 19  0.008  0.000  0.000  0.000  0.000  0.000  0.000  0.000  0.000  0.008
 20  0.008  0.000  0.000  0.000  0.000  0.000  0.000  0.000  0.000  0.008
 21  0.021  0.001  0.000  0.000  0.000  0.000  0.000  0.000  0.000  0.022
 22  0.000  0.000  0.000  0.000  0.000  0.000  0.000  0.000  0.000  0.000
 23  0.000  0.000  0.000  0.000  0.000  0.000  0.000  0.000  0.000  0.000
 24  0.021  0.001  0.000  0.000  0.000  0.000  0.000  0.000  0.000  0.022
 25  0.008  0.000  0.000  0.000  0.000  0.000  0.000  0.000  0.000  0.008
tot  0.400  0.045  0.045  0.023  0.000  0.000  0.000  0.000  0.000  0.513
 
band  13 # energy   -8.32722276 # occ.  2.00000000
 
ion      s     py     pz     px    dxy    dyz    dz2    dxz    dx2    tot
  1  0.000  0.000  0.000  0.000  0.000  0.000  0.000  0.000  0.000  0.001
  2  0.001  0.000  0.038  0.000  0.000  0.000  0.000  0.000  0.000  0.039
  3  0.008  0.001  0.001  0.009  0.000  0.000  0.000  0.000  0.000  0.019
  4  0.008  0.001  0.001  0.009  0.000  0.000  0.000  0.000  0.000  0.019
  5  0.061  0.000  0.000  0.000  0.000  0.000  0.000  0.000  0.000  0.061
  6  0.001  0.038  0.000  0.000  0.000  0.000  0.000  0.000  0.000  0.039
  7  0.008  0.001  0.001  0.009  0.000  0.000  0.000  0.000  0.000  0.019
  8  0.008  0.001  0.001  0.009  0.000  0.000  0.000  0.000  0.000  0.019
  9  0.000  0.000  0.000  0.000  0.000  0.000  0.000  0.000  0.000  0.001
 10  0.001  0.000  0.038  0.000  0.000  0.000  0.000  0.000  0.000  0.039
 11  0.000  0.000  0.000  0.000  0.000  0.000  0.000  0.000  0.000  0.001
 12  0.001  0.038  0.000  0.000  0.000  0.000  0.000  0.000  0.000  0.039
 13  0.000  0.000  0.000  0.000  0.000  0.000  0.000  0.000  0.000  0.001
 14  0.000  0.000  0.000  0.000  0.000  0.000  0.000  0.000  0.000  0.000
 15  0.047  0.000  0.001  0.000  0.000  0.000  0.000  0.000  0.000  0.048
 16  0.000  0.000  0.000  0.000  0.000  0.000  0.000  0.000  0.000  0.000
 17  0.000  0.000  0.000  0.000  0.000  0.000  0.000  0.000  0.000  0.000
 18  0.047  0.000  0.001  0.000  0.000  0.000  0.000  0.000  0.000  0.048
 19  0.000  0.000  0.000  0.000  0.000  0.000  0.000  0.000  0.000  0.000
 20  0.000  0.000  0.000  0.000  0.000  0.000  0.000  0.000  0.000  0.000
 21  0.047  0.001  0.000  0.000  0.000  0.000  0.000  0.000  0.000  0.048
 22  0.000  0.000  0.000  0.000  0.000  0.000  0.000  0.000  0.000  0.000
 23  0.000  0.000  0.000  0.000  0.000  0.000  0.000  0.000  0.000  0.000
 24  0.047  0.001  0.000  0.000  0.000  0.000  0.000  0.000  0.000  0.048
 25  0.000  0.000  0.000  0.000  0.000  0.000  0.000  0.000  0.000  0.000
tot  0.288  0.080  0.080  0.038  0.000  0.000  0.000  0.000  0.000  0.486
 
band  14 # energy   -7.62961703 # occ.  2.00000000
 
ion      s     py     pz     px    dxy    dyz    dz2    dxz    dx2    tot
  1  0.000  0.003  0.003  0.005  0.000  0.000  0.000  0.000  0.000  0.011
  2  0.002  0.008  0.003  0.001  0.000  0.000  0.000  0.000  0.000  0.014
  3  0.000  0.001  0.001  0.040  0.000  0.000  0.000  0.000  0.000  0.041
  4  0.000  0.004  0.004  0.000  0.000  0.000  0.000  0.000  0.000  0.008
  5  0.000  0.014  0.014  0.000  0.000  0.000  0.000  0.000  0.000  0.029
  6  0.002  0.003  0.008  0.001  0.000  0.000  0.000  0.000  0.000  0.014
  7  0.000  0.001  0.001  0.040  0.000  0.000  0.000  0.000  0.000  0.041
  8  0.000  0.004  0.004  0.000  0.000  0.000  0.000  0.000  0.000  0.008
  9  0.000  0.018  0.018  0.000  0.000  0.000  0.000  0.000  0.000  0.036
 10  0.002  0.008  0.003  0.001  0.000  0.000  0.000  0.000  0.000  0.014
 11  0.000  0.018  0.018  0.000  0.000  0.000  0.000  0.000  0.000  0.036
 12  0.002  0.003  0.008  0.001  0.000  0.000  0.000  0.000  0.000  0.014
 13  0.000  0.003  0.003  0.005  0.000  0.000  0.000  0.000  0.000  0.011
 14  0.028  0.000  0.000  0.000  0.000  0.000  0.000  0.000  0.000  0.029
 15  0.001  0.000  0.000  0.000  0.000  0.000  0.000  0.000  0.000  0.001
 16  0.002  0.000  0.000  0.000  0.000  0.000  0.000  0.000  0.000  0.002
 17  0.002  0.000  0.000  0.000  0.000  0.000  0.000  0.000  0.000  0.002
 18  0.001  0.000  0.000  0.000  0.000  0.000  0.000  0.000  0.000  0.001
 19  0.028  0.000  0.000  0.000  0.000  0.000  0.000  0.000  0.000  0.029
 20  0.028  0.000  0.000  0.000  0.000  0.000  0.000  0.000  0.000  0.029
 21  0.001  0.000  0.000  0.000  0.000  0.000  0.000  0.000  0.000  0.001
 22  0.002  0.000  0.000  0.000  0.000  0.000  0.000  0.000  0.000  0.002
 23  0.002  0.000  0.000  0.000  0.000  0.000  0.000  0.000  0.000  0.002
 24  0.001  0.000  0.000  0.000  0.000  0.000  0.000  0.000  0.000  0.001
 25  0.028  0.000  0.000  0.000  0.000  0.000  0.000  0.000  0.000  0.029
tot  0.132  0.090  0.090  0.094  0.000  0.000  0.000  0.000  0.000  0.406
 
band  15 # energy   -7.62959720 # occ.  2.00000000
 
ion      s     py     pz     px    dxy    dyz    dz2    dxz    dx2    tot
  1  0.000  0.018  0.018  0.000  0.000  0.000  0.000  0.000  0.000  0.036
  2  0.002  0.008  0.003  0.001  0.000  0.000  0.000  0.000  0.000  0.014
  3  0.000  0.004  0.004  0.000  0.000  0.000  0.000  0.000  0.000  0.008
  4  0.000  0.001  0.001  0.040  0.000  0.000  0.000  0.000  0.000  0.041
  5  0.000  0.014  0.014  0.000  0.000  0.000  0.000  0.000  0.000  0.029
  6  0.002  0.003  0.008  0.001  0.000  0.000  0.000  0.000  0.000  0.014
  7  0.000  0.004  0.004  0.000  0.000  0.000  0.000  0.000  0.000  0.008
  8  0.000  0.001  0.001  0.040  0.000  0.000  0.000  0.000  0.000  0.041
  9  0.000  0.003  0.003  0.005  0.000  0.000  0.000  0.000  0.000  0.011
 10  0.002  0.009  0.003  0.001  0.000  0.000  0.000  0.000  0.000  0.014
 11  0.000  0.003  0.003  0.005  0.000  0.000  0.000  0.000  0.000  0.011
 12  0.002  0.003  0.009  0.001  0.000  0.000  0.000  0.000  0.000  0.014
 13  0.000  0.018  0.018  0.000  0.000  0.000  0.000  0.000  0.000  0.037