Starting job 28278179 ("jobname") on c15-30 at Fri Oct 4 11:32:24 CEST 2019
 running on    4 total cores
 distrk:  each k-point on    4 cores,    1 groups
 distr:  one band on    2 cores,    2 groups
 using from now: INCAR     
 vasp.5.4.1 05Feb16 (build Mar 02 2016 14:09:44) complex                        
  
 POSCAR found type information on POSCAR  Si H 
 POSCAR found :  2 types and      25 ions
 LDA part: xc-table for Pade appr. of Perdew
 POSCAR, INCAR and KPOINTS ok, starting setup
 WARNING: small aliasing (wrap around) errors must be expected
 FFT: planning ...
 WAVECAR not read
 entering main loop
       N       E                     dE             d eps       ncg     rms          rms(c)
DAV:   1     0.224377859980E+03    0.22438E+03   -0.12288E+04   340   0.485E+02
DAV:   2    -0.683945163616E+02   -0.29277E+03   -0.28206E+03   384   0.130E+02
DAV:   3    -0.107263056091E+03   -0.38869E+02   -0.38472E+02   360   0.509E+01
DAV:   4    -0.108392646479E+03   -0.11296E+01   -0.11249E+01   352   0.108E+01
DAV:   5    -0.108434791729E+03   -0.42145E-01   -0.42117E-01   424   0.189E+00    0.124E+01
RMM:   6    -0.105003595979E+03    0.34312E+01   -0.27903E+00   288   0.407E+00    0.680E+00
RMM:   7    -0.103604666165E+03    0.13989E+01   -0.39591E+00   301   0.515E+00    0.106E+00
RMM:   8    -0.103512781297E+03    0.91885E-01   -0.31824E-01   329   0.150E+00    0.380E-01
RMM:   9    -0.103497092861E+03    0.15688E-01   -0.53050E-02   337   0.597E-01    0.235E-01
RMM:  10    -0.103495533420E+03    0.15594E-02   -0.12858E-02   329   0.290E-01    0.914E-02
RMM:  11    -0.103496841950E+03   -0.13085E-02   -0.50223E-03   330   0.165E-01    0.607E-02
RMM:  12    -0.103501803743E+03   -0.49618E-02   -0.24698E-03   298   0.131E-01    0.579E-02
RMM:  13    -0.103503546864E+03   -0.17431E-02   -0.12159E-03   309   0.760E-02    0.277E-02
RMM:  14    -0.103504435460E+03   -0.88860E-03   -0.28587E-04   304   0.422E-02    0.107E-02
RMM:  15    -0.103505281375E+03   -0.84592E-03   -0.92547E-05   304   0.235E-02    0.650E-03
RMM:  16    -0.103505823168E+03   -0.54179E-03   -0.52657E-05   294   0.160E-02    0.451E-03
RMM:  17    -0.103506141805E+03   -0.31864E-03   -0.36189E-05   299   0.127E-02    0.390E-03
RMM:  18    -0.103506283272E+03   -0.14147E-03   -0.12188E-05   286   0.736E-03    0.172E-03
RMM:  19    -0.103506343801E+03   -0.60529E-04   -0.31987E-06   247   0.397E-03    0.704E-04
RMM:  20    -0.103506360886E+03   -0.17085E-04   -0.99797E-07   226   0.255E-03    0.668E-04
RMM:  21    -0.103506365857E+03   -0.49710E-05   -0.27609E-07   197   0.141E-03    0.128E-04
RMM:  22    -0.103506368689E+03   -0.28315E-05   -0.14989E-07   159   0.114E-03    0.879E-05
RMM:  23    -0.103506369688E+03   -0.99898E-06   -0.10335E-07   158   0.105E-03
   1 F= -.10350637E+03 E0= -.10350637E+03  d E =-.887105E-07

Currently Loaded Modulefiles:
  1) Anaconda3/5.1.0       3) vesta/3.3.8           5) intel/2016.1
  2) gnuplot/5.0.4         4) imagemagick/6.7.9-0   6) vasp/5.4.1.Feb16

Job script resource usage:
       JobID  MaxVMSize     MaxRSS 
------------ ---------- ---------- 
28278179.ba+    499284K      5365K 

Job step resource usage:
       JobID    JobName  AllocCPUS  MaxVMSize     MaxRSS    Elapsed ExitCode 
------------ ---------- ---------- ---------- ---------- ---------- -------- 
28278179        jobname          4                         00:00:48      0:0 
28278179.0    pmi_proxy          1   1474768K    347396K   00:00:46      0:0 

Job 28278179 ("jobname") completed on c15-30 at Fri Oct 4 11:33:10 CEST 2019
