unknown system                          
           1
     5.431010    0.000000    0.000000
     0.000000   21.591010    0.000000
     0.000000    0.000000   21.591010
   Si   H 
  13  12
Direct configuration=     1
   0.86321096  0.01720703  0.01720703
   0.49999908  0.12576994  0.01069804
   0.21855470  0.06200503  0.06200503
   0.78144530  0.18953531  0.06200503
   0.00000000  0.12576994  0.12576994
   0.49999908  0.01069804  0.12576994
   0.21855470  0.18953531  0.18953531
   0.78144530  0.06200503  0.18953531
   0.13678904  0.01720703  0.23433331
   0.49999908  0.12576994  0.24084230
   0.13678904  0.23433331  0.01720703
   0.49999908  0.24084230  0.12576994
   0.86321096  0.23433331  0.23433331
   0.11089656  0.02448775  0.30386542
   0.49999908  0.12576994  0.31059968
   0.88910344  0.22705259  0.30386542
   0.88910344  0.02448775  0.94767446
   0.49999908  0.12576994  0.94094019
   0.11089656  0.22705259  0.94767446
   0.11089656  0.30386542  0.02448775
   0.49999908  0.31059968  0.12576994
   0.88910344  0.30386542  0.22705259
   0.88910344  0.94767446  0.02448775
   0.49999908  0.94094019  0.12576994
   0.11089656  0.94767446  0.22705259
