unknown system                          
   1.00000000000000     
     3.905268    0.000000    0.000000
     0.000000    3.905268    0.000000
     0.000000    0.000000    3.905268
   Sr   Ti   O 
     1     1     3
Direct
  0.000000  0.000000  0.000000
  0.500000  0.500000  0.500000
  0.500000  0.500000  0.000000
  0.500000  0.000000  0.500000
  0.000000  0.500000  0.500000
 
   48   48   48
  193.59      193.59      193.12      190.92      185.46      175.51      160.61      141.24      118.78      95.185    
  72.571      52.705      36.662      24.699      16.385      10.892      7.3757      5.1886      3.8508      3.0391    
  2.5509      2.2638      2.1031      2.0234      1.9996      2.0234      2.1031      2.2638      2.5509      3.0391    
  3.8508      5.1886      7.3757      10.892      16.385      24.699      36.662      52.705      72.571      95.185    
  118.78      141.24      160.61      175.51      185.46      190.92      193.12      193.59      193.59      193.52    
  192.82      190.30      184.50      174.26      159.17      139.73      117.33      93.896      71.512      51.901    
  36.097      24.332      16.163      10.767      7.3120      5.1633      3.8487      3.0509      2.5713      2.2894    
  2.1317      2.0537      2.0304      2.0537      2.1317      2.2894      2.5713      3.0509      3.8487      5.1633    
  7.3120      10.767      16.163      24.332      36.097      51.901      71.512      93.896      117.33      139.73    
  159.17      174.26      184.50      190.30      192.82      193.52      193.12      192.82      191.49      188.10    
  181.38      170.36      154.78      135.20      113.02      90.099      68.412      49.556      34.457      23.269    
  15.523      10.407      7.1324      5.0957      3.8493      3.0929      2.6389      2.3729      2.2250      2.1521    
  2.1304      2.1521      2.2250      2.3729      2.6389      3.0929      3.8493      5.0957      7.1324      10.407    
  15.523      23.269      34.457      49.556      68.412      90.099      113.02      135.20      154.78      170.36    
  181.38      188.10      191.49      192.82      190.92      190.30      188.10      183.50      175.52      163.49    
  147.32      127.70      106.01      84.005      63.492      45.872      31.901      21.625      14.541      9.8615    
  6.8688      5.0081      3.8696      3.1800      2.7680      2.5287      2.3973      2.3335      2.3146      2.3335    
  2.3973      2.5287      2.7680      3.1800      3.8696      5.0081      6.8688      9.8615      14.541      21.625    
  31.901      45.872      63.492      84.005      106.01      127.70      147.32      163.49      175.52      183.50    
  188.10      190.30      185.46      184.50      181.38      175.52      166.29      153.32      136.75      117.40    
  96.600      75.983      57.116      41.162      28.672      19.573      13.327      9.2011      6.5674      4.9318    
  3.9332      3.3315      2.9760      2.7735      2.6651      2.6139      2.5991      2.6139      2.6651      2.7735    
  2.9760      3.3315      3.9332      4.9318      6.5674      9.2011      13.327      19.573      28.672      41.162    
  57.116      75.983      96.600      117.40      136.75      153.32      166.29      175.52      181.38      184.50    
  175.51      174.26      170.36      163.49      153.32      139.79      123.29      104.70      85.304      66.560    
  49.770      35.826      25.070      17.313      12.009      8.5096      6.2836      4.9064      4.0717      3.5763    
  3.2916      3.1365      3.0588      3.0248      3.0156      3.0248      3.0588      3.1365      3.2916      3.5763    
  4.0717      4.9064      6.2836      8.5096      12.009      17.313      25.070      35.826      49.770      66.560    
  85.304      104.70      123.29      139.79      153.32      163.49      170.36      174.26      160.61      159.17    
  154.78      147.32      136.75      123.29      107.48      90.257      72.819      56.394      42.011      30.298    
  21.402      15.050      10.718      7.8738      6.0781      4.9804      4.3303      3.9612      3.7655      3.6734    
  3.6381      3.6289      3.6278      3.6289      3.6381      3.6734      3.7655      3.9612      4.3303      4.9804    
  6.0781      7.8738      10.718      15.050      21.402      30.298      42.011      56.394      72.819      90.257    
  107.48      123.29      136.75      147.32      154.78      159.17      141.24      139.73      135.20      127.70    
  117.40      104.70      90.257      75.005      59.988      46.204      34.409      24.991      17.947      12.959    
  9.5724      7.3763      6.0157      5.2128      4.7698      4.5528      4.4722      4.4664      4.4921      4.5193    
  4.5303      4.5193      4.4921      4.4664      4.4722      4.5528      4.7698      5.2128      6.0157      7.3763    
  9.5724      12.959      17.947      24.991      34.409      46.204      59.988      75.005      90.257      104.70    
  117.40      127.70      135.20      139.73      118.78      117.33      113.02      106.01      96.600      85.304    
  72.819      59.988      47.687      36.673      27.459      20.240      14.916      11.174      8.6716      7.0933    
  6.1648      5.6741      5.4681      5.4391      5.5100      5.6235      5.7360      5.8164      5.8454      5.8164    
  5.7360      5.6235      5.5100      5.4391      5.4681      5.6741      6.1648      7.0933      8.6716      11.174    
  14.916      20.240      27.459      36.673      47.687      59.988      72.819      85.304      96.600      106.01    
  113.02      117.33      95.185      93.896      90.099      84.005      75.983      66.560      56.394      46.204    
  36.673      28.338      21.512      16.259      12.432      9.7910      8.0912      7.0950      6.6005      6.4500    
  6.5250      6.7353      7.0096      7.2890      7.5258      7.6832      7.7384      7.6832      7.5258      7.2890    
  7.0096      6.7353      6.5250      6.4500      6.6005      7.0950      8.0912      9.7910      12.432      16.259    
  21.512      28.338      36.673      46.204      56.394      66.560      75.983      84.005      90.099      93.896    
  72.571      71.512      68.412      63.492      57.116      49.770      42.011      34.409      27.459      21.512    
  16.738      13.127      10.555      8.8670      7.8872      7.4477      7.4052      7.6431      8.0659      8.5916    
  9.1466      9.6632      10.082      10.354      10.448      10.354      10.082      9.6632      9.1466      8.5916    
  8.0659      7.6431      7.4052      7.4477      7.8872      8.8670      10.555      13.127      16.738      21.512    
  27.459      34.409      42.011      49.770      57.116      63.492      68.412      71.512      52.705      51.901    
  49.556      45.872      41.162      35.826      30.298      24.991      20.240      16.259      13.127      10.827    
  9.2928      8.4228      8.1004      8.2153      8.6688      9.3731      10.246      11.204      12.161      13.031    
  13.727      14.178      14.334      14.178      13.727      13.031      12.161      11.204      10.246      9.3731    
  8.6688      8.2153      8.1004      8.4228      9.2928      10.827      13.127      16.259      20.240      24.991    
  30.298      35.826      41.162      45.872      49.556      51.901      36.662      36.097      34.457      31.901    
  28.672      25.070      21.402      17.947      14.916      12.432      10.555      9.2928      8.6124      8.4567    
  8.7610      9.4601      10.490      11.783      13.265      14.845      16.410      17.831      18.975      19.719    
  19.977      19.719      18.975      17.831      16.410      14.845      13.265      11.783      10.490      9.4601    
  8.7610      8.4567      8.6124      9.2928      10.555      12.432      14.916      17.947      21.402      25.070    
  28.672      31.901      34.457      36.097      24.699      24.332      23.269      21.625      19.573      17.313    
  15.050      12.959      11.174      9.7910      8.8670      8.4228      8.4567      8.9539      9.8924      11.246    
  12.985      15.064      17.416      19.933      22.457      24.782      26.674      27.915      28.348      27.915    
  26.674      24.782      22.457      19.933      17.416      15.064      12.985      11.246      9.8924      8.9539    
  8.4567      8.4228      8.8670      9.7910      11.174      12.959      15.050      17.313      19.573      21.625    
  23.269      24.332      16.385      16.163      15.523      14.541      13.327      12.009      10.718      9.5724    
  8.6716      8.0912      7.8872      8.1004      8.7610      9.8924      11.515      13.648      16.306      19.483    
  23.127      27.106      31.177      34.994      38.145      40.230      40.961      40.230      38.145      34.994    
  31.177      27.106      23.127      19.483      16.306      13.648      11.515      9.8924      8.7610      8.1004    
  7.8872      8.0912      8.6716      9.5724      10.718      12.009      13.327      14.541      15.523      16.163    
  10.892      10.767      10.407      9.8615      9.2011      8.5096      7.8738      7.3763      7.0933      7.0950    
  7.4477      8.2153      9.4601      11.246      13.648      16.750      20.645      25.395      30.983      37.233    
  43.763      49.980      55.163      58.615      59.828      58.615      55.163      49.980      43.763      37.233    
  30.983      25.395      20.645      16.750      13.648      11.246      9.4601      8.2153      7.4477      7.0950    
  7.0933      7.3763      7.8738      8.5096      9.2011      9.8615      10.407      10.767      7.3757      7.3120    
  7.1324      6.8688      6.5674      6.2836      6.0781      6.0157      6.1648      6.6005      7.4052      8.6688    
  10.490      12.985      16.306      20.645      26.220      33.212      41.657      51.309      61.540      71.385    
  79.762      85.463      87.491      85.463      79.762      71.385      61.540      51.309      41.657      33.212    
  26.220      20.645      16.306      12.985      10.490      8.6688      7.4052      6.6005      6.1648      6.0157    
  6.0781      6.2836      6.5674      6.8688      7.1324      7.3120      5.1886      5.1633      5.0957      5.0081    
  4.9318      4.9064      4.9804      5.2128      5.6741      6.4500      7.6431      9.3731      11.783      15.064    
  19.483      25.395      33.212      43.288      55.721      70.134      85.873      101.75      115.67      125.26    
  128.69      125.26      115.67      101.75      85.873      70.134      55.721      43.288      33.212      25.395    
  19.483      15.064      11.783      9.3731      7.6431      6.4500      5.6741      5.2128      4.9804      4.9064    
  4.9318      5.0081      5.0957      5.1633      3.8508      3.8487      3.8493      3.8696      3.9332      4.0717    
  4.3303      4.7698      5.4681      6.5250      8.0659      10.246      13.265      17.416      23.127      30.983    
  41.657      55.721      73.345      94.676      119.09      144.10      165.99      180.96      186.28      180.96    
  165.99      144.10      119.09      94.676      73.345      55.721      41.657      30.983      23.127      17.416    
  13.265      10.246      8.0659      6.5250      5.4681      4.7698      4.3303      4.0717      3.9332      3.8696    
  3.8493      3.8487      3.0391      3.0509      3.0929      3.1800      3.3315      3.5763      3.9612      4.5528    
  5.4391      6.7353      8.5916      11.204      14.845      19.933      27.106      37.233      51.309      70.134    
  94.676      125.73      161.54      197.78      228.87      249.73      257.05      249.73      228.87      197.78    
  161.54      125.73      94.676      70.134      51.309      37.233      27.106      19.933      14.845      11.204    
  8.5916      6.7353      5.4391      4.5528      3.9612      3.5763      3.3315      3.1800      3.0929      3.0509    
  2.5509      2.5713      2.6389      2.7680      2.9760      3.2916      3.7655      4.4722      5.5100      7.0096    
  9.1466      12.161      16.410      22.457      31.177      43.763      61.540      85.873      119.09      161.54    
  209.78      257.27      296.75      322.53      331.44      322.53      296.75      257.27      209.78      161.54    
  119.09      85.873      61.540      43.763      31.177      22.457      16.410      12.161      9.1466      7.0096    
  5.5100      4.4722      3.7655      3.2916      2.9760      2.7680      2.6389      2.5713      2.2638      2.2894    
  2.3729      2.5287      2.7735      3.1365      3.6734      4.4664      5.6235      7.2890      9.6632      13.031    
  17.831      24.782      34.994      49.980      71.385      101.75      144.10      197.78      257.27      313.86    
  359.13      387.65      397.29      387.65      359.13      313.86      257.27      197.78      144.10      101.75    
  71.385      49.980      34.994      24.782      17.831      13.031      9.6632      7.2890      5.6235      4.4664    
  3.6734      3.1365      2.7735      2.5287      2.3729      2.2894      2.1031      2.1317      2.2250      2.3973    
  2.6651      3.0588      3.6381      4.4921      5.7360      7.5258      10.082      13.727      18.975      26.674    
  38.145      55.163      79.762      115.67      165.99      228.87      296.75      359.13      407.02      436.01    
  445.56      436.01      407.02      359.13      296.75      228.87      165.99      115.67      79.762      55.163    
  38.145      26.674      18.975      13.727      10.082      7.5258      5.7360      4.4921      3.6381      3.0588    
  2.6651      2.3973      2.2250      2.1317      2.0234      2.0537      2.1521      2.3335      2.6139      3.0248    
  3.6289      4.5193      5.8164      7.6832      10.354      14.178      19.719      27.915      40.230      58.615    
  85.463      125.26      180.96      249.73      322.53      387.65      436.01      464.29      473.37      464.29    
  436.01      387.65      322.53      249.73      180.96      125.26      85.463      58.615      40.230      27.915    
  19.719      14.178      10.354      7.6832      5.8164      4.5193      3.6289      3.0248      2.6139      2.3335    
  2.1521      2.0537      1.9996      2.0304      2.1304      2.3146      2.5991      3.0156      3.6278      4.5303    
  5.8454      7.7384      10.448      14.334      19.977      28.348      40.961      59.828      87.491      128.69    
  186.28      257.05      331.44      397.29      445.56      473.37      482.21      473.37      445.56      397.29    
  331.44      257.05      186.28      128.69      87.491      59.828      40.961      28.348      19.977      14.334    
  10.448      7.7384      5.8454      4.5303      3.6278      3.0156      2.5991      2.3146      2.1304      2.0304    
  2.0234      2.0537      2.1521      2.3335      2.6139      3.0248      3.6289      4.5193      5.8164      7.6832    
  10.354      14.178      19.719      27.915      40.230      58.615      85.463      125.26      180.96      249.73    
  322.53      387.65      436.01      464.29      473.37      464.29      436.01      387.65      322.53      249.73    
  180.96      125.26      85.463      58.615      40.230      27.915      19.719      14.178      10.354      7.6832    
  5.8164      4.5193      3.6289      3.0248      2.6139      2.3335      2.1521      2.0537      2.1031      2.1317    
  2.2250      2.3973      2.6651      3.0588      3.6381      4.4921      5.7360      7.5258      10.082      13.727    
  18.975      26.674      38.145      55.163      79.762      115.67      165.99      228.87      296.75      359.13    
  407.02      436.01      445.56      436.01      407.02      359.13      296.75      228.87      165.99      115.67    
  79.762      55.163      38.145      26.674      18.975      13.727      10.082      7.5258      5.7360      4.4921    
  3.6381      3.0588      2.6651      2.3973      2.2250      2.1317      2.2638      2.2894      2.3729      2.5287    
  2.7735      3.1365      3.6734      4.4664      5.6235      7.2890      9.6632      13.031      17.831      24.782    
  34.994      49.980      71.385      101.75      144.10      197.78      257.27      313.86      359.13      387.65    
  397.29      387.65      359.13      313.86      257.27      197.78      144.10      101.75      71.385      49.980    
  34.994      24.782      17.831      13.031      9.6632      7.2890      5.6235      4.4664      3.6734      3.1365    
  2.7735      2.5287      2.3729      2.2894      2.5509      2.5713      2.6389      2.7680      2.9760      3.2916    
  3.7655      4.4722      5.5100      7.0096      9.1466      12.161      16.410      22.457      31.177      43.763    
  61.540      85.873      119.09      161.54      209.78      257.27      296.75      322.53      331.44      322.53    
  296.75      257.27      209.78      161.54      119.09      85.873      61.540      43.763      31.177      22.457    
  16.410      12.161      9.1466      7.0096      5.5100      4.4722      3.7655      3.2916      2.9760      2.7680    
  2.6389      2.5713      3.0391      3.0509      3.0929      3.1800      3.3315      3.5763      3.9612      4.5528    
  5.4391      6.7353      8.5916      11.204      14.845      19.933      27.106      37.233      51.309      70.134    
  94.676      125.73      161.54      197.78      228.87      249.73      257.05      249.73      228.87      197.78    
  161.54      125.73      94.676      70.134      51.309      37.233      27.106      19.933      14.845      11.204    
  8.5916      6.7353      5.4391      4.5528      3.9612      3.5763      3.3315      3.1800      3.0929      3.0509    
  3.8508      3.8487      3.8493      3.8696      3.9332      4.0717      4.3303      4.7698      5.4681      6.5250    
  8.0659      10.246      13.265      17.416      23.127      30.983      41.657      55.721      73.345      94.676    
  119.09      144.10      165.99      180.96      186.28      180.96      165.99      144.10      119.09      94.676    
  73.345      55.721      41.657      30.983      23.127      17.416      13.265      10.246      8.0659      6.5250    
  5.4681      4.7698      4.3303      4.0717      3.9332      3.8696      3.8493      3.8487      5.1886      5.1633    
  5.0957      5.0081      4.9318      4.9064      4.9804      5.2128      5.6741      6.4500      7.6431      9.3731    
  11.783      15.064      19.483      25.395      33.212      43.288      55.721      70.134      85.873      101.75    
  115.67      125.26      128.69      125.26      115.67      101.75      85.873      70.134      55.721      43.288    
  33.212      25.395      19.483      15.064      11.783      9.3731      7.6431      6.4500      5.6741      5.2128    
  4.9804      4.9064      4.9318      5.0081      5.0957      5.1633      7.3757      7.3120      7.1324      6.8688    
  6.5674      6.2836      6.0781      6.0157      6.1648      6.6005      7.4052      8.6688      10.490      12.985    
  16.306      20.645      26.220      33.212      41.657      51.309      61.540      71.385      79.762      85.463    
  87.491      85.463      79.762      71.385      61.540      51.309      41.657      33.212      26.220      20.645    
  16.306      12.985      10.490      8.6688      7.4052      6.6005      6.1648      6.0157      6.0781      6.2836    
  6.5674      6.8688      7.1324      7.3120      10.892      10.767      10.407      9.8615      9.2011      8.5096    
  7.8738      7.3763      7.0933      7.0950      7.4477      8.2153      9.4601      11.246      13.648      16.750    
  20.645      25.395      30.983      37.233      43.763      49.980      55.163      58.615      59.828      58.615    
  55.163      49.980      43.763      37.233      30.983      25.395      20.645      16.750      13.648      11.246    
  9.4601      8.2153      7.4477      7.0950      7.0933      7.3763      7.8738      8.5096      9.2011      9.8615    
  10.407      10.767      16.385      16.163      15.523      14.541      13.327      12.009      10.718      9.5724    
  8.6716      8.0912      7.8872      8.1004      8.7610      9.8924      11.515      13.648      16.306      19.483    
  23.127      27.106      31.177      34.994      38.145      40.230      40.961      40.230      38.145      34.994    
  31.177      27.106      23.127      19.483      16.306      13.648      11.515      9.8924      8.7610      8.1004    
  7.8872      8.0912      8.6716      9.5724      10.718      12.009      13.327      14.541      15.523      16.163    
  24.699      24.332      23.269      21.625      19.573      17.313      15.050      12.959      11.174      9.7910    
  8.8670      8.4228      8.4567      8.9539      9.8924      11.246      12.985      15.064      17.416      19.933    
  22.457      24.782      26.674      27.915      28.348      27.915      26.674      24.782      22.457      19.933    
  17.416      15.064      12.985      11.246      9.8924      8.9539      8.4567      8.4228      8.8670      9.7910    
  11.174      12.959      15.050      17.313      19.573      21.625      23.269      24.332      36.662      36.097    
  34.457      31.901      28.672      25.070      21.402      17.947      14.916      12.432      10.555      9.2928    
  8.6124      8.4567      8.7610      9.4601      10.490      11.783      13.265      14.845      16.410      17.831    
  18.975      19.719      19.977      19.719      18.975      17.831      16.410      14.845      13.265      11.783    
  10.490      9.4601      8.7610      8.4567      8.6124      9.2928      10.555      12.432      14.916      17.947    
  21.402      25.070      28.672      31.901      34.457      36.097      52.705      51.901      49.556      45.872    
  41.162      35.826      30.298      24.991      20.240      16.259      13.127      10.827      9.2928      8.4228    
  8.1004      8.2153      8.6688      9.3731      10.246      11.204      12.161      13.031      13.727      14.178    
  14.334      14.178      13.727      13.031      12.161      11.204      10.246      9.3731      8.6688      8.2153    
  8.1004      8.4228      9.2928      10.827      13.127      16.259      20.240      24.991      30.298      35.826    
  41.162      45.872      49.556      51.901      72.571      71.512      68.412      63.492      57.116      49.770    
  42.011      34.409      27.459      21.512      16.738      13.127      10.555      8.8670      7.8872      7.4477    
  7.4052      7.6431      8.0659      8.5916      9.1466      9.6632      10.082      10.354      10.448      10.354    
  10.082      9.6632      9.1466      8.5916      8.0659      7.6431      7.4052      7.4477      7.8872      8.8670    
  10.555      13.127      16.738      21.512      27.459      34.409      42.011      49.770      57.116      63.492    
  68.412      71.512      95.185      93.896      90.099      84.005      75.983      66.560      56.394      46.204    
  36.673      28.338      21.512      16.259      12.432      9.7910      8.0912      7.0950      6.6005      6.4500    
  6.5250      6.7353      7.0096      7.2890      7.5258      7.6832      7.7384      7.6832      7.5258      7.2890    
  7.0096      6.7353      6.5250      6.4500      6.6005      7.0950      8.0912      9.7910      12.432      16.259    
  21.512      28.338      36.673      46.204      56.394      66.560      75.983      84.005      90.099      93.896    
  118.78      117.33      113.02      106.01      96.600      85.304      72.819      59.988      47.687      36.673    
  27.459      20.240      14.916      11.174      8.6716      7.0933      6.1648      5.6741      5.4681      5.4391    
  5.5100      5.6235      5.7360      5.8164      5.8454      5.8164      5.7360      5.6235      5.5100      5.4391    
  5.4681      5.6741      6.1648      7.0933      8.6716      11.174      14.916      20.240      27.459      36.673    
  47.687      59.988      72.819      85.304      96.600      106.01      113.02      117.33      141.24      139.73    
  135.20      127.70      117.40      104.70      90.257      75.005      59.988      46.204      34.409      24.991    
  17.947      12.959      9.5724      7.3763      6.0157      5.2128      4.7698      4.5528      4.4722      4.4664    
  4.4921      4.5193      4.5303      4.5193      4.4921      4.4664      4.4722      4.5528      4.7698      5.2128    
  6.0157      7.3763      9.5724      12.959      17.947      24.991      34.409      46.204      59.988      75.005    
  90.257      104.70      117.40      127.70      135.20      139.73      160.61      159.17      154.78      147.32    
  136.75      123.29      107.48      90.257      72.819      56.394      42.011      30.298      21.402      15.050    
  10.718      7.8738      6.0781      4.9804      4.3303      3.9612      3.7655      3.6734      3.6381      3.6289    
  3.6278      3.6289      3.6381      3.6734      3.7655      3.9612      4.3303      4.9804      6.0781      7.8738    
  10.718      15.050      21.402      30.298      42.011      56.394      72.819      90.257      107.48      123.29    
  136.75      147.32      154.78      159.17      175.51      174.26      170.36      163.49      153.32      139.79    
  123.29      104.70      85.304      66.560      49.770      35.826      25.070      17.313      12.009      8.5096    
  6.2836      4.9064      4.0717      3.5763      3.2916      3.1365      3.0588      3.0248      3.0156      3.0248    
  3.0588      3.1365      3.2916      3.5763      4.0717      4.9064      6.2836      8.5096      12.009      17.313    
  25.070      35.826      49.770      66.560      85.304      104.70      123.29      139.79      153.32      163.49    
  170.36      174.26      185.46      184.50      181.38      175.52      166.29      153.32      136.75      117.40    
  96.600      75.983      57.116      41.162      28.672      19.573      13.327      9.2011      6.5674      4.9318    
  3.9332      3.3315      2.9760      2.7735      2.6651      2.6139      2.5991      2.6139      2.6651      2.7735    
  2.9760      3.3315      3.9332      4.9318      6.5674      9.2011      13.327      19.573      28.672      41.162    
  57.116      75.983      96.600      117.40      136.75      153.32      166.29      175.52      181.38      184.50    
  190.92      190.30      188.10      183.50      175.52      163.49      147.32      127.70      106.01      84.005    
  63.492      45.872      31.901      21.625      14.541      9.8615      6.8688      5.0081      3.8696      3.1800    
  2.7680      2.5287      2.3973      2.3335      2.3146      2.3335      2.3973      2.5287      2.7680      3.1800    
  3.8696      5.0081      6.8688      9.8615      14.541      21.625      31.901      45.872      63.492      84.005    
  106.01      127.70      147.32      163.49      175.52      183.50      188.10      190.30      193.12      192.82    
  191.49      188.10      181.38      170.36      154.78      135.20      113.02      90.099      68.412      49.556    
  34.457      23.269      15.523      10.407      7.1324      5.0957      3.8493      3.0929      2.6389      2.3729    
  2.2250      2.1521      2.1304      2.1521      2.2250      2.3729      2.6389      3.0929      3.8493      5.0957    
  7.1324      10.407      15.523      23.269      34.457      49.556      68.412      90.099      113.02      135.20    
  154.78      170.36      181.38      188.10      191.49      192.82      193.59      193.52      192.82      190.30    
  184.50      174.26      159.17      139.73      117.33      93.896      71.512      51.901      36.097      24.332    
  16.163      10.767      7.3120      5.1633      3.8487      3.0509      2.5713      2.2894      2.1317      2.0537    
  2.0304      2.0537      2.1317      2.2894      2.5713      3.0509      3.8487      5.1633      7.3120      10.767    
  16.163      24.332      36.097      51.901      71.512      93.896      117.33      139.73      159.17      174.26    
  184.50      190.30      192.82      193.52      193.59      193.52      192.82      190.30      184.50      174.26    
  159.17      139.73      117.33      93.896      71.512      51.901      36.097      24.332      16.163      10.767    
  7.3120      5.1633      3.8487      3.0509      2.5713      2.2894      2.1317      2.0537      2.0304      2.0537    
  2.1317      2.2894      2.5713      3.0509      3.8487      5.1633      7.3120      10.767      16.163      24.332    
  36.097      51.901      71.512      93.896      117.33      139.73      159.17      174.26      184.50      190.30    
  192.82      193.52      193.52      193.36      192.44      189.61      183.49      172.98      157.71      138.22    
  115.88      92.619      70.466      51.108      35.541      23.970      15.944      10.643      7.2492      5.1383    
  3.8466      3.0625      2.5913      2.3145      2.1599      2.0835      2.0607      2.0835      2.1599      2.3145    
  2.5913      3.0625      3.8466      5.1383      7.2492      10.643      15.944      23.970      35.541      51.108    
  70.466      92.619      115.88      138.22      157.71      172.98      183.49      189.61      192.44      193.36    
  192.82      192.44      190.92      187.26      180.27      169.02      153.30      133.70      111.60      88.856    
  67.402      48.796      33.926      22.925      15.315      10.289      7.0724      5.0716      3.8468      3.1036    
  2.6576      2.3965      2.2515      2.1803      2.1590      2.1803      2.2515      2.3965      2.6576      3.1036    
  3.8468      5.0716      7.0724      10.289      15.315      22.925      33.926      48.796      67.402      88.856    