unknown system                          
   1.00000000000000     
     3.905268    0.000000    0.000000
     0.000000    3.905268    0.000000
     0.000000    0.000000    3.905268
   Sr   Ti   O 
     1     1     3
Direct
  0.000000  0.000000  0.000000
  0.500000  0.500000  0.500000
  0.500000  0.500000  0.000000
  0.500000  0.000000  0.500000
  0.000000  0.500000  0.500000
 
   48   48   48
 0.19359023451E+03 0.19359409052E+03 0.19312246580E+03 0.19092118886E+03 0.18546023151E+03
 0.17551378474E+03 0.16061167075E+03 0.14124092630E+03 0.11877687809E+03 0.95184683369E+02
 0.72570769887E+02 0.52705091103E+02 0.36662433165E+02 0.24699412170E+02 0.16384898902E+02
 0.10892413989E+02 0.73756556151E+01 0.51885634360E+01 0.38508192768E+01 0.30390709249E+01
 0.25509425019E+01 0.22637964833E+01 0.21030896759E+01 0.20234178898E+01 0.19995844578E+01
 0.20234178898E+01 0.21030896759E+01 0.22637964833E+01 0.25509425019E+01 0.30390709249E+01
 0.38508192768E+01 0.51885634360E+01 0.73756556151E+01 0.10892413989E+02 0.16384898902E+02
 0.24699412170E+02 0.36662433165E+02 0.52705091103E+02 0.72570769887E+02 0.95184683369E+02
 0.11877687809E+03 0.14124092630E+03 0.16061167075E+03 0.17551378474E+03 0.18546023151E+03
 0.19092118886E+03 0.19312246580E+03 0.19359409052E+03 0.19359409052E+03 0.19351507977E+03
 0.19281541538E+03 0.19029552942E+03 0.18449649798E+03 0.17426045046E+03 0.15916749575E+03
 0.13973049345E+03 0.11732544010E+03 0.93896230070E+02 0.71512443676E+02 0.51900854930E+02
 0.36097243852E+02 0.24331787518E+02 0.16162726929E+02 0.10766794266E+02 0.73119696598E+01
 0.51632800606E+01 0.38487328782E+01 0.30509428168E+01 0.25713017178E+01 0.22893507330E+01
 0.21317378152E+01 0.20537007189E+01 0.20303763720E+01 0.20537007189E+01 0.21317378152E+01
 0.22893507330E+01 0.25713017178E+01 0.30509428168E+01 0.38487328782E+01 0.51632800606E+01
 0.73119696598E+01 0.10766794266E+02 0.16162726929E+02 0.24331787518E+02 0.36097243852E+02
 0.51900854930E+02 0.71512443676E+02 0.93896230070E+02 0.11732544010E+03 0.13973049345E+03
 0.15916749575E+03 0.17426045046E+03 0.18449649798E+03 0.19029552942E+03 0.19281541538E+03
 0.19351507977E+03 0.19312246580E+03 0.19281541538E+03 0.19148895180E+03 0.18809591244E+03
 0.18137626430E+03 0.17036269102E+03 0.15477653941E+03 0.13520258283E+03 0.11301663482E+03
 0.90099214079E+02 0.68411959599E+02 0.49556488721E+02 0.34456880777E+02 0.23269015670E+02
 0.15522868468E+02 0.10407072504E+02 0.71324199057E+01 0.50957332405E+01 0.38492814225E+01
 0.30929296972E+01 0.26388841610E+01 0.23728886813E+01 0.22249519611E+01 0.21521063282E+01
 0.21304136631E+01 0.21521063282E+01 0.22249519611E+01 0.23728886813E+01 0.26388841610E+01
 0.30929296972E+01 0.38492814225E+01 0.50957332405E+01 0.71324199057E+01 0.10407072504E+02
 0.15522868468E+02 0.23269015670E+02 0.34456880777E+02 0.49556488721E+02 0.68411959599E+02
 0.90099214079E+02 0.11301663482E+03 0.13520258283E+03 0.15477653941E+03 0.17036269102E+03
 0.18137626430E+03 0.18809591244E+03 0.19148895180E+03 0.19281541538E+03 0.19092118886E+03
 0.19029552942E+03 0.18809591244E+03 0.18349545647E+03 0.17552272491E+03 0.16348810474E+03
 0.14731881523E+03 0.12770187858E+03 0.10600544459E+03 0.84005439422E+02 0.63491909401E+02
 0.45872000007E+02 0.31900594532E+02 0.21625480328E+02 0.14540582290E+02 0.98614709560E+01
 0.68688259099E+01 0.50080913761E+01 0.38696216167E+01 0.31799931029E+01 0.27679765200E+01
 0.25287255512E+01 0.23973125264E+01 0.23334635516E+01 0.23146228156E+01 0.23334635516E+01
 0.23973125264E+01 0.25287255512E+01 0.27679765200E+01 0.31799931029E+01 0.38696216167E+01
 0.50080913761E+01 0.68688259099E+01 0.98614709560E+01 0.14540582290E+02 0.21625480328E+02
 0.31900594532E+02 0.45872000007E+02 0.63491909401E+02 0.84005439422E+02 0.10600544459E+03
 0.12770187858E+03 0.14731881523E+03 0.16348810474E+03 0.17552272491E+03 0.18349545647E+03
 0.18809591244E+03 0.19029552942E+03 0.18546023151E+03 0.18449649798E+03 0.18137626430E+03
 0.17552272491E+03 0.16629354183E+03 0.15331685872E+03 0.13675387700E+03 0.11740091529E+03
 0.96600373269E+02 0.75983404784E+02 0.57116411704E+02 0.41162398647E+02 0.28672439042E+02
 0.19572708194E+02 0.13326630782E+02 0.92010907521E+01 0.65674341908E+01 0.49318277096E+01
 0.39331713121E+01 0.33314870436E+01 0.29760225004E+01 0.27734630080E+01 0.26650799709E+01
 0.26139167450E+01 0.25991238040E+01 0.26139167450E+01 0.26650799709E+01 0.27734630080E+01
 0.29760225004E+01 0.33314870436E+01 0.39331713121E+01 0.49318277096E+01 0.65674341908E+01
 0.92010907521E+01 0.13326630782E+02 0.19572708194E+02 0.28672439042E+02 0.41162398647E+02
 0.57116411704E+02 0.75983404784E+02 0.96600373269E+02 0.11740091529E+03 0.13675387700E+03
 0.15331685872E+03 0.16629354183E+03 0.17552272491E+03 0.18137626430E+03 0.18449649798E+03
 0.17551378474E+03 0.17426045046E+03 0.17036269102E+03 0.16348810474E+03 0.15331685872E+03
 0.13978775791E+03 0.12328519292E+03 0.10469532704E+03 0.85304274279E+02 0.66560331613E+02
 0.49769672427E+02 0.35826199198E+02 0.25069634628E+02 0.17313288879E+02 0.12009019337E+02
 0.85096348262E+01 0.62835728621E+01 0.49063956729E+01 0.40716960750E+01 0.35763166435E+01
 0.32916166205E+01 0.31365109796E+01 0.30587519810E+01 0.30248118090E+01 0.30155783797E+01
 0.30248118090E+01 0.30587519810E+01 0.31365109796E+01 0.32916166205E+01 0.35763166435E+01
 0.40716960750E+01 0.49063956729E+01 0.62835728621E+01 0.85096348262E+01 0.12009019337E+02
 0.17313288879E+02 0.25069634628E+02 0.35826199198E+02 0.49769672427E+02 0.66560331613E+02
 0.85304274279E+02 0.10469532704E+03 0.12328519292E+03 0.13978775791E+03 0.15331685872E+03
 0.16348810474E+03 0.17036269102E+03 0.17426045046E+03 0.16061167075E+03 0.15916749575E+03
 0.15477653941E+03 0.14731881523E+03 0.13675387700E+03 0.12328519292E+03 0.10747530510E+03
 0.90256677799E+02 0.72818555791E+02 0.56393918016E+02 0.42011473717E+02 0.30298186077E+02
 0.21401619820E+02 0.15050364055E+02 0.10717833699E+02 0.78737907741E+01 0.60781321922E+01
 0.49804450360E+01 0.43303303786E+01 0.39611649032E+01 0.37654908530E+01 0.36733893660E+01
 0.36381431405E+01 0.36289004115E+01 0.36277793152E+01 0.36289004115E+01 0.36381431405E+01
 0.36733893660E+01 0.37654908530E+01 0.39611649032E+01 0.43303303786E+01 0.49804450360E+01
 0.60781321922E+01 0.78737907741E+01 0.10717833699E+02 0.15050364055E+02 0.21401619820E+02
 0.30298186077E+02 0.42011473717E+02 0.56393918016E+02 0.72818555791E+02 0.90256677799E+02
 0.10747530510E+03 0.12328519292E+03 0.13675387700E+03 0.14731881523E+03 0.15477653941E+03
 0.15916749575E+03 0.14124092630E+03 0.13973049345E+03 0.13520258283E+03 0.12770187858E+03
 0.11740091529E+03 0.10469532704E+03 0.90256677799E+02 0.75004518721E+02 0.59988062258E+02
 0.46204192442E+02 0.34409315487E+02 0.24991454485E+02 0.17946655995E+02 0.12959131279E+02
 0.95724471804E+01 0.73763415226E+01 0.60156852822E+01 0.52127955711E+01 0.47697920286E+01
 0.45528084843E+01 0.44722020490E+01 0.44664284892E+01 0.44920784186E+01 0.45192947476E+01
 0.45303347891E+01 0.45192947476E+01 0.44920784186E+01 0.44664284892E+01 0.44722020490E+01
 0.45528084843E+01 0.47697920286E+01 0.52127955711E+01 0.60156852822E+01 0.73763415226E+01
 0.95724471804E+01 0.12959131279E+02 0.17946655995E+02 0.24991454485E+02 0.34409315487E+02
 0.46204192442E+02 0.59988062258E+02 0.75004518721E+02 0.90256677799E+02 0.10469532704E+03
 0.11740091529E+03 0.12770187858E+03 0.13520258283E+03 0.13973049345E+03 0.11877687809E+03
 0.11732544010E+03 0.11301663482E+03 0.10600544459E+03 0.96600373269E+02 0.85304274279E+02
 0.72818555791E+02 0.59988062258E+02 0.47686948439E+02 0.36673192339E+02 0.27458624322E+02
 0.20240344239E+02 0.14915503171E+02 0.11173599892E+02 0.86715734050E+01 0.70933483562E+01
 0.61648336738E+01 0.56740708455E+01 0.54680738663E+01 0.54391078394E+01 0.55100257314E+01
 0.56234690169E+01 0.57360468704E+01 0.58164125345E+01 0.58453633101E+01 0.58164125345E+01
 0.57360468704E+01 0.56234690169E+01 0.55100257314E+01 0.54391078394E+01 0.54680738663E+01
 0.56740708455E+01 0.61648336738E+01 0.70933483562E+01 0.86715734050E+01 0.11173599892E+02
 0.14915503171E+02 0.20240344239E+02 0.27458624322E+02 0.36673192339E+02 0.47686948439E+02
 0.59988062258E+02 0.72818555791E+02 0.85304274279E+02 0.96600373269E+02 0.10600544459E+03
 0.11301663482E+03 0.11732544010E+03 0.95184683369E+02 0.93896230070E+02 0.90099214079E+02
 0.84005439422E+02 0.75983404784E+02 0.66560331613E+02 0.56393918016E+02 0.46204192442E+02
 0.36673192339E+02 0.28338064663E+02 0.21511861614E+02 0.16258982059E+02 0.12432232804E+02
 0.97910153963E+01 0.80911581079E+01 0.70950060839E+01 0.66004760553E+01 0.64499773981E+01
 0.65249694440E+01 0.67353100059E+01 0.70095642316E+01 0.72890387738E+01 0.75257621541E+01
 0.76832350676E+01 0.77383678252E+01 0.76832350676E+01 0.75257621541E+01 0.72890387738E+01
 0.70095642316E+01 0.67353100059E+01 0.65249694440E+01 0.64499773981E+01 0.66004760553E+01
 0.70950060839E+01 0.80911581079E+01 0.97910153963E+01 0.12432232804E+02 0.16258982059E+02
 0.21511861614E+02 0.28338064663E+02 0.36673192339E+02 0.46204192442E+02 0.56393918016E+02
 0.66560331613E+02 0.75983404784E+02 0.84005439422E+02 0.90099214079E+02 0.93896230070E+02
 0.72570769887E+02 0.71512443676E+02 0.68411959599E+02 0.63491909401E+02 0.57116411704E+02
 0.49769672427E+02 0.42011473717E+02 0.34409315487E+02 0.27458624322E+02 0.21511861614E+02
 0.16738337693E+02 0.13127177522E+02 0.10554923349E+02 0.88669518015E+01 0.78871930343E+01
 0.74477271488E+01 0.74052378809E+01 0.76431286282E+01 0.80658872069E+01 0.85916251732E+01
 0.91465779109E+01 0.96631647075E+01 0.10081556172E+02 0.10353678316E+02 0.10448049550E+02
 0.10353678316E+02 0.10081556172E+02 0.96631647075E+01 0.91465779109E+01 0.85916251732E+01
 0.80658872069E+01 0.76431286282E+01 0.74052378809E+01 0.74477271488E+01 0.78871930343E+01
 0.88669518015E+01 0.10554923349E+02 0.13127177522E+02 0.16738337693E+02 0.21511861614E+02
 0.27458624322E+02 0.34409315487E+02 0.42011473717E+02 0.49769672427E+02 0.57116411704E+02
 0.63491909401E+02 0.68411959599E+02 0.71512443676E+02 0.52705091103E+02 0.51900854930E+02
 0.49556488721E+02 0.45872000007E+02 0.41162398647E+02 0.35826199198E+02 0.30298186077E+02
 0.24991454485E+02 0.20240344239E+02 0.16258982059E+02 0.13127177522E+02 0.10826581167E+02
 0.92928290046E+01 0.84227579628E+01 0.81004464235E+01 0.82153162141E+01 0.86688246044E+01
 0.93730622950E+01 0.10245505135E+02 0.11203530012E+02 0.12161306478E+02 0.13030724495E+02
 0.13726931939E+02 0.14177627209E+02 0.14333679577E+02 0.14177627209E+02 0.13726931939E+02
 0.13030724495E+02 0.12161306478E+02 0.11203530012E+02 0.10245505135E+02 0.93730622950E+01
 0.86688246044E+01 0.82153162141E+01 0.81004464235E+01 0.84227579628E+01 0.92928290046E+01
 0.10826581167E+02 0.13127177522E+02 0.16258982059E+02 0.20240344239E+02 0.24991454485E+02
 0.30298186077E+02 0.35826199198E+02 0.41162398647E+02 0.45872000007E+02 0.49556488721E+02
 0.51900854930E+02 0.36662433165E+02 0.36097243852E+02 0.34456880777E+02 0.31900594532E+02
 0.28672439042E+02 0.25069634628E+02 0.21401619820E+02 0.17946655995E+02 0.14915503171E+02
 0.12432232804E+02 0.10554923349E+02 0.92928290046E+01 0.86123575085E+01 0.84567258933E+01
 0.87610196910E+01 0.94600662073E+01 0.10489729755E+02 0.11783372094E+02 0.13265443661E+02
 0.14844585336E+02 0.16409500841E+02 0.17831318807E+02 0.18974945815E+02 0.19718632636E+02
 0.19976823567E+02 0.19718632636E+02 0.18974945815E+02 0.17831318807E+02 0.16409500841E+02
 0.14844585336E+02 0.13265443661E+02 0.11783372094E+02 0.10489729755E+02 0.94600662073E+01
 0.87610196910E+01 0.84567258933E+01 0.86123575085E+01 0.92928290046E+01 0.10554923349E+02
 0.12432232804E+02 0.14915503171E+02 0.17946655995E+02 0.21401619820E+02 0.25069634628E+02
 0.28672439042E+02 0.31900594532E+02 0.34456880777E+02 0.36097243852E+02 0.24699412170E+02
 0.24331787518E+02 0.23269015670E+02 0.21625480328E+02 0.19572708194E+02 0.17313288879E+02
 0.15050364055E+02 0.12959131279E+02 0.11173599892E+02 0.97910153963E+01 0.88669518015E+01
 0.84227579628E+01 0.84567258933E+01 0.89538513249E+01 0.98923602993E+01 0.11246487621E+02
 0.12984976758E+02 0.15064287652E+02 0.17416295724E+02 0.19933286405E+02 0.22457114935E+02
 0.24781514172E+02 0.26673894099E+02 0.27915361817E+02 0.28348349549E+02 0.27915361817E+02
 0.26673894099E+02 0.24781514172E+02 0.22457114935E+02 0.19933286405E+02 0.17416295724E+02
 0.15064287652E+02 0.12984976758E+02 0.11246487621E+02 0.98923602993E+01 0.89538513249E+01
 0.84567258933E+01 0.84227579628E+01 0.88669518015E+01 0.97910153963E+01 0.11173599892E+02
 0.12959131279E+02 0.15050364055E+02 0.17313288879E+02 0.19572708194E+02 0.21625480328E+02
 0.23269015670E+02 0.24331787518E+02 0.16384898902E+02 0.16162726929E+02 0.15522868468E+02
 0.14540582290E+02 0.13326630782E+02 0.12009019337E+02 0.10717833699E+02 0.95724471804E+01
 0.86715734050E+01 0.80911581079E+01 0.78871930343E+01 0.81004464235E+01 0.87610196910E+01
 0.98923602993E+01 0.11514891439E+02 0.13647874128E+02 0.16305573662E+02 0.19482723890E+02
 0.23127230186E+02 0.27105769991E+02 0.31177362636E+02 0.34994459004E+02 0.38144752450E+02
 0.40230198116E+02 0.40960787265E+02 0.40230198116E+02 0.38144752450E+02 0.34994459004E+02
 0.31177362636E+02 0.27105769991E+02 0.23127230186E+02 0.19482723890E+02 0.16305573662E+02
 0.13647874128E+02 0.11514891439E+02 0.98923602993E+01 0.87610196910E+01 0.81004464235E+01
 0.78871930343E+01 0.80911581079E+01 0.86715734050E+01 0.95724471804E+01 0.10717833699E+02
 0.12009019337E+02 0.13326630782E+02 0.14540582290E+02 0.15522868468E+02 0.16162726929E+02
 0.10892413989E+02 0.10766794266E+02 0.10407072504E+02 0.98614709560E+01 0.92010907521E+01
 0.85096348262E+01 0.78737907741E+01 0.73763415226E+01 0.70933483562E+01 0.70950060839E+01
 0.74477271488E+01 0.82153162141E+01 0.94600662073E+01 0.11246487621E+02 0.13647874128E+02
 0.16750365861E+02 0.20644646060E+02 0.25395077507E+02 0.30982635795E+02 0.37233351505E+02
 0.43763327218E+02 0.49980007857E+02 0.55163494469E+02 0.58615335418E+02 0.59827818459E+02
 0.58615335418E+02 0.55163494469E+02 0.49980007857E+02 0.43763327218E+02 0.37233351505E+02
 0.30982635795E+02 0.25395077507E+02 0.20644646060E+02 0.16750365861E+02 0.13647874128E+02
 0.11246487621E+02 0.94600662073E+01 0.82153162141E+01 0.74477271488E+01 0.70950060839E+01
 0.70933483562E+01 0.73763415226E+01 0.78737907741E+01 0.85096348262E+01 0.92010907521E+01
 0.98614709560E+01 0.10407072504E+02 0.10766794266E+02 0.73756556151E+01 0.73119696598E+01
 0.71324199057E+01 0.68688259099E+01 0.65674341908E+01 0.62835728621E+01 0.60781321922E+01
 0.60156852822E+01 0.61648336738E+01 0.66004760553E+01 0.74052378809E+01 0.86688246044E+01
 0.10489729755E+02 0.12984976758E+02 0.16305573662E+02 0.20644646060E+02 0.26219765927E+02
 0.33212234033E+02 0.41657299602E+02 0.51308586471E+02 0.61539530737E+02 0.71384833136E+02
 0.79761934476E+02 0.85462760965E+02 0.87491044836E+02 0.85462760965E+02 0.79761934476E+02
 0.71384833136E+02 0.61539530737E+02 0.51308586471E+02 0.41657299602E+02 0.33212234033E+02
 0.26219765927E+02 0.20644646060E+02 0.16305573662E+02 0.12984976758E+02 0.10489729755E+02
 0.86688246044E+01 0.74052378809E+01 0.66004760553E+01 0.61648336738E+01 0.60156852822E+01
 0.60781321922E+01 0.62835728621E+01 0.65674341908E+01 0.68688259099E+01 0.71324199057E+01
 0.73119696598E+01 0.51885634360E+01 0.51632800606E+01 0.50957332405E+01 0.50080913761E+01
 0.49318277096E+01 0.49063956729E+01 0.49804450360E+01 0.52127955711E+01 0.56740708455E+01
 0.64499773981E+01 0.76431286282E+01 0.93730622950E+01 0.11783372094E+02 0.15064287652E+02
 0.19482723890E+02 0.25395077507E+02 0.33212234033E+02 0.43288065391E+02 0.55721272269E+02
 0.70133541275E+02 0.85872908453E+02 0.10175229545E+03 0.11567344518E+03 0.12526419852E+03
 0.12868961034E+03 0.12526419852E+03 0.11567344518E+03 0.10175229545E+03 0.85872908453E+02
 0.70133541275E+02 0.55721272269E+02 0.43288065391E+02 0.33212234033E+02 0.25395077507E+02
 0.19482723890E+02 0.15064287652E+02 0.11783372094E+02 0.93730622950E+01 0.76431286282E+01
 0.64499773981E+01 0.56740708455E+01 0.52127955711E+01 0.49804450360E+01 0.49063956729E+01
 0.49318277096E+01 0.50080913761E+01 0.50957332405E+01 0.51632800606E+01 0.38508192768E+01
 0.38487328782E+01 0.38492814225E+01 0.38696216167E+01 0.39331713121E+01 0.40716960750E+01
 0.43303303786E+01 0.47697920286E+01 0.54680738663E+01 0.65249694440E+01 0.80658872069E+01
 0.10245505135E+02 0.13265443661E+02 0.17416295724E+02 0.23127230186E+02 0.30982635795E+02
 0.41657299602E+02 0.55721272269E+02 0.73344787704E+02 0.94676270210E+02 0.11908789433E+03
 0.14410253669E+03 0.16599259593E+03 0.18096360947E+03 0.18628158404E+03 0.18096360947E+03
 0.16599259593E+03 0.14410253669E+03 0.11908789433E+03 0.94676270210E+02 0.73344787704E+02
 0.55721272269E+02 0.41657299602E+02 0.30982635795E+02 0.23127230186E+02 0.17416295724E+02
 0.13265443661E+02 0.10245505135E+02 0.80658872069E+01 0.65249694440E+01 0.54680738663E+01
 0.47697920286E+01 0.43303303786E+01 0.40716960750E+01 0.39331713121E+01 0.38696216167E+01
 0.38492814225E+01 0.38487328782E+01 0.30390709249E+01 0.30509428168E+01 0.30929296972E+01
 0.31799931029E+01 0.33314870436E+01 0.35763166435E+01 0.39611649032E+01 0.45528084843E+01
 0.54391078394E+01 0.67353100059E+01 0.85916251732E+01 0.11203530012E+02 0.14844585336E+02
 0.19933286405E+02 0.27105769991E+02 0.37233351505E+02 0.51308586471E+02 0.70133541275E+02
 0.94676270210E+02 0.12572620919E+03 0.16154087813E+03 0.19778269411E+03 0.22886608607E+03
 0.24972694972E+03 0.25705399720E+03 0.24972694972E+03 0.22886608607E+03 0.19778269411E+03
 0.16154087813E+03 0.12572620919E+03 0.94676270210E+02 0.70133541275E+02 0.51308586471E+02
 0.37233351505E+02 0.27105769991E+02 0.19933286405E+02 0.14844585336E+02 0.11203530012E+02
 0.85916251732E+01 0.67353100059E+01 0.54391078394E+01 0.45528084843E+01 0.39611649032E+01
 0.35763166435E+01 0.33314870436E+01 0.31799931029E+01 0.30929296972E+01 0.30509428168E+01
 0.25509425019E+01 0.25713017178E+01 0.26388841610E+01 0.27679765200E+01 0.29760225004E+01
 0.32916166205E+01 0.37654908530E+01 0.44722020490E+01 0.55100257314E+01 0.70095642316E+01
 0.91465779109E+01 0.12161306478E+02 0.16409500841E+02 0.22457114935E+02 0.31177362636E+02
 0.43763327218E+02 0.61539530737E+02 0.85872908453E+02 0.11908789433E+03 0.16154087813E+03
 0.20977695751E+03 0.25727127754E+03 0.29675351879E+03 0.32253014168E+03 0.33143626987E+03
 0.32253014168E+03 0.29675351879E+03 0.25727127754E+03 0.20977695751E+03 0.16154087813E+03
 0.11908789433E+03 0.85872908453E+02 0.61539530737E+02 0.43763327218E+02 0.31177362636E+02
 0.22457114935E+02 0.16409500841E+02 0.12161306478E+02 0.91465779109E+01 0.70095642316E+01
 0.55100257314E+01 0.44722020490E+01 0.37654908530E+01 0.32916166205E+01 0.29760225004E+01
 0.27679765200E+01 0.26388841610E+01 0.25713017178E+01 0.22637964833E+01 0.22893507330E+01
 0.23728886813E+01 0.25287255512E+01 0.27734630080E+01 0.31365109796E+01 0.36733893660E+01
 0.44664284892E+01 0.56234690169E+01 0.72890387738E+01 0.96631647075E+01 0.13030724495E+02
 0.17831318807E+02 0.24781514172E+02 0.34994459004E+02 0.49980007857E+02 0.71384833136E+02
 0.10175229545E+03 0.14410253669E+03 0.19778269411E+03 0.25727127754E+03 0.31386304305E+03
 0.35912725316E+03 0.38765194885E+03 0.39729403410E+03 0.38765194885E+03 0.35912725316E+03
 0.31386304305E+03 0.25727127754E+03 0.19778269411E+03 0.14410253669E+03 0.10175229545E+03
 0.71384833136E+02 0.49980007857E+02 0.34994459004E+02 0.24781514172E+02 0.17831318807E+02
 0.13030724495E+02 0.96631647075E+01 0.72890387738E+01 0.56234690169E+01 0.44664284892E+01
 0.36733893660E+01 0.31365109796E+01 0.27734630080E+01 0.25287255512E+01 0.23728886813E+01
 0.22893507330E+01 0.21030896759E+01 0.21317378152E+01 0.22249519611E+01 0.23973125264E+01
 0.26650799709E+01 0.30587519810E+01 0.36381431405E+01 0.44920784186E+01 0.57360468704E+01
 0.75257621541E+01 0.10081556172E+02 0.13726931939E+02 0.18974945815E+02 0.26673894099E+02
 0.38144752450E+02 0.55163494469E+02 0.79761934476E+02 0.11567344518E+03 0.16599259593E+03
 0.22886608607E+03 0.29675351879E+03 0.35912725316E+03 0.40701913496E+03 0.43601462668E+03
 0.44556140922E+03 0.43601462668E+03 0.40701913496E+03 0.35912725316E+03 0.29675351879E+03
 0.22886608607E+03 0.16599259593E+03 0.11567344518E+03 0.79761934476E+02 0.55163494469E+02
 0.38144752450E+02 0.26673894099E+02 0.18974945815E+02 0.13726931939E+02 0.10081556172E+02
 0.75257621541E+01 0.57360468704E+01 0.44920784186E+01 0.36381431405E+01 0.30587519810E+01
 0.26650799709E+01 0.23973125264E+01 0.22249519611E+01 0.21317378152E+01 0.20234178898E+01
 0.20537007189E+01 0.21521063282E+01 0.23334635516E+01 0.26139167450E+01 0.30248118090E+01
 0.36289004115E+01 0.45192947476E+01 0.58164125345E+01 0.76832350676E+01 0.10353678316E+02
 0.14177627209E+02 0.19718632636E+02 0.27915361817E+02 0.40230198116E+02 0.58615335418E+02
 0.85462760965E+02 0.12526419852E+03 0.18096360947E+03 0.24972694972E+03 0.32253014168E+03
 0.38765194885E+03 0.43601462668E+03 0.46428517514E+03 0.47336781547E+03 0.46428517514E+03
 0.43601462668E+03 0.38765194885E+03 0.32253014168E+03 0.24972694972E+03 0.18096360947E+03
 0.12526419852E+03 0.85462760965E+02 0.58615335418E+02 0.40230198116E+02 0.27915361817E+02
 0.19718632636E+02 0.14177627209E+02 0.10353678316E+02 0.76832350676E+01 0.58164125345E+01
 0.45192947476E+01 0.36289004115E+01 0.30248118090E+01 0.26139167450E+01 0.23334635516E+01
 0.21521063282E+01 0.20537007189E+01 0.19995844578E+01 0.20303763720E+01 0.21304136631E+01
 0.23146228156E+01 0.25991238040E+01 0.30155783797E+01 0.36277793152E+01 0.45303347891E+01
 0.58453633101E+01 0.77383678252E+01 0.10448049550E+02 0.14333679577E+02 0.19976823567E+02
 0.28348349549E+02 0.40960787265E+02 0.59827818459E+02 0.87491044836E+02 0.12868961034E+03
 0.18628158404E+03 0.25705399720E+03 0.33143626987E+03 0.39729403410E+03 0.44556140922E+03
 0.47336781547E+03 0.48220693891E+03 0.47336781547E+03 0.44556140922E+03 0.39729403410E+03
 0.33143626987E+03 0.25705399720E+03 0.18628158404E+03 0.12868961034E+03 0.87491044836E+02
 0.59827818459E+02 0.40960787265E+02 0.28348349549E+02 0.19976823567E+02 0.14333679577E+02
 0.10448049550E+02 0.77383678252E+01 0.58453633101E+01 0.45303347891E+01 0.36277793152E+01
 0.30155783797E+01 0.25991238040E+01 0.23146228156E+01 0.21304136631E+01 0.20303763720E+01
 0.20234178898E+01 0.20537007189E+01 0.21521063282E+01 0.23334635516E+01 0.26139167450E+01
 0.30248118090E+01 0.36289004115E+01 0.45192947476E+01 0.58164125345E+01 0.76832350676E+01
 0.10353678316E+02 0.14177627209E+02 0.19718632636E+02 0.27915361817E+02 0.40230198116E+02
 0.58615335418E+02 0.85462760965E+02 0.12526419852E+03 0.18096360947E+03 0.24972694972E+03
 0.32253014168E+03 0.38765194885E+03 0.43601462668E+03 0.46428517514E+03 0.47336781547E+03
 0.46428517514E+03 0.43601462668E+03 0.38765194885E+03 0.32253014168E+03 0.24972694972E+03
 0.18096360947E+03 0.12526419852E+03 0.85462760965E+02 0.58615335418E+02 0.40230198116E+02
 0.27915361817E+02 0.19718632636E+02 0.14177627209E+02 0.10353678316E+02 0.76832350676E+01
 0.58164125345E+01 0.45192947476E+01 0.36289004115E+01 0.30248118090E+01 0.26139167450E+01
 0.23334635516E+01 0.21521063282E+01 0.20537007189E+01 0.21030896759E+01 0.21317378152E+01
 0.22249519611E+01 0.23973125264E+01 0.26650799709E+01 0.30587519810E+01 0.36381431405E+01
 0.44920784186E+01 0.57360468704E+01 0.75257621541E+01 0.10081556172E+02 0.13726931939E+02
 0.18974945815E+02 0.26673894099E+02 0.38144752450E+02 0.55163494469E+02 0.79761934476E+02
 0.11567344518E+03 0.16599259593E+03 0.22886608607E+03 0.29675351879E+03 0.35912725316E+03
 0.40701913496E+03 0.43601462668E+03 0.44556140922E+03 0.43601462668E+03 0.40701913496E+03
 0.35912725316E+03 0.29675351879E+03 0.22886608607E+03 0.16599259593E+03 0.11567344518E+03
 0.79761934476E+02 0.55163494469E+02 0.38144752450E+02 0.26673894099E+02 0.18974945815E+02
 0.13726931939E+02 0.10081556172E+02 0.75257621541E+01 0.57360468704E+01 0.44920784186E+01
 0.36381431405E+01 0.30587519810E+01 0.26650799709E+01 0.23973125264E+01 0.22249519611E+01
 0.21317378152E+01 0.22637964833E+01 0.22893507330E+01 0.23728886813E+01 0.25287255512E+01
 0.27734630080E+01 0.31365109796E+01 0.36733893660E+01 0.44664284892E+01 0.56234690169E+01
 0.72890387738E+01 0.96631647075E+01 0.13030724495E+02 0.17831318807E+02 0.24781514172E+02
 0.34994459004E+02 0.49980007857E+02 0.71384833136E+02 0.10175229545E+03 0.14410253669E+03
 0.19778269411E+03 0.25727127754E+03 0.31386304305E+03 0.35912725316E+03 0.38765194885E+03
 0.39729403410E+03 0.38765194885E+03 0.35912725316E+03 0.31386304305E+03 0.25727127754E+03
 0.19778269411E+03 0.14410253669E+03 0.10175229545E+03 0.71384833136E+02 0.49980007857E+02
 0.34994459004E+02 0.24781514172E+02 0.17831318807E+02 0.13030724495E+02 0.96631647075E+01
 0.72890387738E+01 0.56234690169E+01 0.44664284892E+01 0.36733893660E+01 0.31365109796E+01
 0.27734630080E+01 0.25287255512E+01 0.23728886813E+01 0.22893507330E+01 0.25509425019E+01
 0.25713017178E+01 0.26388841610E+01 0.27679765200E+01 0.29760225004E+01 0.32916166205E+01
 0.37654908530E+01 0.44722020490E+01 0.55100257314E+01 0.70095642316E+01 0.91465779109E+01
 0.12161306478E+02 0.16409500841E+02 0.22457114935E+02 0.31177362636E+02 0.43763327218E+02
 0.61539530737E+02 0.85872908453E+02 0.11908789433E+03 0.16154087813E+03 0.20977695751E+03
 0.25727127754E+03 0.29675351879E+03 0.32253014168E+03 0.33143626987E+03 0.32253014168E+03
 0.29675351879E+03 0.25727127754E+03 0.20977695751E+03 0.16154087813E+03 0.11908789433E+03
 0.85872908453E+02 0.61539530737E+02 0.43763327218E+02 0.31177362636E+02 0.22457114935E+02
 0.16409500841E+02 0.12161306478E+02 0.91465779109E+01 0.70095642316E+01 0.55100257314E+01
 0.44722020490E+01 0.37654908530E+01 0.32916166205E+01 0.29760225004E+01 0.27679765200E+01
 0.26388841610E+01 0.25713017178E+01 0.30390709249E+01 0.30509428168E+01 0.30929296972E+01
 0.31799931029E+01 0.33314870436E+01 0.35763166435E+01 0.39611649032E+01 0.45528084843E+01
 0.54391078394E+01 0.67353100059E+01 0.85916251732E+01 0.11203530012E+02 0.14844585336E+02
 0.19933286405E+02 0.27105769991E+02 0.37233351505E+02 0.51308586471E+02 0.70133541275E+02
 0.94676270210E+02 0.12572620919E+03 0.16154087813E+03 0.19778269411E+03 0.22886608607E+03
 0.24972694972E+03 0.25705399720E+03 0.24972694972E+03 0.22886608607E+03 0.19778269411E+03
 0.16154087813E+03 0.12572620919E+03 0.94676270210E+02 0.70133541275E+02 0.51308586471E+02
 0.37233351505E+02 0.27105769991E+02 0.19933286405E+02 0.14844585336E+02 0.11203530012E+02
 0.85916251732E+01 0.67353100059E+01 0.54391078394E+01 0.45528084843E+01 0.39611649032E+01
 0.35763166435E+01 0.33314870436E+01 0.31799931029E+01 0.30929296972E+01 0.30509428168E+01
 0.38508192768E+01 0.38487328782E+01 0.38492814225E+01 0.38696216167E+01 0.39331713121E+01
 0.40716960750E+01 0.43303303786E+01 0.47697920286E+01 0.54680738663E+01 0.65249694440E+01
 0.80658872069E+01 0.10245505135E+02 0.13265443661E+02 0.17416295724E+02 0.23127230186E+02
 0.30982635795E+02 0.41657299602E+02 0.55721272269E+02 0.73344787704E+02 0.94676270210E+02
 0.11908789433E+03 0.14410253669E+03 0.16599259593E+03 0.18096360947E+03 0.18628158404E+03
 0.18096360947E+03 0.16599259593E+03 0.14410253669E+03 0.11908789433E+03 0.94676270210E+02
 0.73344787704E+02 0.55721272269E+02 0.41657299602E+02 0.30982635795E+02 0.23127230186E+02
 0.17416295724E+02 0.13265443661E+02 0.10245505135E+02 0.80658872069E+01 0.65249694440E+01
 0.54680738663E+01 0.47697920286E+01 0.43303303786E+01 0.40716960750E+01 0.39331713121E+01
 0.38696216167E+01 0.38492814225E+01 0.38487328782E+01 0.51885634360E+01 0.51632800606E+01
 0.50957332405E+01 0.50080913761E+01 0.49318277096E+01 0.49063956729E+01 0.49804450360E+01
 0.52127955711E+01 0.56740708455E+01 0.64499773981E+01 0.76431286282E+01 0.93730622950E+01
 0.11783372094E+02 0.15064287652E+02 0.19482723890E+02 0.25395077507E+02 0.33212234033E+02
 0.43288065391E+02 0.55721272269E+02 0.70133541275E+02 0.85872908453E+02 0.10175229545E+03
 0.11567344518E+03 0.12526419852E+03 0.12868961034E+03 0.12526419852E+03 0.11567344518E+03
 0.10175229545E+03 0.85872908453E+02 0.70133541275E+02 0.55721272269E+02 0.43288065391E+02
 0.33212234033E+02 0.25395077507E+02 0.19482723890E+02 0.15064287652E+02 0.11783372094E+02
 0.93730622950E+01 0.76431286282E+01 0.64499773981E+01 0.56740708455E+01 0.52127955711E+01
 0.49804450360E+01 0.49063956729E+01 0.49318277096E+01 0.50080913761E+01 0.50957332405E+01
 0.51632800606E+01 0.73756556151E+01 0.73119696598E+01 0.71324199057E+01 0.68688259099E+01
 0.65674341908E+01 0.62835728621E+01 0.60781321922E+01 0.60156852822E+01 0.61648336738E+01
 0.66004760553E+01 0.74052378809E+01 0.86688246044E+01 0.10489729755E+02 0.12984976758E+02
 0.16305573662E+02 0.20644646060E+02 0.26219765927E+02 0.33212234033E+02 0.41657299602E+02
 0.51308586471E+02 0.61539530737E+02 0.71384833136E+02 0.79761934476E+02 0.85462760965E+02
 0.87491044836E+02 0.85462760965E+02 0.79761934476E+02 0.71384833136E+02 0.61539530737E+02
 0.51308586471E+02 0.41657299602E+02 0.33212234033E+02 0.26219765927E+02 0.20644646060E+02
 0.16305573662E+02 0.12984976758E+02 0.10489729755E+02 0.86688246044E+01 0.74052378809E+01
 0.66004760553E+01 0.61648336738E+01 0.60156852822E+01 0.60781321922E+01 0.62835728621E+01
 0.65674341908E+01 0.68688259099E+01 0.71324199057E+01 0.73119696598E+01 0.10892413989E+02
 0.10766794266E+02 0.10407072504E+02 0.98614709560E+01 0.92010907521E+01 0.85096348262E+01
 0.78737907741E+01 0.73763415226E+01 0.70933483562E+01 0.70950060839E+01 0.74477271488E+01
 0.82153162141E+01 0.94600662073E+01 0.11246487621E+02 0.13647874128E+02 0.16750365861E+02
 0.20644646060E+02 0.25395077507E+02 0.30982635795E+02 0.37233351505E+02 0.43763327218E+02
 0.49980007857E+02 0.55163494469E+02 0.58615335418E+02 0.59827818459E+02 0.58615335418E+02
 0.55163494469E+02 0.49980007857E+02 0.43763327218E+02 0.37233351505E+02 0.30982635795E+02
 0.25395077507E+02 0.20644646060E+02 0.16750365861E+02 0.13647874128E+02 0.11246487621E+02
 0.94600662073E+01 0.82153162141E+01 0.74477271488E+01 0.70950060839E+01 0.70933483562E+01