   5   5   0   0
  0.1191194E+02  0.3905268E-09  0.3905268E-09  0.3905268E-09  0.5000000E-15
  1.000000000000000E-004
  CAR 
 unknown system                          
     12.80864612    -32.12657888  301      2.66077448      1.00000000
    -32.127  0.0000E+00  0.0000E+00
    -31.977  0.0000E+00  0.0000E+00
    -31.827  0.0000E+00  0.0000E+00
    -31.677  0.0000E+00  0.0000E+00
    -31.527  0.0000E+00  0.0000E+00
    -31.378  0.0000E+00  0.0000E+00
    -31.228  0.0000E+00  0.0000E+00
    -31.078  0.0000E+00  0.0000E+00
    -30.928  0.0000E+00  0.0000E+00
    -30.779  0.0000E+00  0.0000E+00
    -30.629  0.0000E+00  0.0000E+00
    -30.479  0.0000E+00  0.0000E+00
    -30.329  0.0000E+00  0.0000E+00
    -30.179  0.0000E+00  0.0000E+00
    -30.030  0.1617E+02  0.1937E+01
    -29.880  0.0000E+00  0.2000E+01
    -29.730  0.0000E+00  0.2000E+01
    -29.580  0.0000E+00  0.2000E+01
    -29.430  0.0000E+00  0.2000E+01
    -29.281  0.0000E+00  0.2000E+01
    -29.131  0.0000E+00  0.2000E+01
    -28.981  0.0000E+00  0.2000E+01
    -28.831  0.0000E+00  0.2000E+01
    -28.682  0.0000E+00  0.2000E+01
    -28.532  0.0000E+00  0.2000E+01
    -28.382  0.0000E+00  0.2000E+01
    -28.232  0.0000E+00  0.2000E+01
    -28.082  0.0000E+00  0.2000E+01
    -27.933  0.0000E+00  0.2000E+01
    -27.783  0.0000E+00  0.2000E+01
    -27.633  0.0000E+00  0.2000E+01
    -27.483  0.0000E+00  0.2000E+01
    -27.333  0.0000E+00  0.2000E+01
    -27.184  0.0000E+00  0.2000E+01
    -27.034  0.0000E+00  0.2000E+01
    -26.884  0.0000E+00  0.2000E+01
    -26.734  0.0000E+00  0.2000E+01
    -26.585  0.0000E+00  0.2000E+01
    -26.435  0.0000E+00  0.2000E+01
    -26.285  0.0000E+00  0.2000E+01
    -26.135  0.0000E+00  0.2000E+01
    -25.985  0.0000E+00  0.2000E+01
    -25.836  0.0000E+00  0.2000E+01
    -25.686  0.0000E+00  0.2000E+01
    -25.536  0.0000E+00  0.2000E+01
    -25.386  0.0000E+00  0.2000E+01
    -25.237  0.0000E+00  0.2000E+01
    -25.087  0.0000E+00  0.2000E+01
    -24.937  0.0000E+00  0.2000E+01
    -24.787  0.0000E+00  0.2000E+01
    -24.637  0.0000E+00  0.2000E+01
    -24.488  0.0000E+00  0.2000E+01
    -24.338  0.0000E+00  0.2000E+01
    -24.188  0.0000E+00  0.2000E+01
    -24.038  0.0000E+00  0.2000E+01
    -23.888  0.0000E+00  0.2000E+01
    -23.739  0.0000E+00  0.2000E+01
    -23.589  0.0000E+00  0.2000E+01
    -23.439  0.0000E+00  0.2000E+01
    -23.289  0.0000E+00  0.2000E+01
    -23.140  0.0000E+00  0.2000E+01
    -22.990  0.0000E+00  0.2000E+01
    -22.840  0.0000E+00  0.2000E+01
    -22.690  0.0000E+00  0.2000E+01
    -22.540  0.0000E+00  0.2000E+01
    -22.391  0.0000E+00  0.2000E+01
    -22.241  0.0000E+00  0.2000E+01
    -22.091  0.0000E+00  0.2000E+01
    -21.941  0.0000E+00  0.2000E+01
    -21.791  0.0000E+00  0.2000E+01
    -21.642  0.0000E+00  0.2000E+01
    -21.492  0.0000E+00  0.2000E+01
    -21.342  0.0000E+00  0.2000E+01
    -21.192  0.0000E+00  0.2000E+01
    -21.043  0.0000E+00  0.2000E+01
    -20.893  0.0000E+00  0.2000E+01
    -20.743  0.0000E+00  0.2000E+01
    -20.593  0.0000E+00  0.2000E+01
    -20.443  0.0000E+00  0.2000E+01
    -20.294  0.0000E+00  0.2000E+01
    -20.144  0.0000E+00  0.2000E+01
    -19.994  0.0000E+00  0.2000E+01
    -19.844  0.0000E+00  0.2000E+01
    -19.694  0.0000E+00  0.2000E+01
    -19.545  0.0000E+00  0.2000E+01
    -19.395  0.0000E+00  0.2000E+01
    -19.245  0.0000E+00  0.2000E+01
    -19.095  0.0000E+00  0.2000E+01
    -18.946  0.0000E+00  0.2000E+01
    -18.796  0.0000E+00  0.2000E+01
    -18.646  0.0000E+00  0.2000E+01
    -18.496  0.0000E+00  0.2000E+01
    -18.346  0.0000E+00  0.2000E+01
    -18.197  0.0000E+00  0.2000E+01
    -18.047  0.0000E+00  0.2000E+01
    -17.897  0.0000E+00  0.2000E+01
    -17.747  0.0000E+00  0.2000E+01
    -17.598  0.0000E+00  0.2000E+01
    -17.448  0.0000E+00  0.2000E+01
    -17.298  0.0000E+00  0.2000E+01
    -17.148  0.0000E+00  0.2000E+01
    -16.998  0.0000E+00  0.2000E+01
    -16.849  0.0000E+00  0.2000E+01
    -16.699  0.0000E+00  0.2000E+01
    -16.549  0.0000E+00  0.2000E+01
    -16.399  0.0000E+00  0.2000E+01
    -16.249  0.0000E+00  0.2000E+01
    -16.100  0.0000E+00  0.2000E+01
    -15.950  0.0000E+00  0.2000E+01
    -15.800  0.0000E+00  0.2000E+01
    -15.650  0.0000E+00  0.2000E+01
    -15.501  0.0000E+00  0.2000E+01
    -15.351  0.0000E+00  0.2000E+01
    -15.201  0.0000E+00  0.2000E+01
    -15.051  0.0000E+00  0.2000E+01
    -14.901  0.1912E+01  0.2121E+01
    -14.752  0.3582E+01  0.2726E+01
    -14.602  0.2276E+01  0.3132E+01
    -14.452  0.1737E+01  0.3436E+01
    -14.302  0.1593E+01  0.3665E+01
    -14.152  0.7702E+00  0.3828E+01
    -14.003  0.2828E+01  0.3989E+01
    -13.853  0.1648E+02  0.5257E+01
    -13.703  0.5863E+01  0.7736E+01
    -13.553  0.0000E+00  0.8000E+01
    -13.404  0.0000E+00  0.8000E+01
    -13.254  0.0000E+00  0.8000E+01
    -13.104  0.0000E+00  0.8000E+01
    -12.954  0.0000E+00  0.8000E+01
    -12.804  0.0000E+00  0.8000E+01
    -12.655  0.0000E+00  0.8000E+01
    -12.505  0.0000E+00  0.8000E+01
    -12.355  0.1000E+01  0.8019E+01
    -12.205  0.4791E+01  0.8399E+01
    -12.056  0.8578E+01  0.1047E+02
    -11.906  0.9822E+01  0.1181E+02
    -11.756  0.1723E+02  0.1319E+02
    -11.606  0.1411E+01  0.1398E+02
    -11.456  0.0000E+00  0.1400E+02
    -11.307  0.0000E+00  0.1400E+02
    -11.157  0.0000E+00  0.1400E+02
    -11.007  0.0000E+00  0.1400E+02
    -10.857  0.0000E+00  0.1400E+02
    -10.707  0.0000E+00  0.1400E+02
    -10.558  0.0000E+00  0.1400E+02
    -10.408  0.0000E+00  0.1400E+02
    -10.258  0.0000E+00  0.1400E+02
    -10.108  0.0000E+00  0.1400E+02
     -9.959  0.0000E+00  0.1400E+02
     -9.809  0.0000E+00  0.1400E+02
     -9.659  0.0000E+00  0.1400E+02
     -9.509  0.0000E+00  0.1400E+02
     -9.359  0.0000E+00  0.1400E+02
     -9.210  0.0000E+00  0.1400E+02
     -9.060  0.0000E+00  0.1400E+02
     -8.910  0.0000E+00  0.1400E+02
     -8.760  0.0000E+00  0.1400E+02
     -8.610  0.0000E+00  0.1400E+02
     -8.461  0.0000E+00  0.1400E+02
     -8.311  0.0000E+00  0.1400E+02
     -8.161  0.0000E+00  0.1400E+02
     -8.011  0.0000E+00  0.1400E+02
     -7.862  0.0000E+00  0.1400E+02
     -7.712  0.0000E+00  0.1400E+02
     -7.562  0.0000E+00  0.1400E+02
     -7.412  0.0000E+00  0.1400E+02
     -7.262  0.0000E+00  0.1400E+02
     -7.113  0.0000E+00  0.1400E+02
     -6.963  0.0000E+00  0.1400E+02
     -6.813  0.0000E+00  0.1400E+02
     -6.663  0.0000E+00  0.1400E+02
     -6.514  0.0000E+00  0.1400E+02
     -6.364  0.0000E+00  0.1400E+02
     -6.214  0.0000E+00  0.1400E+02
     -6.064  0.0000E+00  0.1400E+02
     -5.914  0.0000E+00  0.1400E+02
     -5.765  0.0000E+00  0.1400E+02
     -5.615  0.0000E+00  0.1400E+02
     -5.465  0.0000E+00  0.1400E+02
     -5.315  0.0000E+00  0.1400E+02
     -5.165  0.0000E+00  0.1400E+02
     -5.016  0.0000E+00  0.1400E+02
     -4.866  0.0000E+00  0.1400E+02
     -4.716  0.0000E+00  0.1400E+02
     -4.566  0.0000E+00  0.1400E+02
     -4.417  0.0000E+00  0.1400E+02
     -4.267  0.0000E+00  0.1400E+02
     -4.117  0.0000E+00  0.1400E+02
     -3.967  0.0000E+00  0.1400E+02
     -3.817  0.0000E+00  0.1400E+02
     -3.668  0.0000E+00  0.1400E+02
     -3.518  0.0000E+00  0.1400E+02
     -3.368  0.0000E+00  0.1400E+02
     -3.218  0.0000E+00  0.1400E+02
     -3.068  0.0000E+00  0.1400E+02
     -2.919  0.0000E+00  0.1400E+02
     -2.769  0.0000E+00  0.1400E+02
     -2.619  0.0000E+00  0.1400E+02
     -2.469  0.0000E+00  0.1400E+02
     -2.320  0.0000E+00  0.1400E+02
     -2.170  0.0000E+00  0.1400E+02
     -2.020  0.0000E+00  0.1400E+02
     -1.870  0.1382E+01  0.1406E+02
     -1.720  0.6560E+01  0.1463E+02
     -1.571  0.3562E+01  0.1539E+02
     -1.421  0.4434E+01  0.1606E+02
     -1.271  0.4152E+01  0.1670E+02
     -1.121  0.4542E+01  0.1737E+02
     -0.971  0.4331E+01  0.1797E+02
     -0.822  0.4243E+01  0.1861E+02
     -0.672  0.4756E+01  0.1929E+02
     -0.522  0.5985E+01  0.2009E+02
     -0.372  0.7805E+01  0.2107E+02
     -0.223  0.5885E+01  0.2257E+02
     -0.073  0.3030E+01  0.2310E+02
      0.077  0.2483E+01  0.2351E+02
      0.227  0.2073E+01  0.2385E+02
      0.377  0.1818E+01  0.2415E+02
      0.526  0.1777E+01  0.2441E+02
      0.676  0.2865E+01  0.2474E+02
      0.826  0.4039E+01  0.2530E+02
      0.976  0.1584E+01  0.2568E+02
      1.125  0.2454E+01  0.2591E+02
      1.275  0.5693E+01  0.2660E+02
      1.425  0.5853E+01  0.2737E+02
      1.575  0.6325E+01  0.2829E+02
      1.725  0.4435E+01  0.2906E+02
      1.874  0.7128E+01  0.3004E+02
      2.024  0.3320E+01  0.3072E+02
      2.174  0.2425E+01  0.3115E+02
      2.324  0.2581E+01  0.3152E+02
      2.474  0.1757E+01  0.3184E+02
      2.623  0.0000E+00  0.3200E+02
      2.773  0.0000E+00  0.3200E+02
      2.923  0.0000E+00  0.3200E+02
      3.073  0.0000E+00  0.3200E+02
      3.222  0.0000E+00  0.3200E+02
      3.372  0.0000E+00  0.3200E+02
      3.522  0.0000E+00  0.3200E+02
      3.672  0.0000E+00  0.3200E+02
      3.822  0.0000E+00  0.3200E+02
      3.971  0.0000E+00  0.3200E+02
      4.121  0.0000E+00  0.3200E+02
      4.271  0.0000E+00  0.3200E+02
      4.421  0.1174E+00  0.3200E+02
      4.571  0.5884E+00  0.3205E+02
      4.720  0.1243E+01  0.3220E+02
      4.870  0.1151E+01  0.3238E+02
      5.020  0.1242E+01  0.3256E+02
      5.170  0.1443E+01  0.3276E+02
      5.319  0.1895E+01  0.3300E+02
      5.469  0.2003E+01  0.3329E+02
      5.619  0.2194E+01  0.3361E+02
      5.769  0.2455E+01  0.3395E+02
      5.919  0.3699E+01  0.3439E+02
      6.068  0.4398E+01  0.3499E+02
      6.218  0.1270E+02  0.3582E+02
      6.368  0.4326E+01  0.3678E+02
      6.518  0.3161E+01  0.3732E+02
      6.667  0.2487E+01  0.3774E+02
      6.817  0.1815E+00  0.3789E+02
      6.967  0.5820E-01  0.3791E+02
      7.117  0.5473E-01  0.3792E+02
      7.267  0.5138E-01  0.3792E+02
      7.416  0.4812E-01  0.3793E+02
      7.566  0.4497E-01  0.3794E+02
      7.716  0.4192E-01  0.3794E+02
      7.866  0.3897E-01  0.3795E+02
      8.016  0.3612E-01  0.3796E+02
      8.165  0.5471E-01  0.3796E+02
      8.315  0.1189E+00  0.3798E+02
      8.465  0.1397E+00  0.3800E+02
      8.615  0.1507E+00  0.3802E+02
      8.764  0.1741E+00  0.3804E+02
      8.914  0.1956E+00  0.3807E+02
      9.064  0.2297E+00  0.3810E+02
      9.214  0.2828E+00  0.3814E+02
      9.364  0.3528E+00  0.3819E+02
      9.513  0.5075E+00  0.3825E+02
      9.663  0.6833E+00  0.3834E+02
      9.813  0.1247E+01  0.3848E+02
      9.963  0.1253E+01  0.3864E+02
     10.113  0.1386E+01  0.3885E+02
     10.262  0.1620E+01  0.3907E+02
     10.412  0.2184E+01  0.3936E+02
     10.562  0.2382E+01  0.3973E+02
     10.712  0.9483E+00  0.3997E+02
     10.861  0.0000E+00  0.4000E+02
     11.011  0.0000E+00  0.4000E+02
     11.161  0.0000E+00  0.4000E+02
     11.311  0.0000E+00  0.4000E+02
     11.461  0.0000E+00  0.4000E+02
     11.610  0.0000E+00  0.4000E+02
     11.760  0.0000E+00  0.4000E+02
     11.910  0.0000E+00  0.4000E+02
     12.060  0.0000E+00  0.4000E+02
     12.210  0.0000E+00  0.4000E+02
     12.359  0.0000E+00  0.4000E+02
     12.509  0.0000E+00  0.4000E+02
     12.659  0.0000E+00  0.4000E+02
     12.809  0.0000E+00  0.4000E+02
