<?xml version="1.0" encoding="ISO-8859-1"?>
<modeling>
 <generator>
  <i name="program" type="string">vasp </i>
  <i name="version" type="string">5.4.4.18Apr17-6-g9f103f2a35  </i>
  <i name="subversion" type="string">(build Jun 30 2017 11:15:00) complex            parallel </i>
  <i name="platform" type="string">STALLO_VASP_5.4.4 </i>
  <i name="date" type="string">2019 11 28 </i>
  <i name="time" type="string">12:43:57 </i>
 </generator>
 <incar>
  <i type="string" name="PREC">normal    ! low/normal/accurate</i>
  <i type="string" name="ALGO"> Fast      ! Algorithm for electronic re</i>
  <i type="int" name="ISPIN">     1</i>
  <i type="int" name="NELMIN">     4</i>
  <i name="EDIFF">      0.00001000</i>
  <i type="int" name="NSW">     0</i>
  <i name="ENCUT">    500.00000000</i>
  <i type="logical" name="LREAL"> F  </i>
  <i type="int" name="ISMEAR">    -5</i>
  <i name="SIGMA">      0.20000000</i>
  <i type="logical" name="LWAVE"> F  </i>
  <v type="int" name="KPOINT_BSE">    -1     0     0     0</v>
 </incar>
 <structure name="primitive_cell" >
  <crystal>
   <varray name="basis" >
    <v>       3.90526800       0.00000000       0.00000000 </v>
    <v>       0.00000000       3.90526800       0.00000000 </v>
    <v>       0.00000000       0.00000000       3.90526800 </v>
   </varray>
   <i name="volume">     59.55970368 </i>
   <varray name="rec_basis" >
    <v>       0.25606437       0.00000000       0.00000000 </v>
    <v>       0.00000000       0.25606437       0.00000000 </v>
    <v>       0.00000000       0.00000000       0.25606437 </v>
   </varray>
  </crystal>
  <varray name="positions" >
   <v>       0.00000000       0.00000000       0.00000000 </v>
   <v>      -0.50000000      -0.50000000       0.00000000 </v>
   <v>      -0.50000000       0.00000000      -0.50000000 </v>
   <v>       0.00000000      -0.50000000      -0.50000000 </v>
   <v>      -0.50000000      -0.50000000      -0.50000000 </v>
  </varray>
 </structure>
 <varray name="primitive_index" >
  <v type="int" >        1 </v>
  <v type="int" >        3 </v>
  <v type="int" >        4 </v>
  <v type="int" >        5 </v>
  <v type="int" >        2 </v>
 </varray>
 <kpoints>
  <generation param="Gamma">
   <v type="int" name="divisions">       9        9        9 </v>
   <v name="usershift">      0.00000000       0.00000000       0.00000000 </v>
   <v name="genvec1">      0.11111111       0.00000000       0.00000000 </v>
   <v name="genvec2">      0.00000000       0.11111111       0.00000000 </v>
   <v name="genvec3">      0.00000000       0.00000000       0.11111111 </v>
   <v name="shift">      0.00000000       0.00000000       0.00000000 </v>
  </generation>
  <varray name="kpointlist" >
   <v>       0.00000000       0.00000000       0.00000000 </v>
   <v>       0.11111111       0.00000000       0.00000000 </v>
   <v>       0.22222222       0.00000000       0.00000000 </v>
   <v>       0.33333333       0.00000000       0.00000000 </v>
   <v>       0.44444444       0.00000000       0.00000000 </v>
   <v>       0.11111111       0.11111111       0.00000000 </v>
   <v>       0.22222222       0.11111111       0.00000000 </v>
   <v>       0.33333333       0.11111111       0.00000000 </v>
   <v>       0.44444444       0.11111111       0.00000000 </v>
   <v>       0.22222222       0.22222222       0.00000000 </v>
   <v>       0.33333333       0.22222222       0.00000000 </v>
   <v>       0.44444444       0.22222222       0.00000000 </v>
   <v>       0.33333333       0.33333333       0.00000000 </v>
   <v>       0.44444444       0.33333333       0.00000000 </v>
   <v>       0.44444444       0.44444444       0.00000000 </v>
   <v>       0.11111111       0.11111111       0.11111111 </v>
   <v>       0.22222222       0.11111111       0.11111111 </v>
   <v>       0.33333333       0.11111111       0.11111111 </v>
   <v>       0.44444444       0.11111111       0.11111111 </v>
   <v>       0.22222222       0.22222222       0.11111111 </v>
   <v>       0.33333333       0.22222222       0.11111111 </v>
   <v>       0.44444444       0.22222222       0.11111111 </v>
   <v>       0.33333333       0.33333333       0.11111111 </v>
   <v>       0.44444444       0.33333333       0.11111111 </v>
   <v>       0.44444444       0.44444444       0.11111111 </v>
   <v>       0.22222222       0.22222222       0.22222222 </v>
   <v>       0.33333333       0.22222222       0.22222222 </v>
   <v>       0.44444444       0.22222222       0.22222222 </v>
   <v>       0.33333333       0.33333333       0.22222222 </v>
   <v>       0.44444444       0.33333333       0.22222222 </v>
   <v>       0.44444444       0.44444444       0.22222222 </v>
   <v>       0.33333333       0.33333333       0.33333333 </v>
   <v>       0.44444444       0.33333333       0.33333333 </v>
   <v>       0.44444444       0.44444444       0.33333333 </v>
   <v>       0.44444444       0.44444444       0.44444444 </v>
  </varray>
  <varray name="weights" >
   <v>       0.00137174 </v>
   <v>       0.00823045 </v>
   <v>       0.00823045 </v>
   <v>       0.00823045 </v>
   <v>       0.00823045 </v>
   <v>       0.01646091 </v>
   <v>       0.03292181 </v>
   <v>       0.03292181 </v>
   <v>       0.03292181 </v>
   <v>       0.01646091 </v>
   <v>       0.03292181 </v>
   <v>       0.03292181 </v>
   <v>       0.01646091 </v>
   <v>       0.03292181 </v>
   <v>       0.01646091 </v>
   <v>       0.01097394 </v>
   <v>       0.03292181 </v>
   <v>       0.03292181 </v>
   <v>       0.03292181 </v>
   <v>       0.03292181 </v>
   <v>       0.06584362 </v>
   <v>       0.06584362 </v>
   <v>       0.03292181 </v>
   <v>       0.06584362 </v>
   <v>       0.03292181 </v>
   <v>       0.01097394 </v>
   <v>       0.03292181 </v>
   <v>       0.03292181 </v>
   <v>       0.03292181 </v>
   <v>       0.06584362 </v>
   <v>       0.03292181 </v>
   <v>       0.01097394 </v>
   <v>       0.03292181 </v>
   <v>       0.03292181 </v>
   <v>       0.01097394 </v>
  </varray>
  <varray name="tetrahedronlist"  type="int" >
   <v type="int" >       12        1        2        2        6 </v>
   <v type="int" >       12        2        2        6        6 </v>
   <v type="int" >       12        2        6        6       16 </v>
   <v type="int" >       12        2        3        6        7 </v>
   <v type="int" >       12        2        6        6        7 </v>
   <v type="int" >       12        6        6        7       16 </v>
   <v type="int" >       12        3        6        7        7 </v>
   <v type="int" >       24        6        7        7       17 </v>
   <v type="int" >       24        6        7       16       17 </v>
   <v type="int" >       12        3        4        7        8 </v>
   <v type="int" >       12        3        7        7        8 </v>
   <v type="int" >       12        7        7        8       17 </v>
   <v type="int" >       12        4        7        8        8 </v>
   <v type="int" >       12        7        8        8       18 </v>
   <v type="int" >       12        7        8       17       18 </v>
   <v type="int" >       12        4        5        8        9 </v>
   <v type="int" >       12        4        8        8        9 </v>
   <v type="int" >       12        8        8        9       18 </v>
   <v type="int" >       12        5        8        9        9 </v>
   <v type="int" >       12        8        9        9       19 </v>
   <v type="int" >       12        8        9       18       19 </v>
   <v type="int" >        6        5        5        9        9 </v>
   <v type="int" >       12        5        9        9        9 </v>
   <v type="int" >       12        9        9        9       19 </v>
   <v type="int" >        6        9        9       19       19 </v>
   <v type="int" >       12        6        7       10       16 </v>
   <v type="int" >       12        7       10       16       17 </v>
   <v type="int" >       12       10       16       17       20 </v>
   <v type="int" >       12        7        8       11       17 </v>
   <v type="int" >       12        7       10       11       17 </v>
   <v type="int" >       12       10       11       17       20 </v>
   <v type="int" >       12        8       11       17       18 </v>
   <v type="int" >       12       11       17       18       21 </v>
   <v type="int" >       12       11       17       20       21 </v>
   <v type="int" >       12        8        9       12       18 </v>
   <v type="int" >       12        8       11       12       18 </v>
   <v type="int" >       12       11       12       18       21 </v>
   <v type="int" >       12        9       12       18       19 </v>
   <v type="int" >       12       12       18       19       22 </v>
   <v type="int" >       12       12       18       21       22 </v>
   <v type="int" >       12        9        9       12       19 </v>
   <v type="int" >       12        9       12       12       19 </v>
   <v type="int" >       12       12       12       19       22 </v>
   <v type="int" >       12        9       12       19       19 </v>
   <v type="int" >       12       12       19       19       22 </v>
   <v type="int" >       12       12       19       22       22 </v>
   <v type="int" >       12        8        9       11       19 </v>
   <v type="int" >       12        9       11       12       19 </v>
   <v type="int" >       12       11       12       19       22 </v>
   <v type="int" >       12        8       11       18       19 </v>
   <v type="int" >       12       11       18       19       21 </v>
   <v type="int" >       12       11       19       21       22 </v>
   <v type="int" >       12        7        8       10       18 </v>
   <v type="int" >       12        8       10       11       18 </v>
   <v type="int" >       12       10       11       18       21 </v>
   <v type="int" >       12        7       10       17       18 </v>
   <v type="int" >       12       10       17       18       20 </v>
   <v type="int" >       12       10       18       20       21 </v>
   <v type="int" >       12        7        7       10       17 </v>
   <v type="int" >       12        7       10       17       20 </v>
   <v type="int" >       12        7       16       17       17 </v>
   <v type="int" >       12        7       17       17       20 </v>
   <v type="int" >       12        2        3        6       16 </v>
   <v type="int" >       12        3        6        7       16 </v>
   <v type="int" >       12        3        7       16       17 </v>
   <v type="int" >       12       10       11       13       20 </v>
   <v type="int" >       12       11       13       20       21 </v>
   <v type="int" >       12       13       20       21       23 </v>
   <v type="int" >       12       11       12       14       21 </v>
   <v type="int" >       12       11       13       14       21 </v>
   <v type="int" >       12       13       14       21       23 </v>
   <v type="int" >       12       12       14       21       22 </v>
   <v type="int" >       12       14       21       22       24 </v>
   <v type="int" >       12       14       21       23       24 </v>
   <v type="int" >       12       12       12       14       22 </v>
   <v type="int" >       12       12       14       14       22 </v>
   <v type="int" >       12       14       14       22       24 </v>
   <v type="int" >       12       12       14       22       22 </v>
   <v type="int" >       12       14       22       22       24 </v>
   <v type="int" >       12       14       22       24       24 </v>
   <v type="int" >       12       11       12       13       22 </v>
   <v type="int" >       12       12       13       14       22 </v>
   <v type="int" >       12       13       14       22       24 </v>
   <v type="int" >       12       11       13       21       22 </v>
   <v type="int" >       12       13       21       22       23 </v>
   <v type="int" >       12       13       22       23       24 </v>
   <v type="int" >       12       10       11       11       21 </v>
   <v type="int" >       12       11       11       13       21 </v>
   <v type="int" >       12       11       13       21       23 </v>
   <v type="int" >       12       10       11       20       21 </v>
   <v type="int" >       12       11       20       21       21 </v>
   <v type="int" >       12       11       21       21       23 </v>
   <v type="int" >       12        7        8       10       20 </v>
   <v type="int" >       12        8       10       11       20 </v>
   <v type="int" >       12        8       11       20       21 </v>
   <v type="int" >       12        7        8       17       20 </v>
   <v type="int" >       12        8       17       18       20 </v>
   <v type="int" >       12        8       18       20       21 </v>
   <v type="int" >       12        3        4        7       17 </v>
   <v type="int" >       12        4        7        8       17 </v>
   <v type="int" >       12        4        8       17       18 </v>
   <v type="int" >       12       13       14       15       23 </v>
   <v type="int" >       12       14       15       23       24 </v>
   <v type="int" >       12       15       23       24       25 </v>
   <v type="int" >       24       14       14       15       24 </v>
   <v type="int" >       12       14       15       15       24 </v>
   <v type="int" >       12       15       15       24       25 </v>
   <v type="int" >       12       14       15       24       24 </v>
   <v type="int" >       12       15       24       24       25 </v>
   <v type="int" >       12       15       24       25       25 </v>
   <v type="int" >       12       13       14       14       24 </v>
   <v type="int" >       12       14       15       24       25 </v>
   <v type="int" >       12       13       14       23       24 </v>
   <v type="int" >       12       14       23       24       24 </v>
   <v type="int" >       24       14       24       24       25 </v>
   <v type="int" >       12       11       12       13       23 </v>
   <v type="int" >       12       12       13       14       23 </v>
   <v type="int" >       12       12       14       23       24 </v>
   <v type="int" >       12       11       12       21       23 </v>
   <v type="int" >       12       12       21       22       23 </v>
   <v type="int" >       12       12       22       23       24 </v>
   <v type="int" >       12        8        9       11       21 </v>
   <v type="int" >       12        9       11       12       21 </v>
   <v type="int" >       12        9       12       21       22 </v>
   <v type="int" >       12        8        9       18       21 </v>
   <v type="int" >       12        9       18       19       21 </v>
   <v type="int" >       12        9       19       21       22 </v>
   <v type="int" >       12        4        5        8       18 </v>
   <v type="int" >       12        5        8        9       18 </v>
   <v type="int" >       12        5        9       18       19 </v>
   <v type="int" >       12       15       15       15       25 </v>
   <v type="int" >       12       15       15       25       25 </v>
   <v type="int" >       12       15       25       25       25 </v>
   <v type="int" >       12       14       14       15       25 </v>
   <v type="int" >       12       14       15       15       25 </v>
   <v type="int" >       12       14       15       25       25 </v>
   <v type="int" >       12       14       14       24       25 </v>
   <v type="int" >       12       14       24       25       25 </v>
   <v type="int" >       12       12       12       14       24 </v>
   <v type="int" >       12       12       14       14       24 </v>
   <v type="int" >       12       12       14       24       24 </v>
   <v type="int" >       12       12       12       22       24 </v>
   <v type="int" >       12       12       22       22       24 </v>
   <v type="int" >       12       12       22       24       24 </v>
   <v type="int" >       12        9        9       12       22 </v>
   <v type="int" >       12        9       12       12       22 </v>
   <v type="int" >       12        9       12       22       22 </v>
   <v type="int" >       12        9        9       19       22 </v>
   <v type="int" >       12        9       19       19       22 </v>
   <v type="int" >       12        9       19       22       22 </v>
   <v type="int" >       12        5        5        9       19 </v>
   <v type="int" >       12        5        9        9       19 </v>
   <v type="int" >       12        5        9       19       19 </v>
   <v type="int" >       12       13       14       15       25 </v>
   <v type="int" >       12       13       14       24       25 </v>
   <v type="int" >       12       13       23       24       25 </v>
   <v type="int" >       12       11       12       14       24 </v>
   <v type="int" >       12       11       13       14       24 </v>
   <v type="int" >       12       11       13       23       24 </v>
   <v type="int" >       12       11       12       22       24 </v>
   <v type="int" >       12       11       21       22       24 </v>
   <v type="int" >       12       11       21       23       24 </v>
   <v type="int" >       12        8        9       12       22 </v>
   <v type="int" >       12        8       11       12       22 </v>
   <v type="int" >       12        8       11       21       22 </v>
   <v type="int" >       12        8        9       19       22 </v>
   <v type="int" >       12        8       18       19       22 </v>
   <v type="int" >       12        8       18       21       22 </v>
   <v type="int" >       12        4        5        9       19 </v>
   <v type="int" >       12        4        8        9       19 </v>
   <v type="int" >       12        4        8       18       19 </v>
   <v type="int" >       12       10       11       13       23 </v>
   <v type="int" >       12       10       11       21       23 </v>
   <v type="int" >       12       10       20       21       23 </v>
   <v type="int" >       12        7        8       11       21 </v>
   <v type="int" >       12        7       10       11       21 </v>
   <v type="int" >       12        7       10       20       21 </v>
   <v type="int" >       12        7        8       18       21 </v>
   <v type="int" >       12        7       17       18       21 </v>
   <v type="int" >       12        7       17       20       21 </v>
   <v type="int" >       12        3        4        8       18 </v>
   <v type="int" >       12        3        7        8       18 </v>
   <v type="int" >       12        3        7       17       18 </v>
   <v type="int" >       12        6        7       10       20 </v>
   <v type="int" >       12        6        7       17       20 </v>
   <v type="int" >       12        6       16       17       20 </v>
   <v type="int" >       12        2        3        7       17 </v>
   <v type="int" >       12        2        6        7       17 </v>
   <v type="int" >       12        2        6       16       17 </v>
   <v type="int" >       12        1        2        6       16 </v>
   <v type="int" >       12       16       17       17       20 </v>
   <v type="int" >       12       17       17       20       20 </v>
   <v type="int" >       12       17       20       20       26 </v>
   <v type="int" >       12       17       18       20       21 </v>
   <v type="int" >       12       17       20       20       21 </v>
   <v type="int" >       12       20       20       21       26 </v>
   <v type="int" >       12       18       20       21       21 </v>
   <v type="int" >       24       20       21       21       27 </v>
   <v type="int" >       24       20       21       26       27 </v>
   <v type="int" >       12       18       19       21       22 </v>
   <v type="int" >       12       18       21       21       22 </v>
   <v type="int" >       12       21       21       22       27 </v>
   <v type="int" >       12       19       21       22       22 </v>
   <v type="int" >       12       21       22       22       28 </v>
   <v type="int" >       12       21       22       27       28 </v>
   <v type="int" >        6       19       19       22       22 </v>
   <v type="int" >       12       19       22       22       22 </v>
   <v type="int" >       12       22       22       22       28 </v>
   <v type="int" >        6       22       22       28       28 </v>
   <v type="int" >       12       20       21       23       26 </v>
   <v type="int" >       12       21       23       26       27 </v>
   <v type="int" >       12       23       26       27       29 </v>
   <v type="int" >       12       21       22       24       27 </v>
   <v type="int" >       12       21       23       24       27 </v>
   <v type="int" >       12       23       24       27       29 </v>
   <v type="int" >       12       22       24       27       28 </v>
   <v type="int" >       12       24       27       28       30 </v>
   <v type="int" >       12       24       27       29       30 </v>
   <v type="int" >       12       22       22       24       28 </v>
   <v type="int" >       12       22       24       24       28 </v>
   <v type="int" >       12       24       24       28       30 </v>
   <v type="int" >       12       22       24       28       28 </v>
   <v type="int" >       12       24       28       28       30 </v>
   <v type="int" >       12       24       28       30       30 </v>
   <v type="int" >       12       21       22       23       28 </v>
   <v type="int" >       12       22       23       24       28 </v>
   <v type="int" >       12       23       24       28       30 </v>
   <v type="int" >       12       21       23       27       28 </v>
   <v type="int" >       12       23       27       28       29 </v>
   <v type="int" >       12       23       28       29       30 </v>
   <v type="int" >       12       21       21       23       27 </v>
   <v type="int" >       12       21       23       27       29 </v>
   <v type="int" >       12       21       26       27       27 </v>
   <v type="int" >       12       21       27       27       29 </v>
   <v type="int" >       12       17       18       20       26 </v>
   <v type="int" >       12       18       20       21       26 </v>
   <v type="int" >       12       18       21       26       27 </v>
   <v type="int" >       12       23       24       25       29 </v>
   <v type="int" >       12       24       25       29       30 </v>
   <v type="int" >       12       25       29       30       31 </v>
   <v type="int" >       24       24       24       25       30 </v>
   <v type="int" >       12       24       25       25       30 </v>
   <v type="int" >       12       25       25       30       31 </v>
   <v type="int" >       12       24       25       30       30 </v>
   <v type="int" >       12       25       30       30       31 </v>
   <v type="int" >       12       25       30       31       31 </v>
   <v type="int" >       12       23       24       24       30 </v>
   <v type="int" >       12       24       25       30       31 </v>
   <v type="int" >       12       23       24       29       30 </v>
   <v type="int" >       12       24       29       30       30 </v>
   <v type="int" >       24       24       30       30       31 </v>
   <v type="int" >       12       21       22       23       29 </v>
   <v type="int" >       12       22       23       24       29 </v>
   <v type="int" >       12       22       24       29       30 </v>
   <v type="int" >       12       21       22       27       29 </v>
   <v type="int" >       12       22       27       28       29 </v>
   <v type="int" >       12       22       28       29       30 </v>
   <v type="int" >       12       18       19       21       27 </v>
   <v type="int" >       12       19       21       22       27 </v>
   <v type="int" >       12       19       22       27       28 </v>
   <v type="int" >       12       25       25       25       31 </v>
   <v type="int" >       12       25       25       31       31 </v>
   <v type="int" >       12       25       31       31       31 </v>
   <v type="int" >       12       24       24       25       31 </v>
   <v type="int" >       12       24       25       25       31 </v>
   <v type="int" >       12       24       25       31       31 </v>
   <v type="int" >       12       24       24       30       31 </v>
   <v type="int" >       12       24       30       31       31 </v>
   <v type="int" >       12       22       22       24       30 </v>
   <v type="int" >       12       22       24       24       30 </v>
   <v type="int" >       12       22       24       30       30 </v>
   <v type="int" >       12       22       22       28       30 </v>
   <v type="int" >       12       22       28       28       30 </v>
   <v type="int" >       12       22       28       30       30 </v>
   <v type="int" >       12       19       19       22       28 </v>
   <v type="int" >       12       19       22       22       28 </v>
   <v type="int" >       12       19       22       28       28 </v>
   <v type="int" >       12       23       24       25       31 </v>
   <v type="int" >       12       23       24       30       31 </v>
   <v type="int" >       12       23       29       30       31 </v>
   <v type="int" >       12       21       22       24       30 </v>
   <v type="int" >       12       21       23       24       30 </v>
   <v type="int" >       12       21       23       29       30 </v>
   <v type="int" >       12       21       22       28       30 </v>
   <v type="int" >       12       21       27       28       30 </v>
   <v type="int" >       12       21       27       29       30 </v>
   <v type="int" >       12       18       19       22       28 </v>
   <v type="int" >       12       18       21       22       28 </v>
   <v type="int" >       12       18       21       27       28 </v>
   <v type="int" >       12       20       21       23       29 </v>
   <v type="int" >       12       20       21       27       29 </v>
   <v type="int" >       12       20       26       27       29 </v>
   <v type="int" >       12       17       18       21       27 </v>
   <v type="int" >       12       17       20       21       27 </v>
   <v type="int" >       12       17       20       26       27 </v>
   <v type="int" >       12       16       17       20       26 </v>
   <v type="int" >       12       26       27       27       29 </v>
   <v type="int" >       12       27       27       29       29 </v>
   <v type="int" >       12       27       29       29       32 </v>
   <v type="int" >       12       27       28       29       30 </v>
   <v type="int" >       12       27       29       29       30 </v>
   <v type="int" >       12       29       29       30       32 </v>
   <v type="int" >       12       28       29       30       30 </v>
   <v type="int" >       24       29       30       30       33 </v>
   <v type="int" >       24       29       30       32       33 </v>
   <v type="int" >        6       28       28       30       30 </v>
   <v type="int" >       12       28       30       30       30 </v>
   <v type="int" >       12       30       30       30       33 </v>
   <v type="int" >        6       30       30       33       33 </v>
   <v type="int" >       12       29       30       31       32 </v>
   <v type="int" >       12       30       31       32       33 </v>
   <v type="int" >       12       31       32       33       34 </v>
   <v type="int" >       24       30       30       31       33 </v>
   <v type="int" >       12       30       31       31       33 </v>
   <v type="int" >       12       31       31       33       34 </v>
   <v type="int" >       12       30       31       33       33 </v>
   <v type="int" >       12       31       33       33       34 </v>
   <v type="int" >       12       31       33       34       34 </v>
   <v type="int" >       12       30       31       33       34 </v>
   <v type="int" >       12       30       32       33       33 </v>
   <v type="int" >       24       30       33       33       34 </v>
   <v type="int" >       12       27       28       29       32 </v>
   <v type="int" >       12       28       29       30       32 </v>
   <v type="int" >       12       28       30       32       33 </v>
   <v type="int" >       12       31       31       31       34 </v>
   <v type="int" >       12       31       31       34       34 </v>
   <v type="int" >       12       31       34       34       34 </v>
   <v type="int" >       12       30       30       31       34 </v>
   <v type="int" >       12       30       31       31       34 </v>
   <v type="int" >       12       30       31       34       34 </v>
   <v type="int" >       12       30       30       33       34 </v>
   <v type="int" >       12       30       33       34       34 </v>
   <v type="int" >       12       28       28       30       33 </v>
   <v type="int" >       12       28       30       30       33 </v>
   <v type="int" >       12       28       30       33       33 </v>
   <v type="int" >       12       29       30       31       34 </v>
   <v type="int" >       12       29       30       33       34 </v>
   <v type="int" >       12       29       32       33       34 </v>
   <v type="int" >       12       27       28       30       33 </v>
   <v type="int" >       12       27       29       30       33 </v>
   <v type="int" >       12       27       29       32       33 </v>
   <v type="int" >       12       26       27       29       32 </v>
   <v type="int" >       12       32       33       33       34 </v>
   <v type="int" >       18       33       33       34       34 </v>
   <v type="int" >       24       33       34       34       35 </v>
   <v type="int" >       12       33       34       34       34 </v>
   <v type="int" >       24       34       34       34       35 </v>
   <v type="int" >       18       34       34       35       35 </v>
   <v type="int" >       12       34       35       35       35 </v>
   <v type="int" >       12       33       33       34       35 </v>
   <v type="int" >       12       33       34       35       35 </v>
   <v type="int" >       12       32       33       34       35 </v>
   <v type="int" >        6       35       35       35       35 </v>
  </varray>
  <i name="volumeweight">      0.00022862 </i>
 </kpoints>
 <parameters>
  <separator name="general" >
   <i type="string" name="SYSTEM">unknown system</i>
   <i type="logical" name="LCOMPAT"> F  </i>
  </separator>
  <separator name="electronic" >
   <i type="string" name="PREC">normal</i>
   <i name="ENMAX">    500.00000000</i>
   <i name="ENAUG">    605.39200000</i>
   <i name="EDIFF">      0.00001000</i>
   <i type="int" name="IALGO">    68</i>
   <i type="int" name="IWAVPR">    10</i>
   <i type="int" name="NBANDS">    20</i>
   <i name="NELECT">     32.00000000</i>
   <i type="int" name="TURBO">     0</i>
   <i type="int" name="IRESTART">     0</i>
   <i type="int" name="NREBOOT">     0</i>
   <i type="int" name="NMIN">     0</i>
   <i name="EREF">      0.00000000</i>
   <separator name="electronic smearing" >
    <i type="int" name="ISMEAR">    -5</i>
    <i name="SIGMA">      0.20000000</i>
    <i name="KSPACING">      0.50000000</i>
    <i type="logical" name="KGAMMA"> T  </i>
   </separator>
   <separator name="electronic projectors" >
    <i type="logical" name="LREAL"> F  </i>
    <v name="ROPT">      0.00000000      0.00000000      0.00000000</v>
    <i type="int" name="LMAXPAW">  -100</i>
    <i type="int" name="LMAXMIX">     2</i>
    <i type="logical" name="NLSPLINE"> F  </i>
   </separator>
   <separator name="electronic startup" >
    <i type="int" name="ISTART">     0</i>
    <i type="int" name="ICHARG">     2</i>
    <i type="int" name="INIWAV">     1</i>
   </separator>
   <separator name="electronic spin" >
    <i type="int" name="ISPIN">     1</i>
    <i type="logical" name="LNONCOLLINEAR"> F  </i>
    <v name="MAGMOM">      1.00000000      1.00000000      1.00000000      1.00000000      1.00000000</v>
    <i name="NUPDOWN">     -1.00000000</i>
    <i type="logical" name="LSORBIT"> F  </i>
    <v name="SAXIS">      0.00000000      0.00000000      1.00000000</v>
    <i type="logical" name="LSPIRAL"> F  </i>
    <v name="QSPIRAL">      0.00000000      0.00000000      0.00000000</v>
    <i type="logical" name="LZEROZ"> F  </i>
   </separator>
   <separator name="electronic exchange-correlation" >
    <i type="logical" name="LASPH"> F  </i>
    <i type="logical" name="LMETAGGA"> F  </i>
   </separator>
   <separator name="electronic convergence" >
    <i type="int" name="NELM">    60</i>
    <i type="int" name="NELMDL">     0</i>
    <i type="int" name="NELMIN">     4</i>
    <i name="ENINI">    500.00000000</i>
    <separator name="electronic convergence detail" >
     <i type="logical" name="LDIAG"> T  </i>
     <i type="logical" name="LSUBROT"> F  </i>
     <i name="WEIMIN">      0.00000000</i>
     <i name="EBREAK">      0.00000013</i>
     <i name="DEPER">      0.30000000</i>
     <i type="int" name="NRMM">     4</i>
     <i name="TIME">      0.40000000</i>
    </separator>
   </separator>
   <separator name="electronic mixer" >
    <i name="AMIX">      0.40000000</i>
    <i name="BMIX">      1.00000000</i>
    <i name="AMIN">      0.10000000</i>
    <i name="AMIX_MAG">      1.60000000</i>
    <i name="BMIX_MAG">      1.00000000</i>
    <separator name="electronic mixer details" >
     <i type="int" name="IMIX">     4</i>
     <i type="logical" name="MIXFIRST"> F  </i>
     <i type="int" name="MAXMIX">   -45</i>
     <i name="WC">    100.00000000</i>
     <i type="int" name="INIMIX">     1</i>
     <i type="int" name="MIXPRE">     1</i>
     <i type="int" name="MREMOVE">     5</i>
    </separator>
   </separator>
   <separator name="electronic dipolcorrection" >
    <i type="logical" name="LDIPOL"> F  </i>
    <i type="logical" name="LMONO"> F  </i>
    <i type="int" name="IDIPOL">     0</i>
    <i name="EPSILON">      1.00000000</i>
    <v name="DIPOL">   -100.00000000   -100.00000000   -100.00000000</v>
    <i name="EFIELD">      0.00000000</i>
   </separator>
  </separator>
  <separator name="grids" >
   <i type="int" name="NGX">    24</i>
   <i type="int" name="NGY">    24</i>
   <i type="int" name="NGZ">    24</i>
   <i type="int" name="NGXF">    48</i>
   <i type="int" name="NGYF">    48</i>
   <i type="int" name="NGZF">    48</i>
   <i type="logical" name="ADDGRID"> F  </i>
  </separator>
  <separator name="ionic" >
   <i type="int" name="NSW">     0</i>
   <i type="int" name="IBRION">    -1</i>
   <i type="int" name="MDALGO">     0</i>
   <i type="int" name="ISIF">     2</i>
   <i name="PSTRESS">      0.00000000</i>
   <i name="EDIFFG">      0.00010000</i>
   <i type="int" name="NFREE">     0</i>
   <i name="POTIM">      0.50000000</i>
   <i name="SMASS">     -3.00000000</i>
   <i name="SCALEE">      1.00000000</i>
  </separator>
  <separator name="ionic md" >
   <i name="TEBEG">      0.00010000</i>
   <i name="TEEND">      0.00010000</i>
   <i type="int" name="NBLOCK">     1</i>
   <i type="int" name="KBLOCK">     1</i>
   <i type="int" name="NPACO">   256</i>
   <i name="APACO">     16.00000000</i>
  </separator>
  <separator name="symmetry" >
   <i type="int" name="ISYM">     2</i>
   <i name="SYMPREC">      0.00001000</i>
  </separator>
  <separator name="dos" >
   <i type="int" name="LORBIT">     0</i>
   <v name="RWIGS">     -1.00000000     -1.00000000     -1.00000000</v>
   <i type="int" name="NEDOS">   301</i>
   <i name="EMIN">     10.00000000</i>
   <i name="EMAX">    -10.00000000</i>
   <i name="EFERMI">      0.00000000</i>
  </separator>
  <separator name="writing" >
   <i type="int" name="NWRITE">     2</i>
   <i type="logical" name="LWAVE"> F  </i>
   <i type="logical" name="LDOWNSAMPLE"> F  </i>
   <i type="logical" name="LCHARG"> T  </i>
   <i type="logical" name="LPARD"> F  </i>
   <i type="logical" name="LVTOT"> F  </i>
   <i type="logical" name="LVHAR"> F  </i>
   <i type="logical" name="LELF"> F  </i>
   <i type="logical" name="LOPTICS"> F  </i>
   <v name="STM">      0.00000000      0.00000000      0.00000000      0.00000000      0.00000000      0.00000000      0.00000000</v>
  </separator>
  <separator name="performance" >
   <i type="int" name="NPAR">     2</i>
   <i type="int" name="NSIM">     4</i>
   <i type="int" name="NBLK">    -1</i>
   <i type="logical" name="LPLANE"> T  </i>
   <i type="logical" name="LSCALAPACK"> T  </i>
   <i type="logical" name="LSCAAWARE"> F  </i>
   <i type="logical" name="LSCALU"> F  </i>
   <i type="logical" name="LASYNC"> F  </i>
   <i type="logical" name="LORBITALREAL"> F  </i>
  </separator>
  <separator name="miscellaneous" >
   <i type="int" name="IDIOT">     3</i>
   <i type="int" name="ISPECIAL">     0</i>
   <i type="logical" name="LMUSIC"> F  </i>
   <v name="POMASS">     87.62000000     47.88000000     16.00000000</v>
   <v name="DARWINR">      0.00000000      0.00000000      0.00000000</v>
   <v name="DARWINV">      1.00000000      1.00000000      1.00000000</v>
   <i type="logical" name="LCORR"> T  </i>
  </separator>
  <i type="logical" name="GGA_COMPAT"> T  </i>
  <i type="logical" name="LBERRY"> F  </i>
  <i type="int" name="ICORELEVEL">     0</i>
  <i type="logical" name="LDAU"> F  </i>
  <i type="int" name="I_CONSTRAINED_M">     0</i>
  <separator name="electronic exchange-correlation" >
   <i type="string" name="GGA">--</i>
   <i type="int" name="VOSKOWN">     0</i>
   <i type="logical" name="LHFCALC"> F  </i>
   <i type="string" name="PRECFOCK"></i>
   <i type="logical" name="LSYMGRAD"> F  </i>
   <i type="logical" name="LHFONE"> F  </i>
   <i type="logical" name="LRHFCALC"> F  </i>
   <i type="logical" name="LTHOMAS"> F  </i>
   <i type="logical" name="LMODELHF"> F  </i>
   <i name="ENCUT4O">     -1.00000000</i>
   <i type="int" name="EXXOEP">     0</i>
   <i type="int" name="FOURORBIT">     0</i>
   <i name="AEXX">      0.00000000</i>
   <i name="HFALPHA">      0.00000000</i>
   <i name="MCALPHA">      0.00000000</i>
   <i name="ALDAX">      1.00000000</i>
   <i name="AGGAX">      1.00000000</i>
   <i name="ALDAC">      1.00000000</i>
   <i name="AGGAC">      1.00000000</i>
   <i type="int" name="NKREDX">     1</i>
   <i type="int" name="NKREDY">     1</i>
   <i type="int" name="NKREDZ">     1</i>
   <i type="logical" name="SHIFTRED"> F  </i>
   <i type="logical" name="ODDONLY"> F  </i>
   <i type="logical" name="EVENONLY"> F  </i>
   <i type="int" name="LMAXFOCK">     0</i>
   <i type="int" name="NMAXFOCKAE">     0</i>
   <i type="logical" name="LFOCKAEDFT"> F  </i>
   <i name="HFSCREEN">      0.00000000</i>
   <i name="HFSCREENC">      0.00000000</i>
   <i type="int" name="NBANDSGWLOW">     0</i>
  </separator>
  <separator name="vdW DFT" >
   <i type="logical" name="LUSE_VDW"> F  </i>
   <i name="Zab_VDW">     -0.84910000</i>
   <i name="PARAM1">      0.12340000</i>
   <i name="PARAM2">      1.00000000</i>
   <i name="PARAM3">      0.00000000</i>
  </separator>
  <separator name="model GW" >
   <i type="int" name="MODEL_GW">     0</i>
   <i name="MODEL_EPS0">      7.14716444</i>
   <i name="MODEL_ALPHA">      1.00000000</i>
  </separator>
  <separator name="linear response parameters" >
   <i type="logical" name="LEPSILON"> F  </i>
   <i type="logical" name="LRPA"> F  </i>
   <i type="logical" name="LNABLA"> F  </i>
   <i type="logical" name="LVEL"> F  </i>
   <i type="int" name="KINTER">     0</i>
   <i name="CSHIFT">      0.10000000</i>
   <i name="OMEGAMAX">     -1.00000000</i>
   <i name="DEG_THRESHOLD">      0.00200000</i>
   <i name="RTIME">     -0.10000000</i>
   <i name="WPLASMAI">      0.00000000</i>
   <v name="DFIELD">      0.00000000      0.00000000      0.00000000</v>
   <v name="WPLASMA">      0.00000000      0.00000000      0.00000000      0.00000000      0.00000000      0.00000000      0.00000000      0.00000000      0.00000000</v>
  </separator>
  <separator name="orbital magnetization" >
   <i type="logical" name="NUCIND"> F  </i>
   <v name="MAGPOS">      0.00000000      0.00000000      0.00000000</v>
   <i type="logical" name="LNICSALL"> T  </i>
   <i type="logical" name="ORBITALMAG"> F  </i>
   <i type="logical" name="LMAGBLOCH"> F  </i>
   <i type="logical" name="LCHIMAG"> F  </i>
   <i type="logical" name="LGAUGE"> T  </i>
   <i type="int" name="MAGATOM">     0</i>
   <v name="MAGDIPOL">      0.00000000      0.00000000      0.00000000</v>
   <v name="AVECCONST">      0.00000000      0.00000000      0.00000000</v>
  </separator>
  <separator name="response functions" >
   <i type="logical" name="LADDER"> F  </i>
   <i type="logical" name="LRPAFORCE"> F  </i>
   <i type="logical" name="LFXC"> F  </i>
   <i type="logical" name="LHARTREE"> T  </i>
   <i type="int" name="IBSE">     0</i>
   <v type="int" name="KPOINT">    -1     0     0     0</v>
   <i type="logical" name="LTCTE"> F  </i>
   <i type="logical" name="LTETE"> F  </i>
   <i type="logical" name="LTRIPLET"> F  </i>
   <i type="logical" name="LFXCEPS"> F  </i>
   <i type="logical" name="LFXHEG"> F  </i>
   <i type="int" name="NATURALO">     2</i>
   <i type="logical" name="L2ORDER"> F  </i>
   <i type="logical" name="LMP2LT"> F  </i>
   <i type="logical" name="LUSEW"> F  </i>
   <i name="ENCUTGW">     -2.00000000</i>
   <i name="ENCUTGWSOFT">     -2.00000000</i>
   <i name="ENCUTLF">     -1.00000000</i>
   <i type="int" name="LMAXMP2">    -1</i>
   <i name="SCISSOR">      0.00000000</i>
   <i type="int" name="NOMEGA">     0</i>
   <i type="int" name="NOMEGAR">     0</i>
   <i type="int" name="NBANDSGW">    -1</i>
   <i type="int" name="NBANDSO">    -1</i>
   <i type="int" name="NBANDSV">    -1</i>
   <i type="int" name="NELM">     1</i>
   <i type="int" name="NELMHF">     1</i>
   <i type="int" name="DIM">     3</i>
   <i type="int" name="ANTIRES">     0</i>
   <i name="OMEGAMAX">    -30.00000000</i>
   <i name="OMEGAMIN">    -30.00000000</i>
   <i name="OMEGATL">   -200.00000000</i>
   <i type="int" name="OMEGAGRID">   140</i>
   <i name="CSHIFT">     -0.10000000</i>
   <i type="logical" name="SELFENERGY"> F  </i>
   <i type="logical" name="LSPECTRAL"> F  </i>
   <i type="logical" name="LSPECTRALGW"> F  </i>
   <i type="logical" name="LSINGLES"> F  </i>
   <i type="logical" name="LFERMIGW"> F  </i>
   <i type="logical" name="ODDONLYGW"> F  </i>
   <i type="logical" name="EVENONLYGW"> F  </i>
   <i type="int" name="NKREDLFX">     1</i>
   <i type="int" name="NKREDLFY">     1</i>
   <i type="int" name="NKREDLFZ">     1</i>
   <i type="int" name="MAXMEM">  2800</i>
   <i type="int" name="TELESCOPE">     0</i>
   <i type="int" name="TAUPAR">     1</i>
   <i type="int" name="OMEGAPAR">    -1</i>
   <i name="LAMBDA">      1.00000000</i>
  </separator>
  <separator name="External order field" >
   <i name="OFIELD_KAPPA">      0.00000000</i>
   <v name="OFIELD_K">      0.00000000      0.00000000      0.00000000</v>
   <i name="OFIELD_Q6_NEAR">      0.00000000</i>
   <i name="OFIELD_Q6_FAR">      0.00000000</i>
   <i name="OFIELD_A">      0.00000000</i>
  </separator>
 </parameters>
 <atominfo>
  <atoms>       5 </atoms>
  <types>       3 </types>
  <array name="atoms" >
   <dimension dim="1">ion</dimension>
   <field type="string">element</field>
   <field type="int">atomtype</field>
   <set>
    <rc><c>Sr</c><c>   1</c></rc>
    <rc><c>Ti</c><c>   2</c></rc>
    <rc><c>O </c><c>   3</c></rc>
    <rc><c>O </c><c>   3</c></rc>
    <rc><c>O </c><c>   3</c></rc>
   </set>
  </array>
  <array name="atomtypes" >
   <dimension dim="1">type</dimension>
   <field type="int">atomspertype</field>
   <field type="string">element</field>
   <field>mass</field>
   <field>valence</field>
   <field type="string">pseudopotential</field>
   <set>
    <rc><c>   1</c><c>Sr</c><c>     87.62000000</c><c>     10.00000000</c><c> PAW_PBE Sr_sv 07Sep2000                </c></rc>
    <rc><c>   1</c><c>Ti</c><c>     47.88000000</c><c>      4.00000000</c><c> PAW_PBE Ti 08Apr2002                   </c></rc>
    <rc><c>   3</c><c>O </c><c>     16.00000000</c><c>      6.00000000</c><c> PAW_PBE O 08Apr2002                    </c></rc>
   </set>
  </array>
 </atominfo>
 <structure name="initialpos" >
  <crystal>
   <varray name="basis" >
    <v>       3.90526800       0.00000000       0.00000000 </v>
    <v>       0.00000000       3.90526800       0.00000000 </v>
    <v>       0.00000000       0.00000000       3.90526800 </v>
   </varray>
   <i name="volume">     59.55970368 </i>
   <varray name="rec_basis" >
    <v>       0.25606437       0.00000000       0.00000000 </v>
    <v>       0.00000000       0.25606437       0.00000000 </v>
    <v>       0.00000000       0.00000000       0.25606437 </v>
   </varray>
  </crystal>
  <varray name="positions" >
   <v>       0.00000000       0.00000000       0.00000000 </v>
   <v>       0.50000000       0.50000000       0.50000000 </v>
   <v>       0.50000000       0.50000000       0.00000000 </v>
   <v>       0.50000000       0.00000000       0.50000000 </v>
   <v>       0.00000000       0.50000000       0.50000000 </v>
  </varray>
 </structure>
 <calculation>
  <scstep>
   <time name="dav">    0.39    0.40</time>
   <time name="total">    0.43    0.47</time>
   <energy>
    <i name="alphaZ">    185.39985751 </i>
    <i name="ewald">  -1934.07799583 </i>
    <i name="hartreedc">   -403.14003404 </i>
    <i name="XCdc">     82.31788258 </i>
    <i name="pawpsdc">   1333.61297253 </i>
    <i name="pawaedc">  -1284.78446064 </i>
    <i name="eentropy">      0.00000000 </i>
    <i name="bandstr">     96.93731502 </i>
    <i name="atom">   2234.31706254 </i>
    <i name="e_fr_energy">    310.58259967 </i>
    <i name="e_wo_entrp">    310.58259967 </i>
    <i name="e_0_energy">    310.58259967 </i>
   </energy>
  </scstep>
  <scstep>
   <time name="dav">    0.50    0.51</time>
   <time name="total">    0.51    0.51</time>
   <energy>
    <i name="e_fr_energy">    -20.15460502 </i>
    <i name="e_wo_entrp">    -20.15460502 </i>
    <i name="e_0_energy">    -20.15460502 </i>
   </energy>
  </scstep>
  <scstep>
   <time name="dav">    0.45    0.45</time>
   <time name="total">    0.45    0.45</time>
   <energy>
    <i name="e_fr_energy">    -49.23338247 </i>
    <i name="e_wo_entrp">    -49.23338247 </i>
    <i name="e_0_energy">    -49.23338247 </i>
   </energy>
  </scstep>
  <scstep>
   <time name="dav">    0.59    0.59</time>
   <time name="total">    0.59    0.59</time>
   <energy>
    <i name="e_fr_energy">    -50.20570744 </i>
    <i name="e_wo_entrp">    -50.20570744 </i>
    <i name="e_0_energy">    -50.20570744 </i>
   </energy>
  </scstep>
  <scstep>
   <time name="dav">    0.47    0.47</time>
   <time name="total">    0.50    0.50</time>
   <energy>
    <i name="e_fr_energy">    -50.22815090 </i>
    <i name="e_wo_entrp">    -50.22815090 </i>
    <i name="e_0_energy">    -50.22815090 </i>
   </energy>
  </scstep>
  <scstep>
   <time name="diag">    0.09    0.09</time>
   <time name="diis">    0.30    0.30</time>
   <time name="orth">    0.01    0.01</time>
   <time name="total">    0.44    0.45</time>
   <energy>
    <i name="e_fr_energy">    -40.40473177 </i>
    <i name="e_wo_entrp">    -40.40473177 </i>
    <i name="e_0_energy">    -40.40473177 </i>
   </energy>
  </scstep>
  <scstep>
   <time name="diag">    0.09    0.09</time>
   <time name="diis">    0.32    0.33</time>
   <time name="orth">    0.01    0.01</time>
   <time name="total">    0.47    0.47</time>
   <energy>
    <i name="e_fr_energy">    -39.79303530 </i>
    <i name="e_wo_entrp">    -39.79303530 </i>
    <i name="e_0_energy">    -39.79303530 </i>
   </energy>
  </scstep>
  <scstep>
   <time name="diag">    0.09    0.09</time>
   <time name="diis">    0.32    0.32</time>
   <time name="orth">    0.01    0.01</time>
   <time name="total">    0.47    0.48</time>
   <energy>
    <i name="e_fr_energy">    -39.71075592 </i>
    <i name="e_wo_entrp">    -39.71075592 </i>
    <i name="e_0_energy">    -39.71075592 </i>
   </energy>
  </scstep>
  <scstep>
   <time name="diag">    0.09    0.09</time>
   <time name="diis">    0.36    0.36</time>
   <time name="orth">    0.01    0.01</time>
   <time name="total">    0.51    0.51</time>
   <energy>
    <i name="e_fr_energy">    -39.69577023 </i>
    <i name="e_wo_entrp">    -39.69577023 </i>
    <i name="e_0_energy">    -39.69577023 </i>
   </energy>
  </scstep>
  <scstep>
   <time name="diag">    0.09    0.09</time>
   <time name="diis">    0.31    0.31</time>
   <time name="orth">    0.01    0.01</time>
   <time name="total">    0.46    0.46</time>
   <energy>
    <i name="e_fr_energy">    -39.69302732 </i>
    <i name="e_wo_entrp">    -39.69302732 </i>
    <i name="e_0_energy">    -39.69302732 </i>
   </energy>
  </scstep>
  <scstep>
   <time name="diag">    0.09    0.09</time>
   <time name="diis">    0.35    0.35</time>
   <time name="orth">    0.01    0.01</time>
   <time name="total">    0.50    0.50</time>
   <energy>
    <i name="e_fr_energy">    -39.69081716 </i>
    <i name="e_wo_entrp">    -39.69081716 </i>
    <i name="e_0_energy">    -39.69081716 </i>
   </energy>
  </scstep>
  <scstep>
   <time name="diag">    0.09    0.09</time>
   <time name="diis">    0.34    0.34</time>
   <time name="orth">    0.01    0.01</time>
   <time name="total">    0.49    0.49</time>
   <energy>
    <i name="e_fr_energy">    -39.69228044 </i>
    <i name="e_wo_entrp">    -39.69228044 </i>
    <i name="e_0_energy">    -39.69228044 </i>
   </energy>
  </scstep>
  <scstep>
   <time name="diag">    0.09    0.09</time>
   <time name="diis">    0.32    0.32</time>
   <time name="orth">    0.01    0.01</time>
   <time name="total">    0.47    0.47</time>
   <energy>
    <i name="e_fr_energy">    -39.69123924 </i>
    <i name="e_wo_entrp">    -39.69123924 </i>
    <i name="e_0_energy">    -39.69123924 </i>
   </energy>
  </scstep>
  <scstep>
   <time name="diag">    0.09    0.09</time>
   <time name="diis">    0.33    0.33</time>
   <time name="orth">    0.01    0.01</time>
   <time name="total">    0.47    0.48</time>
   <energy>
    <i name="e_fr_energy">    -39.69107795 </i>
    <i name="e_wo_entrp">    -39.69107795 </i>
    <i name="e_0_energy">    -39.69107795 </i>
   </energy>
  </scstep>
  <scstep>
   <time name="diag">    0.09    0.09</time>
   <time name="diis">    0.31    0.32</time>
   <time name="orth">    0.01    0.01</time>
   <time name="total">    0.46    0.46</time>
   <energy>
    <i name="e_fr_energy">    -39.69112011 </i>
    <i name="e_wo_entrp">    -39.69112011 </i>
    <i name="e_0_energy">    -39.69112011 </i>
   </energy>
  </scstep>
  <scstep>
   <time name="diag">    0.09    0.09</time>
   <time name="diis">    0.26    0.26</time>
   <time name="orth">    0.01    0.01</time>
   <time name="total">    0.38    0.38</time>
   <energy>
    <i name="alphaZ">    185.39985751 </i>
    <i name="ewald">  -1934.07799583 </i>
    <i name="hartreedc">   -441.25381236 </i>
    <i name="XCdc">     86.18704630 </i>
    <i name="pawpsdc">   1561.96047896 </i>
    <i name="pawaedc">  -1519.65225699 </i>
    <i name="eentropy">      0.00000000 </i>
    <i name="bandstr">   -212.57150271 </i>
    <i name="atom">   2234.31706254 </i>
    <i name="e_fr_energy">    -39.69112259 </i>
    <i name="e_wo_entrp">    -39.69112259 </i>
    <i name="e_0_energy">    -39.69112259 </i>
   </energy>
  </scstep>
  <structure>
   <crystal>
    <varray name="basis" >
     <v>       3.90526800       0.00000000       0.00000000 </v>
     <v>       0.00000000       3.90526800       0.00000000 </v>
     <v>       0.00000000       0.00000000       3.90526800 </v>
    </varray>
    <i name="volume">     59.55970368 </i>
    <varray name="rec_basis" >
     <v>       0.25606437       0.00000000       0.00000000 </v>
     <v>       0.00000000       0.25606437       0.00000000 </v>
     <v>       0.00000000       0.00000000       0.25606437 </v>
    </varray>
   </crystal>
   <varray name="positions" >
    <v>       0.00000000       0.00000000       0.00000000 </v>
    <v>       0.50000000       0.50000000       0.50000000 </v>
    <v>       0.50000000       0.50000000       0.00000000 </v>
    <v>       0.50000000       0.00000000       0.50000000 </v>
    <v>       0.00000000       0.50000000       0.50000000 </v>
   </varray>
  </structure>
  <varray name="forces" >
   <v>       0.00000000       0.00000000       0.00000000 </v>
   <v>       0.00000000       0.00000000       0.00000000 </v>
   <v>       0.00000000       0.00000000       0.00000000 </v>
   <v>       0.00000000       0.00000000       0.00000000 </v>
   <v>       0.00000000       0.00000000       0.00000000 </v>
  </varray>
  <varray name="stress" >
   <v>      65.64553288      -0.00000000       0.00000000 </v>
   <v>       0.00000000      65.64553288      -0.00000000 </v>
   <v>       0.00000000      -0.00000000      65.64553288 </v>
  </varray>
  <energy>
   <i name="e_fr_energy">    -39.69112259 </i>
   <i name="e_wo_entrp">    -39.69112259 </i>
   <i name="e_0_energy">      0.00000000 </i>
  </energy>
  <time name="totalsc">    8.21    8.29</time>
  <eigenvalues>
   <array>
    <dimension dim="1">band</dimension>
    <dimension dim="2">kpoint</dimension>
    <dimension dim="3">spin</dimension>
    <field>eigene</field>
    <field>occ</field>
    <set>
     <set comment="spin 1">
      <set comment="kpoint 1">
       <r>  -30.0841    1.0000 </r>
       <r>  -14.8194    1.0000 </r>
       <r>  -13.8137    1.0000 </r>
       <r>  -13.8137    1.0000 </r>
       <r>  -12.1475    1.0000 </r>
       <r>  -12.1475    1.0000 </r>
       <r>  -12.1475    1.0000 </r>
       <r>   -0.2120    1.0000 </r>
       <r>   -0.2120    1.0000 </r>
       <r>   -0.2120    1.0000 </r>
       <r>    1.4751    1.0000 </r>
       <r>    1.4751    1.0000 </r>
       <r>    1.4751    1.0000 </r>
       <r>    2.3156    1.0000 </r>
       <r>    2.3156    1.0000 </r>
       <r>    2.3156    1.0000 </r>
       <r>    4.3499    0.0000 </r>
       <r>    4.3499    0.0000 </r>
       <r>    4.3499    0.0000 </r>
       <r>    8.0296    0.0000 </r>
      </set>
      <set comment="kpoint 2">
       <r>  -30.0813    1.0000 </r>
       <r>  -14.8253    1.0000 </r>
       <r>  -13.8317    1.0000 </r>
       <r>  -13.8087    1.0000 </r>
       <r>  -12.1419    1.0000 </r>
       <r>  -12.1419    1.0000 </r>
       <r>  -12.0618    1.0000 </r>
       <r>   -0.3754    1.0000 </r>
       <r>   -0.2205    1.0000 </r>
       <r>   -0.2205    1.0000 </r>
       <r>    1.3052    1.0000 </r>
       <r>    1.3052    1.0000 </r>
       <r>    1.3638    1.0000 </r>
       <r>    1.9216    1.0000 </r>
       <r>    2.2291    1.0000 </r>
       <r>    2.2291    1.0000 </r>
       <r>    4.3679    0.0000 </r>
       <r>    4.6396    0.0000 </r>
       <r>    4.6396    0.0000 </r>
       <r>    8.2467    0.0000 </r>
      </set>
      <set comment="kpoint 3">
       <r>  -30.0744    1.0000 </r>
       <r>  -14.8699    1.0000 </r>
       <r>  -13.8173    1.0000 </r>
       <r>  -13.7966    1.0000 </r>
       <r>  -12.1276    1.0000 </r>
       <r>  -12.1276    1.0000 </r>
       <r>  -11.8707    1.0000 </r>
       <r>   -0.8019    1.0000 </r>
       <r>   -0.2381    1.0000 </r>
       <r>   -0.2381    1.0000 </r>
       <r>    0.9190    1.0000 </r>
       <r>    0.9190    1.0000 </r>
       <r>    1.1042    1.0000 </r>
       <r>    1.1622    1.0000 </r>
       <r>    2.0945    1.0000 </r>
       <r>    2.0945    1.0000 </r>
       <r>    4.4142    0.0000 </r>
       <r>    5.2511    0.0000 </r>
       <r>    5.2511    0.0000 </r>
       <r>    8.8407    0.0000 </r>
      </set>
      <set comment="kpoint 4">
       <r>  -30.0664    1.0000 </r>
       <r>  -14.9570    1.0000 </r>
       <r>  -13.7832    1.0000 </r>
       <r>  -13.7231    1.0000 </r>
       <r>  -12.1111    1.0000 </r>
       <r>  -12.1111    1.0000 </r>
       <r>  -11.6852    1.0000 </r>
       <r>   -1.3135    1.0000 </r>
       <r>   -0.2451    1.0000 </r>
       <r>   -0.2451    1.0000 </r>
       <r>    0.5348    1.0000 </r>
       <r>    0.5354    1.0000 </r>
       <r>    0.5354    1.0000 </r>
       <r>    0.8397    1.0000 </r>
       <r>    1.9916    1.0000 </r>
       <r>    1.9916    1.0000 </r>
       <r>    4.4684    0.0000 </r>
       <r>    5.8460    0.0000 </r>
       <r>    5.8460    0.0000 </r>
       <r>    9.4395    0.0000 </r>
      </set>
      <set comment="kpoint 5">
       <r>  -30.0612    1.0000 </r>
       <r>  -15.0250    1.0000 </r>
       <r>  -13.7743    1.0000 </r>
       <r>  -13.6312    1.0000 </r>
       <r>  -12.1003    1.0000 </r>
       <r>  -12.1003    1.0000 </r>
       <r>  -11.5777    1.0000 </r>
       <r>   -1.6607    1.0000 </r>
       <r>   -0.2312    1.0000 </r>
       <r>   -0.2312    1.0000 </r>
       <r>    0.2090    1.0000 </r>
       <r>    0.2943    1.0000 </r>
       <r>    0.2943    1.0000 </r>
       <r>    0.6808    1.0000 </r>
       <r>    1.9363    1.0000 </r>
       <r>    1.9363    1.0000 </r>
       <r>    4.5047    0.0000 </r>
       <r>    6.2061    0.0000 </r>
       <r>    6.2061    0.0000 </r>
       <r>    9.9601    0.0000 </r>
      </set>
      <set comment="kpoint 6">
       <r>  -30.0786    1.0000 </r>
       <r>  -14.8213    1.0000 </r>
       <r>  -13.8491    1.0000 </r>
       <r>  -13.8092    1.0000 </r>
       <r>  -12.1362    1.0000 </r>
       <r>  -12.0956    1.0000 </r>
       <r>  -12.0268    1.0000 </r>
       <r>   -0.4863    1.0000 </r>
       <r>   -0.2819    1.0000 </r>
       <r>   -0.2284    1.0000 </r>
       <r>    0.9523    1.0000 </r>
       <r>    1.1648    1.0000 </r>
       <r>    1.4814    1.0000 </r>
       <r>    1.7737    1.0000 </r>
       <r>    1.9982    1.0000 </r>
       <r>    2.1184    1.0000 </r>
       <r>    4.6153    0.0000 </r>
       <r>    4.6906    0.0000 </r>
       <r>    4.8323    0.0000 </r>
       <r>    8.4398    0.0000 </r>
      </set>
      <set comment="kpoint 7">
       <r>  -30.0718    1.0000 </r>
       <r>  -14.8405    1.0000 </r>
       <r>  -13.8586    1.0000 </r>
       <r>  -13.7877    1.0000 </r>
       <r>  -12.1216    1.0000 </r>
       <r>  -12.0709    1.0000 </r>
       <r>  -11.8690    1.0000 </r>
       <r>   -0.8566    1.0000 </r>
       <r>   -0.3648    1.0000 </r>
       <r>   -0.2446    1.0000 </r>
       <r>    0.4515    1.0000 </r>
       <r>    0.8239    1.0000 </r>
       <r>    1.1550    1.0000 </r>
       <r>    1.4618    1.0000 </r>
       <r>    1.8394    1.0000 </r>
       <r>    1.9463    1.0000 </r>
       <r>    4.6839    0.0000 </r>
       <r>    5.2622    0.0000 </r>
       <r>    5.3224    0.0000 </r>
       <r>    8.9842    0.0000 </r>
      </set>
      <set comment="kpoint 8">
       <r>  -30.0640    1.0000 </r>
       <r>  -14.9053    1.0000 </r>
       <r>  -13.8033    1.0000 </r>
       <r>  -13.7492    1.0000 </r>
       <r>  -12.1048    1.0000 </r>
       <r>  -12.0580    1.0000 </r>
       <r>  -11.7028    1.0000 </r>
       <r>   -1.3334    1.0000 </r>
       <r>   -0.4488    1.0000 </r>
       <r>   -0.2495    1.0000 </r>
       <r>   -0.0242    1.0000 </r>
       <r>    0.4652    1.0000 </r>
       <r>    0.7295    1.0000 </r>
       <r>    1.3068    1.0000 </r>
       <r>    1.7239    1.0000 </r>
       <r>    1.8230    1.0000 </r>
       <r>    4.7295    0.0000 </r>
       <r>    5.8497    0.0000 </r>
       <r>    5.8656    0.0000 </r>
       <r>    9.6138    0.0000 </r>
      </set>
      <set comment="kpoint 9">
       <r>  -30.0589    1.0000 </r>
       <r>  -14.9629    1.0000 </r>
       <r>  -13.7682    1.0000 </r>
       <r>  -13.6901    1.0000 </r>
       <r>  -12.0938    1.0000 </r>
       <r>  -12.0496    1.0000 </r>
       <r>  -11.6061    1.0000 </r>
       <r>   -1.6687    1.0000 </r>
       <r>   -0.5137    1.0000 </r>
       <r>   -0.2873    1.0000 </r>
       <r>   -0.2326    1.0000 </r>
       <r>    0.2318    1.0000 </r>
       <r>    0.5337    1.0000 </r>
       <r>    1.1964    1.0000 </r>
       <r>    1.6595    1.0000 </r>
       <r>    1.7601    1.0000 </r>
       <r>    4.7598    0.0000 </r>
       <r>    6.2063    0.0000 </r>
       <r>    6.2152    0.0000 </r>
       <r>    9.9817    0.0000 </r>
      </set>
      <set comment="kpoint 10">
       <r>  -30.0653    1.0000 </r>
       <r>  -14.7861    1.0000 </r>
       <r>  -13.9306    1.0000 </r>
       <r>  -13.7561    1.0000 </r>
       <r>  -12.1063    1.0000 </r>
       <r>  -11.9716    1.0000 </r>
       <r>  -11.8382    1.0000 </r>
       <r>   -1.0616    1.0000 </r>
       <r>   -0.6160    1.0000 </r>
       <r>   -0.2578    1.0000 </r>
       <r>   -0.1313    1.0000 </r>
       <r>    0.5760    1.0000 </r>
       <r>    1.0458    1.0000 </r>
       <r>    1.3493    1.0000 </r>
       <r>    1.6906    1.0000 </r>
       <r>    1.8299    1.0000 </r>
       <r>    5.2062    0.0000 </r>
       <r>    5.3466    0.0000 </r>
       <r>    5.5905    0.0000 </r>
       <r>    9.5229    0.0000 </r>
      </set>
      <set comment="kpoint 11">
       <r>  -30.0579    1.0000 </r>
       <r>  -14.7712    1.0000 </r>
       <r>  -13.9229    1.0000 </r>
       <r>  -13.7333    1.0000 </r>
       <r>  -12.0887    1.0000 </r>
       <r>  -11.9399    1.0000 </r>
       <r>  -11.7422    1.0000 </r>
       <r>   -1.4090    1.0000 </r>
       <r>   -0.9026    1.0000 </r>
       <r>   -0.5656    1.0000 </r>
       <r>   -0.2600    1.0000 </r>
       <r>    0.2855    1.0000 </r>
       <r>    0.8182    1.0000 </r>
       <r>    1.2807    1.0000 </r>
       <r>    1.5034    1.0000 </r>
       <r>    1.8727    1.0000 </r>
       <r>    5.2945    0.0000 </r>
       <r>    5.8609    0.0000 </r>
       <r>    5.9919    0.0000 </r>
       <r>    9.9030    0.0000 </r>
      </set>
      <set comment="kpoint 12">
       <r>  -30.0530    1.0000 </r>
       <r>  -14.7902    1.0000 </r>
       <r>  -13.8452    1.0000 </r>
       <r>  -13.7498    1.0000 </r>
       <r>  -12.0772    1.0000 </r>
       <r>  -11.9348    1.0000 </r>
       <r>  -11.6708    1.0000 </r>
       <r>   -1.6925    1.0000 </r>
       <r>   -1.1740    1.0000 </r>
       <r>   -0.6752    1.0000 </r>
       <r>   -0.2371    1.0000 </r>
       <r>    0.0779    1.0000 </r>
       <r>    0.7176    1.0000 </r>
       <r>    1.2478    1.0000 </r>
       <r>    1.4118    1.0000 </r>
       <r>    1.8525    1.0000 </r>
       <r>    5.3164    0.0000 </r>
       <r>    6.2077    0.0000 </r>
       <r>    6.2918    0.0000 </r>
       <r>   10.2585    0.0000 </r>
      </set>
      <set comment="kpoint 13">
       <r>  -30.0509    1.0000 </r>
       <r>  -14.6213    1.0000 </r>
       <r>  -14.0106    1.0000 </r>
       <r>  -13.7412    1.0000 </r>
       <r>  -12.0702    1.0000 </r>
       <r>  -11.8391    1.0000 </r>
       <r>  -11.7620    1.0000 </r>
       <r>   -1.6034    1.0000 </r>
       <r>   -1.2077    1.0000 </r>
       <r>   -1.1524    1.0000 </r>
       <r>   -0.2645    1.0000 </r>
       <r>    0.0719    1.0000 </r>
       <r>    0.8559    1.0000 </r>
       <r>    1.1481    1.0000 </r>
       <r>    1.2437    1.0000 </r>
       <r>    2.1707    1.0000 </r>
       <r>    5.8186    0.0000 </r>
       <r>    5.9110    0.0000 </r>
       <r>    6.2475    0.0000 </r>
       <r>   10.2819    0.0000 </r>
      </set>
      <set comment="kpoint 14">
       <r>  -30.0463    1.0000 </r>
       <r>  -14.5449    1.0000 </r>
       <r>  -13.9850    1.0000 </r>
       <r>  -13.8023    1.0000 </r>
       <r>  -12.0581    1.0000 </r>
       <r>  -11.8209    1.0000 </r>
       <r>  -11.7267    1.0000 </r>
       <r>   -1.7667    1.0000 </r>
       <r>   -1.6405    1.0000 </r>
       <r>   -1.2310    1.0000 </r>
       <r>   -0.2443    1.0000 </r>
       <r>   -0.0914    1.0000 </r>
       <r>    0.9060    1.0000 </r>
       <r>    1.1005    1.0000 </r>
       <r>    1.1105    1.0000 </r>
       <r>    2.2858    1.0000 </r>
       <r>    5.8710    0.0000 </r>
       <r>    6.2106    0.0000 </r>
       <r>    6.4721    0.0000 </r>
       <r>   10.7661    0.0000 </r>
      </set>
      <set comment="kpoint 15">
       <r>  -30.0419    1.0000 </r>
       <r>  -14.3053    1.0000 </r>
       <r>  -14.0576    1.0000 </r>
       <r>  -13.9338    1.0000 </r>
       <r>  -12.0455    1.0000 </r>
       <r>  -11.7555    1.0000 </r>
       <r>  -11.7466    1.0000 </r>
       <r>   -1.9552    1.0000 </r>
       <r>   -1.8389    1.0000 </r>
       <r>   -1.5273    1.0000 </r>
       <r>   -0.2450    1.0000 </r>
       <r>   -0.2045    1.0000 </r>
       <r>    0.9474    1.0000 </r>
       <r>    1.0318    1.0000 </r>
       <r>    1.0813    1.0000 </r>
       <r>    2.4807    1.0000 </r>
       <r>    6.2051    0.0000 </r>
       <r>    6.2185    0.0000 </r>
       <r>    6.6442    0.0000 </r>
       <r>   10.5938    0.0000 </r>
      </set>
      <set comment="kpoint 16">
       <r>  -30.0760    1.0000 </r>
       <r>  -14.8097    1.0000 </r>
       <r>  -13.8382    1.0000 </r>
       <r>  -13.8382    1.0000 </r>
       <r>  -12.0999    1.0000 </r>
       <r>  -12.0999    1.0000 </r>
       <r>  -11.9840    1.0000 </r>
       <r>   -0.6006    1.0000 </r>
       <r>   -0.2869    1.0000 </r>
       <r>   -0.2869    1.0000 </r>
       <r>    0.8553    1.0000 </r>
       <r>    0.8553    1.0000 </r>
       <r>    1.5406    1.0000 </r>
       <r>    1.5966    1.0000 </r>
       <r>    1.9530    1.0000 </r>
       <r>    1.9530    1.0000 </r>
       <r>    4.7938    0.0000 </r>
       <r>    4.8745    0.0000 </r>
       <r>    4.8745    0.0000 </r>
       <r>    8.6340    0.0000 </r>
      </set>
      <set comment="kpoint 17">
       <r>  -30.0693    1.0000 </r>
       <r>  -14.8089    1.0000 </r>
       <r>  -13.8590    1.0000 </r>
       <r>  -13.8103    1.0000 </r>
       <r>  -12.1112    1.0000 </r>
       <r>  -12.0479    1.0000 </r>
       <r>  -11.8554    1.0000 </r>
       <r>   -0.9240    1.0000 </r>
       <r>   -0.4239    1.0000 </r>
       <r>   -0.2978    1.0000 </r>
       <r>    0.4093    1.0000 </r>
       <r>    0.4589    1.0000 </r>
       <r>    1.1657    1.0000 </r>
       <r>    1.5734    1.0000 </r>
       <r>    1.7121    1.0000 </r>
       <r>    1.8404    1.0000 </r>
       <r>    4.8797    0.0000 </r>
       <r>    5.3345    0.0000 </r>
       <r>    5.3453    0.0000 </r>
       <r>    9.4233    0.0000 </r>
      </set>
      <set comment="kpoint 18">
       <r>  -30.0616    1.0000 </r>
       <r>  -14.8535    1.0000 </r>
       <r>  -13.8038    1.0000 </r>
       <r>  -13.7778    1.0000 </r>
       <r>  -12.1250    1.0000 </r>
       <r>  -12.0047    1.0000 </r>
       <r>  -11.7177    1.0000 </r>
       <r>   -1.3552    1.0000 </r>
       <r>   -0.5743    1.0000 </r>
       <r>   -0.3017    1.0000 </r>
       <r>   -0.0651    1.0000 </r>
       <r>    0.0478    1.0000 </r>
       <r>    1.0399    1.0000 </r>
       <r>    1.4201    1.0000 </r>
       <r>    1.5013    1.0000 </r>
       <r>    1.7372    1.0000 </r>
       <r>    4.9281    0.0000 </r>
       <r>    5.8743    0.0000 </r>
       <r>    5.8795    0.0000 </r>
       <r>    9.6864    0.0000 </r>
      </set>
      <set comment="kpoint 19">
       <r>  -30.0566    1.0000 </r>
       <r>  -14.9012    1.0000 </r>
       <r>  -13.7558    1.0000 </r>
       <r>  -13.7331    1.0000 </r>
       <r>  -12.1346    1.0000 </r>
       <r>  -11.9776    1.0000 </r>
       <r>  -11.6373    1.0000 </r>
       <r>   -1.6758    1.0000 </r>
       <r>   -0.6595    1.0000 </r>
       <r>   -0.3641    1.0000 </r>
       <r>   -0.2759    1.0000 </r>
       <r>   -0.1746    1.0000 </r>
       <r>    1.0374    1.0000 </r>
       <r>    1.2941    1.0000 </r>
       <r>    1.3507    1.0000 </r>
       <r>    1.6816    1.0000 </r>
       <r>    4.9588    0.0000 </r>
       <r>    6.2159    0.0000 </r>
       <r>    6.2294    0.0000 </r>
       <r>   10.1458    0.0000 </r>
      </set>
      <set comment="kpoint 20">
       <r>  -30.0629    1.0000 </r>
       <r>  -14.7464    1.0000 </r>
       <r>  -13.9068    1.0000 </r>
       <r>  -13.7855    1.0000 </r>
       <r>  -12.1046    1.0000 </r>
       <r>  -11.9982    1.0000 </r>
       <r>  -11.8059    1.0000 </r>
       <r>   -1.1290    1.0000 </r>
       <r>   -0.6152    1.0000 </r>
       <r>   -0.3628    1.0000 </r>
       <r>   -0.1105    1.0000 </r>
       <r>    0.2932    1.0000 </r>
       <r>    0.7982    1.0000 </r>
       <r>    1.5648    1.0000 </r>
       <r>    1.6403    1.0000 </r>
       <r>    1.8243    1.0000 </r>
       <r>    5.3137    0.0000 </r>
       <r>    5.4286    0.0000 </r>
       <r>    5.6136    0.0000 </r>
       <r>    9.6202    0.0000 </r>
      </set>
      <set comment="kpoint 21">
       <r>  -30.0556    1.0000 </r>
       <r>  -14.7189    1.0000 </r>
       <r>  -13.9016    1.0000 </r>
       <r>  -13.7470    1.0000 </r>
       <r>  -12.1237    1.0000 </r>
       <r>  -11.9380    1.0000 </r>
       <r>  -11.7444    1.0000 </r>
       <r>   -1.4317    1.0000 </r>
       <r>   -0.9127    1.0000 </r>
       <r>   -0.5459    1.0000 </r>
       <r>   -0.3886    1.0000 </r>
       <r>   -0.0210    1.0000 </r>
       <r>    0.7405    1.0000 </r>
       <r>    1.3841    1.0000 </r>
       <r>    1.5347    1.0000 </r>
       <r>    1.8769    1.0000 </r>
       <r>    5.4054    0.0000 </r>
       <r>    5.9052    0.0000 </r>
       <r>    6.0131    0.0000 </r>
       <r>    9.9824    0.0000 </r>
      </set>
      <set comment="kpoint 22">
       <r>  -30.0508    1.0000 </r>
       <r>  -14.7291    1.0000 </r>
       <r>  -13.8410    1.0000 </r>
       <r>  -13.7381    1.0000 </r>
       <r>  -12.1441    1.0000 </r>
       <r>  -11.8937    1.0000 </r>
       <r>  -11.7085    1.0000 </r>
       <r>   -1.6962    1.0000 </r>
       <r>   -1.1621    1.0000 </r>
       <r>   -0.6872    1.0000 </r>
       <r>   -0.3699    1.0000 </r>
       <r>   -0.2513    1.0000 </r>
       <r>    0.8284    1.0000 </r>
       <r>    1.2009    1.0000 </r>
       <r>    1.4888    1.0000 </r>
       <r>    1.8591    1.0000 </r>
       <r>    5.4344    0.0000 </r>
       <r>    6.2398    0.0000 </r>
       <r>    6.3107    0.0000 </r>
       <r>   10.4136    0.0000 </r>
      </set>
      <set comment="kpoint 23">
       <r>  -30.0486    1.0000 </r>
       <r>  -14.5669    1.0000 </r>
       <r>  -13.9755    1.0000 </r>
       <r>  -13.7352    1.0000 </r>
       <r>  -12.1170    1.0000 </r>
       <r>  -11.8880    1.0000 </r>
       <r>  -11.7571    1.0000 </r>
       <r>   -1.5976    1.0000 </r>
       <r>   -1.1651    1.0000 </r>
       <r>   -1.1493    1.0000 </r>
       <r>   -0.4349    1.0000 </r>
       <r>   -0.1571    1.0000 </r>
       <r>    0.5941    1.0000 </r>
       <r>    1.3333    1.0000 </r>
       <r>    1.4012    1.0000 </r>
       <r>    2.1749    1.0000 </r>
       <r>    5.8854    0.0000 </r>
       <r>    5.9696    0.0000 </r>
       <r>    6.2711    0.0000 </r>
       <r>   10.4251    0.0000 </r>
      </set>
      <set comment="kpoint 24">
       <r>  -30.0441    1.0000 </r>
       <r>  -14.4855    1.0000 </r>
       <r>  -13.9553    1.0000 </r>
       <r>  -13.7735    1.0000 </r>
       <r>  -12.1203    1.0000 </r>
       <r>  -11.8417    1.0000 </r>
       <r>  -11.7695    1.0000 </r>
       <r>   -1.7506    1.0000 </r>
       <r>   -1.5854    1.0000 </r>
       <r>   -1.2251    1.0000 </r>
       <r>   -0.4173    1.0000 </r>
       <r>   -0.3200    1.0000 </r>
       <r>    0.6138    1.0000 </r>
       <r>    1.2582    1.0000 </r>
       <r>    1.3676    1.0000 </r>
       <r>    2.2918    1.0000 </r>
       <r>    5.9437    0.0000 </r>
       <r>    6.2597    0.0000 </r>
       <r>    6.4950    0.0000 </r>
       <r>   10.7415    0.0000 </r>
      </set>
      <set comment="kpoint 25">
       <r>  -30.0398    1.0000 </r>
       <r>  -14.2472    1.0000 </r>
       <r>  -14.0165    1.0000 </r>
       <r>  -13.8926    1.0000 </r>
       <r>  -12.0958    1.0000 </r>
       <r>  -11.8176    1.0000 </r>
       <r>  -11.7974    1.0000 </r>
       <r>   -1.8719    1.0000 </r>
       <r>   -1.8184    1.0000 </r>
       <r>   -1.5251    1.0000 </r>
       <r>   -0.4281    1.0000 </r>
       <r>   -0.3913    1.0000 </r>
       <r>    0.5405    1.0000 </r>
       <r>    1.3085    1.0000 </r>
       <r>    1.3375    1.0000 </r>
       <r>    2.4902    1.0000 </r>
       <r>    6.2640    0.0000 </r>
       <r>    6.2772    0.0000 </r>
       <r>    6.6685    0.0000 </r>
       <r>   10.4749    0.0000 </r>
      </set>
      <set comment="kpoint 26">
       <r>  -30.0567    1.0000 </r>
       <r>  -14.6556    1.0000 </r>
       <r>  -13.8434    1.0000 </r>
       <r>  -13.8434    1.0000 </r>
       <r>  -12.0691    1.0000 </r>
       <r>  -12.0691    1.0000 </r>
       <r>  -11.7577    1.0000 </r>
       <r>   -1.2911    1.0000 </r>
       <r>   -0.6159    1.0000 </r>
       <r>   -0.6159    1.0000 </r>
       <r>   -0.1237    1.0000 </r>
       <r>   -0.1237    1.0000 </r>
       <r>    0.1778    1.0000 </r>
       <r>    1.6740    1.0000 </r>
       <r>    1.6740    1.0000 </r>
       <r>    1.9175    1.0000 </r>
       <r>    5.6178    0.0000 </r>
       <r>    5.6900    0.0000 </r>
       <r>    5.6900    0.0000 </r>
       <r>   10.1970    0.0000 </r>
      </set>
      <set comment="kpoint 27">
       <r>  -30.0497    1.0000 </r>
       <r>  -14.5824    1.0000 </r>
       <r>  -13.8671    1.0000 </r>
       <r>  -13.7641    1.0000 </r>
       <r>  -12.1572    1.0000 </r>
       <r>  -11.9867    1.0000 </r>
       <r>  -11.7492    1.0000 </r>
       <r>   -1.4931    1.0000 </r>
       <r>   -0.9754    1.0000 </r>
       <r>   -0.6364    1.0000 </r>
       <r>   -0.5491    1.0000 </r>
       <r>   -0.4175    1.0000 </r>
       <r>    0.1115    1.0000 </r>
       <r>    1.6332    1.0000 </r>
       <r>    1.6987    1.0000 </r>
       <r>    1.9846    1.0000 </r>
       <r>    5.7202    0.0000 </r>
       <r>    6.0596    0.0000 </r>
       <r>    6.0725    0.0000 </r>
       <r>   10.3089    0.0000 </r>
      </set>
      <set comment="kpoint 28">
       <r>  -30.0451    1.0000 </r>
       <r>  -14.5600    1.0000 </r>
       <r>  -13.8494    1.0000 </r>
       <r>  -13.7071    1.0000 </r>
       <r>  -12.2200    1.0000 </r>
       <r>  -11.8896    1.0000 </r>
       <r>  -11.7892    1.0000 </r>
       <r>   -1.7064    1.0000 </r>
       <r>   -1.2202    1.0000 </r>
       <r>   -0.7678    1.0000 </r>
       <r>   -0.7010    1.0000 </r>
       <r>   -0.5148    1.0000 </r>
       <r>    0.1729    1.0000 </r>
       <r>    1.6050    1.0000 </r>
       <r>    1.6855    1.0000 </r>
       <r>    1.9714    1.0000 </r>
       <r>    5.7587    0.0000 </r>
       <r>    6.3439    0.0000 </r>
       <r>    6.3668    0.0000 </r>
       <r>   10.6683    0.0000 </r>
      </set>
      <set comment="kpoint 29">
       <r>  -30.0429    1.0000 </r>
       <r>  -14.4223    1.0000 </r>
       <r>  -13.8788    1.0000 </r>
       <r>  -13.7302    1.0000 </r>
       <r>  -12.1846    1.0000 </r>
       <r>  -12.0194    1.0000 </r>
       <r>  -11.7860    1.0000 </r>
       <r>   -1.5878    1.0000 </r>
       <r>   -1.1405    1.0000 </r>
       <r>   -1.0544    1.0000 </r>
       <r>   -0.7471    1.0000 </r>
       <r>   -0.5236    1.0000 </r>
       <r>   -0.1972    1.0000 </r>
       <r>    1.6896    1.0000 </r>
       <r>    1.7920    1.0000 </r>
       <r>    2.2068    1.0000 </r>
       <r>    6.0953    0.0000 </r>
       <r>    6.1467    0.0000 </r>
       <r>    6.3315    0.0000 </r>
       <r>   10.4964    0.0000 </r>
      </set>
      <set comment="kpoint 30">
       <r>  -30.0385    1.0000 </r>
       <r>  -14.3227    1.0000 </r>
       <r>  -13.8784    1.0000 </r>
       <r>  -13.7048    1.0000 </r>
       <r>  -12.2368    1.0000 </r>
       <r>  -11.9552    1.0000 </r>
       <r>  -11.8614    1.0000 </r>
       <r>   -1.7334    1.0000 </r>
       <r>   -1.4347    1.0000 </r>
       <r>   -1.2058    1.0000 </r>
       <r>   -0.7639    1.0000 </r>
       <r>   -0.6545    1.0000 </r>
       <r>   -0.1929    1.0000 </r>
       <r>    1.7238    1.0000 </r>
       <r>    1.8003    1.0000 </r>
       <r>    2.3163    1.0000 </r>
       <r>    6.1566    0.0000 </r>
       <r>    6.4052    0.0000 </r>
       <r>    6.5542    0.0000 </r>
       <r>   10.5406    0.0000 </r>
      </set>
      <set comment="kpoint 31">
       <r>  -30.0343    1.0000 </r>
       <r>  -14.0916    1.0000 </r>
       <r>  -13.9010    1.0000 </r>
       <r>  -13.7834    1.0000 </r>
       <r>  -12.2148    1.0000 </r>
       <r>  -11.9854    1.0000 </r>
       <r>  -11.9390    1.0000 </r>
       <r>   -1.8298    1.0000 </r>
       <r>   -1.6007    1.0000 </r>
       <r>   -1.5194    1.0000 </r>
       <r>   -0.7454    1.0000 </r>
       <r>   -0.7072    1.0000 </r>
       <r>   -0.2979    1.0000 </r>
       <r>    1.8027    1.0000 </r>
       <r>    1.8295    1.0000 </r>
       <r>    2.5154    1.0000 </r>
       <r>    6.4323    0.0000 </r>
       <r>    6.4422    0.0000 </r>
       <r>    6.7308    0.0000 </r>
       <r>   10.2421    0.0000 </r>
      </set>
      <set comment="kpoint 32">
       <r>  -30.0364    1.0000 </r>
       <r>  -14.2404    1.0000 </r>
       <r>  -13.7499    1.0000 </r>
       <r>  -13.7499    1.0000 </r>
       <r>  -12.1878    1.0000 </r>
       <r>  -12.1878    1.0000 </r>
       <r>  -11.8735    1.0000 </r>
       <r>   -1.5961    1.0000 </r>
       <r>   -1.1276    1.0000 </r>
       <r>   -1.1276    1.0000 </r>
       <r>   -0.9698    1.0000 </r>
       <r>   -0.8087    1.0000 </r>
       <r>   -0.8087    1.0000 </r>
       <r>    2.0072    1.0000 </r>
       <r>    2.0072    1.0000 </r>
       <r>    2.3087    1.0000 </r>
       <r>    6.3746    0.0000 </r>
       <r>    6.4120    0.0000 </r>
       <r>    6.4120    0.0000 </r>
       <r>   10.3656    0.0000 </r>
      </set>
      <set comment="kpoint 33">
       <r>  -30.0322    1.0000 </r>
       <r>  -14.0995    1.0000 </r>
       <r>  -13.7892    1.0000 </r>
       <r>  -13.6488    1.0000 </r>
       <r>  -12.3144    1.0000 </r>
       <r>  -12.1177    1.0000 </r>
       <r>  -11.9914    1.0000 </r>
       <r>   -1.7387    1.0000 </r>
       <r>   -1.3277    1.0000 </r>
       <r>   -1.2004    1.0000 </r>
       <r>   -1.1119    1.0000 </r>
       <r>   -0.9649    1.0000 </r>
       <r>   -0.7578    1.0000 </r>
       <r>    2.0683    1.0000 </r>
       <r>    2.1729    1.0000 </r>
       <r>    2.3989    1.0000 </r>
       <r>    6.4440    0.0000 </r>
       <r>    6.6090    0.0000 </r>
       <r>    6.6340    0.0000 </r>
       <r>   10.2622    0.0000 </r>
      </set>
      <set comment="kpoint 34">
       <r>  -30.0280    1.0000 </r>
       <r>  -13.8869    1.0000 </r>
       <r>  -13.7414    1.0000 </r>
       <r>  -13.6591    1.0000 </r>
       <r>  -12.3317    1.0000 </r>
       <r>  -12.2037    1.0000 </r>
       <r>  -12.1304    1.0000 </r>
       <r>   -1.8373    1.0000 </r>
       <r>   -1.5126    1.0000 </r>
       <r>   -1.3223    1.0000 </r>
       <r>   -1.1377    1.0000 </r>
       <r>   -0.9560    1.0000 </r>
       <r>   -0.9534    1.0000 </r>
       <r>    2.2584    1.0000 </r>
       <r>    2.2785    1.0000 </r>
       <r>    2.5467    1.0000 </r>
       <r>    6.6625    0.0000 </r>
       <r>    6.6693    0.0000 </r>
       <r>    6.8032    0.0000 </r>
       <r>    9.8231    0.0000 </r>
      </set>
      <set comment="kpoint 35">
       <r>  -30.0239    1.0000 </r>
       <r>  -13.7024    1.0000 </r>
       <r>  -13.6089    1.0000 </r>
       <r>  -13.6089    1.0000 </r>
       <r>  -12.3742    1.0000 </r>
       <r>  -12.3742    1.0000 </r>
       <r>  -12.2992    1.0000 </r>
       <r>   -1.9290    1.0000 </r>
       <r>   -1.5079    1.0000 </r>
       <r>   -1.5079    1.0000 </r>
       <r>   -1.1558    1.0000 </r>
       <r>   -1.0869    1.0000 </r>
       <r>   -1.0869    1.0000 </r>
       <r>    2.5266    1.0000 </r>
       <r>    2.5266    1.0000 </r>
       <r>    2.5819    1.0000 </r>
       <r>    6.8535    0.0000 </r>
       <r>    9.7012    0.0000 </r>
       <r>    9.7233    0.0000 </r>
       <r>    9.7405    0.0000 </r>
      </set>
     </set>
    </set>
   </array>
  </eigenvalues>
  <separator name="orbital magnetization" >
   <v name="MAGDIPOLOUT">      0.00000000      0.00000000      0.00000000</v>
  </separator>
  <dos>
   <i name="efermi">      2.66077448 </i>
   <total>
    <array>
     <dimension dim="1">gridpoints</dimension>
     <dimension dim="2">spin</dimension>
     <field>energy</field>
     <field>total</field>
     <field>integrated</field>
     <set>
      <set comment="spin 1">
       <r>   -32.1266     0.0000     0.0000 </r>
       <r>   -31.9768     0.0000     0.0000 </r>
       <r>   -31.8270     0.0000     0.0000 </r>
       <r>   -31.6772     0.0000     0.0000 </r>
       <r>   -31.5274     0.0000     0.0000 </r>
       <r>   -31.3777     0.0000     0.0000 </r>
       <r>   -31.2279     0.0000     0.0000 </r>
       <r>   -31.0781     0.0000     0.0000 </r>
       <r>   -30.9283     0.0000     0.0000 </r>
       <r>   -30.7785     0.0000     0.0000 </r>
       <r>   -30.6287     0.0000     0.0000 </r>
       <r>   -30.4790     0.0000     0.0000 </r>
       <r>   -30.3292     0.0000     0.0000 </r>
       <r>   -30.1794     0.0000     0.0000 </r>
       <r>   -30.0296    16.1733     1.9374 </r>
       <r>   -29.8798     0.0000     2.0000 </r>
       <r>   -29.7300     0.0000     2.0000 </r>
       <r>   -29.5802     0.0000     2.0000 </r>
       <r>   -29.4305     0.0000     2.0000 </r>
       <r>   -29.2807     0.0000     2.0000 </r>
       <r>   -29.1309     0.0000     2.0000 </r>
       <r>   -28.9811     0.0000     2.0000 </r>
       <r>   -28.8313     0.0000     2.0000 </r>
       <r>   -28.6815     0.0000     2.0000 </r>
       <r>   -28.5318     0.0000     2.0000 </r>
       <r>   -28.3820     0.0000     2.0000 </r>
       <r>   -28.2322     0.0000     2.0000 </r>
       <r>   -28.0824     0.0000     2.0000 </r>
       <r>   -27.9326     0.0000     2.0000 </r>
       <r>   -27.7828     0.0000     2.0000 </r>
       <r>   -27.6331     0.0000     2.0000 </r>
       <r>   -27.4833     0.0000     2.0000 </r>
       <r>   -27.3335     0.0000     2.0000 </r>
       <r>   -27.1837     0.0000     2.0000 </r>
       <r>   -27.0339     0.0000     2.0000 </r>
       <r>   -26.8841     0.0000     2.0000 </r>
       <r>   -26.7344     0.0000     2.0000 </r>
       <r>   -26.5846     0.0000     2.0000 </r>
       <r>   -26.4348     0.0000     2.0000 </r>
       <r>   -26.2850     0.0000     2.0000 </r>
       <r>   -26.1352     0.0000     2.0000 </r>
       <r>   -25.9854     0.0000     2.0000 </r>
       <r>   -25.8356     0.0000     2.0000 </r>
       <r>   -25.6859     0.0000     2.0000 </r>
       <r>   -25.5361     0.0000     2.0000 </r>
       <r>   -25.3863     0.0000     2.0000 </r>
       <r>   -25.2365     0.0000     2.0000 </r>
       <r>   -25.0867     0.0000     2.0000 </r>
       <r>   -24.9369     0.0000     2.0000 </r>
       <r>   -24.7872     0.0000     2.0000 </r>
       <r>   -24.6374     0.0000     2.0000 </r>
       <r>   -24.4876     0.0000     2.0000 </r>
       <r>   -24.3378     0.0000     2.0000 </r>
       <r>   -24.1880     0.0000     2.0000 </r>
       <r>   -24.0382     0.0000     2.0000 </r>
       <r>   -23.8885     0.0000     2.0000 </r>
       <r>   -23.7387     0.0000     2.0000 </r>
       <r>   -23.5889     0.0000     2.0000 </r>
       <r>   -23.4391     0.0000     2.0000 </r>
       <r>   -23.2893     0.0000     2.0000 </r>
       <r>   -23.1395     0.0000     2.0000 </r>
       <r>   -22.9897     0.0000     2.0000 </r>
       <r>   -22.8400     0.0000     2.0000 </r>
       <r>   -22.6902     0.0000     2.0000 </r>
       <r>   -22.5404     0.0000     2.0000 </r>
       <r>   -22.3906     0.0000     2.0000 </r>
       <r>   -22.2408     0.0000     2.0000 </r>
       <r>   -22.0910     0.0000     2.0000 </r>
       <r>   -21.9413     0.0000     2.0000 </r>
       <r>   -21.7915     0.0000     2.0000 </r>
       <r>   -21.6417     0.0000     2.0000 </r>
       <r>   -21.4919     0.0000     2.0000 </r>
       <r>   -21.3421     0.0000     2.0000 </r>
       <r>   -21.1923     0.0000     2.0000 </r>
       <r>   -21.0426     0.0000     2.0000 </r>
       <r>   -20.8928     0.0000     2.0000 </r>
       <r>   -20.7430     0.0000     2.0000 </r>
       <r>   -20.5932     0.0000     2.0000 </r>
       <r>   -20.4434     0.0000     2.0000 </r>
       <r>   -20.2936     0.0000     2.0000 </r>
       <r>   -20.1439     0.0000     2.0000 </r>
       <r>   -19.9941     0.0000     2.0000 </r>
       <r>   -19.8443     0.0000     2.0000 </r>
       <r>   -19.6945     0.0000     2.0000 </r>
       <r>   -19.5447     0.0000     2.0000 </r>
       <r>   -19.3949     0.0000     2.0000 </r>
       <r>   -19.2451     0.0000     2.0000 </r>
       <r>   -19.0954     0.0000     2.0000 </r>
       <r>   -18.9456     0.0000     2.0000 </r>
       <r>   -18.7958     0.0000     2.0000 </r>
       <r>   -18.6460     0.0000     2.0000 </r>
       <r>   -18.4962     0.0000     2.0000 </r>
       <r>   -18.3464     0.0000     2.0000 </r>
       <r>   -18.1967     0.0000     2.0000 </r>
       <r>   -18.0469     0.0000     2.0000 </r>
       <r>   -17.8971     0.0000     2.0000 </r>
       <r>   -17.7473     0.0000     2.0000 </r>
       <r>   -17.5975     0.0000     2.0000 </r>
       <r>   -17.4477     0.0000     2.0000 </r>
       <r>   -17.2980     0.0000     2.0000 </r>
       <r>   -17.1482     0.0000     2.0000 </r>
       <r>   -16.9984     0.0000     2.0000 </r>
       <r>   -16.8486     0.0000     2.0000 </r>
       <r>   -16.6988     0.0000     2.0000 </r>
       <r>   -16.5490     0.0000     2.0000 </r>
       <r>   -16.3993     0.0000     2.0000 </r>
       <r>   -16.2495     0.0000     2.0000 </r>
       <r>   -16.0997     0.0000     2.0000 </r>
       <r>   -15.9499     0.0000     2.0000 </r>
       <r>   -15.8001     0.0000     2.0000 </r>
       <r>   -15.6503     0.0000     2.0000 </r>
       <r>   -15.5005     0.0000     2.0000 </r>
       <r>   -15.3508     0.0000     2.0000 </r>
       <r>   -15.2010     0.0000     2.0000 </r>
       <r>   -15.0512     0.0000     2.0000 </r>
       <r>   -14.9014     1.9115     2.1212 </r>
       <r>   -14.7516     3.5820     2.7261 </r>
       <r>   -14.6018     2.2757     3.1318 </r>
       <r>   -14.4521     1.7373     3.4361 </r>
       <r>   -14.3023     1.5928     3.6655 </r>
       <r>   -14.1525     0.7702     3.8282 </r>
       <r>   -14.0027     2.8276     3.9895 </r>
       <r>   -13.8529    16.4788     5.2574 </r>
       <r>   -13.7031     5.8627     7.7359 </r>
       <r>   -13.5534     0.0000     8.0000 </r>
       <r>   -13.4036     0.0000     8.0000 </r>
       <r>   -13.2538     0.0000     8.0000 </r>
       <r>   -13.1040     0.0000     8.0000 </r>
       <r>   -12.9542     0.0000     8.0000 </r>
       <r>   -12.8044     0.0000     8.0000 </r>
       <r>   -12.6546     0.0000     8.0000 </r>
       <r>   -12.5049     0.0000     8.0000 </r>
       <r>   -12.3551     1.0003     8.0194 </r>
       <r>   -12.2053     4.7912     8.3991 </r>
       <r>   -12.0555     8.5780    10.4729 </r>
       <r>   -11.9057     9.8223    11.8133 </r>
       <r>   -11.7559    17.2275    13.1856 </r>
       <r>   -11.6062     1.4110    13.9807 </r>
       <r>   -11.4564     0.0000    14.0000 </r>
       <r>   -11.3066     0.0000    14.0000 </r>
       <r>   -11.1568     0.0000    14.0000 </r>
       <r>   -11.0070     0.0000    14.0000 </r>
       <r>   -10.8572     0.0000    14.0000 </r>
       <r>   -10.7075     0.0000    14.0000 </r>
       <r>   -10.5577     0.0000    14.0000 </r>
       <r>   -10.4079     0.0000    14.0000 </r>
       <r>   -10.2581     0.0000    14.0000 </r>
       <r>   -10.1083     0.0000    14.0000 </r>
       <r>    -9.9585     0.0000    14.0000 </r>
       <r>    -9.8088     0.0000    14.0000 </r>
       <r>    -9.6590     0.0000    14.0000 </r>
       <r>    -9.5092     0.0000    14.0000 </r>
       <r>    -9.3594     0.0000    14.0000 </r>
       <r>    -9.2096     0.0000    14.0000 </r>
       <r>    -9.0598     0.0000    14.0000 </r>
       <r>    -8.9100     0.0000    14.0000 </r>
       <r>    -8.7603     0.0000    14.0000 </r>
       <r>    -8.6105     0.0000    14.0000 </r>
       <r>    -8.4607     0.0000    14.0000 </r>
       <r>    -8.3109     0.0000    14.0000 </r>
       <r>    -8.1611     0.0000    14.0000 </r>
       <r>    -8.0113     0.0000    14.0000 </r>
       <r>    -7.8616     0.0000    14.0000 </r>
       <r>    -7.7118     0.0000    14.0000 </r>
       <r>    -7.5620     0.0000    14.0000 </r>
       <r>    -7.4122     0.0000    14.0000 </r>
       <r>    -7.2624     0.0000    14.0000 </r>
       <r>    -7.1126     0.0000    14.0000 </r>
       <r>    -6.9629     0.0000    14.0000 </r>
       <r>    -6.8131     0.0000    14.0000 </r>
       <r>    -6.6633     0.0000    14.0000 </r>
       <r>    -6.5135     0.0000    14.0000 </r>
       <r>    -6.3637     0.0000    14.0000 </r>
       <r>    -6.2139     0.0000    14.0000 </r>
       <r>    -6.0641     0.0000    14.0000 </r>
       <r>    -5.9144     0.0000    14.0000 </r>
       <r>    -5.7646     0.0000    14.0000 </r>
       <r>    -5.6148     0.0000    14.0000 </r>
       <r>    -5.4650     0.0000    14.0000 </r>
       <r>    -5.3152     0.0000    14.0000 </r>
       <r>    -5.1654     0.0000    14.0000 </r>
       <r>    -5.0157     0.0000    14.0000 </r>
       <r>    -4.8659     0.0000    14.0000 </r>
       <r>    -4.7161     0.0000    14.0000 </r>
       <r>    -4.5663     0.0000    14.0000 </r>
       <r>    -4.4165     0.0000    14.0000 </r>
       <r>    -4.2667     0.0000    14.0000 </r>
       <r>    -4.1170     0.0000    14.0000 </r>
       <r>    -3.9672     0.0000    14.0000 </r>
       <r>    -3.8174     0.0000    14.0000 </r>
       <r>    -3.6676     0.0000    14.0000 </r>
       <r>    -3.5178     0.0000    14.0000 </r>
       <r>    -3.3680     0.0000    14.0000 </r>
       <r>    -3.2183     0.0000    14.0000 </r>
       <r>    -3.0685     0.0000    14.0000 </r>
       <r>    -2.9187     0.0000    14.0000 </r>
       <r>    -2.7689     0.0000    14.0000 </r>
       <r>    -2.6191     0.0000    14.0000 </r>
       <r>    -2.4693     0.0000    14.0000 </r>
       <r>    -2.3195     0.0000    14.0000 </r>
       <r>    -2.1698     0.0000    14.0000 </r>
       <r>    -2.0200     0.0000    14.0000 </r>
       <r>    -1.8702     1.3820    14.0587 </r>
       <r>    -1.7204     6.5599    14.6295 </r>
       <r>    -1.5706     3.5618    15.3872 </r>
       <r>    -1.4208     4.4337    16.0556 </r>
       <r>    -1.2711     4.1525    16.6973 </r>
       <r>    -1.1213     4.5424    17.3671 </r>
       <r>    -0.9715     4.3309    17.9682 </r>
       <r>    -0.8217     4.2428    18.6070 </r>
       <r>    -0.6719     4.7561    19.2880 </r>
       <r>    -0.5221     5.9849    20.0900 </r>
       <r>    -0.3724     7.8045    21.0718 </r>
       <r>    -0.2226     5.8851    22.5660 </r>
       <r>    -0.0728     3.0305    23.1036 </r>
       <r>     0.0770     2.4835    23.5103 </r>
       <r>     0.2268     2.0733    23.8511 </r>
       <r>     0.3766     1.8180    24.1455 </r>
       <r>     0.5264     1.7767    24.4125 </r>
       <r>     0.6761     2.8650    24.7363 </r>
       <r>     0.8259     4.0390    25.2984 </r>
       <r>     0.9757     1.5837    25.6803 </r>
       <r>     1.1255     2.4539    25.9122 </r>
       <r>     1.2753     5.6928    26.5965 </r>
       <r>     1.4251     5.8527    27.3724 </r>
       <r>     1.5748     6.3246    28.2883 </r>
       <r>     1.7246     4.4347    29.0555 </r>
       <r>     1.8744     7.1283    30.0444 </r>
       <r>     2.0242     3.3204    30.7230 </r>
       <r>     2.1740     2.4250    31.1488 </r>
       <r>     2.3238     2.5812    31.5153 </r>
       <r>     2.4735     1.7572    31.8380 </r>
       <r>     2.6233     0.0000    32.0000 </r>
       <r>     2.7731     0.0000    32.0000 </r>
       <r>     2.9229     0.0000    32.0000 </r>
       <r>     3.0727     0.0000    32.0000 </r>
       <r>     3.2225     0.0000    32.0000 </r>
       <r>     3.3722     0.0000    32.0000 </r>
       <r>     3.5220     0.0000    32.0000 </r>
       <r>     3.6718     0.0000    32.0000 </r>
       <r>     3.8216     0.0000    32.0000 </r>
       <r>     3.9714     0.0000    32.0000 </r>
       <r>     4.1212     0.0000    32.0000 </r>
       <r>     4.2710     0.0000    32.0000 </r>
       <r>     4.4207     0.1174    32.0049 </r>
       <r>     4.5705     0.5884    32.0522 </r>
       <r>     4.7203     1.2433    32.1957 </r>
       <r>     4.8701     1.1511    32.3834 </r>
       <r>     5.0199     1.2418    32.5581 </r>
       <r>     5.1697     1.4431    32.7592 </r>
       <r>     5.3194     1.8945    33.0013 </r>
       <r>     5.4692     2.0034    33.2940 </r>
       <r>     5.6190     2.1939    33.6079 </r>
       <r>     5.7688     2.4548    33.9542 </r>
       <r>     5.9186     3.6992    34.3931 </r>
       <r>     6.0684     4.3982    34.9881 </r>
       <r>     6.2181    12.7041    35.8176 </r>
       <r>     6.3679     4.3255    36.7760 </r>
       <r>     6.5177     3.1606    37.3206 </r>
       <r>     6.6675     2.4872    37.7438 </r>
       <r>     6.8173     0.1815    37.8919 </r>
       <r>     6.9671     0.0582    37.9073 </r>
       <r>     7.1169     0.0547    37.9158 </r>
       <r>     7.2666     0.0514    37.9237 </r>
       <r>     7.4164     0.0481    37.9312 </r>
       <r>     7.5662     0.0450    37.9382 </r>
       <r>     7.7160     0.0419    37.9447 </r>
       <r>     7.8658     0.0390    37.9507 </r>
       <r>     8.0156     0.0361    37.9563 </r>
       <r>     8.1653     0.0547    37.9625 </r>
       <r>     8.3151     0.1189    37.9753 </r>
       <r>     8.4649     0.1397    37.9954 </r>
       <r>     8.6147     0.1507    38.0169 </r>
       <r>     8.7645     0.1741    38.0413 </r>
       <r>     8.9143     0.1956    38.0689 </r>
       <r>     9.0640     0.2297    38.1005 </r>
       <r>     9.2138     0.2828    38.1386 </r>
       <r>     9.3636     0.3528    38.1860 </r>
       <r>     9.5134     0.5075    38.2481 </r>
       <r>     9.6632     0.6833    38.3391 </r>
       <r>     9.8130     1.2471    38.4807 </r>
       <r>     9.9627     1.2527    38.6409 </r>
       <r>    10.1125     1.3855    38.8528 </r>
       <r>    10.2623     1.6195    39.0705 </r>
       <r>    10.4121     2.1845    39.3569 </r>
       <r>    10.5619     2.3817    39.7252 </r>
       <r>    10.7117     0.9483    39.9659 </r>
       <r>    10.8615     0.0000    40.0000 </r>
       <r>    11.0112     0.0000    40.0000 </r>
       <r>    11.1610     0.0000    40.0000 </r>
       <r>    11.3108     0.0000    40.0000 </r>
       <r>    11.4606     0.0000    40.0000 </r>
       <r>    11.6104     0.0000    40.0000 </r>
       <r>    11.7602     0.0000    40.0000 </r>
       <r>    11.9099     0.0000    40.0000 </r>
       <r>    12.0597     0.0000    40.0000 </r>
       <r>    12.2095     0.0000    40.0000 </r>
       <r>    12.3593     0.0000    40.0000 </r>
       <r>    12.5091     0.0000    40.0000 </r>
       <r>    12.6589     0.0000    40.0000 </r>
       <r>    12.8086     0.0000    40.0000 </r>
      </set>
     </set>
    </array>
   </total>
  </dos>
 </calculation>
 <structure name="finalpos" >
  <crystal>
   <varray name="basis" >
    <v>       3.90526800       0.00000000       0.00000000 </v>
    <v>       0.00000000       3.90526800       0.00000000 </v>
    <v>       0.00000000       0.00000000       3.90526800 </v>
   </varray>
   <i name="volume">     59.55970368 </i>
   <varray name="rec_basis" >
    <v>       0.25606437       0.00000000       0.00000000 </v>
    <v>       0.00000000       0.25606437       0.00000000 </v>
    <v>       0.00000000       0.00000000       0.25606437 </v>
   </varray>
  </crystal>
  <varray name="positions" >
   <v>       0.00000000       0.00000000       0.00000000 </v>
   <v>       0.50000000       0.50000000       0.50000000 </v>
   <v>       0.50000000       0.50000000       0.00000000 </v>
   <v>       0.50000000       0.00000000       0.50000000 </v>
   <v>       0.00000000       0.50000000       0.50000000 </v>
  </varray>
 </structure>
</modeling>
