  20  20   0   0
  0.2477925E+02  0.3946846E-09  0.3946846E-09  0.3181396E-08  0.5000000E-15
  1.000000000000000E-004
  CAR 
 unknown system                          
      9.14839253    -36.95761603  301     -0.18807421      1.00000000
    -36.958  0.0000E+00  0.0000E+00
    -36.804  0.0000E+00  0.0000E+00
    -36.650  0.0000E+00  0.0000E+00
    -36.497  0.0000E+00  0.0000E+00
    -36.343  0.0000E+00  0.0000E+00
    -36.189  0.0000E+00  0.0000E+00
    -36.035  0.0000E+00  0.0000E+00
    -35.882  0.0000E+00  0.0000E+00
    -35.728  0.0000E+00  0.0000E+00
    -35.574  0.0000E+00  0.0000E+00
    -35.421  0.0000E+00  0.0000E+00
    -35.267  0.0000E+00  0.0000E+00
    -35.113  0.0000E+00  0.0000E+00
    -34.960  0.0000E+00  0.0000E+00
    -34.806  0.0000E+00  0.2000E+01
    -34.652  0.0000E+00  0.2000E+01
    -34.499  0.0000E+00  0.2000E+01
    -34.345  0.0000E+00  0.2000E+01
    -34.191  0.0000E+00  0.2000E+01
    -34.038  0.0000E+00  0.2000E+01
    -33.884  0.0000E+00  0.2000E+01
    -33.730  0.5172E+02  0.3709E+01
    -33.577  0.1225E+02  0.6006E+01
    -33.423  0.0000E+00  0.8000E+01
    -33.269  0.0000E+00  0.8000E+01
    -33.115  0.0000E+00  0.8000E+01
    -32.962  0.0000E+00  0.8000E+01
    -32.808  0.0000E+00  0.8000E+01
    -32.654  0.0000E+00  0.8000E+01
    -32.501  0.0000E+00  0.8000E+01
    -32.347  0.0000E+00  0.8000E+01
    -32.193  0.0000E+00  0.8000E+01
    -32.040  0.0000E+00  0.8000E+01
    -31.886  0.0000E+00  0.8000E+01
    -31.732  0.0000E+00  0.8000E+01
    -31.579  0.0000E+00  0.8000E+01
    -31.425  0.0000E+00  0.8000E+01
    -31.271  0.0000E+00  0.8000E+01
    -31.118  0.0000E+00  0.8000E+01
    -30.964  0.0000E+00  0.8000E+01
    -30.810  0.0000E+00  0.8000E+01
    -30.656  0.0000E+00  0.8000E+01
    -30.503  0.0000E+00  0.8000E+01
    -30.349  0.0000E+00  0.8000E+01
    -30.195  0.0000E+00  0.8000E+01
    -30.042  0.0000E+00  0.8000E+01
    -29.888  0.0000E+00  0.8000E+01
    -29.734  0.0000E+00  0.8000E+01
    -29.581  0.0000E+00  0.8000E+01
    -29.427  0.0000E+00  0.8000E+01
    -29.273  0.0000E+00  0.8000E+01
    -29.120  0.0000E+00  0.8000E+01
    -28.966  0.0000E+00  0.8000E+01
    -28.812  0.0000E+00  0.8000E+01
    -28.659  0.0000E+00  0.8000E+01
    -28.505  0.0000E+00  0.8000E+01
    -28.351  0.0000E+00  0.8000E+01
    -28.197  0.0000E+00  0.8000E+01
    -28.044  0.0000E+00  0.8000E+01
    -27.890  0.0000E+00  0.8000E+01
    -27.736  0.0000E+00  0.8000E+01
    -27.583  0.0000E+00  0.8000E+01
    -27.429  0.0000E+00  0.8000E+01
    -27.275  0.0000E+00  0.8000E+01
    -27.122  0.0000E+00  0.8000E+01
    -26.968  0.0000E+00  0.8000E+01
    -26.814  0.0000E+00  0.8000E+01
    -26.661  0.0000E+00  0.8000E+01
    -26.507  0.0000E+00  0.8000E+01
    -26.353  0.0000E+00  0.8000E+01
    -26.200  0.0000E+00  0.8000E+01
    -26.046  0.0000E+00  0.8000E+01
    -25.892  0.0000E+00  0.8000E+01
    -25.738  0.0000E+00  0.8000E+01
    -25.585  0.0000E+00  0.8000E+01
    -25.431  0.0000E+00  0.8000E+01
    -25.277  0.0000E+00  0.8000E+01
    -25.124  0.0000E+00  0.8000E+01
    -24.970  0.0000E+00  0.8000E+01
    -24.816  0.0000E+00  0.8000E+01
    -24.663  0.0000E+00  0.8000E+01
    -24.509  0.0000E+00  0.8000E+01
    -24.355  0.0000E+00  0.8000E+01
    -24.202  0.0000E+00  0.8000E+01
    -24.048  0.0000E+00  0.8000E+01
    -23.894  0.0000E+00  0.8000E+01
    -23.741  0.0000E+00  0.8000E+01
    -23.587  0.0000E+00  0.8000E+01
    -23.433  0.0000E+00  0.8000E+01
    -23.280  0.0000E+00  0.8000E+01
    -23.126  0.0000E+00  0.8000E+01
    -22.972  0.0000E+00  0.8000E+01
    -22.818  0.0000E+00  0.8000E+01
    -22.665  0.0000E+00  0.8000E+01
    -22.511  0.0000E+00  0.8000E+01
    -22.357  0.0000E+00  0.8000E+01
    -22.204  0.0000E+00  0.8000E+01
    -22.050  0.0000E+00  0.8000E+01
    -21.896  0.0000E+00  0.8000E+01
    -21.743  0.0000E+00  0.8000E+01
    -21.589  0.0000E+00  0.8000E+01
    -21.435  0.0000E+00  0.8000E+01
    -21.282  0.0000E+00  0.8000E+01
    -21.128  0.0000E+00  0.8000E+01
    -20.974  0.0000E+00  0.8000E+01
    -20.821  0.0000E+00  0.8000E+01
    -20.667  0.0000E+00  0.8000E+01
    -20.513  0.0000E+00  0.8000E+01
    -20.359  0.0000E+00  0.8000E+01
    -20.206  0.0000E+00  0.8000E+01
    -20.052  0.0000E+00  0.8000E+01
    -19.898  0.0000E+00  0.8000E+01
    -19.745  0.0000E+00  0.8000E+01
    -19.591  0.0000E+00  0.8000E+01
    -19.437  0.0000E+00  0.8000E+01
    -19.284  0.0000E+00  0.8000E+01
    -19.130  0.0000E+00  0.8000E+01
    -18.976  0.0000E+00  0.8000E+01
    -18.823  0.0000E+00  0.8000E+01
    -18.669  0.0000E+00  0.8000E+01
    -18.515  0.0000E+00  0.8000E+01
    -18.362  0.9101E+01  0.8280E+01
    -18.208  0.1398E+02  0.1032E+02
    -18.054  0.7111E+01  0.1181E+02
    -17.900  0.4838E+01  0.1292E+02
    -17.747  0.2307E+02  0.1378E+02
    -17.593  0.1190E+02  0.1542E+02
    -17.439  0.1509E+02  0.1803E+02
    -17.286  0.2462E+02  0.2317E+02
    -17.132  0.1422E+02  0.2688E+02
    -16.978  0.5596E+01  0.2877E+02
    -16.825  0.1087E+02  0.3004E+02
    -16.671  0.7780E+02  0.3378E+02
    -16.517  0.1305E-01  0.3600E+02
    -16.364  0.4421E+00  0.3604E+02
    -16.210  0.2336E+01  0.3632E+02
    -16.056  0.5316E+01  0.3683E+02
    -15.903  0.8799E+01  0.3773E+02
    -15.749  0.2573E+02  0.4120E+02
    -15.595  0.3902E+02  0.4618E+02
    -15.441  0.3500E+02  0.5122E+02
    -15.288  0.1528E+02  0.5535E+02
    -15.134  0.0000E+00  0.5600E+02
    -14.980  0.0000E+00  0.5600E+02
    -14.827  0.0000E+00  0.5600E+02
    -14.673  0.0000E+00  0.5600E+02
    -14.519  0.0000E+00  0.5600E+02
    -14.366  0.0000E+00  0.5600E+02
    -14.212  0.0000E+00  0.5600E+02
    -14.058  0.0000E+00  0.5600E+02
    -13.905  0.0000E+00  0.5600E+02
    -13.751  0.0000E+00  0.5600E+02
    -13.597  0.0000E+00  0.5600E+02
    -13.444  0.0000E+00  0.5600E+02
    -13.290  0.0000E+00  0.5600E+02
    -13.136  0.0000E+00  0.5600E+02
    -12.982  0.0000E+00  0.5600E+02
    -12.829  0.0000E+00  0.5600E+02
    -12.675  0.0000E+00  0.5600E+02
    -12.521  0.0000E+00  0.5600E+02
    -12.368  0.0000E+00  0.5600E+02
    -12.214  0.0000E+00  0.5600E+02
    -12.060  0.0000E+00  0.5600E+02
    -11.907  0.0000E+00  0.5600E+02
    -11.753  0.0000E+00  0.5600E+02
    -11.599  0.0000E+00  0.5600E+02
    -11.446  0.0000E+00  0.5600E+02
    -11.292  0.0000E+00  0.5600E+02
    -11.138  0.0000E+00  0.5600E+02
    -10.985  0.0000E+00  0.5600E+02
    -10.831  0.0000E+00  0.5600E+02
    -10.677  0.0000E+00  0.5600E+02
    -10.524  0.0000E+00  0.5600E+02
    -10.370  0.0000E+00  0.5600E+02
    -10.216  0.0000E+00  0.5600E+02
    -10.062  0.0000E+00  0.5600E+02
     -9.909  0.0000E+00  0.5600E+02
     -9.755  0.0000E+00  0.5600E+02
     -9.601  0.0000E+00  0.5600E+02
     -9.448  0.0000E+00  0.5600E+02
     -9.294  0.0000E+00  0.5600E+02
     -9.140  0.0000E+00  0.5600E+02
     -8.987  0.0000E+00  0.5600E+02
     -8.833  0.0000E+00  0.5600E+02
     -8.679  0.0000E+00  0.5600E+02
     -8.526  0.0000E+00  0.5600E+02
     -8.372  0.0000E+00  0.5600E+02
     -8.218  0.0000E+00  0.5600E+02
     -8.065  0.0000E+00  0.5600E+02
     -7.911  0.0000E+00  0.5600E+02
     -7.757  0.0000E+00  0.5600E+02
     -7.603  0.0000E+00  0.5600E+02
     -7.450  0.0000E+00  0.5600E+02
     -7.296  0.0000E+00  0.5600E+02
     -7.142  0.0000E+00  0.5600E+02
     -6.989  0.0000E+00  0.5600E+02
     -6.835  0.0000E+00  0.5600E+02
     -6.681  0.0000E+00  0.5600E+02
     -6.528  0.0000E+00  0.5600E+02
     -6.374  0.0000E+00  0.5600E+02
     -6.220  0.0000E+00  0.5600E+02
     -6.067  0.0000E+00  0.5600E+02
     -5.913  0.0000E+00  0.5600E+02
     -5.759  0.0000E+00  0.5600E+02
     -5.606  0.0000E+00  0.5600E+02
     -5.452  0.0000E+00  0.5600E+02
     -5.298  0.3559E+01  0.5621E+02
     -5.144  0.9988E+01  0.5813E+02
     -4.991  0.1009E+02  0.6068E+02
     -4.837  0.1245E+02  0.6299E+02
     -4.683  0.1478E+02  0.6539E+02
     -4.530  0.1588E+02  0.6795E+02
     -4.376  0.1573E+02  0.7065E+02
     -4.222  0.2006E+02  0.7349E+02
     -4.069  0.2067E+02  0.7652E+02
     -3.915  0.2685E+02  0.8015E+02
     -3.761  0.2412E+02  0.8441E+02
     -3.608  0.1288E+02  0.8702E+02
     -3.454  0.1524E+02  0.8907E+02
     -3.300  0.1268E+02  0.9128E+02
     -3.147  0.1370E+02  0.9331E+02
     -2.993  0.1188E+02  0.9537E+02
     -2.839  0.1146E+02  0.9709E+02
     -2.685  0.1048E+02  0.9858E+02
     -2.532  0.1148E+02  0.1004E+03
     -2.378  0.1030E+02  0.1027E+03
     -2.224  0.1505E+02  0.1052E+03
     -2.071  0.1463E+02  0.1084E+03
     -1.917  0.2507E+02  0.1118E+03
     -1.763  0.2029E+02  0.1157E+03
     -1.610  0.1803E+02  0.1185E+03
     -1.456  0.1879E+02  0.1215E+03
     -1.302  0.1125E+02  0.1241E+03
     -1.149  0.1077E+02  0.1257E+03
     -0.995  0.2147E+01  0.1272E+03
     -0.841  0.1205E+01  0.1274E+03
     -0.688  0.1058E+01  0.1276E+03
     -0.534  0.9923E+00  0.1277E+03
     -0.380  0.7215E+00  0.1279E+03
     -0.226  0.0000E+00  0.1280E+03
     -0.073  0.0000E+00  0.1280E+03
      0.081  0.0000E+00  0.1280E+03
      0.235  0.0000E+00  0.1280E+03
      0.388  0.0000E+00  0.1280E+03
      0.542  0.0000E+00  0.1280E+03
      0.696  0.0000E+00  0.1280E+03
      0.849  0.1485E+01  0.1281E+03
      1.003  0.3912E+01  0.1286E+03
      1.157  0.4999E+01  0.1293E+03
      1.310  0.5502E+01  0.1300E+03
      1.464  0.8431E+01  0.1311E+03
      1.618  0.7491E+01  0.1324E+03
      1.771  0.7570E+01  0.1336E+03
      1.925  0.1041E+02  0.1350E+03
      2.079  0.1141E+02  0.1370E+03
      2.232  0.1236E+02  0.1388E+03
      2.386  0.2024E+02  0.1409E+03
      2.540  0.1776E+02  0.1443E+03
      2.694  0.1171E+02  0.1467E+03
      2.847  0.6228E+01  0.1484E+03
      3.001  0.4256E+00  0.1491E+03
      3.155  0.4244E+00  0.1492E+03
      3.308  0.4232E+00  0.1492E+03
      3.462  0.4220E+00  0.1493E+03
      3.616  0.4207E+00  0.1494E+03
      3.769  0.4195E+00  0.1494E+03
      3.923  0.4183E+00  0.1495E+03
      4.077  0.4170E+00  0.1495E+03
      4.230  0.4158E+00  0.1496E+03
      4.384  0.4146E+00  0.1497E+03
      4.538  0.4327E+00  0.1497E+03
      4.691  0.5106E+00  0.1498E+03
      4.845  0.8012E+00  0.1499E+03
      4.999  0.8147E+00  0.1500E+03
      5.153  0.7727E+00  0.1501E+03
      5.306  0.7073E+00  0.1503E+03
      5.460  0.7053E+00  0.1504E+03
      5.614  0.7034E+00  0.1505E+03
      5.767  0.7020E+00  0.1506E+03
      5.921  0.7471E+00  0.1507E+03
      6.075  0.7922E+00  0.1508E+03
      6.228  0.8373E+00  0.1509E+03
      6.382  0.7449E+00  0.1511E+03
      6.536  0.8872E+00  0.1513E+03
      6.689  0.1072E+01  0.1516E+03
      6.843  0.1042E+01  0.1518E+03
      6.997  0.1013E+01  0.1519E+03
      7.150  0.0000E+00  0.1520E+03
      7.304  0.0000E+00  0.1520E+03
      7.458  0.0000E+00  0.1520E+03
      7.612  0.0000E+00  0.1520E+03
      7.765  0.0000E+00  0.1520E+03
      7.919  0.0000E+00  0.1520E+03
      8.073  0.0000E+00  0.1520E+03
      8.226  0.0000E+00  0.1520E+03
      8.380  0.0000E+00  0.1520E+03
      8.534  0.0000E+00  0.1520E+03
      8.687  0.0000E+00  0.1520E+03
      8.841  0.0000E+00  0.1520E+03
      8.995  0.0000E+00  0.1520E+03
      9.148  0.0000E+00  0.1520E+03
