Starting job 28531582 ("jobname") on c14-5 at Fri Nov 8 10:22:18 CET 2019
 running on    4 total cores
 distrk:  each k-point on    4 cores,    1 groups
 distr:  one band on    2 cores,    2 groups
 using from now: INCAR     
 vasp.5.4.4.18Apr17-6-g9f103f2a35 (build Jun 30 2017 11:15:00) complex          
  
 POSCAR found type information on POSCAR  O  Sr Ti
 POSCAR found :  3 types and      20 ions
 scaLAPACK will be used

 ----------------------------------------------------------------------------- 
|                                                                             |
|  ADVICE TO THIS USER RUNNING 'VASP/VAMP'   (HEAR YOUR MASTER'S VOICE ...):  |
|                                                                             |
|      You have a (more or less) 'large supercell' and for larger cells       |
|      it might be more efficient to use real space projection operators      |
|      So try LREAL= Auto  in the INCAR   file.                               |
|      Mind: If you want to do a very accurate calculations keep the          |
|      reciprocal projection scheme          (i.e. LREAL=.FALSE.)             |
|                                                                             |
 ----------------------------------------------------------------------------- 

 LDA part: xc-table for Pade appr. of Perdew
 POSCAR, INCAR and KPOINTS ok, starting setup
 FFT: planning ...
 WAVECAR not read
 entering main loop
       N       E                     dE             d eps       ncg     rms          rms(c)
DAV:   1     0.158276426938E+04    0.15828E+04   -0.55343E+04  1536   0.146E+03
DAV:   2     0.177778737758E+03   -0.14050E+04   -0.13487E+04  1856   0.377E+02
DAV:   3    -0.176679618316E+03   -0.35446E+03   -0.34789E+03  2060   0.187E+02
DAV:   4    -0.200864811213E+03   -0.24185E+02   -0.24114E+02  1944   0.572E+01
DAV:   5    -0.202306314186E+03   -0.14415E+01   -0.14408E+01  2648   0.126E+01    0.371E+01
RMM:   6    -0.161808260203E+03    0.40498E+02   -0.29520E+02  1678   0.505E+01    0.147E+01
RMM:   7    -0.157754997799E+03    0.40533E+01   -0.14929E+01  1777   0.147E+01    0.728E+00
RMM:   8    -0.157001228154E+03    0.75377E+00   -0.31192E+00  2050   0.610E+00    0.368E+00
RMM:   9    -0.156736626485E+03    0.26460E+00   -0.15581E+00  1982   0.449E+00    0.103E+00
RMM:  10    -0.156688398821E+03    0.48228E-01   -0.25728E-01  2354   0.151E+00    0.717E-01
RMM:  11    -0.156662822711E+03    0.25576E-01   -0.16891E-01  2244   0.108E+00    0.396E-01
RMM:  12    -0.156654099485E+03    0.87232E-02   -0.55020E-02  2338   0.627E-01    0.354E-01
RMM:  13    -0.156647372909E+03    0.67266E-02   -0.19898E-02  2550   0.356E-01    0.219E-01
RMM:  14    -0.156644271603E+03    0.31013E-02   -0.22996E-02  2177   0.406E-01    0.138E-01
RMM:  15    -0.156644677531E+03   -0.40593E-03   -0.70053E-03  2402   0.214E-01    0.781E-02
RMM:  16    -0.156646801509E+03   -0.21240E-02   -0.59766E-03  2256   0.191E-01    0.860E-02
RMM:  17    -0.156648180582E+03   -0.13791E-02   -0.21907E-03  2228   0.121E-01    0.277E-02
RMM:  18    -0.156648651534E+03   -0.47095E-03   -0.68159E-04  2153   0.605E-02    0.212E-02
RMM:  19    -0.156649316226E+03   -0.66469E-03   -0.28146E-04  2072   0.400E-02    0.101E-02
RMM:  20    -0.156649713440E+03   -0.39721E-03   -0.12123E-04  1735   0.266E-02    0.748E-03
RMM:  21    -0.156649889069E+03   -0.17563E-03   -0.76636E-05  1679   0.238E-02    0.548E-03
RMM:  22    -0.156649951454E+03   -0.62385E-04   -0.33361E-05  1360   0.154E-02    0.194E-03
RMM:  23    -0.156650001377E+03   -0.49923E-04   -0.17618E-05  1218   0.108E-02    0.186E-03
RMM:  24    -0.156650030638E+03   -0.29260E-04   -0.11952E-05  1133   0.108E-02    0.245E-03
RMM:  25    -0.156650063844E+03   -0.33207E-04   -0.11058E-05  1115   0.979E-03    0.195E-03
RMM:  26    -0.156650071735E+03   -0.78909E-05   -0.50031E-06  1005   0.700E-03
   1 F= -.15665007E+03 E0= -.15665007E+03  d E =0.000000E+00

Currently Loaded Modulefiles:
  1) intel/2017.4         2) perf-reports/7.0.6

Job script resource usage:
       JobID  MaxVMSize     MaxRSS 
------------ ---------- ---------- 
28531582.ba+    499228K      6075K 

Job step resource usage:
       JobID    JobName  AllocCPUS  MaxVMSize     MaxRSS    Elapsed ExitCode 
------------ ---------- ---------- ---------- ---------- ---------- -------- 
28531582        jobname          4                         00:03:37      0:0 
28531582.0    pmi_proxy          1   1654.50M    475699K   00:03:35      0:0 

Job 28531582 ("jobname") completed on c14-5 at Fri Nov 8 10:25:53 CET 2019
