<?xml version="1.0" encoding="ISO-8859-1"?>
<modeling>
 <generator>
  <i name="program" type="string">vasp </i>
  <i name="version" type="string">5.4.4.18Apr17-6-g9f103f2a35  </i>
  <i name="subversion" type="string">(build Jun 30 2017 11:15:00) complex            parallel </i>
  <i name="platform" type="string">STALLO_VASP_5.4.4 </i>
  <i name="date" type="string">2019 11 08 </i>
  <i name="time" type="string">10:22:19 </i>
 </generator>
 <incar>
  <i type="string" name="PREC">normal    ! low/normal/accurate</i>
  <i type="string" name="ALGO"> Fast      ! Algorithm for electronic re</i>
  <i type="int" name="ISPIN">     1</i>
  <i type="int" name="NELMIN">     4</i>
  <i name="EDIFF">      0.00001000</i>
  <i type="int" name="NSW">     0</i>
  <i name="ENCUT">    500.00000000</i>
  <i type="logical" name="LREAL"> F  </i>
  <i type="int" name="ISMEAR">    -5</i>
  <i name="SIGMA">      0.20000000</i>
  <i type="logical" name="LWAVE"> F  </i>
  <v type="int" name="KPOINT_BSE">    -1     0     0     0</v>
 </incar>
 <structure name="primitive_cell" >
  <crystal>
   <varray name="basis" >
    <v>       3.94684634       0.00000000       0.00000000 </v>
    <v>       0.00000000       3.94684634       0.00000000 </v>
    <v>       0.00000000       0.00000000      31.81396220 </v>
   </varray>
   <i name="volume">    495.58505165 </i>
   <varray name="rec_basis" >
    <v>       0.25336684       0.00000000       0.00000000 </v>
    <v>       0.00000000       0.25336684       0.00000000 </v>
    <v>       0.00000000       0.00000000       0.03143274 </v>
   </varray>
  </crystal>
  <varray name="positions" >
   <v>      -0.50000000      -0.50000000       0.28289466 </v>
   <v>      -0.50000000      -0.50000000       0.34492476 </v>
   <v>      -0.50000000       0.00000000       0.34492476 </v>
   <v>       0.00000000      -0.50000000       0.34492476 </v>
   <v>       0.00000000       0.00000000       0.28289466 </v>
   <v>      -0.50000000      -0.50000000       0.40695485 </v>
   <v>       0.00000000       0.00000000       0.40695485 </v>
   <v>      -0.50000000      -0.50000000       0.46898495 </v>
   <v>      -0.50000000       0.00000000       0.46898495 </v>
   <v>       0.00000000      -0.50000000       0.46898495 </v>
   <v>      -0.50000000      -0.50000000      -0.46898495 </v>
   <v>       0.00000000       0.00000000      -0.46898495 </v>
   <v>      -0.50000000      -0.50000000      -0.40695485 </v>
   <v>      -0.50000000       0.00000000      -0.40695485 </v>
   <v>       0.00000000      -0.50000000      -0.40695485 </v>
   <v>      -0.50000000      -0.50000000      -0.34492476 </v>
   <v>       0.00000000       0.00000000      -0.34492476 </v>
   <v>      -0.50000000      -0.50000000      -0.28289466 </v>
   <v>      -0.50000000       0.00000000      -0.28289466 </v>
   <v>       0.00000000      -0.50000000      -0.28289466 </v>
  </varray>
 </structure>
 <varray name="primitive_index" >
  <v type="int" >        1 </v>
  <v type="int" >       17 </v>
  <v type="int" >        2 </v>
  <v type="int" >        3 </v>
  <v type="int" >       13 </v>
  <v type="int" >        4 </v>
  <v type="int" >       14 </v>
  <v type="int" >       18 </v>
  <v type="int" >        5 </v>
  <v type="int" >        6 </v>
  <v type="int" >        7 </v>
  <v type="int" >       15 </v>
  <v type="int" >       19 </v>
  <v type="int" >        8 </v>
  <v type="int" >        9 </v>
  <v type="int" >       10 </v>
  <v type="int" >       16 </v>
  <v type="int" >       20 </v>
  <v type="int" >       11 </v>
  <v type="int" >       12 </v>
 </varray>
 <kpoints>
  <generation param="Gamma">
   <v type="int" name="divisions">       7        7        1 </v>
   <v name="usershift">      0.00000000       0.00000000       0.00000000 </v>
   <v name="genvec1">      0.14285714       0.00000000       0.00000000 </v>
   <v name="genvec2">      0.00000000       0.14285714       0.00000000 </v>
   <v name="genvec3">      0.00000000       0.00000000       1.00000000 </v>
   <v name="shift">      0.00000000       0.00000000       0.00000000 </v>
  </generation>
  <varray name="kpointlist" >
   <v>       0.00000000       0.00000000       0.00000000 </v>
   <v>       0.14285714       0.00000000       0.00000000 </v>
   <v>       0.28571429       0.00000000       0.00000000 </v>
   <v>       0.42857143       0.00000000       0.00000000 </v>
   <v>       0.14285714       0.14285714       0.00000000 </v>
   <v>       0.28571429       0.14285714       0.00000000 </v>
   <v>       0.42857143       0.14285714       0.00000000 </v>
   <v>       0.28571429       0.28571429       0.00000000 </v>
   <v>       0.42857143       0.28571429       0.00000000 </v>
   <v>       0.42857143       0.42857143       0.00000000 </v>
  </varray>
  <varray name="weights" >
   <v>       0.02040816 </v>
   <v>       0.08163265 </v>
   <v>       0.08163265 </v>
   <v>       0.08163265 </v>
   <v>       0.08163265 </v>
   <v>       0.16326531 </v>
   <v>       0.16326531 </v>
   <v>       0.08163265 </v>
   <v>       0.16326531 </v>
   <v>       0.08163265 </v>
  </varray>
  <varray name="tetrahedronlist"  type="int" >
   <v type="int" >        4        1        1        2        5 </v>
   <v type="int" >        4        1        2        2        5 </v>
   <v type="int" >        4        1        2        5        5 </v>
   <v type="int" >        4        2        2        3        6 </v>
   <v type="int" >        4        2        2        5        6 </v>
   <v type="int" >        4        2        5        5        6 </v>
   <v type="int" >        4        2        3        3        6 </v>
   <v type="int" >        4        2        3        6        6 </v>
   <v type="int" >        4        2        5        6        6 </v>
   <v type="int" >        4        3        3        4        7 </v>
   <v type="int" >        4        3        3        6        7 </v>
   <v type="int" >        4        3        6        6        7 </v>
   <v type="int" >        4        3        4        4        7 </v>
   <v type="int" >        4        3        4        7        7 </v>
   <v type="int" >        4        3        6        7        7 </v>
   <v type="int" >        8        4        4        4        7 </v>
   <v type="int" >        8        4        4        7        7 </v>
   <v type="int" >        8        4        7        7        7 </v>
   <v type="int" >        4        3        4        4        6 </v>
   <v type="int" >        4        4        4        6        7 </v>
   <v type="int" >        4        4        6        7        7 </v>
   <v type="int" >        4        3        3        4        6 </v>
   <v type="int" >        4        3        4        6        6 </v>
   <v type="int" >        4        4        6        6        7 </v>
   <v type="int" >        4        2        3        3        5 </v>
   <v type="int" >        4        3        3        5        6 </v>
   <v type="int" >        4        3        5        6        6 </v>
   <v type="int" >        4        2        2        3        5 </v>
   <v type="int" >        4        2        3        5        5 </v>
   <v type="int" >        4        3        5        5        6 </v>
   <v type="int" >        4        1        2        2        2 </v>
   <v type="int" >        4        2        2        2        5 </v>
   <v type="int" >        2        2        2        5        5 </v>
   <v type="int" >        2        1        1        2        2 </v>
   <v type="int" >        4        5        5        6        8 </v>
   <v type="int" >        4        5        6        6        8 </v>
   <v type="int" >        4        5        6        8        8 </v>
   <v type="int" >        4        6        6        7        9 </v>
   <v type="int" >        4        6        6        8        9 </v>
   <v type="int" >        4        6        8        8        9 </v>
   <v type="int" >        4        6        7        7        9 </v>
   <v type="int" >        4        6        7        9        9 </v>
   <v type="int" >        4        6        8        9        9 </v>
   <v type="int" >        8        7        7        7        9 </v>
   <v type="int" >        8        7        7        9        9 </v>
   <v type="int" >        8        7        9        9        9 </v>
   <v type="int" >        4        6        7        7        8 </v>
   <v type="int" >        4        7        7        8        9 </v>
   <v type="int" >        4        7        8        9        9 </v>
   <v type="int" >        4        6        6        7        8 </v>
   <v type="int" >        4        6        7        8        8 </v>
   <v type="int" >        4        7        8        8        9 </v>
   <v type="int" >        4        5        6        6        6 </v>
   <v type="int" >        4        6        6        6        8 </v>
   <v type="int" >        2        6        6        8        8 </v>
   <v type="int" >        2        5        5        6        6 </v>
   <v type="int" >        4        8        8        9       10 </v>
   <v type="int" >        4        8        9        9       10 </v>
   <v type="int" >        4        8        9       10       10 </v>
   <v type="int" >       12        9        9        9       10 </v>
   <v type="int" >       10        9        9       10       10 </v>
   <v type="int" >        8        9       10       10       10 </v>
   <v type="int" >        4        8        9        9        9 </v>
   <v type="int" >        2        8        8        9        9 </v>
   <v type="int" >        6       10       10       10       10 </v>
  </varray>
  <i name="volumeweight">      0.00340136 </i>
 </kpoints>
 <parameters>
  <separator name="general" >
   <i type="string" name="SYSTEM">unknown system</i>
   <i type="logical" name="LCOMPAT"> F  </i>
  </separator>
  <separator name="electronic" >
   <i type="string" name="PREC">normal</i>
   <i name="ENMAX">    500.00000000</i>
   <i name="ENAUG">    605.39200000</i>
   <i name="EDIFF">      0.00001000</i>
   <i type="int" name="IALGO">    68</i>
   <i type="int" name="IWAVPR">    10</i>
   <i type="int" name="NBANDS">    76</i>
   <i name="NELECT">    128.00000000</i>
   <i type="int" name="TURBO">     0</i>
   <i type="int" name="IRESTART">     0</i>
   <i type="int" name="NREBOOT">     0</i>
   <i type="int" name="NMIN">     0</i>
   <i name="EREF">      0.00000000</i>
   <separator name="electronic smearing" >
    <i type="int" name="ISMEAR">    -5</i>
    <i name="SIGMA">      0.20000000</i>
    <i name="KSPACING">      0.50000000</i>
    <i type="logical" name="KGAMMA"> T  </i>
   </separator>
   <separator name="electronic projectors" >
    <i type="logical" name="LREAL"> F  </i>
    <v name="ROPT">      0.00000000      0.00000000      0.00000000</v>
    <i type="int" name="LMAXPAW">  -100</i>
    <i type="int" name="LMAXMIX">     2</i>
    <i type="logical" name="NLSPLINE"> F  </i>
   </separator>
   <separator name="electronic startup" >
    <i type="int" name="ISTART">     0</i>
    <i type="int" name="ICHARG">     2</i>
    <i type="int" name="INIWAV">     1</i>
   </separator>
   <separator name="electronic spin" >
    <i type="int" name="ISPIN">     1</i>
    <i type="logical" name="LNONCOLLINEAR"> F  </i>
    <v name="MAGMOM">      1.00000000      1.00000000      1.00000000      1.00000000      1.00000000      1.00000000      1.00000000      1.00000000      1.00000000      1.00000000      1.00000000      1.00000000      1.00000000      1.00000000      1.00000000      1.00000000      1.00000000      1.00000000      1.00000000      1.00000000
</v>
    <i name="NUPDOWN">     -1.00000000</i>
    <i type="logical" name="LSORBIT"> F  </i>
    <v name="SAXIS">      0.00000000      0.00000000      1.00000000</v>
    <i type="logical" name="LSPIRAL"> F  </i>
    <v name="QSPIRAL">      0.00000000      0.00000000      0.00000000</v>
    <i type="logical" name="LZEROZ"> F  </i>
   </separator>
   <separator name="electronic exchange-correlation" >
    <i type="logical" name="LASPH"> F  </i>
    <i type="logical" name="LMETAGGA"> F  </i>
   </separator>
   <separator name="electronic convergence" >
    <i type="int" name="NELM">    60</i>
    <i type="int" name="NELMDL">    -5</i>
    <i type="int" name="NELMIN">     4</i>
    <i name="ENINI">    500.00000000</i>
    <separator name="electronic convergence detail" >
     <i type="logical" name="LDIAG"> T  </i>
     <i type="logical" name="LSUBROT"> F  </i>
     <i name="WEIMIN">      0.00000000</i>
     <i name="EBREAK">      0.00000003</i>
     <i name="DEPER">      0.30000000</i>
     <i type="int" name="NRMM">     4</i>
     <i name="TIME">      0.40000000</i>
    </separator>
   </separator>
   <separator name="electronic mixer" >
    <i name="AMIX">      0.40000000</i>
    <i name="BMIX">      1.00000000</i>
    <i name="AMIN">      0.10000000</i>
    <i name="AMIX_MAG">      1.60000000</i>
    <i name="BMIX_MAG">      1.00000000</i>
    <separator name="electronic mixer details" >
     <i type="int" name="IMIX">     4</i>
     <i type="logical" name="MIXFIRST"> F  </i>
     <i type="int" name="MAXMIX">   -45</i>
     <i name="WC">    100.00000000</i>
     <i type="int" name="INIMIX">     1</i>
     <i type="int" name="MIXPRE">     1</i>
     <i type="int" name="MREMOVE">     5</i>
    </separator>
   </separator>
   <separator name="electronic dipolcorrection" >
    <i type="logical" name="LDIPOL"> F  </i>
    <i type="logical" name="LMONO"> F  </i>
    <i type="int" name="IDIPOL">     0</i>
    <i name="EPSILON">      1.00000000</i>
    <v name="DIPOL">   -100.00000000   -100.00000000   -100.00000000</v>
    <i name="EFIELD">      0.00000000</i>
   </separator>
  </separator>
  <separator name="grids" >
   <i type="int" name="NGX">    24</i>
   <i type="int" name="NGY">    24</i>
   <i type="int" name="NGZ">   180</i>
   <i type="int" name="NGXF">    48</i>
   <i type="int" name="NGYF">    48</i>
   <i type="int" name="NGZF">   360</i>
   <i type="logical" name="ADDGRID"> F  </i>
  </separator>
  <separator name="ionic" >
   <i type="int" name="NSW">     0</i>
   <i type="int" name="IBRION">    -1</i>
   <i type="int" name="MDALGO">     0</i>
   <i type="int" name="ISIF">     2</i>
   <i name="PSTRESS">      0.00000000</i>
   <i name="EDIFFG">      0.00010000</i>
   <i type="int" name="NFREE">     0</i>
   <i name="POTIM">      0.50000000</i>
   <i name="SMASS">     -3.00000000</i>
   <i name="SCALEE">      1.00000000</i>
  </separator>
  <separator name="ionic md" >
   <i name="TEBEG">      0.00010000</i>
   <i name="TEEND">      0.00010000</i>
   <i type="int" name="NBLOCK">     1</i>
   <i type="int" name="KBLOCK">     1</i>
   <i type="int" name="NPACO">   256</i>
   <i name="APACO">     16.00000000</i>
  </separator>
  <separator name="symmetry" >
   <i type="int" name="ISYM">     2</i>
   <i name="SYMPREC">      0.00001000</i>
  </separator>
  <separator name="dos" >
   <i type="int" name="LORBIT">     0</i>
   <v name="RWIGS">     -1.00000000     -1.00000000     -1.00000000</v>
   <i type="int" name="NEDOS">   301</i>
   <i name="EMIN">     10.00000000</i>
   <i name="EMAX">    -10.00000000</i>
   <i name="EFERMI">      0.00000000</i>
  </separator>
  <separator name="writing" >
   <i type="int" name="NWRITE">     2</i>
   <i type="logical" name="LWAVE"> F  </i>
   <i type="logical" name="LDOWNSAMPLE"> F  </i>
   <i type="logical" name="LCHARG"> T  </i>
   <i type="logical" name="LPARD"> F  </i>
   <i type="logical" name="LVTOT"> F  </i>
   <i type="logical" name="LVHAR"> F  </i>
   <i type="logical" name="LELF"> F  </i>
   <i type="logical" name="LOPTICS"> F  </i>
   <v name="STM">      0.00000000      0.00000000      0.00000000      0.00000000      0.00000000      0.00000000      0.00000000</v>
  </separator>
  <separator name="performance" >
   <i type="int" name="NPAR">     2</i>
   <i type="int" name="NSIM">     4</i>
   <i type="int" name="NBLK">    -1</i>
   <i type="logical" name="LPLANE"> T  </i>
   <i type="logical" name="LSCALAPACK"> T  </i>
   <i type="logical" name="LSCAAWARE"> F  </i>
   <i type="logical" name="LSCALU"> F  </i>
   <i type="logical" name="LASYNC"> F  </i>
   <i type="logical" name="LORBITALREAL"> F  </i>
  </separator>
  <separator name="miscellaneous" >
   <i type="int" name="IDIOT">     3</i>
   <i type="int" name="ISPECIAL">     0</i>
   <i type="logical" name="LMUSIC"> F  </i>
   <v name="POMASS">     16.00000000     87.62000000     47.88000000</v>
   <v name="DARWINR">      0.00000000      0.00000000      0.00000000</v>
   <v name="DARWINV">      1.00000000      1.00000000      1.00000000</v>
   <i type="logical" name="LCORR"> T  </i>
  </separator>
  <i type="logical" name="GGA_COMPAT"> T  </i>
  <i type="logical" name="LBERRY"> F  </i>
  <i type="int" name="ICORELEVEL">     0</i>
  <i type="logical" name="LDAU"> F  </i>
  <i type="int" name="I_CONSTRAINED_M">     0</i>
  <separator name="electronic exchange-correlation" >
   <i type="string" name="GGA">--</i>
   <i type="int" name="VOSKOWN">     0</i>
   <i type="logical" name="LHFCALC"> F  </i>
   <i type="string" name="PRECFOCK"></i>
   <i type="logical" name="LSYMGRAD"> F  </i>
   <i type="logical" name="LHFONE"> F  </i>
   <i type="logical" name="LRHFCALC"> F  </i>
   <i type="logical" name="LTHOMAS"> F  </i>
   <i type="logical" name="LMODELHF"> F  </i>
   <i name="ENCUT4O">     -1.00000000</i>
   <i type="int" name="EXXOEP">     0</i>
   <i type="int" name="FOURORBIT">     0</i>
   <i name="AEXX">      0.00000000</i>
   <i name="HFALPHA">      0.00000000</i>
   <i name="MCALPHA">      0.00000000</i>
   <i name="ALDAX">      1.00000000</i>
   <i name="AGGAX">      1.00000000</i>
   <i name="ALDAC">      1.00000000</i>
   <i name="AGGAC">      1.00000000</i>
   <i type="int" name="NKREDX">     1</i>
   <i type="int" name="NKREDY">     1</i>
   <i type="int" name="NKREDZ">     1</i>
   <i type="logical" name="SHIFTRED"> F  </i>
   <i type="logical" name="ODDONLY"> F  </i>
   <i type="logical" name="EVENONLY"> F  </i>
   <i type="int" name="LMAXFOCK">     0</i>
   <i type="int" name="NMAXFOCKAE">     0</i>
   <i type="logical" name="LFOCKAEDFT"> F  </i>
   <i name="HFSCREEN">      0.00000000</i>
   <i name="HFSCREENC">      0.00000000</i>
   <i type="int" name="NBANDSGWLOW">     0</i>
  </separator>
  <separator name="vdW DFT" >
   <i type="logical" name="LUSE_VDW"> F  </i>
   <i name="Zab_VDW">     -0.84910000</i>
   <i name="PARAM1">      0.12340000</i>
   <i name="PARAM2">      1.00000000</i>
   <i name="PARAM3">      0.00000000</i>
  </separator>
  <separator name="model GW" >
   <i type="int" name="MODEL_GW">     0</i>
   <i name="MODEL_EPS0">     14.86755155</i>
   <i name="MODEL_ALPHA">      1.00000000</i>
  </separator>
  <separator name="linear response parameters" >
   <i type="logical" name="LEPSILON"> F  </i>
   <i type="logical" name="LRPA"> F  </i>
   <i type="logical" name="LNABLA"> F  </i>
   <i type="logical" name="LVEL"> F  </i>
   <i type="int" name="KINTER">     0</i>
   <i name="CSHIFT">      0.10000000</i>
   <i name="OMEGAMAX">     -1.00000000</i>
   <i name="DEG_THRESHOLD">      0.00200000</i>
   <i name="RTIME">     -0.10000000</i>
   <i name="WPLASMAI">      0.00000000</i>
   <v name="DFIELD">      0.00000000      0.00000000      0.00000000</v>
   <v name="WPLASMA">      0.00000000      0.00000000      0.00000000      0.00000000      0.00000000      0.00000000      0.00000000      0.00000000      0.00000000</v>
  </separator>
  <separator name="orbital magnetization" >
   <i type="logical" name="NUCIND"> F  </i>
   <v name="MAGPOS">      0.00000000      0.00000000      0.00000000</v>
   <i type="logical" name="LNICSALL"> T  </i>
   <i type="logical" name="ORBITALMAG"> F  </i>
   <i type="logical" name="LMAGBLOCH"> F  </i>
   <i type="logical" name="LCHIMAG"> F  </i>
   <i type="logical" name="LGAUGE"> T  </i>
   <i type="int" name="MAGATOM">     0</i>
   <v name="MAGDIPOL">      0.00000000      0.00000000      0.00000000</v>
   <v name="AVECCONST">      0.00000000      0.00000000      0.00000000</v>
  </separator>
  <separator name="response functions" >
   <i type="logical" name="LADDER"> F  </i>
   <i type="logical" name="LRPAFORCE"> F  </i>
   <i type="logical" name="LFXC"> F  </i>
   <i type="logical" name="LHARTREE"> T  </i>
   <i type="int" name="IBSE">     0</i>
   <v type="int" name="KPOINT">    -1     0     0     0</v>
   <i type="logical" name="LTCTE"> F  </i>
   <i type="logical" name="LTETE"> F  </i>
   <i type="logical" name="LTRIPLET"> F  </i>
   <i type="logical" name="LFXCEPS"> F  </i>
   <i type="logical" name="LFXHEG"> F  </i>
   <i type="int" name="NATURALO">     2</i>
   <i type="logical" name="L2ORDER"> F  </i>
   <i type="logical" name="LMP2LT"> F  </i>
   <i type="logical" name="LUSEW"> F  </i>
   <i name="ENCUTGW">     -2.00000000</i>
   <i name="ENCUTGWSOFT">     -2.00000000</i>
   <i name="ENCUTLF">     -1.00000000</i>
   <i type="int" name="LMAXMP2">    -1</i>
   <i name="SCISSOR">      0.00000000</i>
   <i type="int" name="NOMEGA">     0</i>
   <i type="int" name="NOMEGAR">     0</i>
   <i type="int" name="NBANDSGW">    -1</i>
   <i type="int" name="NBANDSO">    -1</i>
   <i type="int" name="NBANDSV">    -1</i>
   <i type="int" name="NELM">     1</i>
   <i type="int" name="NELMHF">     1</i>
   <i type="int" name="DIM">     3</i>
   <i type="int" name="ANTIRES">     0</i>
   <i name="OMEGAMAX">    -30.00000000</i>
   <i name="OMEGAMIN">    -30.00000000</i>
   <i name="OMEGATL">   -200.00000000</i>
   <i type="int" name="OMEGAGRID">   140</i>
   <i name="CSHIFT">     -0.10000000</i>
   <i type="logical" name="SELFENERGY"> F  </i>
   <i type="logical" name="LSPECTRAL"> F  </i>
   <i type="logical" name="LSPECTRALGW"> F  </i>
   <i type="logical" name="LSINGLES"> F  </i>
   <i type="logical" name="LFERMIGW"> F  </i>
   <i type="logical" name="ODDONLYGW"> F  </i>
   <i type="logical" name="EVENONLYGW"> F  </i>
   <i type="int" name="NKREDLFX">     1</i>
   <i type="int" name="NKREDLFY">     1</i>
   <i type="int" name="NKREDLFZ">     1</i>
   <i type="int" name="MAXMEM">  2800</i>
   <i type="int" name="TELESCOPE">     0</i>
   <i type="int" name="TAUPAR">     1</i>
   <i type="int" name="OMEGAPAR">    -1</i>
   <i name="LAMBDA">      1.00000000</i>
  </separator>
  <separator name="External order field" >
   <i name="OFIELD_KAPPA">      0.00000000</i>
   <v name="OFIELD_K">      0.00000000      0.00000000      0.00000000</v>
   <i name="OFIELD_Q6_NEAR">      0.00000000</i>
   <i name="OFIELD_Q6_FAR">      0.00000000</i>
   <i name="OFIELD_A">      0.00000000</i>
  </separator>
 </parameters>
 <atominfo>
  <atoms>      20 </atoms>
  <types>       3 </types>
  <array name="atoms" >
   <dimension dim="1">ion</dimension>
   <field type="string">element</field>
   <field type="int">atomtype</field>
   <set>
    <rc><c>O </c><c>   1</c></rc>
    <rc><c>O </c><c>   1</c></rc>
    <rc><c>O </c><c>   1</c></rc>
    <rc><c>O </c><c>   1</c></rc>
    <rc><c>O </c><c>   1</c></rc>
    <rc><c>O </c><c>   1</c></rc>
    <rc><c>O </c><c>   1</c></rc>
    <rc><c>O </c><c>   1</c></rc>
    <rc><c>O </c><c>   1</c></rc>
    <rc><c>O </c><c>   1</c></rc>
    <rc><c>O </c><c>   1</c></rc>
    <rc><c>O </c><c>   1</c></rc>
    <rc><c>Sr</c><c>   2</c></rc>
    <rc><c>Sr</c><c>   2</c></rc>
    <rc><c>Sr</c><c>   2</c></rc>
    <rc><c>Sr</c><c>   2</c></rc>
    <rc><c>Ti</c><c>   3</c></rc>
    <rc><c>Ti</c><c>   3</c></rc>
    <rc><c>Ti</c><c>   3</c></rc>
    <rc><c>Ti</c><c>   3</c></rc>
   </set>
  </array>
  <array name="atomtypes" >
   <dimension dim="1">type</dimension>
   <field type="int">atomspertype</field>
   <field type="string">element</field>
   <field>mass</field>
   <field>valence</field>
   <field type="string">pseudopotential</field>
   <set>
    <rc><c>  12</c><c>O </c><c>     16.00000000</c><c>      6.00000000</c><c> PAW_PBE O 08Apr2002                    </c></rc>
    <rc><c>   4</c><c>Sr</c><c>     87.62000000</c><c>     10.00000000</c><c> PAW_PBE Sr_sv 07Sep2000                </c></rc>
    <rc><c>   4</c><c>Ti</c><c>     47.88000000</c><c>      4.00000000</c><c> PAW_PBE Ti 08Apr2002                   </c></rc>
   </set>
  </array>
 </atominfo>
 <structure name="initialpos" >
  <crystal>
   <varray name="basis" >
    <v>       3.94684634       0.00000000       0.00000000 </v>
    <v>       0.00000000       3.94684634       0.00000000 </v>
    <v>       0.00000000       0.00000000      31.81396220 </v>
   </varray>
   <i name="volume">    495.58505165 </i>
   <varray name="rec_basis" >
    <v>       0.25336684       0.00000000       0.00000000 </v>
    <v>       0.00000000       0.25336684       0.00000000 </v>
    <v>       0.00000000       0.00000000       0.03143274 </v>
   </varray>
  </crystal>
  <varray name="positions" >
   <v>       0.50000000       0.50000000       0.28289466 </v>
   <v>       0.50000000       0.00000000       0.34492476 </v>
   <v>       0.00000000       0.50000000       0.34492476 </v>
   <v>       0.50000000       0.50000000       0.40695485 </v>
   <v>       0.50000000       0.00000000       0.46898495 </v>
   <v>       0.00000000       0.50000000       0.46898495 </v>
   <v>       0.50000000       0.50000000       0.53101505 </v>
   <v>       0.50000000       0.00000000       0.59304515 </v>
   <v>       0.00000000       0.50000000       0.59304515 </v>
   <v>       0.50000000       0.50000000       0.65507524 </v>
   <v>       0.50000000       0.00000000       0.71710534 </v>
   <v>       0.00000000       0.50000000       0.71710534 </v>
   <v>       0.00000000       0.00000000       0.28289466 </v>
   <v>       0.00000000       0.00000000       0.40695485 </v>
   <v>       0.00000000       0.00000000       0.53101505 </v>
   <v>       0.00000000       0.00000000       0.65507524 </v>
   <v>       0.50000000       0.50000000       0.34492476 </v>
   <v>       0.50000000       0.50000000       0.46898495 </v>
   <v>       0.50000000       0.50000000       0.59304515 </v>
   <v>       0.50000000       0.50000000       0.71710534 </v>
  </varray>
 </structure>
 <calculation>
  <scstep>
   <time name="dav">    7.10    7.10</time>
   <time name="total">    7.28    7.32</time>
   <energy>
    <i name="alphaZ">    356.50342686 </i>
    <i name="ewald">  57374.82854062 </i>
    <i name="hartreedc"> -65546.67557412 </i>
    <i name="XCdc">    325.52649398 </i>
    <i name="pawpsdc">   5334.45189010 </i>
    <i name="pawaedc">  -5139.13784255 </i>
    <i name="eentropy">      0.00000000 </i>
    <i name="bandstr">    -60.00091570 </i>
    <i name="atom">   8937.26825017 </i>
    <i name="e_fr_energy">   1582.76426938 </i>
    <i name="e_wo_entrp">   1582.76426938 </i>
    <i name="e_0_energy">   1582.76426938 </i>
   </energy>
  </scstep>
  <scstep>
   <time name="dav">    8.18    8.18</time>
   <time name="total">    8.19    8.19</time>
   <energy>
    <i name="e_fr_energy">    177.77873776 </i>
    <i name="e_wo_entrp">    177.77873776 </i>
    <i name="e_0_energy">    177.77873776 </i>
   </energy>
  </scstep>
  <scstep>
   <time name="dav">    8.85    8.85</time>
   <time name="total">    8.85    8.85</time>
   <energy>
    <i name="e_fr_energy">   -176.67961832 </i>
    <i name="e_wo_entrp">   -176.67961832 </i>
    <i name="e_0_energy">   -176.67961832 </i>
   </energy>
  </scstep>
  <scstep>
   <time name="dav">    8.49    8.49</time>
   <time name="total">    8.49    8.49</time>
   <energy>
    <i name="e_fr_energy">   -200.86481121 </i>
    <i name="e_wo_entrp">   -200.86481121 </i>
    <i name="e_0_energy">   -200.86481121 </i>
   </energy>
  </scstep>
  <scstep>
   <time name="dav">   10.79   10.79</time>
   <time name="total">   11.05   11.05</time>
   <energy>
    <i name="e_fr_energy">   -202.30631419 </i>
    <i name="e_wo_entrp">   -202.30631419 </i>
    <i name="e_0_energy">   -202.30631419 </i>
   </energy>
  </scstep>
  <scstep>
   <time name="diag">    0.74    0.74</time>
   <time name="diis">    5.34    5.34</time>
   <time name="orth">    0.14    0.14</time>
   <time name="total">    6.63    6.63</time>
   <energy>
    <i name="e_fr_energy">   -161.80826020 </i>
    <i name="e_wo_entrp">   -161.80826020 </i>
    <i name="e_0_energy">   -161.80826020 </i>
   </energy>
  </scstep>
  <scstep>
   <time name="diag">    0.72    0.72</time>
   <time name="diis">    5.14    5.14</time>
   <time name="orth">    0.13    0.14</time>
   <time name="total">    6.39    6.39</time>
   <energy>
    <i name="e_fr_energy">   -157.75499780 </i>
    <i name="e_wo_entrp">   -157.75499780 </i>
    <i name="e_0_energy">   -157.75499780 </i>
   </energy>
  </scstep>
  <scstep>
   <time name="diag">    0.71    0.71</time>
   <time name="diis">    6.04    6.04</time>
   <time name="orth">    0.13    0.14</time>
   <time name="total">    7.26    7.26</time>
   <energy>
    <i name="e_fr_energy">   -157.00122815 </i>
    <i name="e_wo_entrp">   -157.00122815 </i>
    <i name="e_0_energy">   -157.00122815 </i>
   </energy>
  </scstep>
  <scstep>
   <time name="diag">    0.70    0.70</time>
   <time name="diis">    5.81    5.80</time>
   <time name="orth">    0.13    0.14</time>
   <time name="total">    7.02    7.03</time>
   <energy>
    <i name="e_fr_energy">   -156.73662648 </i>
    <i name="e_wo_entrp">   -156.73662648 </i>
    <i name="e_0_energy">   -156.73662648 </i>
   </energy>
  </scstep>
  <scstep>
   <time name="diag">    0.70    0.70</time>
   <time name="diis">    6.82    6.81</time>
   <time name="orth">    0.14    0.14</time>
   <time name="total">    8.04    8.04</time>
   <energy>
    <i name="e_fr_energy">   -156.68839882 </i>
    <i name="e_wo_entrp">   -156.68839882 </i>
    <i name="e_0_energy">   -156.68839882 </i>
   </energy>
  </scstep>
  <scstep>
   <time name="diag">    0.70    0.70</time>
   <time name="diis">    6.55    6.54</time>
   <time name="orth">    0.14    0.14</time>
   <time name="total">    7.78    7.78</time>
   <energy>
    <i name="e_fr_energy">   -156.66282271 </i>
    <i name="e_wo_entrp">   -156.66282271 </i>
    <i name="e_0_energy">   -156.66282271 </i>
   </energy>
  </scstep>
  <scstep>
   <time name="diag">    0.72    0.72</time>
   <time name="diis">    7.51    7.56</time>
   <time name="orth">    0.15    0.15</time>
   <time name="total">    8.78    8.83</time>
   <energy>
    <i name="e_fr_energy">   -156.65409949 </i>
    <i name="e_wo_entrp">   -156.65409949 </i>
    <i name="e_0_energy">   -156.65409949 </i>
   </energy>
  </scstep>
  <scstep>
   <time name="diag">    0.83    0.83</time>
   <time name="diis">    8.50    8.50</time>
   <time name="orth">    0.15    0.15</time>
   <time name="total">    9.91    9.91</time>
   <energy>
    <i name="e_fr_energy">   -156.64737291 </i>
    <i name="e_wo_entrp">   -156.64737291 </i>
    <i name="e_0_energy">   -156.64737291 </i>
   </energy>
  </scstep>
  <scstep>
   <time name="diag">    0.83    0.83</time>
   <time name="diis">    7.22    7.22</time>
   <time name="orth">    0.15    0.15</time>
   <time name="total">    8.63    8.64</time>
   <energy>
    <i name="e_fr_energy">   -156.64427160 </i>
    <i name="e_wo_entrp">   -156.64427160 </i>
    <i name="e_0_energy">   -156.64427160 </i>
   </energy>
  </scstep>
  <scstep>
   <time name="diag">    0.83    0.83</time>
   <time name="diis">    8.08    8.08</time>
   <time name="orth">    0.15    0.15</time>
   <time name="total">    9.50    9.50</time>
   <energy>
    <i name="e_fr_energy">   -156.64467753 </i>
    <i name="e_wo_entrp">   -156.64467753 </i>
    <i name="e_0_energy">   -156.64467753 </i>
   </energy>
  </scstep>
  <scstep>
   <time name="diag">    0.84    0.84</time>
   <time name="diis">    7.48    7.48</time>
   <time name="orth">    0.15    0.15</time>
   <time name="total">    8.90    8.90</time>
   <energy>
    <i name="e_fr_energy">   -156.64680151 </i>
    <i name="e_wo_entrp">   -156.64680151 </i>
    <i name="e_0_energy">   -156.64680151 </i>
   </energy>
  </scstep>
  <scstep>
   <time name="diag">    0.84    0.84</time>
   <time name="diis">    7.33    7.33</time>
   <time name="orth">    0.15    0.15</time>
   <time name="total">    8.76    8.76</time>
   <energy>
    <i name="e_fr_energy">   -156.64818058 </i>
    <i name="e_wo_entrp">   -156.64818058 </i>
    <i name="e_0_energy">   -156.64818058 </i>
   </energy>
  </scstep>
  <scstep>
   <time name="diag">    0.85    0.85</time>
   <time name="diis">    7.12    7.12</time>
   <time name="orth">    0.15    0.15</time>
   <time name="total">    8.56    8.56</time>
   <energy>
    <i name="e_fr_energy">   -156.64865153 </i>
    <i name="e_wo_entrp">   -156.64865153 </i>
    <i name="e_0_energy">   -156.64865153 </i>
   </energy>
  </scstep>
  <scstep>
   <time name="diag">    0.85    0.85</time>
   <time name="diis">    6.88    6.88</time>
   <time name="orth">    0.15    0.15</time>
   <time name="total">    8.33    8.33</time>
   <energy>
    <i name="e_fr_energy">   -156.64931623 </i>
    <i name="e_wo_entrp">   -156.64931623 </i>
    <i name="e_0_energy">   -156.64931623 </i>
   </energy>
  </scstep>
  <scstep>
   <time name="diag">    0.85    0.85</time>
   <time name="diis">    5.82    5.82</time>
   <time name="orth">    0.15    0.15</time>
   <time name="total">    7.27    7.27</time>
   <energy>
    <i name="e_fr_energy">   -156.64971344 </i>
    <i name="e_wo_entrp">   -156.64971344 </i>
    <i name="e_0_energy">   -156.64971344 </i>
   </energy>
  </scstep>
  <scstep>
   <time name="diag">    0.85    0.85</time>
   <time name="diis">    5.68    5.68</time>
   <time name="orth">    0.15    0.15</time>
   <time name="total">    7.12    7.12</time>
   <energy>
    <i name="e_fr_energy">   -156.64988907 </i>
    <i name="e_wo_entrp">   -156.64988907 </i>
    <i name="e_0_energy">   -156.64988907 </i>
   </energy>
  </scstep>
  <scstep>
   <time name="diag">    0.85    0.85</time>
   <time name="diis">    4.68    4.68</time>
   <time name="orth">    0.15    0.15</time>
   <time name="total">    6.12    6.12</time>
   <energy>
    <i name="e_fr_energy">   -156.64995145 </i>
    <i name="e_wo_entrp">   -156.64995145 </i>
    <i name="e_0_energy">   -156.64995145 </i>
   </energy>
  </scstep>
  <scstep>
   <time name="diag">    0.83    0.83</time>
   <time name="diis">    4.24    4.24</time>
   <time name="orth">    0.15    0.15</time>
   <time name="total">    5.66    5.66</time>
   <energy>
    <i name="e_fr_energy">   -156.65000138 </i>
    <i name="e_wo_entrp">   -156.65000138 </i>
    <i name="e_0_energy">   -156.65000138 </i>
   </energy>
  </scstep>
  <scstep>
   <time name="diag">    0.85    0.85</time>
   <time name="diis">    4.05    4.05</time>
   <time name="orth">    0.14    0.14</time>
   <time name="total">    5.47    5.48</time>
   <energy>
    <i name="e_fr_energy">   -156.65003064 </i>
    <i name="e_wo_entrp">   -156.65003064 </i>
    <i name="e_0_energy">   -156.65003064 </i>
   </energy>
  </scstep>
  <scstep>
   <time name="diag">    0.80    0.80</time>
   <time name="diis">    4.04    4.04</time>
   <time name="orth">    0.15    0.15</time>
   <time name="total">    5.43    5.43</time>
   <energy>
    <i name="e_fr_energy">   -156.65006384 </i>
    <i name="e_wo_entrp">   -156.65006384 </i>
    <i name="e_0_energy">   -156.65006384 </i>
   </energy>
  </scstep>
  <scstep>
   <time name="diag">    0.85    0.85</time>
   <time name="diis">    3.81    3.81</time>
   <time name="orth">    0.15    0.15</time>
   <time name="total">    4.97    4.97</time>
   <energy>
    <i name="alphaZ">    356.50342686 </i>
    <i name="ewald">  57374.82854062 </i>
    <i name="hartreedc"> -66040.35476380 </i>
    <i name="XCdc">    341.54578544 </i>
    <i name="pawpsdc">   6145.07051063 </i>
    <i name="pawaedc">  -5975.00063047 </i>
    <i name="eentropy">      0.00000000 </i>
    <i name="bandstr">  -1296.51119120 </i>
    <i name="atom">   8937.26825017 </i>
    <i name="e_fr_energy">   -156.65007174 </i>
    <i name="e_wo_entrp">   -156.65007174 </i>
    <i name="e_0_energy">   -156.65007174 </i>
   </energy>
  </scstep>
  <structure>
   <crystal>
    <varray name="basis" >
     <v>       3.94684634       0.00000000       0.00000000 </v>
     <v>       0.00000000       3.94684634       0.00000000 </v>
     <v>       0.00000000       0.00000000      31.81396220 </v>
    </varray>
    <i name="volume">    495.58505165 </i>
    <varray name="rec_basis" >
     <v>       0.25336684       0.00000000       0.00000000 </v>
     <v>       0.00000000       0.25336684       0.00000000 </v>
     <v>       0.00000000       0.00000000       0.03143274 </v>
    </varray>
   </crystal>
   <varray name="positions" >
    <v>       0.50000000       0.50000000       0.28289466 </v>
    <v>       0.50000000       0.00000000       0.34492476 </v>
    <v>       0.00000000       0.50000000       0.34492476 </v>
    <v>       0.50000000       0.50000000       0.40695485 </v>
    <v>       0.50000000       0.00000000       0.46898495 </v>
    <v>       0.00000000       0.50000000       0.46898495 </v>
    <v>       0.50000000       0.50000000       0.53101505 </v>
    <v>       0.50000000       0.00000000       0.59304515 </v>
    <v>       0.00000000       0.50000000       0.59304515 </v>
    <v>       0.50000000       0.50000000       0.65507524 </v>
    <v>       0.50000000       0.00000000       0.71710534 </v>
    <v>       0.00000000       0.50000000       0.71710534 </v>
    <v>       0.00000000       0.00000000       0.28289466 </v>
    <v>       0.00000000       0.00000000       0.40695485 </v>
    <v>       0.00000000       0.00000000       0.53101505 </v>
    <v>       0.00000000       0.00000000       0.65507524 </v>
    <v>       0.50000000       0.50000000       0.34492476 </v>
    <v>       0.50000000       0.50000000       0.46898495 </v>
    <v>       0.50000000       0.50000000       0.59304515 </v>
    <v>       0.50000000       0.50000000       0.71710534 </v>
   </varray>
  </structure>
  <varray name="forces" >
   <v>       0.00000000      -0.00000000      -0.73550526 </v>
   <v>       0.00000000       0.00000000      -0.03310118 </v>
   <v>       0.00000000       0.00000000      -0.03310118 </v>
   <v>       0.00000000       0.00000000       0.29425844 </v>
   <v>       0.00000000       0.00000000       0.04182393 </v>
   <v>       0.00000000       0.00000000       0.04182393 </v>
   <v>       0.00000000       0.00000000       0.22066727 </v>
   <v>       0.00000000       0.00000000      -0.00252069 </v>
   <v>       0.00000000      -0.00000000      -0.00252069 </v>
   <v>       0.00000000       0.00000000       0.92939160 </v>
   <v>       0.00000000      -0.00000000       0.35264055 </v>
   <v>       0.00000000       0.00000000       0.35264055 </v>
   <v>       0.00000000      -0.00000000       1.38874949 </v>
   <v>       0.00000000       0.00000000       0.02537229 </v>
   <v>       0.00000000       0.00000000      -0.02634346 </v>
   <v>       0.00000000       0.00000000       0.66634800 </v>
   <v>       0.00000000       0.00000000      -0.89412055 </v>
   <v>       0.00000000       0.00000000      -0.20959116 </v>
   <v>       0.00000000       0.00000000      -0.26749089 </v>
   <v>       0.00000000       0.00000000      -2.10942097 </v>
  </varray>
  <varray name="stress" >
   <v>     -18.55193635       0.00000000       0.00000000 </v>
   <v>       0.00000000     -18.55193635      -0.00000000 </v>
   <v>       0.00000000       0.00000000     -11.15646622 </v>
  </varray>
  <energy>
   <i name="e_fr_energy">   -156.65007174 </i>
   <i name="e_wo_entrp">   -156.65007174 </i>
   <i name="e_0_energy">      0.00000000 </i>
  </energy>
  <time name="totalsc">  210.64  210.78</time>
  <eigenvalues>
   <array>
    <dimension dim="1">band</dimension>
    <dimension dim="2">kpoint</dimension>
    <dimension dim="3">spin</dimension>
    <field>eigene</field>
    <field>occ</field>
    <set>
     <set comment="spin 1">
      <set comment="kpoint 1">
       <r>  -34.8619    1.0000 </r>
       <r>  -33.7579    1.0000 </r>
       <r>  -33.7170    1.0000 </r>
       <r>  -33.5774    1.0000 </r>
       <r>  -18.4609    1.0000 </r>
       <r>  -18.3919    1.0000 </r>
       <r>  -18.2929    1.0000 </r>
       <r>  -17.7527    1.0000 </r>
       <r>  -17.3179    1.0000 </r>
       <r>  -17.3166    1.0000 </r>
       <r>  -17.2755    1.0000 </r>
       <r>  -17.2562    1.0000 </r>
       <r>  -17.2356    1.0000 </r>
       <r>  -17.2011    1.0000 </r>
       <r>  -16.7824    1.0000 </r>
       <r>  -16.7748    1.0000 </r>
       <r>  -16.7748    1.0000 </r>
       <r>  -16.6748    1.0000 </r>
       <r>  -16.5220    1.0000 </r>
       <r>  -15.8026    1.0000 </r>
       <r>  -15.8026    1.0000 </r>
       <r>  -15.7544    1.0000 </r>
       <r>  -15.7544    1.0000 </r>
       <r>  -15.6631    1.0000 </r>
       <r>  -15.6375    1.0000 </r>
       <r>  -15.6375    1.0000 </r>
       <r>  -15.3973    1.0000 </r>
       <r>  -15.2190    1.0000 </r>
       <r>   -5.0226    1.0000 </r>
       <r>   -4.5158    1.0000 </r>
       <r>   -4.0051    1.0000 </r>
       <r>   -3.7986    1.0000 </r>
       <r>   -3.7986    1.0000 </r>
       <r>   -3.7439    1.0000 </r>
       <r>   -3.7439    1.0000 </r>
       <r>   -3.7275    1.0000 </r>
       <r>   -3.7275    1.0000 </r>
       <r>   -3.4015    1.0000 </r>
       <r>   -3.3042    1.0000 </r>
       <r>   -3.3042    1.0000 </r>
       <r>   -3.0794    1.0000 </r>
       <r>   -2.9664    1.0000 </r>
       <r>   -2.9664    1.0000 </r>
       <r>   -2.7328    1.0000 </r>
       <r>   -2.6265    1.0000 </r>
       <r>   -2.5866    1.0000 </r>
       <r>   -2.5866    1.0000 </r>
       <r>   -2.5100    1.0000 </r>
       <r>   -2.2476    1.0000 </r>
       <r>   -2.2476    1.0000 </r>
       <r>   -2.1996    1.0000 </r>
       <r>   -2.1901    1.0000 </r>
       <r>   -1.9667    1.0000 </r>
       <r>   -1.9667    1.0000 </r>
       <r>   -1.6082    1.0000 </r>
       <r>   -1.6082    1.0000 </r>
       <r>   -1.6082    1.0000 </r>
       <r>   -1.5566    1.0000 </r>
       <r>   -1.4907    1.0000 </r>
       <r>   -1.4907    1.0000 </r>
       <r>   -1.2990    1.0000 </r>
       <r>   -1.2990    1.0000 </r>
       <r>   -0.8662    1.0000 </r>
       <r>   -0.8662    1.0000 </r>
       <r>    0.6984    0.0000 </r>
       <r>    0.7917    0.0000 </r>
       <r>    0.8078    0.0000 </r>
       <r>    0.8078    0.0000 </r>
       <r>    0.8800    0.0000 </r>
       <r>    1.1155    0.0000 </r>
       <r>    1.2141    0.0000 </r>
       <r>    1.3248    0.0000 </r>
       <r>    1.3256    0.0000 </r>
       <r>    1.9474    0.0000 </r>
       <r>    4.4802    0.0000 </r>
       <r>    4.6740    0.0000 </r>
      </set>
      <set comment="kpoint 2">
       <r>  -34.8590    1.0000 </r>
       <r>  -33.7544    1.0000 </r>
       <r>  -33.7135    1.0000 </r>
       <r>  -33.5739    1.0000 </r>
       <r>  -18.3820    1.0000 </r>
       <r>  -18.3363    1.0000 </r>
       <r>  -18.2768    1.0000 </r>
       <r>  -17.7536    1.0000 </r>
       <r>  -17.3690    1.0000 </r>
       <r>  -17.3505    1.0000 </r>
       <r>  -17.3155    1.0000 </r>
       <r>  -17.2616    1.0000 </r>
       <r>  -17.2522    1.0000 </r>
       <r>  -17.1856    1.0000 </r>
       <r>  -17.0160    1.0000 </r>
       <r>  -16.7679    1.0000 </r>
       <r>  -16.7524    1.0000 </r>
       <r>  -16.6714    1.0000 </r>
       <r>  -16.2554    1.0000 </r>
       <r>  -15.7942    1.0000 </r>
       <r>  -15.7458    1.0000 </r>
       <r>  -15.7054    1.0000 </r>
       <r>  -15.6848    1.0000 </r>
       <r>  -15.6379    1.0000 </r>
       <r>  -15.6287    1.0000 </r>
       <r>  -15.5432    1.0000 </r>
       <r>  -15.4177    1.0000 </r>
       <r>  -15.2480    1.0000 </r>
       <r>   -5.0349    1.0000 </r>
       <r>   -4.5595    1.0000 </r>
       <r>   -4.1581    1.0000 </r>
       <r>   -4.0731    1.0000 </r>
       <r>   -4.0303    1.0000 </r>
       <r>   -3.9336    1.0000 </r>
       <r>   -3.8650    1.0000 </r>
       <r>   -3.8024    1.0000 </r>
       <r>   -3.7474    1.0000 </r>
       <r>   -3.7238    1.0000 </r>
       <r>   -3.6205    1.0000 </r>
       <r>   -3.3672    1.0000 </r>
       <r>   -3.3113    1.0000 </r>
       <r>   -3.0997    1.0000 </r>
       <r>   -3.0457    1.0000 </r>
       <r>   -2.8494    1.0000 </r>
       <r>   -2.8183    1.0000 </r>
       <r>   -2.6772    1.0000 </r>
       <r>   -2.5259    1.0000 </r>
       <r>   -2.3867    1.0000 </r>
       <r>   -2.3353    1.0000 </r>
       <r>   -2.2216    1.0000 </r>
       <r>   -2.1881    1.0000 </r>
       <r>   -2.0983    1.0000 </r>
       <r>   -2.0793    1.0000 </r>
       <r>   -2.0246    1.0000 </r>
       <r>   -1.9303    1.0000 </r>
       <r>   -1.8610    1.0000 </r>
       <r>   -1.8562    1.0000 </r>
       <r>   -1.8120    1.0000 </r>
       <r>   -1.6889    1.0000 </r>
       <r>   -1.6338    1.0000 </r>
       <r>   -1.4374    1.0000 </r>
       <r>   -1.4222    1.0000 </r>
       <r>   -1.2352    1.0000 </r>
       <r>   -1.1743    1.0000 </r>
       <r>    0.8241    0.0000 </r>
       <r>    1.1059    0.0000 </r>
       <r>    1.1609    0.0000 </r>
       <r>    1.1931    0.0000 </r>
       <r>    1.2637    0.0000 </r>
       <r>    1.3479    0.0000 </r>
       <r>    1.3539    0.0000 </r>
       <r>    1.5328    0.0000 </r>
       <r>    1.5349    0.0000 </r>
       <r>    1.9725    0.0000 </r>
       <r>    4.8732    0.0000 </r>
       <r>    5.0006    0.0000 </r>
      </set>
      <set comment="kpoint 3">
       <r>  -34.8524    1.0000 </r>
       <r>  -33.7465    1.0000 </r>
       <r>  -33.7058    1.0000 </r>
       <r>  -33.5661    1.0000 </r>
       <r>  -18.3318    1.0000 </r>
       <r>  -18.2513    1.0000 </r>
       <r>  -18.1486    1.0000 </r>
       <r>  -17.7597    1.0000 </r>
       <r>  -17.5350    1.0000 </r>
       <r>  -17.4218    1.0000 </r>
       <r>  -17.3840    1.0000 </r>
       <r>  -17.2963    1.0000 </r>
       <r>  -17.2377    1.0000 </r>
       <r>  -17.0978    1.0000 </r>
       <r>  -17.0731    1.0000 </r>
       <r>  -16.7524    1.0000 </r>
       <r>  -16.7422    1.0000 </r>
       <r>  -16.6534    1.0000 </r>
       <r>  -15.9520    1.0000 </r>
       <r>  -15.7753    1.0000 </r>
       <r>  -15.7262    1.0000 </r>
       <r>  -15.6772    1.0000 </r>
       <r>  -15.6087    1.0000 </r>
       <r>  -15.5368    1.0000 </r>
       <r>  -15.4743    1.0000 </r>
       <r>  -15.4351    1.0000 </r>
       <r>  -15.3664    1.0000 </r>
       <r>  -15.2951    1.0000 </r>
       <r>   -5.0777    1.0000 </r>
       <r>   -4.8908    1.0000 </r>
       <r>   -4.6625    1.0000 </r>
       <r>   -4.6504    1.0000 </r>
       <r>   -4.5462    1.0000 </r>
       <r>   -4.4055    1.0000 </r>
       <r>   -4.3204    1.0000 </r>
       <r>   -4.0196    1.0000 </r>
       <r>   -3.9493    1.0000 </r>
       <r>   -3.8014    1.0000 </r>
       <r>   -3.7471    1.0000 </r>
       <r>   -3.7063    1.0000 </r>
       <r>   -3.6641    1.0000 </r>
       <r>   -3.5199    1.0000 </r>
       <r>   -3.2523    1.0000 </r>
       <r>   -3.1585    1.0000 </r>
       <r>   -2.9915    1.0000 </r>
       <r>   -2.9647    1.0000 </r>
       <r>   -2.7099    1.0000 </r>
       <r>   -2.6724    1.0000 </r>
       <r>   -2.6305    1.0000 </r>
       <r>   -2.5803    1.0000 </r>
       <r>   -2.5359    1.0000 </r>
       <r>   -2.4679    1.0000 </r>
       <r>   -2.2970    1.0000 </r>
       <r>   -2.2567    1.0000 </r>
       <r>   -2.2185    1.0000 </r>
       <r>   -2.0397    1.0000 </r>
       <r>   -1.9720    1.0000 </r>
       <r>   -1.8342    1.0000 </r>
       <r>   -1.6598    1.0000 </r>
       <r>   -1.6448    1.0000 </r>
       <r>   -1.5696    1.0000 </r>
       <r>   -1.5612    1.0000 </r>
       <r>   -1.4490    1.0000 </r>
       <r>   -1.3480    1.0000 </r>
       <r>    0.8685    0.0000 </r>
       <r>    1.3621    0.0000 </r>
       <r>    1.8186    0.0000 </r>
       <r>    1.8576    0.0000 </r>
       <r>    1.8732    0.0000 </r>
       <r>    1.8876    0.0000 </r>
       <r>    1.9642    0.0000 </r>
       <r>    2.0004    0.0000 </r>
       <r>    2.0690    0.0000 </r>
       <r>    2.3421    0.0000 </r>
       <r>    2.4142    0.0000 </r>
       <r>    5.7653    0.0000 </r>
      </set>
      <set comment="kpoint 4">
       <r>  -34.8470    1.0000 </r>
       <r>  -33.7402    1.0000 </r>
       <r>  -33.6996    1.0000 </r>
       <r>  -33.5598    1.0000 </r>
       <r>  -18.4008    1.0000 </r>
       <r>  -18.2381    1.0000 </r>
       <r>  -18.0020    1.0000 </r>
       <r>  -17.6975    1.0000 </r>
       <r>  -17.6062    1.0000 </r>
       <r>  -17.4989    1.0000 </r>
       <r>  -17.3657    1.0000 </r>
       <r>  -17.3045    1.0000 </r>
       <r>  -17.2502    1.0000 </r>
       <r>  -17.1262    1.0000 </r>
       <r>  -16.9597    1.0000 </r>
       <r>  -16.7399    1.0000 </r>
       <r>  -16.7015    1.0000 </r>
       <r>  -16.6386    1.0000 </r>
       <r>  -15.7823    1.0000 </r>
       <r>  -15.7599    1.0000 </r>
       <r>  -15.7104    1.0000 </r>
       <r>  -15.6718    1.0000 </r>
       <r>  -15.5925    1.0000 </r>
       <r>  -15.4953    1.0000 </r>
       <r>  -15.4143    1.0000 </r>
       <r>  -15.3188    1.0000 </r>
       <r>  -15.3156    1.0000 </r>
       <r>  -15.2392    1.0000 </r>
       <r>   -5.2610    1.0000 </r>
       <r>   -5.2432    1.0000 </r>
       <r>   -5.1376    1.0000 </r>
       <r>   -5.0843    1.0000 </r>
       <r>   -4.9333    1.0000 </r>
       <r>   -4.8336    1.0000 </r>
       <r>   -4.6528    1.0000 </r>
       <r>   -4.4369    1.0000 </r>
       <r>   -4.1967    1.0000 </r>
       <r>   -3.9141    1.0000 </r>
       <r>   -3.7682    1.0000 </r>
       <r>   -3.7336    1.0000 </r>
       <r>   -3.6776    1.0000 </r>
       <r>   -3.6291    1.0000 </r>
       <r>   -3.4663    1.0000 </r>
       <r>   -3.4390    1.0000 </r>
       <r>   -3.2642    1.0000 </r>
       <r>   -3.2066    1.0000 </r>
       <r>   -3.0567    1.0000 </r>
       <r>   -2.9561    1.0000 </r>
       <r>   -2.7953    1.0000 </r>
       <r>   -2.6154    1.0000 </r>
       <r>   -2.5672    1.0000 </r>
       <r>   -2.5029    1.0000 </r>
       <r>   -2.5000    1.0000 </r>
       <r>   -2.4541    1.0000 </r>
       <r>   -2.2073    1.0000 </r>
       <r>   -2.1740    1.0000 </r>
       <r>   -2.0262    1.0000 </r>
       <r>   -1.9152    1.0000 </r>
       <r>   -1.8803    1.0000 </r>
       <r>   -1.7733    1.0000 </r>
       <r>   -1.6736    1.0000 </r>
       <r>   -1.6468    1.0000 </r>
       <r>   -1.3577    1.0000 </r>
       <r>   -1.1285    1.0000 </r>
       <r>    0.9054    0.0000 </r>
       <r>    1.3922    0.0000 </r>
       <r>    1.9316    0.0000 </r>
       <r>    2.3620    0.0000 </r>
       <r>    2.3778    0.0000 </r>
       <r>    2.4124    0.0000 </r>
       <r>    2.4514    0.0000 </r>
       <r>    2.5007    0.0000 </r>
       <r>    2.5158    0.0000 </r>
       <r>    2.5871    0.0000 </r>
       <r>    2.7709    0.0000 </r>
       <r>    6.6586    0.0000 </r>
      </set>
      <set comment="kpoint 5">
       <r>  -34.8561    1.0000 </r>
       <r>  -33.7510    1.0000 </r>
       <r>  -33.7102    1.0000 </r>
       <r>  -33.5705    1.0000 </r>
       <r>  -18.3103    1.0000 </r>
       <r>  -18.2831    1.0000 </r>
       <r>  -18.2343    1.0000 </r>
       <r>  -17.7366    1.0000 </r>
       <r>  -17.3563    1.0000 </r>
       <r>  -17.3526    1.0000 </r>
       <r>  -17.3332    1.0000 </r>
       <r>  -17.3269    1.0000 </r>
       <r>  -17.2581    1.0000 </r>
       <r>  -17.1441    1.0000 </r>
       <r>  -17.1402    1.0000 </r>
       <r>  -16.7513    1.0000 </r>
       <r>  -16.7406    1.0000 </r>
       <r>  -16.6732    1.0000 </r>
       <r>  -16.1491    1.0000 </r>
       <r>  -15.7956    1.0000 </r>
       <r>  -15.7319    1.0000 </r>
       <r>  -15.6977    1.0000 </r>
       <r>  -15.6541    1.0000 </r>
       <r>  -15.6101    1.0000 </r>
       <r>  -15.5715    1.0000 </r>
       <r>  -15.4946    1.0000 </r>
       <r>  -15.4297    1.0000 </r>
       <r>  -15.2808    1.0000 </r>
       <r>   -5.0451    1.0000 </r>
       <r>   -4.6142    1.0000 </r>
       <r>   -4.3101    1.0000 </r>
       <r>   -4.2014    1.0000 </r>
       <r>   -4.1532    1.0000 </r>
       <r>   -4.0297    1.0000 </r>
       <r>   -3.9107    1.0000 </r>
       <r>   -3.8976    1.0000 </r>
       <r>   -3.8577    1.0000 </r>
       <r>   -3.8425    1.0000 </r>
       <r>   -3.7323    1.0000 </r>
       <r>   -3.6902    1.0000 </r>
       <r>   -3.4696    1.0000 </r>
       <r>   -3.3527    1.0000 </r>
       <r>   -3.1682    1.0000 </r>
       <r>   -3.0687    1.0000 </r>
       <r>   -2.8776    1.0000 </r>
       <r>   -2.8653    1.0000 </r>
       <r>   -2.6953    1.0000 </r>
       <r>   -2.6206    1.0000 </r>
       <r>   -2.5239    1.0000 </r>
       <r>   -2.3695    1.0000 </r>
       <r>   -2.2307    1.0000 </r>
       <r>   -2.1615    1.0000 </r>
       <r>   -2.0054    1.0000 </r>
       <r>   -1.9747    1.0000 </r>
       <r>   -1.9416    1.0000 </r>
       <r>   -1.9314    1.0000 </r>
       <r>   -1.9143    1.0000 </r>
       <r>   -1.8680    1.0000 </r>
       <r>   -1.8109    1.0000 </r>
       <r>   -1.7602    1.0000 </r>
       <r>   -1.6138    1.0000 </r>
       <r>   -1.5936    1.0000 </r>
       <r>   -1.4731    1.0000 </r>
       <r>   -1.0548    1.0000 </r>
       <r>    1.1006    0.0000 </r>
       <r>    1.2531    0.0000 </r>
       <r>    1.3505    0.0000 </r>
       <r>    1.4199    0.0000 </r>
       <r>    1.4516    0.0000 </r>
       <r>    1.5378    0.0000 </r>
       <r>    1.5651    0.0000 </r>
       <r>    1.6049    0.0000 </r>
       <r>    1.7989    0.0000 </r>
       <r>    2.0625    0.0000 </r>
       <r>    2.3158    0.0000 </r>
       <r>    5.3006    0.0000 </r>
      </set>
      <set comment="kpoint 6">
       <r>  -34.8496    1.0000 </r>
       <r>  -33.7433    1.0000 </r>
       <r>  -33.7026    1.0000 </r>
       <r>  -33.5628    1.0000 </r>
       <r>  -18.2663    1.0000 </r>
       <r>  -18.1817    1.0000 </r>
       <r>  -18.0676    1.0000 </r>
       <r>  -17.7075    1.0000 </r>
       <r>  -17.4923    1.0000 </r>
       <r>  -17.3987    1.0000 </r>
       <r>  -17.3614    1.0000 </r>
       <r>  -17.3214    1.0000 </r>
       <r>  -17.2530    1.0000 </r>
       <r>  -17.1602    1.0000 </r>
       <r>  -17.0213    1.0000 </r>
       <r>  -16.7944    1.0000 </r>
       <r>  -16.6917    1.0000 </r>
       <r>  -16.6627    1.0000 </r>
       <r>  -15.9744    1.0000 </r>
       <r>  -15.7955    1.0000 </r>
       <r>  -15.7308    1.0000 </r>
       <r>  -15.6891    1.0000 </r>
       <r>  -15.5810    1.0000 </r>
       <r>  -15.5709    1.0000 </r>
       <r>  -15.4903    1.0000 </r>
       <r>  -15.4375    1.0000 </r>
       <r>  -15.3689    1.0000 </r>
       <r>  -15.3348    1.0000 </r>
       <r>   -5.0803    1.0000 </r>
       <r>   -4.8731    1.0000 </r>
       <r>   -4.6960    1.0000 </r>
       <r>   -4.6719    1.0000 </r>
       <r>   -4.5447    1.0000 </r>
       <r>   -4.3948    1.0000 </r>
       <r>   -4.2994    1.0000 </r>
       <r>   -4.0655    1.0000 </r>
       <r>   -4.0195    1.0000 </r>
       <r>   -3.9881    1.0000 </r>
       <r>   -3.9572    1.0000 </r>
       <r>   -3.9055    1.0000 </r>
       <r>   -3.8269    1.0000 </r>
       <r>   -3.6602    1.0000 </r>
       <r>   -3.5747    1.0000 </r>
       <r>   -3.5011    1.0000 </r>
       <r>   -3.3692    1.0000 </r>
       <r>   -3.1538    1.0000 </r>
       <r>   -3.1123    1.0000 </r>
       <r>   -3.0381    1.0000 </r>
       <r>   -2.8837    1.0000 </r>
       <r>   -2.6500    1.0000 </r>
       <r>   -2.4689    1.0000 </r>
       <r>   -2.3884    1.0000 </r>
       <r>   -2.1794    1.0000 </r>
       <r>   -2.0960    1.0000 </r>
       <r>   -2.0555    1.0000 </r>
       <r>   -2.0090    1.0000 </r>
       <r>   -1.9528    1.0000 </r>
       <r>   -1.9328    1.0000 </r>
       <r>   -1.8632    1.0000 </r>
       <r>   -1.6745    1.0000 </r>
       <r>   -1.5939    1.0000 </r>
       <r>   -1.4613    1.0000 </r>
       <r>   -1.3620    1.0000 </r>
       <r>   -1.1316    1.0000 </r>
       <r>    1.1996    0.0000 </r>
       <r>    1.5686    0.0000 </r>
       <r>    1.8779    0.0000 </r>
       <r>    1.9508    0.0000 </r>
       <r>    1.9542    0.0000 </r>
       <r>    2.0061    0.0000 </r>
       <r>    2.0650    0.0000 </r>
       <r>    2.1072    0.0000 </r>
       <r>    2.1394    0.0000 </r>
       <r>    2.4205    0.0000 </r>
       <r>    2.4492    0.0000 </r>
       <r>    6.2786    0.0000 </r>
      </set>
      <set comment="kpoint 7">
       <r>  -34.8444    1.0000 </r>
       <r>  -33.7371    1.0000 </r>
       <r>  -33.6966    1.0000 </r>
       <r>  -33.5566    1.0000 </r>
       <r>  -18.3085    1.0000 </r>
       <r>  -18.1489    1.0000 </r>
       <r>  -17.9191    1.0000 </r>
       <r>  -17.6310    1.0000 </r>
       <r>  -17.5677    1.0000 </r>
       <r>  -17.4529    1.0000 </r>
       <r>  -17.3295    1.0000 </r>
       <r>  -17.3118    1.0000 </r>
       <r>  -17.2522    1.0000 </r>
       <r>  -17.0950    1.0000 </r>
       <r>  -16.9008    1.0000 </r>
       <r>  -16.8552    1.0000 </r>
       <r>  -16.6569    1.0000 </r>
       <r>  -16.6454    1.0000 </r>
       <r>  -15.8698    1.0000 </r>
       <r>  -15.7975    1.0000 </r>
       <r>  -15.7548    1.0000 </r>
       <r>  -15.6601    1.0000 </r>
       <r>  -15.5655    1.0000 </r>
       <r>  -15.5211    1.0000 </r>
       <r>  -15.4831    1.0000 </r>
       <r>  -15.3738    1.0000 </r>
       <r>  -15.3636    1.0000 </r>
       <r>  -15.2839    1.0000 </r>
       <r>   -5.2500    1.0000 </r>
       <r>   -5.1653    1.0000 </r>
       <r>   -5.1122    1.0000 </r>
       <r>   -5.0770    1.0000 </r>
       <r>   -4.9271    1.0000 </r>
       <r>   -4.7646    1.0000 </r>
       <r>   -4.6403    1.0000 </r>
       <r>   -4.4360    1.0000 </r>
       <r>   -4.2623    1.0000 </r>
       <r>   -4.1364    1.0000 </r>
       <r>   -3.9972    1.0000 </r>
       <r>   -3.9565    1.0000 </r>
       <r>   -3.9366    1.0000 </r>
       <r>   -3.8912    1.0000 </r>
       <r>   -3.8542    1.0000 </r>
       <r>   -3.7771    1.0000 </r>
       <r>   -3.5268    1.0000 </r>
       <r>   -3.3518    1.0000 </r>
       <r>   -3.2324    1.0000 </r>
       <r>   -3.1823    1.0000 </r>
       <r>   -3.0307    1.0000 </r>
       <r>   -2.7355    1.0000 </r>
       <r>   -2.5462    1.0000 </r>
       <r>   -2.5049    1.0000 </r>
       <r>   -2.2405    1.0000 </r>
       <r>   -2.1607    1.0000 </r>
       <r>   -2.1283    1.0000 </r>
       <r>   -2.0966    1.0000 </r>
       <r>   -2.0671    1.0000 </r>
       <r>   -1.9689    1.0000 </r>
       <r>   -1.8862    1.0000 </r>
       <r>   -1.7988    1.0000 </r>
       <r>   -1.6621    1.0000 </r>
       <r>   -1.3971    1.0000 </r>
       <r>   -1.2215    1.0000 </r>
       <r>   -1.1076    1.0000 </r>
       <r>    1.2357    0.0000 </r>
       <r>    1.6185    0.0000 </r>
       <r>    2.0639    0.0000 </r>
       <r>    2.4273    0.0000 </r>
       <r>    2.4353    0.0000 </r>
       <r>    2.4564    0.0000 </r>
       <r>    2.5032    0.0000 </r>
       <r>    2.5209    0.0000 </r>
       <r>    2.5901    0.0000 </r>
       <r>    2.7453    0.0000 </r>
       <r>    2.8175    0.0000 </r>
       <r>    6.6125    0.0000 </r>
      </set>
      <set comment="kpoint 8">
       <r>  -34.8433    1.0000 </r>
       <r>  -33.7360    1.0000 </r>
       <r>  -33.6954    1.0000 </r>
       <r>  -33.5555    1.0000 </r>
       <r>  -18.1339    1.0000 </r>
       <r>  -18.0274    1.0000 </r>
       <r>  -17.8753    1.0000 </r>
       <r>  -17.5872    1.0000 </r>
       <r>  -17.4787    1.0000 </r>
       <r>  -17.4041    1.0000 </r>
       <r>  -17.3407    1.0000 </r>
       <r>  -17.2702    1.0000 </r>
       <r>  -17.2508    1.0000 </r>
       <r>  -17.2290    1.0000 </r>
       <r>  -16.8944    1.0000 </r>
       <r>  -16.7790    1.0000 </r>
       <r>  -16.6939    1.0000 </r>
       <r>  -16.6631    1.0000 </r>
       <r>  -16.0351    1.0000 </r>
       <r>  -15.8367    1.0000 </r>
       <r>  -15.7548    1.0000 </r>
       <r>  -15.6928    1.0000 </r>
       <r>  -15.6485    1.0000 </r>
       <r>  -15.5595    1.0000 </r>
       <r>  -15.5167    1.0000 </r>
       <r>  -15.4642    1.0000 </r>
       <r>  -15.4017    1.0000 </r>
       <r>  -15.3747    1.0000 </r>
       <r>   -5.0953    1.0000 </r>
       <r>   -4.9376    1.0000 </r>
       <r>   -4.8567    1.0000 </r>
       <r>   -4.7530    1.0000 </r>
       <r>   -4.5670    1.0000 </r>
       <r>   -4.4483    1.0000 </r>
       <r>   -4.3873    1.0000 </r>
       <r>   -4.3621    1.0000 </r>
       <r>   -4.3520    1.0000 </r>
       <r>   -4.2709    1.0000 </r>
       <r>   -4.2564    1.0000 </r>
       <r>   -4.2163    1.0000 </r>
       <r>   -4.1179    1.0000 </r>
       <r>   -4.0330    1.0000 </r>
       <r>   -3.9834    1.0000 </r>
       <r>   -3.9554    1.0000 </r>
       <r>   -3.9030    1.0000 </r>
       <r>   -3.8806    1.0000 </r>
       <r>   -3.5516    1.0000 </r>
       <r>   -3.5424    1.0000 </r>
       <r>   -3.3108    1.0000 </r>
       <r>   -3.0070    1.0000 </r>
       <r>   -2.9296    1.0000 </r>
       <r>   -2.5038    1.0000 </r>
       <r>   -2.2791    1.0000 </r>
       <r>   -2.0853    1.0000 </r>
       <r>   -1.8209    1.0000 </r>
       <r>   -1.7811    1.0000 </r>
       <r>   -1.7065    1.0000 </r>
       <r>   -1.6450    1.0000 </r>
       <r>   -1.6115    1.0000 </r>
       <r>   -1.5261    1.0000 </r>
       <r>   -1.5014    1.0000 </r>
       <r>   -1.3783    1.0000 </r>
       <r>   -1.2940    1.0000 </r>
       <r>   -0.7391    1.0000 </r>
       <r>    1.7804    0.0000 </r>
       <r>    2.0019    0.0000 </r>
       <r>    2.0423    0.0000 </r>
       <r>    2.1706    0.0000 </r>
       <r>    2.2671    0.0000 </r>
       <r>    2.3003    0.0000 </r>
       <r>    2.3554    0.0000 </r>
       <r>    2.3899    0.0000 </r>
       <r>    2.4425    0.0000 </r>
       <r>    2.5745    0.0000 </r>
       <r>    2.6656    0.0000 </r>
       <r>    2.6984    0.0000 </r>
      </set>
      <set comment="kpoint 9">
       <r>  -34.8383    1.0000 </r>
       <r>  -33.7301    1.0000 </r>
       <r>  -33.6896    1.0000 </r>
       <r>  -33.5496    1.0000 </r>
       <r>  -18.0671    1.0000 </r>
       <r>  -17.9191    1.0000 </r>
       <r>  -17.7121    1.0000 </r>
       <r>  -17.5324    1.0000 </r>
       <r>  -17.4558    1.0000 </r>
       <r>  -17.4109    1.0000 </r>
       <r>  -17.3264    1.0000 </r>
       <r>  -17.2718    1.0000 </r>
       <r>  -17.2160    1.0000 </r>
       <r>  -17.0742    1.0000 </r>
       <r>  -16.8822    1.0000 </r>
       <r>  -16.7727    1.0000 </r>
       <r>  -16.6678    1.0000 </r>
       <r>  -16.6523    1.0000 </r>
       <r>  -16.0971    1.0000 </r>
       <r>  -15.8733    1.0000 </r>
       <r>  -15.8125    1.0000 </r>
       <r>  -15.7206    1.0000 </r>
       <r>  -15.6454    1.0000 </r>
       <r>  -15.5987    1.0000 </r>
       <r>  -15.5045    1.0000 </r>
       <r>  -15.4839    1.0000 </r>
       <r>  -15.4489    1.0000 </r>
       <r>  -15.3681    1.0000 </r>
       <r>   -5.2519    1.0000 </r>
       <r>   -5.1781    1.0000 </r>
       <r>   -5.1254    1.0000 </r>
       <r>   -4.9239    1.0000 </r>
       <r>   -4.8443    1.0000 </r>
       <r>   -4.8258    1.0000 </r>
       <r>   -4.7356    1.0000 </r>
       <r>   -4.6321    1.0000 </r>
       <r>   -4.5553    1.0000 </r>
       <r>   -4.5011    1.0000 </r>
       <r>   -4.4332    1.0000 </r>
       <r>   -4.4103    1.0000 </r>
       <r>   -4.3369    1.0000 </r>
       <r>   -4.2721    1.0000 </r>
       <r>   -4.2422    1.0000 </r>
       <r>   -4.0709    1.0000 </r>
       <r>   -3.9505    1.0000 </r>
       <r>   -3.8742    1.0000 </r>
       <r>   -3.7953    1.0000 </r>
       <r>   -3.7362    1.0000 </r>
       <r>   -3.4400    1.0000 </r>
       <r>   -3.3025    1.0000 </r>
       <r>   -2.9457    1.0000 </r>
       <r>   -2.4134    1.0000 </r>
       <r>   -2.3258    1.0000 </r>
       <r>   -2.1716    1.0000 </r>
       <r>   -1.8501    1.0000 </r>
       <r>   -1.7921    1.0000 </r>
       <r>   -1.5777    1.0000 </r>
       <r>   -1.5145    1.0000 </r>
       <r>   -1.4805    1.0000 </r>
       <r>   -1.4500    1.0000 </r>
       <r>   -1.4304    1.0000 </r>
       <r>   -1.3034    1.0000 </r>
       <r>   -1.0980    1.0000 </r>
       <r>   -0.5815    1.0000 </r>
       <r>    1.8973    0.0000 </r>
       <r>    2.1476    0.0000 </r>
       <r>    2.4170    0.0000 </r>
       <r>    2.4485    0.0000 </r>
       <r>    2.5833    0.0000 </r>
       <r>    2.6179    0.0000 </r>
       <r>    2.7015    0.0000 </r>
       <r>    2.7139    0.0000 </r>
       <r>    2.7328    0.0000 </r>
       <r>    2.8225    0.0000 </r>
       <r>    2.9486    0.0000 </r>
       <r>    7.0527    0.0000 </r>
      </set>
      <set comment="kpoint 10">
       <r>  -34.8335    1.0000 </r>
       <r>  -33.7244    1.0000 </r>
       <r>  -33.6840    1.0000 </r>
       <r>  -33.5440    1.0000 </r>
       <r>  -17.7957    1.0000 </r>
       <r>  -17.6718    1.0000 </r>
       <r>  -17.5624    1.0000 </r>
       <r>  -17.5042    1.0000 </r>
       <r>  -17.4558    1.0000 </r>
       <r>  -17.3721    1.0000 </r>
       <r>  -17.2662    1.0000 </r>
       <r>  -17.2478    1.0000 </r>
       <r>  -17.2151    1.0000 </r>
       <r>  -17.0635    1.0000 </r>
       <r>  -16.7776    1.0000 </r>
       <r>  -16.6801    1.0000 </r>
       <r>  -16.6762    1.0000 </r>
       <r>  -16.6468    1.0000 </r>
       <r>  -16.3619    1.0000 </r>
       <r>  -15.9171    1.0000 </r>
       <r>  -15.8639    1.0000 </r>
       <r>  -15.8628    1.0000 </r>
       <r>  -15.7490    1.0000 </r>
       <r>  -15.6242    1.0000 </r>
       <r>  -15.5888    1.0000 </r>
       <r>  -15.5317    1.0000 </r>
       <r>  -15.4266    1.0000 </r>
       <r>  -15.4087    1.0000 </r>
       <r>   -5.3665    1.0000 </r>
       <r>   -5.3026    1.0000 </r>
       <r>   -5.2553    1.0000 </r>
       <r>   -5.2064    1.0000 </r>
       <r>   -4.9959    1.0000 </r>
       <r>   -4.9958    1.0000 </r>
       <r>   -4.9317    1.0000 </r>
       <r>   -4.9167    1.0000 </r>
       <r>   -4.8977    1.0000 </r>
       <r>   -4.7584    1.0000 </r>
       <r>   -4.6900    1.0000 </r>
       <r>   -4.5576    1.0000 </r>
       <r>   -4.5451    1.0000 </r>
       <r>   -4.4934    1.0000 </r>
       <r>   -4.3187    1.0000 </r>
       <r>   -4.2601    1.0000 </r>
       <r>   -4.2501    1.0000 </r>
       <r>   -4.0690    1.0000 </r>
       <r>   -3.9415    1.0000 </r>
       <r>   -3.9040    1.0000 </r>
       <r>   -3.5109    1.0000 </r>
       <r>   -3.3804    1.0000 </r>
       <r>   -3.2234    1.0000 </r>
       <r>   -2.2859    1.0000 </r>
       <r>   -2.2712    1.0000 </r>
       <r>   -2.2053    1.0000 </r>
       <r>   -1.8017    1.0000 </r>
       <r>   -1.7615    1.0000 </r>
       <r>   -1.3984    1.0000 </r>
       <r>   -1.3598    1.0000 </r>
       <r>   -1.1314    1.0000 </r>
       <r>   -1.1288    1.0000 </r>
       <r>   -1.1198    1.0000 </r>
       <r>   -1.0589    1.0000 </r>
       <r>   -1.0526    1.0000 </r>
       <r>   -0.2512    1.0000 </r>
       <r>    2.4311    0.0000 </r>
       <r>    2.4682    0.0000 </r>
       <r>    2.6270    0.0000 </r>
       <r>    2.6369    0.0000 </r>
       <r>    2.8269    0.0000 </r>
       <r>    2.8567    0.0000 </r>
       <r>    2.9142    0.0000 </r>
       <r>    2.9451    0.0000 </r>
       <r>    2.9907    0.0000 </r>
       <r>    6.2695    0.0000 </r>
       <r>    6.3587    0.0000 </r>
       <r>    6.6528    0.0000 </r>
      </set>
     </set>
    </set>
   </array>
  </eigenvalues>
  <separator name="orbital magnetization" >
   <v name="MAGDIPOLOUT">      0.00000000      0.00000000      0.00000000</v>
  </separator>
  <dos>
   <i name="efermi">     -0.18807421 </i>
   <total>
    <array>
     <dimension dim="1">gridpoints</dimension>
     <dimension dim="2">spin</dimension>
     <field>energy</field>
     <field>total</field>
     <field>integrated</field>
     <set>
      <set comment="spin 1">
       <r>   -36.9576     0.0000     0.0000 </r>
       <r>   -36.8039     0.0000     0.0000 </r>
       <r>   -36.6502     0.0000     0.0000 </r>
       <r>   -36.4966     0.0000     0.0000 </r>
       <r>   -36.3429     0.0000     0.0000 </r>
       <r>   -36.1892     0.0000     0.0000 </r>
       <r>   -36.0355     0.0000     0.0000 </r>
       <r>   -35.8818     0.0000     0.0000 </r>
       <r>   -35.7281     0.0000     0.0000 </r>
       <r>   -35.5744     0.0000     0.0000 </r>
       <r>   -35.4207     0.0000     0.0000 </r>
       <r>   -35.2671     0.0000     0.0000 </r>
       <r>   -35.1134     0.0000     0.0000 </r>
       <r>   -34.9597     0.0000     0.0000 </r>
       <r>   -34.8060     0.0000     2.0000 </r>
       <r>   -34.6523     0.0000     2.0000 </r>
       <r>   -34.4986     0.0000     2.0000 </r>
       <r>   -34.3449     0.0000     2.0000 </r>
       <r>   -34.1913     0.0000     2.0000 </r>
       <r>   -34.0376     0.0000     2.0000 </r>
       <r>   -33.8839     0.0000     2.0000 </r>
       <r>   -33.7302    51.7228     3.7091 </r>
       <r>   -33.5765    12.2538     6.0056 </r>
       <r>   -33.4228     0.0000     8.0000 </r>
       <r>   -33.2691     0.0000     8.0000 </r>
       <r>   -33.1154     0.0000     8.0000 </r>
       <r>   -32.9618     0.0000     8.0000 </r>
       <r>   -32.8081     0.0000     8.0000 </r>
       <r>   -32.6544     0.0000     8.0000 </r>
       <r>   -32.5007     0.0000     8.0000 </r>
       <r>   -32.3470     0.0000     8.0000 </r>
       <r>   -32.1933     0.0000     8.0000 </r>
       <r>   -32.0396     0.0000     8.0000 </r>
       <r>   -31.8860     0.0000     8.0000 </r>
       <r>   -31.7323     0.0000     8.0000 </r>
       <r>   -31.5786     0.0000     8.0000 </r>
       <r>   -31.4249     0.0000     8.0000 </r>
       <r>   -31.2712     0.0000     8.0000 </r>
       <r>   -31.1175     0.0000     8.0000 </r>
       <r>   -30.9638     0.0000     8.0000 </r>
       <r>   -30.8101     0.0000     8.0000 </r>
       <r>   -30.6565     0.0000     8.0000 </r>
       <r>   -30.5028     0.0000     8.0000 </r>
       <r>   -30.3491     0.0000     8.0000 </r>
       <r>   -30.1954     0.0000     8.0000 </r>
       <r>   -30.0417     0.0000     8.0000 </r>
       <r>   -29.8880     0.0000     8.0000 </r>
       <r>   -29.7343     0.0000     8.0000 </r>
       <r>   -29.5807     0.0000     8.0000 </r>
       <r>   -29.4270     0.0000     8.0000 </r>
       <r>   -29.2733     0.0000     8.0000 </r>
       <r>   -29.1196     0.0000     8.0000 </r>
       <r>   -28.9659     0.0000     8.0000 </r>
       <r>   -28.8122     0.0000     8.0000 </r>
       <r>   -28.6585     0.0000     8.0000 </r>
       <r>   -28.5048     0.0000     8.0000 </r>
       <r>   -28.3512     0.0000     8.0000 </r>
       <r>   -28.1975     0.0000     8.0000 </r>
       <r>   -28.0438     0.0000     8.0000 </r>
       <r>   -27.8901     0.0000     8.0000 </r>
       <r>   -27.7364     0.0000     8.0000 </r>
       <r>   -27.5827     0.0000     8.0000 </r>
       <r>   -27.4290     0.0000     8.0000 </r>
       <r>   -27.2754     0.0000     8.0000 </r>
       <r>   -27.1217     0.0000     8.0000 </r>
       <r>   -26.9680     0.0000     8.0000 </r>
       <r>   -26.8143     0.0000     8.0000 </r>
       <r>   -26.6606     0.0000     8.0000 </r>
       <r>   -26.5069     0.0000     8.0000 </r>
       <r>   -26.3532     0.0000     8.0000 </r>
       <r>   -26.1995     0.0000     8.0000 </r>
       <r>   -26.0459     0.0000     8.0000 </r>
       <r>   -25.8922     0.0000     8.0000 </r>
       <r>   -25.7385     0.0000     8.0000 </r>
       <r>   -25.5848     0.0000     8.0000 </r>
       <r>   -25.4311     0.0000     8.0000 </r>
       <r>   -25.2774     0.0000     8.0000 </r>
       <r>   -25.1237     0.0000     8.0000 </r>
       <r>   -24.9701     0.0000     8.0000 </r>
       <r>   -24.8164     0.0000     8.0000 </r>
       <r>   -24.6627     0.0000     8.0000 </r>
       <r>   -24.5090     0.0000     8.0000 </r>
       <r>   -24.3553     0.0000     8.0000 </r>
       <r>   -24.2016     0.0000     8.0000 </r>
       <r>   -24.0479     0.0000     8.0000 </r>
       <r>   -23.8942     0.0000     8.0000 </r>
       <r>   -23.7406     0.0000     8.0000 </r>
       <r>   -23.5869     0.0000     8.0000 </r>
       <r>   -23.4332     0.0000     8.0000 </r>
       <r>   -23.2795     0.0000     8.0000 </r>
       <r>   -23.1258     0.0000     8.0000 </r>
       <r>   -22.9721     0.0000     8.0000 </r>
       <r>   -22.8184     0.0000     8.0000 </r>
       <r>   -22.6648     0.0000     8.0000 </r>
       <r>   -22.5111     0.0000     8.0000 </r>
       <r>   -22.3574     0.0000     8.0000 </r>
       <r>   -22.2037     0.0000     8.0000 </r>
       <r>   -22.0500     0.0000     8.0000 </r>
       <r>   -21.8963     0.0000     8.0000 </r>
       <r>   -21.7426     0.0000     8.0000 </r>
       <r>   -21.5889     0.0000     8.0000 </r>
       <r>   -21.4353     0.0000     8.0000 </r>
       <r>   -21.2816     0.0000     8.0000 </r>
       <r>   -21.1279     0.0000     8.0000 </r>
       <r>   -20.9742     0.0000     8.0000 </r>
       <r>   -20.8205     0.0000     8.0000 </r>
       <r>   -20.6668     0.0000     8.0000 </r>
       <r>   -20.5131     0.0000     8.0000 </r>
       <r>   -20.3595     0.0000     8.0000 </r>
       <r>   -20.2058     0.0000     8.0000 </r>
       <r>   -20.0521     0.0000     8.0000 </r>
       <r>   -19.8984     0.0000     8.0000 </r>
       <r>   -19.7447     0.0000     8.0000 </r>
       <r>   -19.5910     0.0000     8.0000 </r>
       <r>   -19.4373     0.0000     8.0000 </r>
       <r>   -19.2836     0.0000     8.0000 </r>
       <r>   -19.1300     0.0000     8.0000 </r>
       <r>   -18.9763     0.0000     8.0000 </r>
       <r>   -18.8226     0.0000     8.0000 </r>
       <r>   -18.6689     0.0000     8.0000 </r>
       <r>   -18.5152     0.0000     8.0000 </r>
       <r>   -18.3615     9.1008     8.2799 </r>
       <r>   -18.2078    13.9849    10.3180 </r>
       <r>   -18.0542     7.1111    11.8098 </r>
       <r>   -17.9005     4.8382    12.9154 </r>
       <r>   -17.7468    23.0675    13.7826 </r>
       <r>   -17.5931    11.9005    15.4162 </r>
       <r>   -17.4394    15.0924    18.0292 </r>
       <r>   -17.2857    24.6186    23.1745 </r>
       <r>   -17.1320    14.2232    26.8817 </r>
       <r>   -16.9783     5.5957    28.7713 </r>
       <r>   -16.8247    10.8692    30.0364 </r>
       <r>   -16.6710    77.8003    33.7778 </r>
       <r>   -16.5173     0.0131    36.0000 </r>
       <r>   -16.3636     0.4421    36.0350 </r>
       <r>   -16.2099     2.3361    36.3249 </r>
       <r>   -16.0562     5.3159    36.8286 </r>
       <r>   -15.9025     8.7994    37.7323 </r>
       <r>   -15.7489    25.7329    41.2031 </r>
       <r>   -15.5952    39.0234    46.1766 </r>
       <r>   -15.4415    35.0014    51.2212 </r>
       <r>   -15.2878    15.2813    55.3515 </r>
       <r>   -15.1341     0.0000    56.0000 </r>
       <r>   -14.9804     0.0000    56.0000 </r>
       <r>   -14.8267     0.0000    56.0000 </r>
       <r>   -14.6730     0.0000    56.0000 </r>
       <r>   -14.5194     0.0000    56.0000 </r>
       <r>   -14.3657     0.0000    56.0000 </r>
       <r>   -14.2120     0.0000    56.0000 </r>
       <r>   -14.0583     0.0000    56.0000 </r>
       <r>   -13.9046     0.0000    56.0000 </r>
       <r>   -13.7509     0.0000    56.0000 </r>
       <r>   -13.5972     0.0000    56.0000 </r>
       <r>   -13.4436     0.0000    56.0000 </r>
       <r>   -13.2899     0.0000    56.0000 </r>
       <r>   -13.1362     0.0000    56.0000 </r>
       <r>   -12.9825     0.0000    56.0000 </r>
       <r>   -12.8288     0.0000    56.0000 </r>
       <r>   -12.6751     0.0000    56.0000 </r>
       <r>   -12.5214     0.0000    56.0000 </r>
       <r>   -12.3677     0.0000    56.0000 </r>
       <r>   -12.2141     0.0000    56.0000 </r>
       <r>   -12.0604     0.0000    56.0000 </r>
       <r>   -11.9067     0.0000    56.0000 </r>
       <r>   -11.7530     0.0000    56.0000 </r>
       <r>   -11.5993     0.0000    56.0000 </r>
       <r>   -11.4456     0.0000    56.0000 </r>
       <r>   -11.2919     0.0000    56.0000 </r>
       <r>   -11.1383     0.0000    56.0000 </r>
       <r>   -10.9846     0.0000    56.0000 </r>
       <r>   -10.8309     0.0000    56.0000 </r>
       <r>   -10.6772     0.0000    56.0000 </r>
       <r>   -10.5235     0.0000    56.0000 </r>
       <r>   -10.3698     0.0000    56.0000 </r>
       <r>   -10.2161     0.0000    56.0000 </r>
       <r>   -10.0624     0.0000    56.0000 </r>
       <r>    -9.9088     0.0000    56.0000 </r>
       <r>    -9.7551     0.0000    56.0000 </r>
       <r>    -9.6014     0.0000    56.0000 </r>
       <r>    -9.4477     0.0000    56.0000 </r>
       <r>    -9.2940     0.0000    56.0000 </r>
       <r>    -9.1403     0.0000    56.0000 </r>
       <r>    -8.9866     0.0000    56.0000 </r>
       <r>    -8.8330     0.0000    56.0000 </r>
       <r>    -8.6793     0.0000    56.0000 </r>
       <r>    -8.5256     0.0000    56.0000 </r>
       <r>    -8.3719     0.0000    56.0000 </r>
       <r>    -8.2182     0.0000    56.0000 </r>
       <r>    -8.0645     0.0000    56.0000 </r>
       <r>    -7.9108     0.0000    56.0000 </r>
       <r>    -7.7571     0.0000    56.0000 </r>
       <r>    -7.6035     0.0000    56.0000 </r>
       <r>    -7.4498     0.0000    56.0000 </r>
       <r>    -7.2961     0.0000    56.0000 </r>
       <r>    -7.1424     0.0000    56.0000 </r>
       <r>    -6.9887     0.0000    56.0000 </r>
       <r>    -6.8350     0.0000    56.0000 </r>
       <r>    -6.6813     0.0000    56.0000 </r>
       <r>    -6.5277     0.0000    56.0000 </r>
       <r>    -6.3740     0.0000    56.0000 </r>
       <r>    -6.2203     0.0000    56.0000 </r>
       <r>    -6.0666     0.0000    56.0000 </r>
       <r>    -5.9129     0.0000    56.0000 </r>
       <r>    -5.7592     0.0000    56.0000 </r>
       <r>    -5.6055     0.0000    56.0000 </r>
       <r>    -5.4518     0.0000    56.0000 </r>
       <r>    -5.2982     3.5591    56.2118 </r>
       <r>    -5.1445     9.9879    58.1316 </r>
       <r>    -4.9908    10.0929    60.6847 </r>
       <r>    -4.8371    12.4455    62.9882 </r>
       <r>    -4.6834    14.7801    65.3923 </r>
       <r>    -4.5297    15.8762    67.9538 </r>
       <r>    -4.3760    15.7281    70.6488 </r>
       <r>    -4.2223    20.0602    73.4875 </r>
       <r>    -4.0687    20.6657    76.5206 </r>
       <r>    -3.9150    26.8506    80.1529 </r>
       <r>    -3.7613    24.1151    84.4093 </r>
       <r>    -3.6076    12.8814    87.0176 </r>
       <r>    -3.4539    15.2408    89.0746 </r>
       <r>    -3.3002    12.6775    91.2830 </r>
       <r>    -3.1465    13.6991    93.3106 </r>
       <r>    -2.9929    11.8784    95.3721 </r>
       <r>    -2.8392    11.4627    97.0910 </r>
       <r>    -2.6855    10.4796    98.5844 </r>
       <r>    -2.5318    11.4850   100.3579 </r>
       <r>    -2.3781    10.2991   102.7334 </r>
       <r>    -2.2244    15.0495   105.1575 </r>
       <r>    -2.0707    14.6309   108.4089 </r>
       <r>    -1.9170    25.0730   111.7601 </r>
       <r>    -1.7634    20.2934   115.6942 </r>
       <r>    -1.6097    18.0256   118.5305 </r>
       <r>    -1.4560    18.7865   121.5171 </r>
       <r>    -1.3023    11.2524   124.1152 </r>
       <r>    -1.1486    10.7678   125.6982 </r>
       <r>    -0.9949     2.1465   127.1664 </r>
       <r>    -0.8412     1.2048   127.4159 </r>
       <r>    -0.6876     1.0576   127.5821 </r>
       <r>    -0.5339     0.9923   127.7491 </r>
       <r>    -0.3802     0.7215   127.8808 </r>
       <r>    -0.2265     0.0000   128.0000 </r>
       <r>    -0.0728     0.0000   128.0000 </r>
       <r>     0.0809     0.0000   128.0000 </r>
       <r>     0.2346     0.0000   128.0000 </r>
       <r>     0.3883     0.0000   128.0000 </r>
       <r>     0.5419     0.0000   128.0000 </r>
       <r>     0.6956     0.0000   128.0000 </r>
       <r>     0.8493     1.4851   128.0966 </r>
       <r>     1.0030     3.9119   128.5900 </r>
       <r>     1.1567     4.9990   129.2522 </r>
       <r>     1.3104     5.5017   130.0368 </r>
       <r>     1.4641     8.4305   131.1413 </r>
       <r>     1.6177     7.4910   132.4468 </r>
       <r>     1.7714     7.5697   133.5718 </r>
       <r>     1.9251    10.4119   134.9764 </r>
       <r>     2.0788    11.4081   136.9541 </r>
       <r>     2.2325    12.3585   138.7895 </r>
       <r>     2.3862    20.2436   140.9093 </r>
       <r>     2.5399    17.7647   144.3488 </r>
       <r>     2.6936    11.7115   146.6913 </r>
       <r>     2.8472     6.2282   148.4198 </r>
       <r>     3.0009     0.4256   149.0951 </r>
       <r>     3.1546     0.4244   149.1604 </r>
       <r>     3.3083     0.4232   149.2255 </r>
       <r>     3.4620     0.4220   149.2905 </r>
       <r>     3.6157     0.4207   149.3552 </r>
       <r>     3.7694     0.4195   149.4198 </r>
       <r>     3.9230     0.4183   149.4841 </r>
       <r>     4.0767     0.4170   149.5483 </r>
       <r>     4.2304     0.4158   149.6123 </r>
       <r>     4.3841     0.4146   149.6761 </r>
       <r>     4.5378     0.4327   149.7403 </r>
       <r>     4.6915     0.5106   149.8110 </r>
       <r>     4.8452     0.8012   149.9118 </r>
       <r>     4.9989     0.8147   150.0248 </r>
       <r>     5.1525     0.7727   150.1487 </r>
       <r>     5.3062     0.7073   150.2623 </r>
       <r>     5.4599     0.7053   150.3708 </r>
       <r>     5.6136     0.7034   150.4791 </r>
       <r>     5.7673     0.7020   150.5870 </r>
       <r>     5.9210     0.7471   150.6984 </r>
       <r>     6.0747     0.7922   150.8166 </r>
       <r>     6.2283     0.8373   150.9419 </r>
       <r>     6.3820     0.7449   151.1415 </r>
       <r>     6.5357     0.8872   151.2669 </r>
       <r>     6.6894     1.0717   151.6234 </r>
       <r>     6.8431     1.0422   151.7858 </r>
       <r>     6.9968     1.0127   151.9437 </r>
       <r>     7.1505     0.0000   152.0000 </r>
       <r>     7.3042     0.0000   152.0000 </r>
       <r>     7.4578     0.0000   152.0000 </r>
       <r>     7.6115     0.0000   152.0000 </r>
       <r>     7.7652     0.0000   152.0000 </r>
       <r>     7.9189     0.0000   152.0000 </r>
       <r>     8.0726     0.0000   152.0000 </r>
       <r>     8.2263     0.0000   152.0000 </r>
       <r>     8.3800     0.0000   152.0000 </r>
       <r>     8.5336     0.0000   152.0000 </r>
       <r>     8.6873     0.0000   152.0000 </r>
       <r>     8.8410     0.0000   152.0000 </r>
       <r>     8.9947     0.0000   152.0000 </r>
       <r>     9.1484     0.0000   152.0000 </r>
      </set>
     </set>
    </array>
   </total>
  </dos>
 </calculation>
 <structure name="finalpos" >
  <crystal>
   <varray name="basis" >
    <v>       3.94684634       0.00000000       0.00000000 </v>
    <v>       0.00000000       3.94684634       0.00000000 </v>
    <v>       0.00000000       0.00000000      31.81396220 </v>
   </varray>
   <i name="volume">    495.58505165 </i>
   <varray name="rec_basis" >
    <v>       0.25336684       0.00000000       0.00000000 </v>
    <v>       0.00000000       0.25336684       0.00000000 </v>
    <v>       0.00000000       0.00000000       0.03143274 </v>
   </varray>
  </crystal>
  <varray name="positions" >
   <v>       0.50000000       0.50000000       0.28289466 </v>
   <v>       0.50000000       0.00000000       0.34492476 </v>
   <v>       0.00000000       0.50000000       0.34492476 </v>
   <v>       0.50000000       0.50000000       0.40695485 </v>
   <v>       0.50000000       0.00000000       0.46898495 </v>
   <v>       0.00000000       0.50000000       0.46898495 </v>
   <v>       0.50000000       0.50000000       0.53101505 </v>
   <v>       0.50000000       0.00000000       0.59304515 </v>
   <v>       0.00000000       0.50000000       0.59304515 </v>
   <v>       0.50000000       0.50000000       0.65507524 </v>
   <v>       0.50000000       0.00000000       0.71710534 </v>
   <v>       0.00000000       0.50000000       0.71710534 </v>
   <v>       0.00000000       0.00000000       0.28289466 </v>
   <v>       0.00000000       0.00000000       0.40695485 </v>
   <v>       0.00000000       0.00000000       0.53101505 </v>
   <v>       0.00000000       0.00000000       0.65507524 </v>
   <v>       0.50000000       0.50000000       0.34492476 </v>
   <v>       0.50000000       0.50000000       0.46898495 </v>
   <v>       0.50000000       0.50000000       0.59304515 </v>
   <v>       0.50000000       0.50000000       0.71710534 </v>
  </varray>
 </structure>
</modeling>
