unknown system                          
           1
     3.946846    0.000000    0.000000
     0.000000    3.946846    0.000000
     0.000000    0.000000   31.813962
   O    Sr   Ti
  12   4   4
Direct configuration=     1
   0.50000000  0.50000000  0.28289466
   0.50000000  0.00000000  0.34492476
   0.00000000  0.50000000  0.34492476
   0.50000000  0.50000000  0.40695485
   0.50000000  0.00000000  0.46898495
   0.00000000  0.50000000  0.46898495
   0.50000000  0.50000000  0.53101505
   0.50000000  0.00000000  0.59304515
   0.00000000  0.50000000  0.59304515
   0.50000000  0.50000000  0.65507524
   0.50000000  0.00000000  0.71710534
   0.00000000  0.50000000  0.71710534
   0.00000000  0.00000000  0.28289466
   0.00000000  0.00000000  0.40695485
   0.00000000  0.00000000  0.53101505
   0.00000000  0.00000000  0.65507524
   0.50000000  0.50000000  0.34492476
   0.50000000  0.50000000  0.46898495
   0.50000000  0.50000000  0.59304515
   0.50000000  0.50000000  0.71710534
