unknown system                          
   1.00000000000000     
     5.431010    0.000000    0.000000
     0.000000    5.431010    0.000000
     0.000000    0.000000   16.791010
   Si
    10
Direct
  0.000000  0.000000  0.000000
  0.499999  0.499999  0.000000
  0.250000  0.250000  0.080862
  0.750000  0.750000  0.080862
  0.000000  0.499999  0.161723
  0.499999  0.000000  0.161723
  0.250000  0.750000  0.242586
  0.750000  0.250000  0.242586
  0.000000  0.000000  0.323447
  0.499999  0.499999  0.323447
 
   48   48  140
 -88.160     -69.271     -18.482      48.970      114.44      162.49      185.27      183.55      164.62      138.49    
  112.57      89.276      69.618      53.812      41.546      32.250      25.297      20.124      16.282      13.442    
  11.368      9.9004      8.9272      8.3738      8.1945      8.3738      8.9272      9.9004      11.368      13.442    
  16.282      20.124      25.297      32.250      41.546      53.812      69.618      89.276      112.57      138.49    
  164.62      183.55      185.27      162.49      114.44      48.970     -18.482     -69.271     -69.271     -50.923    
 -1.7151      63.961      127.88      174.54      195.92      192.71      172.36      145.11      118.26      94.122    
  73.705      57.221      44.361      34.556      27.175      21.649      17.515      14.434      12.158      10.516    
  9.3881      8.6912      8.3738      8.4145      8.8233      9.6389      10.928      12.789      15.372      18.892    
  23.658      30.095      38.740      50.199      65.029      83.546      105.57      130.16      155.14      173.91    
  177.29      158.39      116.08      57.039     -4.7322     -51.775     -18.482     -1.7151      41.639      99.006    
  154.03      192.66      207.69      200.17      177.51      149.51      122.29      97.853      77.141      60.339    
  47.142      37.000      29.302      23.487      19.100      15.797      13.329      11.516      10.232      9.3881    
  8.9272      8.8233      9.0809      9.7316      10.832      12.471      14.780      17.953      22.271      28.123    
  36.007      46.489      60.104      77.181      97.604      120.57      144.34      163.86      171.23      160.20    
  129.17      83.124      33.518     -4.7322      48.970      63.961      99.006      143.89      185.17      211.39    
  217.06      203.93      179.14      151.20      124.36      100.29      79.817      63.105      49.866      39.590    
  31.704      25.683      21.090      17.593      14.943      12.961      11.516      10.516      9.9004      9.6389    
  9.7316      10.203      11.102      12.503      14.521      17.325      21.163      26.380      33.423      42.805    
  55.029      70.433      88.990      110.09      132.41      152.73      164.84      163.34      146.24      116.70    
  83.124      57.039      114.44      127.88      154.03      185.17      211.24      223.98      220.13      202.18    
  176.73      149.93      124.32      101.33      81.674      65.492      52.534      42.350      34.433      28.305    
  23.568      19.910      17.094      14.943      13.329      12.158      11.368      10.928      10.832      11.102    
  11.776      12.918      14.625      17.040      20.374      24.924      31.074      39.279      49.993      63.560    
  80.042      99.041      119.58      139.89      155.86      163.05      159.35      146.24      129.17      116.08    
  162.49      174.54      192.66      211.39      223.98      225.41      214.52      194.42      170.41      145.74    
  122.20      100.99      82.716      67.506      55.166      45.326      37.557      31.448      26.647      22.873    
  19.910      17.593      15.797      14.434      13.442      12.789      12.471      12.503      12.918      13.769    
  15.136      17.137      19.947      23.810      29.046      36.039      45.188      56.825      71.085      87.763    
  106.21      125.33      143.15      156.42      163.05      163.34      160.20      158.39      185.27      195.92    
  207.69      217.06      220.13      214.52      200.75      181.86      160.67      138.98      118.23      99.407    
  83.017      69.195      57.812      48.586      41.172      35.233      30.471      26.647      23.568      21.090    
  19.100      17.515      16.282      15.372      14.780      14.521      14.625      15.136      16.120      17.674    
  19.936      23.098      27.418      33.204      40.791      50.481      62.454      76.656      92.706      109.88    
  127.22      143.15      155.86      164.84      171.23      177.29      183.55      192.71      200.17      203.93    
  202.18      194.42      181.86      166.04      148.38      130.26      112.82      96.820      82.714      70.647    
  60.550      52.223      45.401      39.818      35.233      31.448      28.305      25.683      23.487      21.649    
  20.124      18.892      17.953      17.325      17.040      17.137      17.674      18.727      20.402      22.847    
  26.257      30.867      36.945      44.747      54.466      66.144      79.603      94.399      109.88      125.33    
  139.89      152.73      163.86      173.91      164.62      172.36      177.51      179.14      176.73      170.41    
  160.67      148.38      134.59      120.32      106.43      93.529      82.000      71.995      63.495      56.363    
  50.401      45.401      41.172      37.557      34.433      31.704      29.302      27.175      25.297      23.658    
  22.271      21.163      20.374      19.947      19.936      20.402      21.428      23.122      25.622      29.099    
  33.751      39.783      47.369      56.601      67.426      79.603      92.706      106.21      119.58      132.41    
  144.34      155.14      138.49      145.11      149.51      151.20      149.93      145.74      138.98      130.26    
  120.32      109.88      99.567      89.867      81.096      73.401      66.789      61.161      56.363      52.223    
  48.586      45.326      42.350      39.590      37.000      34.556      32.250      30.095      28.123      26.380    
  24.924      23.810      23.098      22.847      23.122      23.998      25.568      27.945      31.264      35.673    
  41.314      48.285      56.601      66.144      76.656      87.763      99.041      110.09      120.57      130.16    
  112.57      118.26      122.29      124.36      124.32      122.20      118.23      112.82      106.43      99.567    
  92.687      86.159      80.235      75.044      70.591      66.789      63.495      60.550      57.812      55.166    
  52.534      49.866      47.142      44.361      41.546      38.740      36.007      33.423      31.074      29.046    
  27.418      26.257      25.622      25.568      26.150      27.434      29.499      32.437      36.348      41.314    
  47.369      54.466      62.454      71.085      80.042      88.990      97.604      105.57      89.276      94.122    
  97.853      100.29      101.33      100.99      99.407      96.820      93.529      89.867      86.159      82.679    
  79.623      77.083      75.044      73.401      71.995      70.647      69.195      67.506      65.492      63.105    
  60.339      57.221      53.812      50.199      46.489      42.805      39.279      36.039      33.204      30.867    
  29.099      27.945      27.434      27.592      28.448      30.046      32.437      35.673      39.783      44.747    
  50.481      56.825      63.560      70.433      77.181      83.546      69.618      73.705      77.141      79.817    
  81.674      82.716      83.017      82.714      82.000      81.096      80.235      79.623      79.402      79.623    
  80.235      81.096      82.000      82.714      83.017      82.716      81.674      79.817      77.141      73.705    
  69.618      65.029      60.104      55.029      49.993      45.188      40.791      36.945      33.751      31.264    
  29.499      28.448      28.100      28.448      29.499      31.264      33.751      36.945      40.791      45.188    
  49.993      55.029      60.104      65.029      53.812      57.221      60.339      63.105      65.492      67.506    
  69.195      70.647      71.995      73.401      75.044      77.083      79.623      82.679      86.159      89.867    
  93.529      96.820      99.407      100.99      101.33      100.29      97.853      94.122      89.276      83.546    
  77.181      70.433      63.560      56.825      50.481      44.747      39.783      35.673      32.437      30.046    
  28.448      27.592      27.434      27.945      29.099      30.867      33.204      36.039      39.279      42.805    
  46.489      50.199      41.546      44.361      47.142      49.866      52.534      55.166      57.812      60.550    
  63.495      66.789      70.591      75.044      80.235      86.159      92.687      99.567      106.43      112.82    
  118.23      122.20      124.32      124.36      122.29      118.26      112.57      105.57      97.604      88.990    
  80.042      71.085      62.454      54.466      47.369      41.314      36.348      32.437      29.499      27.434    
  26.150      25.568      25.622      26.257      27.418      29.046      31.074      33.423      36.007      38.740    
  32.250      34.556      37.000      39.590      42.350      45.326      48.586      52.223      56.363      61.161    
  66.789      73.401      81.096      89.867      99.567      109.88      120.32      130.26      138.98      145.74    
  149.93      151.20      149.51      145.11      138.49      130.16      120.57      110.09      99.041      87.763    
  76.656      66.144      56.601      48.285      41.314      35.673      31.264      27.945      25.568      23.998    
  23.122      22.847      23.098      23.810      24.924      26.380      28.123      30.095      25.297      27.175    
  29.302      31.704      34.433      37.557      41.172      45.401      50.401      56.363      63.495      71.995    
  82.000      93.529      106.43      120.32      134.59      148.38      160.67      170.41      176.73      179.14    
  177.51      172.36      164.62      155.14      144.34      132.41      119.58      106.21      92.706      79.603    
  67.426      56.601      47.369      39.783      33.751      29.099      25.622      23.122      21.428      20.402    
  19.936      19.947      20.374      21.163      22.271      23.658      20.124      21.649      23.487      25.683    
  28.305      31.448      35.233      39.818      45.401      52.223      60.550      70.647      82.714      96.820    
  112.82      130.26      148.38      166.04      181.86      194.42      202.18      203.93      200.17      192.71    
  183.55      173.91      163.86      152.73      139.89      125.33      109.88      94.399      79.603      66.144    
  54.466      44.747      36.945      30.867      26.257      22.847      20.402      18.727      17.674      17.137    
  17.040      17.325      17.953      18.892      16.282      17.515      19.100      21.090      23.568      26.647    
  30.471      35.233      41.172      48.586      57.812      69.195      83.017      99.407      118.23      138.98    
  160.67      181.86      200.75      214.52      220.12      217.06      207.69      195.92      185.27      177.29    
  171.23      164.84      155.86      143.15      127.22      109.88      92.706      76.656      62.454      50.481    
  40.791      33.204      27.418      23.098      19.936      17.674      16.120      15.136      14.625      14.521    
  14.780      15.372      13.442      14.434      15.797      17.593      19.910      22.873      26.647      31.448    
  37.557      45.326      55.166      67.506      82.716      100.99      122.20      145.74      170.41      194.42    
  214.52      225.41      223.98      211.39      192.65      174.54      162.49      158.39      160.20      163.34    
  163.05      156.42      143.15      125.33      106.21      87.763      71.085      56.825      45.188      36.039    
  29.046      23.810      19.947      17.137      15.136      13.769      12.918      12.503      12.471      12.789    
  11.368      12.158      13.329      14.943      17.094      19.910      23.568      28.305      34.433      42.350    
  52.534      65.492      81.674      101.33      124.32      149.93      176.73      202.18      220.12      223.98    
  211.24      185.17      154.03      127.87      114.44      116.07      129.17      146.24      159.35      163.05    
  155.86      139.89      119.58      99.041      80.042      63.560      49.993      39.279      31.074      24.924    
  20.374      17.040      14.625      12.918      11.776      11.102      10.832      10.928      9.9004      10.516    
  11.516      12.961      14.943      17.593      21.090      25.683      31.704      39.590      49.866      63.105    
  79.817      100.29      124.36      151.20      179.14      203.93      217.06      211.39      185.17      143.89    
  99.002      63.958      48.968      57.037      83.123      116.70      146.24      163.34      164.84      152.73    
  132.41      110.09      88.990      70.433      55.029      42.805      33.423      26.380      21.163      17.325    
  14.521      12.503      11.102      10.203      9.7316      9.6389      8.9272      9.3881      10.232      11.516    
  13.329      15.797      19.100      23.487      29.302      37.000      47.142      60.339      77.141      97.853    
  122.29      149.51      177.51      200.17      207.69      192.65      154.03      99.002      41.635     -1.7179    
 -18.484     -4.7330      33.518      83.124      129.17      160.20      171.23      163.86      144.34      120.57    
  97.604      77.181      60.104      46.489      36.007      28.123      22.271      17.953      14.780      12.471    
  10.832      9.7316      9.0809      8.8233      8.3738      8.6912      9.3881      10.516      12.158      14.434    
  17.515      21.649      27.175      34.556      44.361      57.221      73.705      94.122      118.26      145.11    
  172.36      192.71      195.92      174.54      127.87      63.958     -1.7179     -50.926     -69.272     -51.775    
 -4.7313      57.040      116.08      158.40      177.29      173.91      155.14      130.16      105.57      83.546    
  65.029      50.199      38.740      30.095      23.658      18.892      15.372      12.789      10.928      9.6389    
  8.8233      8.4145      8.1945      8.3738      8.9272      9.9004      11.368      13.442      16.282      20.124    
  25.297      32.250      41.546      53.812      69.618      89.276      112.57      138.49      164.62      183.55    
  185.27      162.49      114.44      48.968     -18.484     -69.272     -88.160     -69.270     -18.480      48.972    
  114.45      162.49      185.27      183.56      164.62      138.49      112.57      89.276      69.618      53.812    
  41.546      32.250      25.297      20.124      16.282      13.442      11.368      9.9004      8.9272      8.3738    
  8.3738      8.4145      8.8233      9.6389      10.928      12.789      15.372      18.892      23.658      30.095    
  38.740      50.199      65.029      83.546      105.57      130.16      155.14      173.91      177.29      158.39    
  116.07      57.037     -4.7330     -51.775     -69.270     -50.921     -1.7122      63.964      127.88      174.54    
  195.92      192.71      172.36      145.11      118.26      94.122      73.705      57.221      44.361      34.556    
  27.175      21.649      17.515      14.434      12.158      10.516      9.3881      8.6912      8.9272      8.8233    
  9.0809      9.7316      10.832      12.471      14.780      17.953      22.271      28.123      36.007      46.489    
  60.104      77.181      97.604      120.57      144.34      163.86      171.23      160.20      129.17      83.123    
  33.518     -4.7313     -18.480     -1.7122      41.642      99.009      154.03      192.66      207.69      200.17    
  177.51      149.51      122.29      97.853      77.141      60.339      47.142      37.000      29.302      23.487    
  19.100      15.797      13.329      11.516      10.232      9.3881      9.9004      9.6389      9.7316      10.203    
  11.102      12.503      14.521      17.325      21.163      26.380      33.423      42.805      55.029      70.433    
  88.990      110.09      132.41      152.73      164.84      163.34      146.24      116.70      83.124      57.040    
  48.972      63.964      99.009      143.89      185.18      211.39      217.06      203.93      179.14      151.20    
  124.36      100.29      79.817      63.105      49.866      39.590      31.704      25.683      21.090      17.593    
  14.943      12.961      11.516      10.516      11.368      10.928      10.832      11.102      11.776      12.918    
  14.625      17.040      20.374      24.924      31.074      39.279      49.993      63.560      80.042      99.041    
  119.58      139.89      155.86      163.05      159.35      146.24      129.17      116.08      114.45      127.88    
  154.03      185.18      211.25      223.99      220.13      202.18      176.73      149.93      124.32      101.33    
  81.674      65.492      52.534      42.350      34.433      28.305      23.568      19.910      17.094      14.943    
  13.329      12.158      13.442      12.789      12.471      12.503      12.918      13.769      15.136      17.137    
  19.947      23.810      29.046      36.039      45.188      56.825      71.085      87.763      106.21      125.33    
  143.15      156.42      163.05      163.34      160.20      158.40      162.49      174.54      192.66      211.39    
  223.99      225.41      214.52      194.42      170.41      145.74      122.20      100.99      82.716      67.506    
  55.166      45.326      37.557      31.448      26.647      22.873      19.910      17.593      15.797      14.434    
  16.282      15.372      14.780      14.521      14.625      15.136      16.120      17.674      19.936      23.098    
  27.418      33.204      40.791      50.481      62.454      76.656      92.706      109.88      127.22      143.15    
  155.86      164.84      171.23      177.29      185.27      195.92      207.69      217.06      220.13      214.52    
  200.75      181.86      160.67      138.98      118.23      99.407      83.017      69.195      57.812      48.586    
  41.172      35.233      30.471      26.647      23.568      21.090      19.100      17.515      20.124      18.892    
  17.953      17.325      17.040      17.137      17.674      18.727      20.402      22.847      26.257      30.867    
  36.945      44.747      54.466      66.144      79.603      94.399      109.88      125.33      139.89      152.73    
  163.86      173.91      183.56      192.71      200.17      203.93      202.18      194.42      181.86      166.04    
  148.38      130.26      112.82      96.820      82.714      70.647      60.550      52.223      45.401      39.818    
  35.233      31.448      28.305      25.683      23.487      21.649      25.297      23.658      22.271      21.163    
  20.374      19.947      19.936      20.402      21.428      23.122      25.622      29.099      33.751      39.783    
  47.369      56.601      67.426      79.603      92.706      106.21      119.58      132.41      144.34      155.14    
  164.62      172.36      177.51      179.14      176.73      170.41      160.67      148.38      134.59      120.32    
  106.43      93.529      82.000      71.995      63.495      56.363      50.401      45.401      41.172      37.557    
  34.433      31.704      29.302      27.175      32.250      30.095      28.123      26.380      24.924      23.810    
  23.098      22.847      23.122      23.998      25.568      27.945      31.264      35.673      41.314      48.285    
  56.601      66.144      76.656      87.763      99.041      110.09      120.57      130.16      138.49      145.11    
  149.51      151.20      149.93      145.74      138.98      130.26      120.32      109.88      99.567      89.867    
  81.096      73.401      66.789      61.161      56.363      52.223      48.586      45.326      42.350      39.590    
  37.000      34.556      41.546      38.740      36.007      33.423      31.074      29.046      27.418      26.257    
  25.622      25.568      26.150      27.434      29.499      32.437      36.348      41.314      47.369      54.466    
  62.454      71.085      80.042      88.990      97.604      105.57      112.57      118.26      122.29      124.36    
  124.32      122.20      118.23      112.82      106.43      99.567      92.687      86.159      80.235      75.044    
  70.591      66.789      63.495      60.550      57.812      55.166      52.534      49.866      47.142      44.361    
  53.812      50.199      46.489      42.805      39.279      36.039      33.204      30.867      29.099      27.945    
  27.434      27.592      28.448      30.046      32.437      35.673      39.783      44.747      50.481      56.825    
  63.560      70.433      77.181      83.546      89.276      94.122      97.853      100.29      101.33      100.99    
  99.407      96.820      93.529      89.867      86.159      82.679      79.623      77.083      75.044      73.401    
  71.995      70.647      69.195      67.506      65.492      63.105      60.339      57.221      69.618      65.029    
  60.104      55.029      49.993      45.188      40.791      36.945      33.751      31.264      29.499      28.448    
  28.100      28.448      29.499      31.264      33.751      36.945      40.791      45.188      49.993      55.029    
  60.104      65.029      69.618      73.705      77.141      79.817      81.674      82.716      83.017      82.714    
  82.000      81.096      80.235      79.623      79.402      79.623      80.235      81.096      82.000      82.714    
  83.017      82.716      81.674      79.817      77.141      73.705      89.276      83.546      77.181      70.433    
  63.560      56.825      50.481      44.747      39.783      35.673      32.437      30.046      28.448      27.592    
  27.434      27.945      29.099      30.867      33.204      36.039      39.279      42.805      46.489      50.199    
  53.812      57.221      60.339      63.105      65.492      67.506      69.195      70.647      71.995      73.401    
  75.044      77.083      79.623      82.679      86.159      89.867      93.529      96.820      99.407      100.99    
  101.33      100.29      97.853      94.122      112.57      105.57      97.604      88.990      80.042      71.085    
  62.454      54.466      47.369      41.314      36.348      32.437      29.499      27.434      26.150      25.568    
  25.622      26.257      27.418      29.046      31.074      33.423      36.007      38.740      41.546      44.361    
  47.142      49.866      52.534      55.166      57.812      60.550      63.495      66.789      70.591      75.044    
  80.235      86.159      92.687      99.567      106.43      112.82      118.23      122.20      124.32      124.36    
  122.29      118.26      138.49      130.16      120.57      110.09      99.041      87.763      76.656      66.144    
  56.601      48.285      41.314      35.673      31.264      27.945      25.568      23.998      23.122      22.847    
  23.098      23.810      24.924      26.380      28.123      30.095      32.250      34.556      37.000      39.590    
  42.350      45.326      48.586      52.223      56.363      61.161      66.789      73.401      81.096      89.867    
  99.567      109.88      120.32      130.26      138.98      145.74      149.93      151.20      149.51      145.11    
  164.62      155.14      144.34      132.41      119.58      106.21      92.706      79.603      67.426      56.601    
  47.369      39.783      33.751      29.099      25.622      23.122      21.428      20.402      19.936      19.947    
  20.374      21.163      22.271      23.658      25.297      27.175      29.302      31.704      34.433      37.557    
  41.172      45.401      50.401      56.363      63.495      71.995      82.000      93.529      106.43      120.32    
  134.59      148.38      160.67      170.41      176.73      179.14      177.51      172.36      183.55      173.91    
  163.86      152.73      139.89      125.33      109.88      94.399      79.603      66.144      54.466      44.747    
  36.945      30.867      26.257      22.847      20.402      18.727      17.674      17.137      17.040      17.325    
  17.953      18.892      20.124      21.649      23.487      25.683      28.305      31.448      35.233      39.818    
  45.401      52.223      60.550      70.647      82.714      96.820      112.82      130.26      148.38      166.04    
  181.86      194.42      202.18      203.93      200.17      192.71      185.27      177.29      171.23      164.84    
  155.86      143.15      127.22      109.88      92.706      76.656      62.454      50.481      40.791      33.204    
  27.418      23.098      19.936      17.674      16.120      15.136      14.625      14.521      14.780      15.372    
  16.282      17.515      19.100      21.090      23.568      26.647      30.471      35.233      41.172      48.586    
  57.812      69.195      83.017      99.407      118.23      138.98      160.67      181.86      200.75      214.52    
  220.13      217.06      207.69      195.92      162.49      158.39      160.20      163.34      163.05      156.42    
  143.15      125.33      106.21      87.763      71.085      56.825      45.188      36.039      29.046      23.810    
  19.947      17.137      15.136      13.769      12.918      12.503      12.471      12.789      13.442      14.434    
  15.797      17.593      19.910      22.873      26.647      31.448      37.557      45.326      55.166      67.506    
  82.716      100.99      122.20      145.74      170.41      194.42      214.52      225.41      223.98      211.39    
  192.66      174.54      114.44      116.08      129.17      146.24      159.35      163.05      155.86      139.89    
  119.58      99.041      80.042      63.560      49.993      39.279      31.074      24.924      20.374      17.040    
  14.625      12.918      11.776      11.102      10.832      10.928      11.368      12.158      13.329      14.943    
  17.094      19.910      23.568      28.305      34.433      42.350      52.534      65.492      81.674      101.33    
  124.32      149.93      176.73      202.18      220.13      223.98      211.24      185.17      154.03      127.88    
  48.970      57.039      83.124      116.70      146.24      163.34      164.84      152.73      132.41      110.09    
  88.990      70.433      55.029      42.805      33.423      26.380      21.163      17.325      14.521      12.503    
  11.102      10.203      9.7316      9.6389      9.9004      10.516      11.516      12.961      14.943      17.593    
  21.090      25.683      31.704      39.590      49.866      63.105      79.817      100.29      124.36      151.20    
  179.14      203.93      217.06      211.39      185.17      143.89      99.006      63.961     -18.482     -4.7322    
  33.518      83.124      129.17      160.20      171.23      163.86      144.34      120.57      97.604      77.181    
  60.104      46.489      36.007      28.123      22.271      17.953      14.780      12.471      10.832      9.7316    
  9.0809      8.8233      8.9272      9.3881      10.232      11.516      13.329      15.797      19.100      23.487    
  29.302      37.000      47.142      60.339      77.141      97.853      122.29      149.51      177.51      200.17    
  207.69      192.66      154.03      99.006      41.639     -1.7151     -69.271     -51.775     -4.7322      57.039    
  116.08      158.39      177.29      173.91      155.14      130.16      105.57      83.546      65.029      50.199    
  38.740      30.095      23.658      18.892      15.372      12.789      10.928      9.6389      8.8233      8.4145    
  8.3738      8.6912      9.3881      10.516      12.158      14.434      17.515      21.649      27.175      34.556    
  44.361      57.221      73.705      94.122      118.26      145.11      172.36      192.71      195.92      174.54    
  127.88      63.961     -1.7151     -50.923     -66.992     -48.922     -.43694      63.677      125.45      170.17    
  190.57      187.61      168.41      142.54      116.83      93.562      73.755      57.654      45.005      35.299    
  27.956      22.440      18.309      15.232      12.971      11.359      10.283      9.6678      9.4681      9.6678    
  10.283      11.359      12.971      15.232      18.309      22.440      27.956      35.299      45.005      57.654    
  73.755      93.562      116.83      142.54      168.41      187.61      190.57      170.17      125.45      63.677    
 -.43694     -48.922     -48.922     -29.528      18.945      82.318      143.00      186.34      205.07      200.23    
  179.21      151.85      124.84      100.40      79.525      62.468      48.977      38.547      30.594      24.569    
  20.019      16.596      14.044      12.182      10.884      10.064      9.6678      9.6711      10.083      10.940    
  12.305      14.279      17.008      20.710      25.690      32.362      41.234      52.867      67.757      86.165    
  107.87      131.92      156.25      174.78      178.80      161.69      122.31      67.049      9.3353     -34.041    
 -.43694      18.945      63.050      119.31      171.93      207.70      220.26      211.09      187.58      159.16    
  131.44      106.37      84.873      67.196      53.098      42.094      33.619      27.132      22.181      18.414    
  15.566      13.446      11.917      10.884      10.283      10.083      10.285      10.919      12.035      13.719    