   10   10    1    1
  0.4952654E+02  0.5431010E-09  0.5431010E-09  0.1679101E-08  0.5000000E-15
  1.000000000000000E-004
  CAR 
 unknown system                          
     40      6     26
 
  0.0000000E+00  0.0000000E+00  0.0000000E+00  0.4000000E-01
    1      -12.022553   1.000000
    2      -10.397952   1.000000
    3       -8.421954   1.000000
    4       -8.279512   1.000000
    5       -8.279337   1.000000
    6       -8.046396   1.000000
    7       -7.468756   1.000000
    8       -7.295363   1.000000
    9       -5.100594   1.000000
   10       -3.947723   1.000000
   11       -3.850009   1.000000
   12       -3.849926   1.000000
   13       -2.965578   1.000000
   14       -2.965559   1.000000
   15       -1.970343   1.000000
   16       -1.967631   1.000000
   17       -1.608946   1.000000
   18       -1.608915   1.000000
   19       -1.344919   1.000000
   20       -1.344768   1.000000
   21       -0.957301   0.958349
   22       -0.401081   0.000000
   23        0.620722   0.000000
   24        0.724347   0.000000
   25        1.353539   0.000000
   26        1.388484   0.000000
 
  0.2000000E+00  0.0000000E+00  0.0000000E+00  0.1600000E+00
    1      -11.855548   1.000000
    2      -10.258553   1.000000
    3       -9.502600   1.000000
    4       -8.626554   1.000000
    5       -7.984658   1.000000
    6       -7.887672   1.000000
    7       -7.015211   1.000000
    8       -6.639974   1.000000
    9       -5.271085   1.000000
   10       -4.238206   1.000000
   11       -4.027293   1.000000
   12       -3.484679   1.000000
   13       -3.291248   1.000000
   14       -3.256319   1.000000
   15       -2.675350   1.000000
   16       -2.100298   1.000000
   17       -1.800677   1.000000
   18       -1.264517   1.000000
   19       -1.172960   0.999999
   20       -1.152764   0.999997
   21       -0.940917   0.933210
   22       -0.532718   0.000010
   23        0.827369   0.000000
   24        1.190848   0.000000
   25        1.465240   0.000000
   26        1.579394   0.000000
 
  0.4000000E+00  0.0000000E+00  0.0000000E+00  0.1600000E+00
    1      -11.360662   1.000000
    2      -10.559791   1.000000
    3       -9.858703   1.000000
    4       -9.264913   1.000000
    5       -7.858396   1.000000
    6       -7.807083   1.000000
    7       -6.456665   1.000000
    8       -5.797585   1.000000
    9       -5.325575   1.000000
   10       -4.238098   1.000000
   11       -4.213265   1.000000
   12       -4.120426   1.000000
   13       -3.835066   1.000000
   14       -3.699718   1.000000
   15       -2.812673   1.000000
   16       -2.606407   1.000000
   17       -1.426297   1.000000
   18       -1.185458   1.000000
   19       -1.117626   0.999968
   20       -0.926030   0.901404
   21       -0.844933   0.556742
   22       -0.168380   0.000000
   23        0.027546   0.000000
   24        0.956743   0.000000
   25        2.164505   0.000000
   26        2.649593   0.000000
 
  0.2000000E+00  0.2000000E+00  0.0000000E+00  0.1600000E+00
    1      -11.692603   1.000000
    2      -10.137497   1.000000
    3       -9.618269   1.000000
    4       -9.260621   1.000000
    5       -7.961082   1.000000
    6       -7.633654   1.000000
    7       -7.083151   1.000000
    8       -6.203434   1.000000
    9       -5.593897   1.000000
   10       -4.146318   1.000000
   11       -4.129341   1.000000
   12       -3.784069   1.000000
   13       -3.340854   1.000000
   14       -3.311686   1.000000
   15       -2.724362   1.000000
   16       -1.548357   1.000000
   17       -1.521561   1.000000
   18       -1.427612   1.000000
   19       -1.296162   1.000000
   20       -1.254083   1.000000
   21       -0.884433   0.758449
   22       -0.342737   0.000000
   23        0.465676   0.000000
   24        1.198902   0.000000
   25        1.474152   0.000000
   26        1.948915   0.000000
 
  0.4000000E+00  0.2000000E+00  0.0000000E+00  0.3200000E+00
    1      -11.213081   1.000000
    2      -10.453879   1.000000
    3       -9.819456   1.000000
    4       -9.486447   1.000000
    5       -7.951121   1.000000
    6       -7.914365   1.000000
    7       -6.587856   1.000000
    8       -6.138123   1.000000
    9       -5.633476   1.000000
   10       -4.973966   1.000000
   11       -3.720234   1.000000
   12       -3.603996   1.000000
   13       -3.590980   1.000000
   14       -2.954135   1.000000
   15       -2.837743   1.000000
   16       -2.048398   1.000000
   17       -1.740480   1.000000
   18       -1.718890   1.000000
   19       -1.017685   0.995142
   20       -0.794809   0.285644
   21       -0.694223   0.023369
   22       -0.119016   0.000000
   23        0.414567   0.000000
   24        1.206445   0.000000
   25        2.092406   0.000000
   26        2.303794   0.000000
 
  0.4000000E+00  0.4000000E+00  0.0000000E+00  0.1600000E+00
    1      -10.794841   1.000000
    2      -10.306401   1.000000
    3       -9.951060   1.000000
    4       -9.833697   1.000000
    5       -8.080020   1.000000
    6       -7.993000   1.000000
    7       -6.834195   1.000000
    8       -6.576429   1.000000
    9       -5.724382   1.000000
   10       -5.599191   1.000000
   11       -3.565176   1.000000
   12       -3.519484   1.000000
   13       -2.478016   1.000000
   14       -2.451275   1.000000
   15       -2.173459   1.000000
   16       -2.127698   1.000000
   17       -1.799835   1.000000
   18       -1.538132   1.000000
   19       -0.988984   0.985368
   20       -0.683879   0.016383
   21       -0.601695   0.000488
   22       -0.568670   0.000084
   23        1.233880   0.000000
   24        1.646467   0.000000
   25        1.712561   0.000000
   26        2.010229   0.000000
