unknown system                          
   1.00000000000000     
     5.431010    0.000000    0.000000
     0.000000    5.431010    0.000000
     0.000000    0.000000   16.791010
   Si
    10
Direct
  0.000000  0.000000  0.000000
  0.499999  0.499999  0.000000
  0.250000  0.250000  0.080862
  0.750000  0.750000  0.080862
  0.000000  0.499999  0.161723
  0.499999  0.000000  0.161723
  0.250000  0.750000  0.242586
  0.750000  0.250000  0.242586
  0.000000  0.000000  0.323447
  0.499999  0.499999  0.323447
 
   24   24   70
 0.12388     0.21311     0.47761     0.69517     0.76531     0.72679     0.59179     0.39429     0.20700     0.89928E-01
 0.39163E-01 0.21387E-01 0.17198E-01 0.21397E-01 0.39147E-01 0.89991E-01 0.20692     0.39440     0.59173     0.72682    
 0.76530     0.69517     0.47762     0.21311     0.21311     0.36645     0.62449     0.77371     0.80741     0.75468    
 0.61539     0.41736     0.23031     0.11009     0.53100E-01 0.29689E-01 0.21397E-01 0.22067E-01 0.34635E-01 0.75126E-01
 0.17682     0.35504     0.55371     0.69480     0.73691     0.66861     0.47308     0.26035     0.47761     0.62449    
 0.77206     0.83733     0.83322     0.76032     0.61085     0.41391     0.24033     0.13333     0.79731E-01 0.53061E-01
 0.39147E-01 0.34635E-01 0.42060E-01 0.72394E-01 0.15288     0.30998     0.50658     0.66182     0.72761     0.70075    
 0.59207     0.47308     0.69517     0.77371     0.83733     0.85527     0.82268     0.72831     0.57063     0.39049    
 0.25137     0.17232     0.13338     0.11013     0.89991E-01 0.75126E-01 0.72394E-01 0.89802E-01 0.14498     0.26540    
 0.44371     0.61041     0.70797     0.73006     0.70074     0.66861     0.76531     0.80741     0.83322     0.82268    
 0.76469     0.65297     0.50523     0.37165     0.28822     0.25134     0.24029     0.23022     0.20692     0.17682    
 0.15288     0.14498     0.16563     0.23473     0.36494     0.52178     0.64434     0.70800     0.72762     0.73693    
 0.72679     0.75468     0.76032     0.72831     0.65297     0.54572     0.44349     0.38355     0.37166     0.39052    
 0.41396     0.41743     0.39440     0.35504     0.30998     0.26540     0.23473     0.23968     0.29667     0.40307    
 0.52172     0.61038     0.66177     0.69477     0.59179     0.61539     0.61085     0.57063     0.50523     0.44349    
 0.41818     0.44349     0.50522     0.57061     0.61082     0.61534     0.59173     0.55371     0.50658     0.44371    
 0.36494     0.29667     0.27060     0.29669     0.36497     0.44378     0.50664     0.55379     0.39429     0.41736    
 0.41391     0.39049     0.37165     0.38355     0.44349     0.54572     0.65297     0.72832     0.76034     0.75471    
 0.72682     0.69480     0.66182     0.61041     0.52178     0.40307     0.29669     0.23967     0.23470     0.26535    
 0.30988     0.35494     0.20700     0.23031     0.24033     0.25137     0.28822     0.37166     0.50522     0.65297    
 0.76468     0.82268     0.83321     0.80740     0.76530     0.73691     0.72761     0.70797     0.64434     0.52172    
 0.36497     0.23470     0.16565     0.14500     0.15293     0.17691     0.89928E-01 0.11009     0.13333     0.17232    
 0.25134     0.39052     0.57061     0.72832     0.82268     0.85527     0.83733     0.77372     0.69517     0.66861    
 0.70075     0.73006     0.70800     0.61038     0.44378     0.26535     0.14500     0.89778E-01 0.72372E-01 0.75090E-01
 0.39163E-01 0.53100E-01 0.79731E-01 0.13338     0.24029     0.41396     0.61082     0.76034     0.83321     0.83733    
 0.77206     0.62449     0.47762     0.47308     0.59207     0.70074     0.72762     0.66177     0.50664     0.30988    
 0.15293     0.72372E-01 0.42078E-01 0.34649E-01 0.21387E-01 0.29689E-01 0.53061E-01 0.11013     0.23022     0.41743    
 0.61534     0.75471     0.80740     0.77372     0.62449     0.36645     0.21311     0.26035     0.47308     0.66861    
 0.73693     0.69477     0.55379     0.35494     0.17691     0.75090E-01 0.34649E-01 0.22059E-01 0.17198E-01 0.21397E-01
 0.39147E-01 0.89991E-01 0.20692     0.39440     0.59173     0.72682     0.76530     0.69517     0.47762     0.21311    
 0.12388     0.21311     0.47761     0.69517     0.76531     0.72679     0.59179     0.39429     0.20700     0.89928E-01
 0.39163E-01 0.21387E-01 0.21397E-01 0.22067E-01 0.34635E-01 0.75126E-01 0.17682     0.35504     0.55371     0.69480    
 0.73691     0.66861     0.47308     0.26035     0.21311     0.36645     0.62449     0.77371     0.80741     0.75468    
 0.61539     0.41736     0.23031     0.11009     0.53100E-01 0.29689E-01 0.39147E-01 0.34635E-01 0.42060E-01 0.72394E-01
 0.15288     0.30998     0.50658     0.66182     0.72761     0.70075     0.59207     0.47308     0.47761     0.62449    
 0.77206     0.83733     0.83322     0.76032     0.61085     0.41391     0.24033     0.13333     0.79731E-01 0.53061E-01
 0.89991E-01 0.75126E-01 0.72394E-01 0.89802E-01 0.14498     0.26540     0.44371     0.61041     0.70797     0.73006    
 0.70074     0.66861     0.69517     0.77371     0.83733     0.85527     0.82268     0.72831     0.57063     0.39049    
 0.25137     0.17232     0.13338     0.11013     0.20692     0.17682     0.15288     0.14498     0.16563     0.23473    
 0.36494     0.52178     0.64434     0.70800     0.72762     0.73693     0.76531     0.80741     0.83322     0.82268    
 0.76469     0.65297     0.50523     0.37165     0.28822     0.25134     0.24029     0.23022     0.39440     0.35504    
 0.30998     0.26540     0.23473     0.23968     0.29667     0.40307     0.52172     0.61038     0.66177     0.69477    
 0.72679     0.75468     0.76032     0.72831     0.65297     0.54572     0.44349     0.38355     0.37166     0.39052    
 0.41396     0.41743     0.59173     0.55371     0.50658     0.44371     0.36494     0.29667     0.27060     0.29669    
 0.36497     0.44378     0.50664     0.55379     0.59179     0.61539     0.61085     0.57063     0.50523     0.44349    
 0.41818     0.44349     0.50522     0.57061     0.61082     0.61534     0.72682     0.69480     0.66182     0.61041    
 0.52178     0.40307     0.29669     0.23967     0.23470     0.26535     0.30988     0.35494     0.39429     0.41736    
 0.41391     0.39049     0.37165     0.38355     0.44349     0.54572     0.65297     0.72832     0.76034     0.75471    
 0.76530     0.73691     0.72761     0.70797     0.64434     0.52172     0.36497     0.23470     0.16565     0.14500    
 0.15293     0.17691     0.20700     0.23031     0.24033     0.25137     0.28822     0.37166     0.50522     0.65297    
 0.76468     0.82268     0.83321     0.80740     0.69517     0.66861     0.70075     0.73006     0.70800     0.61038    
 0.44378     0.26535     0.14500     0.89778E-01 0.72372E-01 0.75090E-01 0.89928E-01 0.11009     0.13333     0.17232    
 0.25134     0.39052     0.57061     0.72832     0.82268     0.85527     0.83733     0.77372     0.47762     0.47308    
 0.59207     0.70074     0.72762     0.66177     0.50664     0.30988     0.15293     0.72372E-01 0.42078E-01 0.34649E-01
 0.39163E-01 0.53100E-01 0.79731E-01 0.13338     0.24029     0.41396     0.61082     0.76034     0.83321     0.83733    
 0.77206     0.62449     0.21311     0.26035     0.47308     0.66861     0.73693     0.69477     0.55379     0.35494    
 0.17691     0.75090E-01 0.34649E-01 0.22059E-01 0.21387E-01 0.29689E-01 0.53061E-01 0.11013     0.23022     0.41743    
 0.61534     0.75471     0.80740     0.77372     0.62449     0.36645     0.11997     0.21505     0.49544     0.70972    
 0.76978     0.72469     0.59416     0.41056     0.23126     0.11107     0.52540E-01 0.29496E-01 0.23676E-01 0.29501E-01
 0.52537E-01 0.11111     0.23124     0.41061     0.59415     0.72470     0.76978     0.70972     0.49545     0.21505    
 0.21505     0.44155     0.71467     0.82828     0.84086     0.78369     0.65667     0.47431     0.28755     0.15417    
 0.80991E-01 0.45193E-01 0.29501E-01 0.26851E-01 0.38568E-01 0.78119E-01 0.17277     0.33355     0.51461     0.64991    
 0.68991     0.60610     0.39477     0.21271     0.49544     0.71467     0.84920     0.88846     0.87471     0.81173    
 0.68954     0.51206     0.33177     0.20274     0.12628     0.80967E-01 0.52537E-01 0.38568E-01 0.40350E-01 0.64384E-01
 0.13118     0.26269     0.43369     0.57718     0.63590     0.58950     0.46831     0.39478     0.70972     0.82828    
 0.88846     0.89908     0.87368     0.80843     0.68886     0.52414     0.37274     0.26904     0.20278     0.15418    
 0.11111     0.78119E-01 0.64384E-01 0.73772E-01 0.11616     0.21159     0.35787     0.50348     0.59328     0.61081    
 0.58949     0.60610     0.76978     0.84086     0.87471     0.87368     0.84227     0.77162     0.65295     0.52175    
 0.42839     0.37272     0.33176     0.28750     0.23124     0.17277     0.13118     0.11616     0.13122     0.18631    
 0.28973     0.41759     0.52539     0.59331     0.63590     0.68992     0.72469     0.78369     0.81173     0.80843    
 0.77162     0.69409     0.59745     0.53518     0.52176     0.52415     0.51209     0.47433     0.41061     0.33355    
 0.26269     0.21159     0.18631     0.19303     0.23916     0.32195     0.41753     0.50347     0.57714     0.64991    
 0.59416     0.65667     0.68954     0.68886     0.65295     0.59745     0.56912     0.59745     0.65294     0.68885    
 0.68953     0.65664     0.59415     0.51461     0.43369     0.35787     0.28973     0.23916     0.22038     0.23918    
 0.28974     0.35793     0.43371     0.51465     0.41056     0.47431     0.51206     0.52414     0.52175     0.53518    
 0.59745     0.69409     0.77162     0.80844     0.81174     0.78369     0.72470     0.64991     0.57718     0.50348    
 0.41759     0.32195     0.23918     0.19302     0.18629     0.21157     0.26263     0.33353     0.23126     0.28755    
 0.33177     0.37274     0.42839     0.52176     0.65294     0.77162     0.84227     0.87368     0.87470     0.84085    
 0.76978     0.68991     0.63590     0.59328     0.52539     0.41753     0.28974     0.18629     0.13123     0.11618    
 0.13119     0.17281     0.11107     0.15417     0.20274     0.26904     0.37272     0.52415     0.68885     0.80844    
 0.87368     0.89908     0.88846     0.82828     0.70972     0.60610     0.58950     0.61081     0.59331     0.50347    
 0.35793     0.21157     0.11618     0.73761E-01 0.64375E-01 0.78111E-01 0.52540E-01 0.80991E-01 0.12628     0.20278    
 0.33176     0.51209     0.68953     0.81174     0.87470     0.88846     0.84920     0.71467     0.49545     0.39477    
 0.46831     0.58949     0.63590     0.57714     0.43371     0.26263     0.13119     0.64375E-01 0.40355E-01 0.38574E-01
 0.29496E-01 0.45193E-01 0.80967E-01 0.15418     0.28750     0.47433     0.65664     0.78369     0.84085     0.82828    
 0.71467     0.44155     0.21505     0.21271     0.39478     0.60610     0.68992     0.64991     0.51465     0.33353    
 0.17281     0.78111E-01 0.38574E-01 0.26849E-01 0.23676E-01 0.29501E-01 0.52537E-01 0.11111     0.23124     0.41061    
 0.59415     0.72470     0.76978     0.70972     0.49545     0.21505     0.11997     0.21505     0.49544     0.70972    
 0.76978     0.72469     0.59416     0.41056     0.23126     0.11107     0.52540E-01 0.29496E-01 0.29501E-01 0.26851E-01
 0.38568E-01 0.78119E-01 0.17277     0.33355     0.51461     0.64991     0.68991     0.60610     0.39477     0.21271    
 0.21505     0.44155     0.71467     0.82828     0.84086     0.78369     0.65667     0.47431     0.28755     0.15417    
 0.80991E-01 0.45193E-01 0.52537E-01 0.38568E-01 0.40350E-01 0.64384E-01 0.13118     0.26269     0.43369     0.57718    
 0.63590     0.58950     0.46831     0.39478     0.49544     0.71467     0.84920     0.88846     0.87471     0.81173    
 0.68954     0.51206     0.33177     0.20274     0.12628     0.80967E-01 0.11111     0.78119E-01 0.64384E-01 0.73772E-01
 0.11616     0.21159     0.35787     0.50348     0.59328     0.61081     0.58949     0.60610     0.70972     0.82828    
 0.88846     0.89908     0.87368     0.80843     0.68886     0.52414     0.37274     0.26904     0.20278     0.15418    
 0.23124     0.17277     0.13118     0.11616     0.13122     0.18631     0.28973     0.41759     0.52539     0.59331    
 0.63590     0.68992     0.76978     0.84086     0.87471     0.87368     0.84227     0.77162     0.65295     0.52175    
 0.42839     0.37272     0.33176     0.28750     0.41061     0.33355     0.26269     0.21159     0.18631     0.19303    
 0.23916     0.32195     0.41753     0.50347     0.57714     0.64991     0.72469     0.78369     0.81173     0.80843    
 0.77162     0.69409     0.59745     0.53518     0.52176     0.52415     0.51209     0.47433     0.59415     0.51461    
 0.43369     0.35787     0.28973     0.23916     0.22038     0.23918     0.28974     0.35793     0.43371     0.51465    
 0.59416     0.65667     0.68954     0.68886     0.65295     0.59745     0.56912     0.59745     0.65294     0.68885    
 0.68953     0.65664     0.72470     0.64991     0.57718     0.50348     0.41759     0.32195     0.23918     0.19302    
 0.18629     0.21157     0.26263     0.33353     0.41056     0.47431     0.51206     0.52414     0.52175     0.53518    
 0.59745     0.69409     0.77162     0.80844     0.81174     0.78369     0.76978     0.68991     0.63590     0.59328    
 0.52539     0.41753     0.28974     0.18629     0.13123     0.11618     0.13119     0.17281     0.23126     0.28755    
 0.33177     0.37274     0.42839     0.52176     0.65294     0.77162     0.84227     0.87368     0.87470     0.84085    
 0.70972     0.60610     0.58950     0.61081     0.59331     0.50347     0.35793     0.21157     0.11618     0.73761E-01
 0.64375E-01 0.78111E-01 0.11107     0.15417     0.20274     0.26904     0.37272     0.52415     0.68885     0.80844    
 0.87368     0.89908     0.88846     0.82828     0.49545     0.39477     0.46831     0.58949     0.63590     0.57714    
 0.43371     0.26263     0.13119     0.64375E-01 0.40355E-01 0.38574E-01 0.52540E-01 0.80991E-01 0.12628     0.20278    
 0.33176     0.51209     0.68953     0.81174     0.87470     0.88846     0.84920     0.71467     0.21505     0.21271    
 0.39478     0.60610     0.68992     0.64991     0.51465     0.33353     0.17281     0.78111E-01 0.38574E-01 0.26849E-01
 0.29496E-01 0.45193E-01 0.80967E-01 0.15418     0.28750     0.47433     0.65664     0.78369     0.84085     0.82828    
 0.71467     0.44155     0.27501     0.38343     0.61582     0.75781     0.78244     0.72322     0.59726     0.42678    
 0.25871     0.14033     0.75226E-01 0.46064E-01 0.38132E-01 0.46061E-01 0.75233E-01 0.14033     0.25875     0.42679    
 0.59728     0.72322     0.78245     0.75781     0.61582     0.38343     0.38343     0.61849     0.80844     0.87084    
 0.86380     0.80553     0.69353     0.52853     0.35027     0.21134     0.12282     0.71948E-01 0.46061E-01 0.38504E-01
 0.48987E-01 0.87311E-01 0.17321     0.31539     0.47845     0.60840     0.66326     0.61331     0.46361     0.33504    
 0.61582     0.80844     0.89700     0.91595     0.89963     0.85129     0.75483     0.59897     0.42762     0.29029    
 0.19196     0.12283     0.75233E-01 0.48987E-01 0.43869E-01 0.61275E-01 0.11416     0.21958     0.36196     0.48985    
 0.55529     0.53540     0.46707     0.46361     0.75781     0.87084     0.91595     0.92297     0.90868     0.86703    
 0.77117     0.61951     0.47749     0.37507     0.29030     0.21132     0.14033     0.87311E-01 0.61275E-01 0.61300E-01
 0.89469E-01 0.15860     0.27007     0.38844     0.47345     0.51190     0.53539     0.61332     0.78244     0.86380    
 0.89963     0.90868     0.89644     0.84533     0.73148     0.59625     0.51639     0.47747     0.42763     0.35026    
 0.25875     0.17321     0.11416     0.89469E-01 0.95359E-01 0.13337     0.20814     0.30424     0.39459     0.47348    
 0.55528     0.66327     0.72322     0.80553     0.85129     0.86703     0.84533     0.76738     0.65135     0.58511    
 0.59626     0.61951     0.59898     0.52851     0.42679     0.31539     0.21958     0.15860     0.13337     0.13776    
 0.17116     0.23070     0.30418     0.38845     0.48983     0.60842     0.59726     0.69353     0.75483     0.77117    
 0.73148     0.65135     0.60642     0.65135     0.73148     0.77116     0.75483     0.69352     0.59728     0.47845    
 0.36196     0.27007     0.20814     0.17116     0.15832     0.17118     0.20815     0.27011     0.36194     0.47846    
 0.42678     0.52853     0.59897     0.61951     0.59625     0.58511     0.65135     0.76738     0.84533     0.86703    
 0.85129     0.80552     0.72322     0.60840     0.48985     0.38844     0.30424     0.23070     0.17118     0.13775    
 0.13335     0.15860     0.21955     0.31543     0.25871     0.35027     0.42762     0.47749     0.51639     0.59626    
 0.73148     0.84533     0.89644     0.90868     0.89963     0.86380     0.78245     0.66326     0.55529     0.47345    
 0.39459     0.30418     0.20815     0.13335     0.95366E-01 0.89479E-01 0.11415     0.17322     0.14033     0.21134    
 0.29029     0.37507     0.47747     0.61951     0.77116     0.86703     0.90868     0.92297     0.91595     0.87084    
 0.75781     0.61331     0.53540     0.51190     0.47348     0.38845     0.27011     0.15860     0.89479E-01 0.61297E-01
 0.61273E-01 0.87321E-01 0.75226E-01 0.12282     0.19196     0.29030     0.42763     0.59898     0.75483     0.85129    
 0.89963     0.91595     0.89700     0.80844     0.61582     0.46361     0.46707     0.53539     0.55528     0.48983    
 0.36194     0.21955     0.11415     0.61273E-01 0.43869E-01 0.48986E-01 0.46064E-01 0.71948E-01 0.12283     0.21132    
 0.35026     0.52851     0.69352     0.80552     0.86380     0.87084     0.80844     0.61849     0.38343     0.33504    
 0.46361     0.61332     0.66327     0.60842     0.47846     0.31543     0.17322     0.87321E-01 0.48986E-01 0.38504E-01
 0.38132E-01 0.46061E-01 0.75233E-01 0.14033     0.25875     0.42679     0.59728     0.72322     0.78245     0.75781    
 0.61582     0.38343     0.27501     0.38343     0.61582     0.75781     0.78244     0.72322     0.59726     0.42678    
 0.25871     0.14033     0.75226E-01 0.46064E-01 0.46061E-01 0.38504E-01 0.48987E-01 0.87311E-01 0.17321     0.31539    
 0.47845     0.60840     0.66326     0.61331     0.46361     0.33504     0.38343     0.61849     0.80844     0.87084    
 0.86380     0.80553     0.69353     0.52853     0.35027     0.21134     0.12282     0.71948E-01 0.75233E-01 0.48987E-01
 0.43869E-01 0.61275E-01 0.11416     0.21958     0.36196     0.48985     0.55529     0.53540     0.46707     0.46361    
 0.61582     0.80844     0.89700     0.91595     0.89963     0.85129     0.75483     0.59897     0.42762     0.29029    
 0.19196     0.12283     0.14033     0.87311E-01 0.61275E-01 0.61300E-01 0.89469E-01 0.15860     0.27007     0.38844    
 0.47345     0.51190     0.53539     0.61332     0.75781     0.87084     0.91595     0.92297     0.90868     0.86703    
 0.77117     0.61951     0.47749     0.37507     0.29030     0.21132     0.25875     0.17321     0.11416     0.89469E-01
 0.95359E-01 0.13337     0.20814     0.30424     0.39459     0.47348     0.55528     0.66327     0.78244     0.86380    
 0.89963     0.90868     0.89644     0.84533     0.73148     0.59625     0.51639     0.47747     0.42763     0.35026    
 0.42679     0.31539     0.21958     0.15860     0.13337     0.13776     0.17116     0.23070     0.30418     0.38845    
 0.48983     0.60842     0.72322     0.80553     0.85129     0.86703     0.84533     0.76738     0.65135     0.58511    
 0.59626     0.61951     0.59898     0.52851     0.59728     0.47845     0.36196     0.27007     0.20814     0.17116    
 0.15832     0.17118     0.20815     0.27011     0.36194     0.47846     0.59726     0.69353     0.75483     0.77117    
 0.73148     0.65135     0.60642     0.65135     0.73148     0.77116     0.75483     0.69352     0.72322     0.60840    
 0.48985     0.38844     0.30424     0.23070     0.17118     0.13775     0.13335     0.15860     0.21955     0.31543    
 0.42678     0.52853     0.59897     0.61951     0.59625     0.58511     0.65135     0.76738     0.84533     0.86703    
 0.85129     0.80552     0.78245     0.66326     0.55529     0.47345     0.39459     0.30418     0.20815     0.13335    
 0.95366E-01 0.89479E-01 0.11415     0.17322     0.25871     0.35027     0.42762     0.47749     0.51639     0.59626    
 0.73148     0.84533     0.89644     0.90868     0.89963     0.86380     0.75781     0.61331     0.53540     0.51190    
 0.47348     0.38845     0.27011     0.15860     0.89479E-01 0.61297E-01 0.61273E-01 0.87321E-01 0.14033     0.21134    
 0.29029     0.37507     0.47747     0.61951     0.77116     0.86703     0.90868     0.92297     0.91595     0.87084    
 0.61582     0.46361     0.46707     0.53539     0.55528     0.48983     0.36194     0.21955     0.11415     0.61273E-01
 0.43869E-01 0.48986E-01 0.75226E-01 0.12282     0.19196     0.29030     0.42763     0.59898     0.75483     0.85129    
 0.89963     0.91595     0.89700     0.80844     0.38343     0.33504     0.46361     0.61332     0.66327     0.60842    
 0.47846     0.31543     0.17322     0.87321E-01 0.48986E-01 0.38504E-01 0.46064E-01 0.71948E-01 0.12283     0.21132    
 0.35026     0.52851     0.69352     0.80552     0.86380     0.87084     0.80844     0.61849     0.47032     0.54664    
 0.68864     0.76818     0.76723     0.70470     0.59140     0.44180     0.29691     0.18849     0.11890     0.82444E-01
 0.71617E-01 0.82435E-01 0.11891     0.18848     0.29695     0.44179     0.59144     0.70470     0.76724     0.76818    
 0.68863     0.54664     0.54664     0.71399     0.83504     0.87306     0.86032     0.80972     0.71397     0.57242    
 0.42167     0.29392     0.19445     0.12415     0.82435E-01 0.66246E-01 0.73809E-01 0.10944     0.18302     0.30106    
 0.44117     0.55771     0.62173     0.61419     0.54143     0.48260     0.68864     0.83504     0.90132     0.91637    
 0.90601     0.86916     0.78380     0.64661     0.50832     0.39467     0.29052     0.19447     0.11891     0.73809E-01
 0.58301E-01 0.68001E-01 0.10710     0.18659     0.29896     0.40497     0.47330     0.49388     0.49158     0.54142    
 0.76818     0.87306     0.91637     0.92925     0.92393     0.88732     0.78657     0.63505     0.52506     0.46452    
 0.39467     0.29389     0.18848     0.10944     0.68001E-01 0.57730E-01 0.72746E-01 0.11823     0.19674     0.28524    
 0.36002     0.42231     0.49388     0.61419     0.76723     0.86032     0.90601     0.92393     0.91534     0.85637    
 0.70956     0.55289     0.50781     0.52506     0.50834     0.42167     0.29695     0.18302     0.10710     0.72746E-01
 0.69189E-01 0.90858E-01 0.13898     0.20493     0.27600     0.36004     0.47329     0.62172     0.70470     0.80972    
 0.86916     0.88732     0.85637     0.74301     0.56708     0.49130     0.55289     0.63505     0.64661     0.57240    
 0.44179     0.30106     0.18659     0.11823     0.90858E-01 0.90374E-01 0.11085     0.14988     0.20490     0.28525    
 0.40496     0.55774     0.59140     0.71397     0.78380     0.78657     0.70956     0.56708     0.48787     0.56708    
 0.70956     0.78657     0.78380     0.71397     0.59144     0.44117     0.29896     0.19674     0.13898     0.11085    
 0.10213     0.11086     0.13898     0.19676     0.29893     0.44116     0.44180     0.57242     0.64661     0.63505    
 0.55289     0.49130     0.56708     0.74301     0.85638     0.88732     0.86916     0.80971     0.70470     0.55771    
 0.40497     0.28524     0.20493     0.14988     0.11086     0.90374E-01 0.90850E-01 0.11823     0.18658     0.30110    
 0.29691     0.42167     0.50832     0.52506     0.50781     0.55289     0.70956     0.85638     0.91534     0.92393    
 0.90601     0.86032     0.76724     0.62173     0.47330     0.36002     0.27600     0.20490     0.13898     0.90850E-01
 0.69189E-01 0.72751E-01 0.10709     0.18302     0.18849     0.29392     0.39467     0.46452     0.52506     0.63505    
 0.78657     0.88732     0.92393     0.92925     0.91637     0.87306     0.76818     0.61419     0.49388     0.42231    
 0.36004     0.28525     0.19676     0.11823     0.72751E-01 0.57730E-01 0.68000E-01 0.10945     0.11890     0.19445    
 0.29052     0.39467     0.50834     0.64661     0.78380     0.86916     0.90601     0.91637     0.90132     0.83504    
 0.68863     0.54143     0.49158     0.49388     0.47329     0.40496     0.29893     0.18658     0.10709     0.68000E-01
 0.58302E-01 0.73805E-01 0.82444E-01 0.12415     0.19447     0.29389     0.42167     0.57240     0.71397     0.80971    
 0.86032     0.87306     0.83504     0.71400     0.54664     0.48260     0.54142     0.61419     0.62172     0.55774    
 0.44116     0.30110     0.18302     0.10945     0.73805E-01 0.66245E-01 0.71617E-01 0.82435E-01 0.11891     0.18848    
 0.29695     0.44179     0.59144     0.70470     0.76724     0.76818     0.68863     0.54664     0.47032     0.54664    
 0.68864     0.76818     0.76723     0.70470     0.59140     0.44180     0.29691     0.18849     0.11890     0.82444E-01
 0.82435E-01 0.66246E-01 0.73809E-01 0.10944     0.18302     0.30106     0.44117     0.55771     0.62173     0.61419    
 0.54143     0.48260     0.54664     0.71399     0.83504     0.87306     0.86032     0.80972     0.71397     0.57242    
 0.42167     0.29392     0.19445     0.12415     0.11891     0.73809E-01 0.58301E-01 0.68001E-01 0.10710     0.18659    
 0.29896     0.40497     0.47330     0.49388     0.49158     0.54142     0.68864     0.83504     0.90132     0.91637    
 0.90601     0.86916     0.78380     0.64661     0.50832     0.39467     0.29052     0.19447     0.18848     0.10944    
 0.68001E-01 0.57730E-01 0.72746E-01 0.11823     0.19674     0.28524     0.36002     0.42231     0.49388     0.61419    
 0.76818     0.87306     0.91637     0.92925     0.92393     0.88732     0.78657     0.63505     0.52506     0.46452    
 0.39467     0.29389     0.29695     0.18302     0.10710     0.72746E-01 0.69189E-01 0.90858E-01 0.13898     0.20493    
 0.27600     0.36004     0.47329     0.62172     0.76723     0.86032     0.90601     0.92393     0.91534     0.85637    
 0.70956     0.55289     0.50781     0.52506     0.50834     0.42167     0.44179     0.30106     0.18659     0.11823    
 0.90858E-01 0.90374E-01 0.11085     0.14988     0.20490     0.28525     0.40496     0.55774     0.70470     0.80972    
 0.86916     0.88732     0.85637     0.74301     0.56708     0.49130     0.55289     0.63505     0.64661     0.57240    
 0.59144     0.44117     0.29896     0.19674     0.13898     0.11085     0.10213     0.11086     0.13898     0.19676    
 0.29893     0.44116     0.59140     0.71397     0.78380     0.78657     0.70956     0.56708     0.48787     0.56708    
 0.70956     0.78657     0.78380     0.71397     0.70470     0.55771     0.40497     0.28524     0.20493     0.14988    
 0.11086     0.90374E-01 0.90850E-01 0.11823     0.18658     0.30110     0.44180     0.57242     0.64661     0.63505    
 0.55289     0.49130     0.56708     0.74301     0.85638     0.88732     0.86916     0.80971     0.76724     0.62173    
 0.47330     0.36002     0.27600     0.20490     0.13898     0.90850E-01 0.69189E-01 0.72751E-01 0.10709     0.18302    
 0.29691     0.42167     0.50832     0.52506     0.50781     0.55289     0.70956     0.85638     0.91534     0.92393    
 0.90601     0.86032     0.76818     0.61419     0.49388     0.42231     0.36004     0.28525     0.19676     0.11823    
 0.72751E-01 0.57730E-01 0.68000E-01 0.10945     0.18849     0.29392     0.39467     0.46452     0.52506     0.63505    
 0.78657     0.88732     0.92393     0.92925     0.91637     0.87306     0.68863     0.54143     0.49158     0.49388    
 0.47329     0.40496     0.29893     0.18658     0.10709     0.68000E-01 0.58302E-01 0.73805E-01 0.11890     0.19445    
 0.29052     0.39467     0.50834     0.64661     0.78380     0.86916     0.90601     0.91637     0.90132     0.83504    
 0.54664     0.48260     0.54142     0.61419     0.62172     0.55774     0.44116     0.30110     0.18302     0.10945    
 0.73805E-01 0.66245E-01 0.82444E-01 0.12415     0.19447     0.29389     0.42167     0.57240     0.71397     0.80971    
 0.86032     0.87306     0.83504     0.71400     0.54574     0.58963     0.67306     0.72202     0.71682     0.66431    
 0.57133     0.45978     0.35826     0.27337     0.20387     0.15856     0.14347     0.15856     0.20388     0.27337    
 0.35829     0.45977     0.57134     0.66431     0.71683     0.72202     0.67306     0.58962     0.58963     0.70970    
 0.80276     0.83865     0.83264     0.78979     0.70637     0.60110     0.50416     0.41392     0.31732     0.22479    
 0.15856     0.12727     0.12829     0.15814     0.21413     0.29724     0.40043     0.49329     0.54827     0.55887    
 0.53594     0.52656     0.67306     0.80276     0.87210     0.89671     0.89269     0.85294     0.76418     0.65534    
 0.57811     0.51901     0.43432     0.31734     0.20388     0.12829     0.94678E-01 0.92897E-01 0.11711     0.16906    
 0.24638     0.32486     0.38067     0.41754     0.45635     0.53593     0.72202     0.83865     0.89671     0.91886    
 0.91188     0.85816     0.73048     0.59394     0.54868     0.55257     0.51901     0.41390     0.27337     0.15814    
 0.92897E-01 0.68251E-01 0.70276E-01 0.95188E-01 0.14342     0.20283     0.25953     0.32395     0.41754     0.55888    
 0.71682     0.83264     0.89269     0.91188     0.89094     0.79162     0.57882     0.43109     0.45799     0.54867    
 0.57812     0.50417     0.35829     0.21413     0.11711     0.70276E-01 0.56973E-01 0.64941E-01 0.91287E-01 0.13201    
 0.18355     0.25954     0.38066     0.54827     0.66431     0.78979     0.85294     0.85816     0.79162     0.59096    