unknown system                          
           1
     5.431010    0.000000    0.000000
     0.000000    5.431010    0.000000
     0.000000    0.000000   16.791010
   Si
  10
Direct configuration=     1
   0.00000000  0.00000000  0.00000000
   0.49999908  0.49999908  0.00000000
   0.24999954  0.24999954  0.08086172
   0.75000046  0.75000046  0.08086172
   0.00000000  0.49999908  0.16172345
   0.49999908  0.00000000  0.16172345
   0.24999954  0.75000046  0.24258576
   0.75000046  0.24999954  0.24258576
   0.00000000  0.00000000  0.32344749
   0.49999908  0.49999908  0.32344749
