  30  30   0   0
  0.1750281E+02  0.3946846E-09  0.3946846E-09  0.3370766E-08  0.5000000E-15
  1.000000000000000E-004
  CAR 
 unknown system                          
     10.15174979    -35.35815072  301      0.97391986      1.00000000
    -35.358  0.0000E+00  0.0000E+00
    -35.206  0.0000E+00  0.0000E+00
    -35.055  0.0000E+00  0.0000E+00
    -34.903  0.0000E+00  0.0000E+00
    -34.751  0.0000E+00  0.0000E+00
    -34.600  0.0000E+00  0.0000E+00
    -34.448  0.0000E+00  0.0000E+00
    -34.296  0.0000E+00  0.0000E+00
    -34.145  0.0000E+00  0.0000E+00
    -33.993  0.0000E+00  0.0000E+00
    -33.841  0.0000E+00  0.0000E+00
    -33.689  0.0000E+00  0.0000E+00
    -33.538  0.0000E+00  0.0000E+00
    -33.386  0.0000E+00  0.0000E+00
    -33.234  0.0000E+00  0.2000E+01
    -33.083  0.0000E+00  0.2000E+01
    -32.931  0.0000E+00  0.2000E+01
    -32.779  0.0000E+00  0.2000E+01
    -32.628  0.0000E+00  0.2000E+01
    -32.476  0.0000E+00  0.4000E+01
    -32.324  0.0000E+00  0.8000E+01
    -32.172  0.4937E+02  0.1034E+02
    -32.021  0.0000E+00  0.1200E+02
    -31.869  0.0000E+00  0.1200E+02
    -31.717  0.0000E+00  0.1200E+02
    -31.566  0.0000E+00  0.1200E+02
    -31.414  0.0000E+00  0.1200E+02
    -31.262  0.0000E+00  0.1200E+02
    -31.111  0.0000E+00  0.1200E+02
    -30.959  0.0000E+00  0.1200E+02
    -30.807  0.0000E+00  0.1200E+02
    -30.655  0.0000E+00  0.1200E+02
    -30.504  0.0000E+00  0.1200E+02
    -30.352  0.0000E+00  0.1200E+02
    -30.200  0.0000E+00  0.1200E+02
    -30.049  0.0000E+00  0.1200E+02
    -29.897  0.0000E+00  0.1200E+02
    -29.745  0.0000E+00  0.1200E+02
    -29.594  0.0000E+00  0.1200E+02
    -29.442  0.0000E+00  0.1200E+02
    -29.290  0.0000E+00  0.1200E+02
    -29.138  0.0000E+00  0.1200E+02
    -28.987  0.0000E+00  0.1200E+02
    -28.835  0.0000E+00  0.1200E+02
    -28.683  0.0000E+00  0.1200E+02
    -28.532  0.0000E+00  0.1200E+02
    -28.380  0.0000E+00  0.1200E+02
    -28.228  0.0000E+00  0.1200E+02
    -28.077  0.0000E+00  0.1200E+02
    -27.925  0.0000E+00  0.1200E+02
    -27.773  0.0000E+00  0.1200E+02
    -27.621  0.0000E+00  0.1200E+02
    -27.470  0.0000E+00  0.1200E+02
    -27.318  0.0000E+00  0.1200E+02
    -27.166  0.0000E+00  0.1200E+02
    -27.015  0.0000E+00  0.1200E+02
    -26.863  0.0000E+00  0.1200E+02
    -26.711  0.0000E+00  0.1200E+02
    -26.560  0.0000E+00  0.1200E+02
    -26.408  0.0000E+00  0.1200E+02
    -26.256  0.0000E+00  0.1200E+02
    -26.104  0.0000E+00  0.1200E+02
    -25.953  0.0000E+00  0.1200E+02
    -25.801  0.0000E+00  0.1200E+02
    -25.649  0.0000E+00  0.1200E+02
    -25.498  0.0000E+00  0.1200E+02
    -25.346  0.0000E+00  0.1200E+02
    -25.194  0.0000E+00  0.1200E+02
    -25.043  0.0000E+00  0.1200E+02
    -24.891  0.0000E+00  0.1200E+02
    -24.739  0.0000E+00  0.1200E+02
    -24.587  0.0000E+00  0.1200E+02
    -24.436  0.0000E+00  0.1200E+02
    -24.284  0.0000E+00  0.1200E+02
    -24.132  0.0000E+00  0.1200E+02
    -23.981  0.0000E+00  0.1200E+02
    -23.829  0.0000E+00  0.1200E+02
    -23.677  0.0000E+00  0.1200E+02
    -23.526  0.0000E+00  0.1200E+02
    -23.374  0.0000E+00  0.1200E+02
    -23.222  0.0000E+00  0.1200E+02
    -23.070  0.0000E+00  0.1200E+02
    -22.919  0.0000E+00  0.1200E+02
    -22.767  0.0000E+00  0.1200E+02
    -22.615  0.0000E+00  0.1200E+02
    -22.464  0.0000E+00  0.1200E+02
    -22.312  0.0000E+00  0.1200E+02
    -22.160  0.0000E+00  0.1200E+02
    -22.009  0.0000E+00  0.1200E+02
    -21.857  0.0000E+00  0.1200E+02
    -21.705  0.0000E+00  0.1200E+02
    -21.553  0.0000E+00  0.1200E+02
    -21.402  0.0000E+00  0.1200E+02
    -21.250  0.0000E+00  0.1200E+02
    -21.098  0.0000E+00  0.1200E+02
    -20.947  0.0000E+00  0.1200E+02
    -20.795  0.0000E+00  0.1200E+02
    -20.643  0.0000E+00  0.1200E+02
    -20.492  0.0000E+00  0.1200E+02
    -20.340  0.0000E+00  0.1200E+02
    -20.188  0.0000E+00  0.1200E+02
    -20.036  0.0000E+00  0.1200E+02
    -19.885  0.0000E+00  0.1200E+02
    -19.733  0.0000E+00  0.1200E+02
    -19.581  0.0000E+00  0.1200E+02
    -19.430  0.0000E+00  0.1200E+02
    -19.278  0.0000E+00  0.1200E+02
    -19.126  0.0000E+00  0.1200E+02
    -18.975  0.0000E+00  0.1200E+02
    -18.823  0.0000E+00  0.1200E+02
    -18.671  0.0000E+00  0.1200E+02
    -18.519  0.0000E+00  0.1200E+02
    -18.368  0.0000E+00  0.1200E+02
    -18.216  0.0000E+00  0.1200E+02
    -18.064  0.0000E+00  0.1200E+02
    -17.913  0.0000E+00  0.1200E+02
    -17.761  0.0000E+00  0.1200E+02
    -17.609  0.0000E+00  0.1200E+02
    -17.458  0.0000E+00  0.1200E+02
    -17.306  0.0000E+00  0.1200E+02
    -17.154  0.5030E+01  0.1210E+02
    -17.002  0.6797E+01  0.1347E+02
    -16.851  0.1068E+02  0.1512E+02
    -16.699  0.1347E+02  0.1732E+02
    -16.547  0.1734E+02  0.1976E+02
    -16.396  0.1215E+02  0.2179E+02
    -16.244  0.6331E+01  0.2326E+02
    -16.092  0.1824E+02  0.2734E+02
    -15.941  0.3063E+02  0.3409E+02
    -15.789  0.3625E+02  0.3974E+02
    -15.637  0.5610E+01  0.4364E+02
    -15.485  0.4850E+02  0.4734E+02
    -15.334  0.4654E+00  0.4797E+02
    -15.182  0.2539E+02  0.5007E+02
    -15.030  0.0000E+00  0.5200E+02
    -14.879  0.2004E+00  0.5201E+02
    -14.727  0.2263E+01  0.5220E+02
    -14.575  0.3152E+02  0.5388E+02
    -14.424  0.8190E+02  0.5986E+02
    -14.272  0.6032E+02  0.6769E+02
    -14.120  0.7008E+02  0.7637E+02
    -13.968  0.2096E+02  0.8148E+02
    -13.817  0.5182E+01  0.8386E+02
    -13.665  0.0000E+00  0.8400E+02
    -13.513  0.0000E+00  0.8400E+02
    -13.362  0.0000E+00  0.8400E+02
    -13.210  0.0000E+00  0.8400E+02
    -13.058  0.0000E+00  0.8400E+02
    -12.907  0.0000E+00  0.8400E+02
    -12.755  0.0000E+00  0.8400E+02
    -12.603  0.0000E+00  0.8400E+02
    -12.452  0.0000E+00  0.8400E+02
    -12.300  0.0000E+00  0.8400E+02
    -12.148  0.0000E+00  0.8400E+02
    -11.996  0.0000E+00  0.8400E+02
    -11.845  0.0000E+00  0.8400E+02
    -11.693  0.0000E+00  0.8400E+02
    -11.541  0.0000E+00  0.8400E+02
    -11.390  0.0000E+00  0.8400E+02
    -11.238  0.0000E+00  0.8400E+02
    -11.086  0.0000E+00  0.8400E+02
    -10.935  0.0000E+00  0.8400E+02
    -10.783  0.0000E+00  0.8400E+02
    -10.631  0.0000E+00  0.8400E+02
    -10.479  0.0000E+00  0.8400E+02
    -10.328  0.0000E+00  0.8400E+02
    -10.176  0.0000E+00  0.8400E+02
    -10.024  0.0000E+00  0.8400E+02
     -9.873  0.0000E+00  0.8400E+02
     -9.721  0.0000E+00  0.8400E+02
     -9.569  0.0000E+00  0.8400E+02
     -9.418  0.0000E+00  0.8400E+02
     -9.266  0.0000E+00  0.8400E+02
     -9.114  0.0000E+00  0.8400E+02
     -8.962  0.0000E+00  0.8400E+02
     -8.811  0.0000E+00  0.8400E+02
     -8.659  0.0000E+00  0.8400E+02
     -8.507  0.0000E+00  0.8400E+02
     -8.356  0.0000E+00  0.8400E+02
     -8.204  0.0000E+00  0.8400E+02
     -8.052  0.0000E+00  0.8400E+02
     -7.901  0.0000E+00  0.8400E+02
     -7.749  0.0000E+00  0.8400E+02
     -7.597  0.0000E+00  0.8400E+02
     -7.445  0.0000E+00  0.8400E+02
     -7.294  0.0000E+00  0.8400E+02
     -7.142  0.0000E+00  0.8400E+02
     -6.990  0.0000E+00  0.8400E+02
     -6.839  0.0000E+00  0.8400E+02
     -6.687  0.0000E+00  0.8400E+02
     -6.535  0.0000E+00  0.8400E+02
     -6.384  0.0000E+00  0.8400E+02
     -6.232  0.0000E+00  0.8400E+02
     -6.080  0.0000E+00  0.8400E+02
     -5.928  0.0000E+00  0.8400E+02
     -5.777  0.0000E+00  0.8400E+02
     -5.625  0.0000E+00  0.8400E+02
     -5.473  0.0000E+00  0.8400E+02
     -5.322  0.0000E+00  0.8400E+02
     -5.170  0.0000E+00  0.8400E+02
     -5.018  0.0000E+00  0.8400E+02
     -4.867  0.0000E+00  0.8400E+02
     -4.715  0.0000E+00  0.8400E+02
     -4.563  0.0000E+00  0.8400E+02
     -4.411  0.0000E+00  0.8400E+02
     -4.260  0.0000E+00  0.8400E+02
     -4.108  0.2060E+01  0.8414E+02
     -3.956  0.1098E+02  0.8552E+02
     -3.805  0.6785E+01  0.8797E+02
     -3.653  0.2186E+02  0.9104E+02
     -3.501  0.3247E+02  0.9514E+02
     -3.350  0.2638E+02  0.9891E+02
     -3.198  0.2371E+02  0.1027E+03
     -3.046  0.2351E+02  0.1063E+03
     -2.894  0.2854E+02  0.1105E+03
     -2.743  0.3312E+02  0.1154E+03
     -2.591  0.3990E+02  0.1209E+03
     -2.439  0.3173E+02  0.1262E+03
     -2.288  0.2964E+02  0.1310E+03
     -2.136  0.2153E+02  0.1351E+03
     -1.984  0.1776E+02  0.1381E+03
     -1.833  0.1904E+02  0.1408E+03
     -1.681  0.1625E+02  0.1434E+03
     -1.529  0.1742E+02  0.1461E+03
     -1.377  0.1440E+02  0.1485E+03
     -1.226  0.1272E+02  0.1512E+03
     -1.074  0.2141E+02  0.1536E+03
     -0.922  0.2138E+02  0.1574E+03
     -0.771  0.3115E+02  0.1616E+03
     -0.619  0.3646E+02  0.1668E+03
     -0.467  0.3730E+02  0.1719E+03
     -0.316  0.2726E+02  0.1772E+03
     -0.164  0.2126E+02  0.1804E+03
     -0.012  0.2479E+02  0.1846E+03
      0.140  0.1759E+02  0.1880E+03
      0.291  0.8120E+01  0.1899E+03
      0.443  0.7169E+01  0.1912E+03
      0.595  0.1058E+01  0.1917E+03
      0.746  0.7902E+00  0.1919E+03
      0.898  0.5222E+00  0.1920E+03
      1.050  0.0000E+00  0.1920E+03
      1.201  0.0000E+00  0.1920E+03
      1.353  0.0000E+00  0.1920E+03
      1.505  0.0000E+00  0.1920E+03
      1.657  0.0000E+00  0.1920E+03
      1.808  0.0000E+00  0.1920E+03
      1.960  0.6411E+00  0.1920E+03
      2.112  0.3466E+01  0.1923E+03
      2.263  0.3969E+01  0.1928E+03
      2.415  0.5528E+01  0.1936E+03
      2.567  0.7564E+01  0.1946E+03
      2.718  0.8398E+01  0.1958E+03
      2.870  0.1189E+02  0.1972E+03
      3.022  0.1259E+02  0.1990E+03
      3.174  0.1290E+02  0.2009E+03
      3.325  0.1640E+02  0.2033E+03
      3.477  0.1930E+02  0.2062E+03
      3.629  0.2702E+02  0.2098E+03
      3.780  0.2770E+02  0.2140E+03
      3.932  0.2947E+02  0.2184E+03
      4.084  0.2186E+02  0.2223E+03
      4.235  0.1391E+02  0.2251E+03
      4.387  0.4210E+01  0.2266E+03
      4.539  0.1493E+01  0.2271E+03
      4.691  0.9482E+00  0.2273E+03
      4.842  0.9282E+00  0.2274E+03
      4.994  0.1072E+01  0.2276E+03
      5.146  0.1060E+01  0.2278E+03
      5.297  0.1049E+01  0.2279E+03
      5.449  0.1038E+01  0.2281E+03
      5.601  0.1027E+01  0.2282E+03
      5.752  0.1016E+01  0.2284E+03
      5.904  0.1086E+01  0.2286E+03
      6.056  0.1494E+01  0.2287E+03
      6.208  0.2651E+01  0.2290E+03
      6.359  0.1579E+01  0.2293E+03
      6.511  0.1506E+01  0.2295E+03
      6.663  0.1438E+01  0.2298E+03
      6.814  0.1307E+01  0.2300E+03
      6.966  0.1278E+01  0.2302E+03
      7.118  0.1363E+01  0.2304E+03
      7.269  0.1413E+01  0.2306E+03
      7.421  0.1443E+01  0.2308E+03
      7.573  0.1364E+01  0.2311E+03
      7.725  0.2135E+01  0.2313E+03
      7.876  0.1869E+01  0.2316E+03
      8.028  0.1297E+01  0.2319E+03
      8.180  0.0000E+00  0.2320E+03
      8.331  0.0000E+00  0.2320E+03
      8.483  0.0000E+00  0.2320E+03
      8.635  0.0000E+00  0.2320E+03
      8.786  0.0000E+00  0.2320E+03
      8.938  0.0000E+00  0.2320E+03
      9.090  0.0000E+00  0.2320E+03
      9.242  0.0000E+00  0.2320E+03
      9.393  0.0000E+00  0.2320E+03
      9.545  0.0000E+00  0.2320E+03
      9.697  0.0000E+00  0.2320E+03
      9.848  0.0000E+00  0.2320E+03
     10.000  0.0000E+00  0.2320E+03
     10.152  0.0000E+00  0.2320E+03
