<?xml version="1.0" encoding="ISO-8859-1"?>
<modeling>
 <generator>
  <i name="program" type="string">vasp </i>
  <i name="version" type="string">5.4.4.18Apr17-6-g9f103f2a35  </i>
  <i name="subversion" type="string">(build Jun 30 2017 11:15:00) complex            parallel </i>
  <i name="platform" type="string">STALLO_VASP_5.4.4 </i>
  <i name="date" type="string">2019 11 04 </i>
  <i name="time" type="string">15:06:27 </i>
 </generator>
 <incar>
  <i type="string" name="PREC">normal    ! low/normal/accurate</i>
  <i type="string" name="ALGO"> Fast      ! Algorithm for electronic re</i>
  <i type="int" name="ISPIN">     1</i>
  <i type="int" name="NELMIN">     4</i>
  <i name="EDIFF">      0.00001000</i>
  <i type="int" name="NSW">     0</i>
  <i name="ENCUT">    500.00000000</i>
  <i type="logical" name="LREAL"> F  </i>
  <i type="int" name="ISMEAR">    -5</i>
  <i name="SIGMA">      0.20000000</i>
  <i type="logical" name="LWAVE"> F  </i>
  <v type="int" name="KPOINT_BSE">    -1     0     0     0</v>
 </incar>
 <structure name="primitive_cell" >
  <crystal>
   <varray name="basis" >
    <v>       3.94684634       0.00000000       0.00000000 </v>
    <v>       0.00000000       3.94684634       0.00000000 </v>
    <v>       0.00000000       0.00000000      33.70765488 </v>
   </varray>
   <i name="volume">    525.08423131 </i>
   <varray name="rec_basis" >
    <v>       0.25336684       0.00000000       0.00000000 </v>
    <v>       0.00000000       0.25336684       0.00000000 </v>
    <v>       0.00000000       0.00000000       0.02966685 </v>
   </varray>
  </crystal>
  <varray name="positions" >
   <v>      -0.50000000      -0.50000000       0.17800111 </v>
   <v>      -0.50000000      -0.50000000       0.23654636 </v>
   <v>       0.00000000       0.00000000       0.17800111 </v>
   <v>      -0.50000000       0.00000000       0.23654636 </v>
   <v>       0.00000000      -0.50000000       0.23654636 </v>
   <v>      -0.50000000      -0.50000000       0.29509162 </v>
   <v>       0.00000000       0.00000000       0.29509162 </v>
   <v>      -0.50000000      -0.50000000       0.35363687 </v>
   <v>      -0.50000000       0.00000000       0.35363687 </v>
   <v>       0.00000000      -0.50000000       0.35363687 </v>
   <v>      -0.50000000      -0.50000000       0.41218212 </v>
   <v>       0.00000000       0.00000000       0.41218212 </v>
   <v>      -0.50000000      -0.50000000       0.47072737 </v>
   <v>      -0.50000000       0.00000000       0.47072737 </v>
   <v>       0.00000000      -0.50000000       0.47072737 </v>
   <v>      -0.50000000      -0.50000000      -0.47072737 </v>
   <v>      -0.50000000      -0.50000000      -0.17800111 </v>
   <v>      -0.50000000       0.00000000      -0.17800111 </v>
   <v>       0.00000000      -0.50000000      -0.17800111 </v>
   <v>       0.00000000       0.00000000      -0.47072737 </v>
   <v>      -0.50000000      -0.50000000      -0.41218212 </v>
   <v>      -0.50000000       0.00000000      -0.41218212 </v>
   <v>       0.00000000      -0.50000000      -0.41218212 </v>
   <v>      -0.50000000      -0.50000000      -0.23654636 </v>
   <v>       0.00000000       0.00000000      -0.23654636 </v>
   <v>      -0.50000000      -0.50000000      -0.35363687 </v>
   <v>      -0.50000000      -0.50000000      -0.29509162 </v>
   <v>       0.00000000       0.00000000      -0.35363687 </v>
   <v>      -0.50000000       0.00000000      -0.29509162 </v>
   <v>       0.00000000      -0.50000000      -0.29509162 </v>
  </varray>
 </structure>
 <varray name="primitive_index" >
  <v type="int" >        1 </v>
  <v type="int" >       25 </v>
  <v type="int" >       19 </v>
  <v type="int" >        2 </v>
  <v type="int" >        3 </v>
  <v type="int" >        4 </v>
  <v type="int" >       20 </v>
  <v type="int" >       26 </v>
  <v type="int" >        5 </v>
  <v type="int" >        6 </v>
  <v type="int" >        7 </v>
  <v type="int" >       21 </v>
  <v type="int" >       27 </v>
  <v type="int" >        8 </v>
  <v type="int" >        9 </v>
  <v type="int" >       10 </v>
  <v type="int" >       30 </v>
  <v type="int" >       17 </v>
  <v type="int" >       18 </v>
  <v type="int" >       22 </v>
  <v type="int" >       28 </v>
  <v type="int" >       11 </v>
  <v type="int" >       12 </v>
  <v type="int" >       16 </v>
  <v type="int" >       24 </v>
  <v type="int" >       13 </v>
  <v type="int" >       29 </v>
  <v type="int" >       23 </v>
  <v type="int" >       14 </v>
  <v type="int" >       15 </v>
 </varray>
 <kpoints>
  <generation param="Gamma">
   <v type="int" name="divisions">       7        7        1 </v>
   <v name="usershift">      0.00000000       0.00000000       0.00000000 </v>
   <v name="genvec1">      0.14285714       0.00000000       0.00000000 </v>
   <v name="genvec2">      0.00000000       0.14285714       0.00000000 </v>
   <v name="genvec3">      0.00000000       0.00000000       1.00000000 </v>
   <v name="shift">      0.00000000       0.00000000       0.00000000 </v>
  </generation>
  <varray name="kpointlist" >
   <v>       0.00000000       0.00000000       0.00000000 </v>
   <v>       0.14285714       0.00000000       0.00000000 </v>
   <v>       0.28571429       0.00000000       0.00000000 </v>
   <v>       0.42857143       0.00000000       0.00000000 </v>
   <v>       0.14285714       0.14285714       0.00000000 </v>
   <v>       0.28571429       0.14285714       0.00000000 </v>
   <v>       0.42857143       0.14285714       0.00000000 </v>
   <v>       0.28571429       0.28571429       0.00000000 </v>
   <v>       0.42857143       0.28571429       0.00000000 </v>
   <v>       0.42857143       0.42857143       0.00000000 </v>
  </varray>
  <varray name="weights" >
   <v>       0.02040816 </v>
   <v>       0.08163265 </v>
   <v>       0.08163265 </v>
   <v>       0.08163265 </v>
   <v>       0.08163265 </v>
   <v>       0.16326531 </v>
   <v>       0.16326531 </v>
   <v>       0.08163265 </v>
   <v>       0.16326531 </v>
   <v>       0.08163265 </v>
  </varray>
  <varray name="tetrahedronlist"  type="int" >
   <v type="int" >        4        1        1        2        5 </v>
   <v type="int" >        4        1        2        2        5 </v>
   <v type="int" >        4        1        2        5        5 </v>
   <v type="int" >        4        2        2        3        6 </v>
   <v type="int" >        4        2        2        5        6 </v>
   <v type="int" >        4        2        5        5        6 </v>
   <v type="int" >        4        2        3        3        6 </v>
   <v type="int" >        4        2        3        6        6 </v>
   <v type="int" >        4        2        5        6        6 </v>
   <v type="int" >        4        3        3        4        7 </v>
   <v type="int" >        4        3        3        6        7 </v>
   <v type="int" >        4        3        6        6        7 </v>
   <v type="int" >        4        3        4        4        7 </v>
   <v type="int" >        4        3        4        7        7 </v>
   <v type="int" >        4        3        6        7        7 </v>
   <v type="int" >        8        4        4        4        7 </v>
   <v type="int" >        8        4        4        7        7 </v>
   <v type="int" >        8        4        7        7        7 </v>
   <v type="int" >        4        3        4        4        6 </v>
   <v type="int" >        4        4        4        6        7 </v>
   <v type="int" >        4        4        6        7        7 </v>
   <v type="int" >        4        3        3        4        6 </v>
   <v type="int" >        4        3        4        6        6 </v>
   <v type="int" >        4        4        6        6        7 </v>
   <v type="int" >        4        2        3        3        5 </v>
   <v type="int" >        4        3        3        5        6 </v>
   <v type="int" >        4        3        5        6        6 </v>
   <v type="int" >        4        2        2        3        5 </v>
   <v type="int" >        4        2        3        5        5 </v>
   <v type="int" >        4        3        5        5        6 </v>
   <v type="int" >        4        1        2        2        2 </v>
   <v type="int" >        4        2        2        2        5 </v>
   <v type="int" >        2        2        2        5        5 </v>
   <v type="int" >        2        1        1        2        2 </v>
   <v type="int" >        4        5        5        6        8 </v>
   <v type="int" >        4        5        6        6        8 </v>
   <v type="int" >        4        5        6        8        8 </v>
   <v type="int" >        4        6        6        7        9 </v>
   <v type="int" >        4        6        6        8        9 </v>
   <v type="int" >        4        6        8        8        9 </v>
   <v type="int" >        4        6        7        7        9 </v>
   <v type="int" >        4        6        7        9        9 </v>
   <v type="int" >        4        6        8        9        9 </v>
   <v type="int" >        8        7        7        7        9 </v>
   <v type="int" >        8        7        7        9        9 </v>
   <v type="int" >        8        7        9        9        9 </v>
   <v type="int" >        4        6        7        7        8 </v>
   <v type="int" >        4        7        7        8        9 </v>
   <v type="int" >        4        7        8        9        9 </v>
   <v type="int" >        4        6        6        7        8 </v>
   <v type="int" >        4        6        7        8        8 </v>
   <v type="int" >        4        7        8        8        9 </v>
   <v type="int" >        4        5        6        6        6 </v>
   <v type="int" >        4        6        6        6        8 </v>
   <v type="int" >        2        6        6        8        8 </v>
   <v type="int" >        2        5        5        6        6 </v>
   <v type="int" >        4        8        8        9       10 </v>
   <v type="int" >        4        8        9        9       10 </v>
   <v type="int" >        4        8        9       10       10 </v>
   <v type="int" >       12        9        9        9       10 </v>
   <v type="int" >       10        9        9       10       10 </v>
   <v type="int" >        8        9       10       10       10 </v>
   <v type="int" >        4        8        9        9        9 </v>
   <v type="int" >        2        8        8        9        9 </v>
   <v type="int" >        6       10       10       10       10 </v>
  </varray>
  <i name="volumeweight">      0.00340136 </i>
 </kpoints>
 <parameters>
  <separator name="general" >
   <i type="string" name="SYSTEM">unknown system</i>
   <i type="logical" name="LCOMPAT"> F  </i>
  </separator>
  <separator name="electronic" >
   <i type="string" name="PREC">normal</i>
   <i name="ENMAX">    500.00000000</i>
   <i name="ENAUG">    605.39200000</i>
   <i name="EDIFF">      0.00001000</i>
   <i type="int" name="IALGO">    68</i>
   <i type="int" name="IWAVPR">    10</i>
   <i type="int" name="NBANDS">   116</i>
   <i name="NELECT">    192.00000000</i>
   <i type="int" name="TURBO">     0</i>
   <i type="int" name="IRESTART">     0</i>
   <i type="int" name="NREBOOT">     0</i>
   <i type="int" name="NMIN">     0</i>
   <i name="EREF">      0.00000000</i>
   <separator name="electronic smearing" >
    <i type="int" name="ISMEAR">    -5</i>
    <i name="SIGMA">      0.20000000</i>
    <i name="KSPACING">      0.50000000</i>
    <i type="logical" name="KGAMMA"> T  </i>
   </separator>
   <separator name="electronic projectors" >
    <i type="logical" name="LREAL"> F  </i>
    <v name="ROPT">      0.00000000      0.00000000      0.00000000</v>
    <i type="int" name="LMAXPAW">  -100</i>
    <i type="int" name="LMAXMIX">     2</i>
    <i type="logical" name="NLSPLINE"> F  </i>
   </separator>
   <separator name="electronic startup" >
    <i type="int" name="ISTART">     0</i>
    <i type="int" name="ICHARG">     2</i>
    <i type="int" name="INIWAV">     1</i>
   </separator>
   <separator name="electronic spin" >
    <i type="int" name="ISPIN">     1</i>
    <i type="logical" name="LNONCOLLINEAR"> F  </i>
    <v name="MAGMOM">      1.00000000      1.00000000      1.00000000      1.00000000      1.00000000      1.00000000      1.00000000      1.00000000      1.00000000      1.00000000      1.00000000      1.00000000      1.00000000      1.00000000      1.00000000      1.00000000      1.00000000      1.00000000      1.00000000      1.00000000
      1.00000000      1.00000000      1.00000000      1.00000000      1.00000000      1.00000000      1.00000000      1.00000000      1.00000000      1.00000000</v>
    <i name="NUPDOWN">     -1.00000000</i>
    <i type="logical" name="LSORBIT"> F  </i>
    <v name="SAXIS">      0.00000000      0.00000000      1.00000000</v>
    <i type="logical" name="LSPIRAL"> F  </i>
    <v name="QSPIRAL">      0.00000000      0.00000000      0.00000000</v>
    <i type="logical" name="LZEROZ"> F  </i>
   </separator>
   <separator name="electronic exchange-correlation" >
    <i type="logical" name="LASPH"> F  </i>
    <i type="logical" name="LMETAGGA"> F  </i>
   </separator>
   <separator name="electronic convergence" >
    <i type="int" name="NELM">    60</i>
    <i type="int" name="NELMDL">    -5</i>
    <i type="int" name="NELMIN">     4</i>
    <i name="ENINI">    500.00000000</i>
    <separator name="electronic convergence detail" >
     <i type="logical" name="LDIAG"> T  </i>
     <i type="logical" name="LSUBROT"> F  </i>
     <i name="WEIMIN">      0.00000000</i>
     <i name="EBREAK">      0.00000002</i>
     <i name="DEPER">      0.30000000</i>
     <i type="int" name="NRMM">     4</i>
     <i name="TIME">      0.40000000</i>
    </separator>
   </separator>
   <separator name="electronic mixer" >
    <i name="AMIX">      0.40000000</i>
    <i name="BMIX">      1.00000000</i>
    <i name="AMIN">      0.10000000</i>
    <i name="AMIX_MAG">      1.60000000</i>
    <i name="BMIX_MAG">      1.00000000</i>
    <separator name="electronic mixer details" >
     <i type="int" name="IMIX">     4</i>
     <i type="logical" name="MIXFIRST"> F  </i>
     <i type="int" name="MAXMIX">   -45</i>
     <i name="WC">    100.00000000</i>
     <i type="int" name="INIMIX">     1</i>
     <i type="int" name="MIXPRE">     1</i>
     <i type="int" name="MREMOVE">     5</i>
    </separator>
   </separator>
   <separator name="electronic dipolcorrection" >
    <i type="logical" name="LDIPOL"> F  </i>
    <i type="logical" name="LMONO"> F  </i>
    <i type="int" name="IDIPOL">     0</i>
    <i name="EPSILON">      1.00000000</i>
    <v name="DIPOL">   -100.00000000   -100.00000000   -100.00000000</v>
    <i name="EFIELD">      0.00000000</i>
   </separator>
  </separator>
  <separator name="grids" >
   <i type="int" name="NGX">    24</i>
   <i type="int" name="NGY">    24</i>
   <i type="int" name="NGZ">   192</i>
   <i type="int" name="NGXF">    48</i>
   <i type="int" name="NGYF">    48</i>
   <i type="int" name="NGZF">   384</i>
   <i type="logical" name="ADDGRID"> F  </i>
  </separator>
  <separator name="ionic" >
   <i type="int" name="NSW">     0</i>
   <i type="int" name="IBRION">    -1</i>
   <i type="int" name="MDALGO">     0</i>
   <i type="int" name="ISIF">     2</i>
   <i name="PSTRESS">      0.00000000</i>
   <i name="EDIFFG">      0.00010000</i>
   <i type="int" name="NFREE">     0</i>
   <i name="POTIM">      0.50000000</i>
   <i name="SMASS">     -3.00000000</i>
   <i name="SCALEE">      1.00000000</i>
  </separator>
  <separator name="ionic md" >
   <i name="TEBEG">      0.00010000</i>
   <i name="TEEND">      0.00010000</i>
   <i type="int" name="NBLOCK">     1</i>
   <i type="int" name="KBLOCK">     1</i>
   <i type="int" name="NPACO">   256</i>
   <i name="APACO">     16.00000000</i>
  </separator>
  <separator name="symmetry" >
   <i type="int" name="ISYM">     2</i>
   <i name="SYMPREC">      0.00001000</i>
  </separator>
  <separator name="dos" >
   <i type="int" name="LORBIT">     0</i>
   <v name="RWIGS">     -1.00000000     -1.00000000     -1.00000000</v>
   <i type="int" name="NEDOS">   301</i>
   <i name="EMIN">     10.00000000</i>
   <i name="EMAX">    -10.00000000</i>
   <i name="EFERMI">      0.00000000</i>
  </separator>
  <separator name="writing" >
   <i type="int" name="NWRITE">     2</i>
   <i type="logical" name="LWAVE"> F  </i>
   <i type="logical" name="LDOWNSAMPLE"> F  </i>
   <i type="logical" name="LCHARG"> T  </i>
   <i type="logical" name="LPARD"> F  </i>
   <i type="logical" name="LVTOT"> F  </i>
   <i type="logical" name="LVHAR"> F  </i>
   <i type="logical" name="LELF"> F  </i>
   <i type="logical" name="LOPTICS"> F  </i>
   <v name="STM">      0.00000000      0.00000000      0.00000000      0.00000000      0.00000000      0.00000000      0.00000000</v>
  </separator>
  <separator name="performance" >
   <i type="int" name="NPAR">     2</i>
   <i type="int" name="NSIM">     4</i>
   <i type="int" name="NBLK">    -1</i>
   <i type="logical" name="LPLANE"> T  </i>
   <i type="logical" name="LSCALAPACK"> T  </i>
   <i type="logical" name="LSCAAWARE"> F  </i>
   <i type="logical" name="LSCALU"> F  </i>
   <i type="logical" name="LASYNC"> F  </i>
   <i type="logical" name="LORBITALREAL"> F  </i>
  </separator>
  <separator name="miscellaneous" >
   <i type="int" name="IDIOT">     3</i>
   <i type="int" name="ISPECIAL">     0</i>
   <i type="logical" name="LMUSIC"> F  </i>
   <v name="POMASS">     16.00000000     87.62000000     47.88000000</v>
   <v name="DARWINR">      0.00000000      0.00000000      0.00000000</v>
   <v name="DARWINV">      1.00000000      1.00000000      1.00000000</v>
   <i type="logical" name="LCORR"> T  </i>
  </separator>
  <i type="logical" name="GGA_COMPAT"> T  </i>
  <i type="logical" name="LBERRY"> F  </i>
  <i type="int" name="ICORELEVEL">     0</i>
  <i type="logical" name="LDAU"> F  </i>
  <i type="int" name="I_CONSTRAINED_M">     0</i>
  <separator name="electronic exchange-correlation" >
   <i type="string" name="GGA">--</i>
   <i type="int" name="VOSKOWN">     0</i>
   <i type="logical" name="LHFCALC"> F  </i>
   <i type="string" name="PRECFOCK"></i>
   <i type="logical" name="LSYMGRAD"> F  </i>
   <i type="logical" name="LHFONE"> F  </i>
   <i type="logical" name="LRHFCALC"> F  </i>
   <i type="logical" name="LTHOMAS"> F  </i>
   <i type="logical" name="LMODELHF"> F  </i>
   <i name="ENCUT4O">     -1.00000000</i>
   <i type="int" name="EXXOEP">     0</i>
   <i type="int" name="FOURORBIT">     0</i>
   <i name="AEXX">      0.00000000</i>
   <i name="HFALPHA">      0.00000000</i>
   <i name="MCALPHA">      0.00000000</i>
   <i name="ALDAX">      1.00000000</i>
   <i name="AGGAX">      1.00000000</i>
   <i name="ALDAC">      1.00000000</i>
   <i name="AGGAC">      1.00000000</i>
   <i type="int" name="NKREDX">     1</i>
   <i type="int" name="NKREDY">     1</i>
   <i type="int" name="NKREDZ">     1</i>
   <i type="logical" name="SHIFTRED"> F  </i>
   <i type="logical" name="ODDONLY"> F  </i>
   <i type="logical" name="EVENONLY"> F  </i>
   <i type="int" name="LMAXFOCK">     0</i>
   <i type="int" name="NMAXFOCKAE">     0</i>
   <i type="logical" name="LFOCKAEDFT"> F  </i>
   <i name="HFSCREEN">      0.00000000</i>
   <i name="HFSCREENC">      0.00000000</i>
   <i type="int" name="NBANDSGWLOW">     0</i>
  </separator>
  <separator name="vdW DFT" >
   <i type="logical" name="LUSE_VDW"> F  </i>
   <i name="Zab_VDW">     -0.84910000</i>
   <i name="PARAM1">      0.12340000</i>
   <i name="PARAM2">      1.00000000</i>
   <i name="PARAM3">      0.00000000</i>
  </separator>
  <separator name="model GW" >
   <i type="int" name="MODEL_GW">     0</i>
   <i name="MODEL_EPS0">     10.50168463</i>
   <i name="MODEL_ALPHA">      1.00000000</i>
  </separator>
  <separator name="linear response parameters" >
   <i type="logical" name="LEPSILON"> F  </i>
   <i type="logical" name="LRPA"> F  </i>
   <i type="logical" name="LNABLA"> F  </i>
   <i type="logical" name="LVEL"> F  </i>
   <i type="int" name="KINTER">     0</i>
   <i name="CSHIFT">      0.10000000</i>
   <i name="OMEGAMAX">     -1.00000000</i>
   <i name="DEG_THRESHOLD">      0.00200000</i>
   <i name="RTIME">     -0.10000000</i>
   <i name="WPLASMAI">      0.00000000</i>
   <v name="DFIELD">      0.00000000      0.00000000      0.00000000</v>
   <v name="WPLASMA">      0.00000000      0.00000000      0.00000000      0.00000000      0.00000000      0.00000000      0.00000000      0.00000000      0.00000000</v>
  </separator>
  <separator name="orbital magnetization" >
   <i type="logical" name="NUCIND"> F  </i>
   <v name="MAGPOS">      0.00000000      0.00000000      0.00000000</v>
   <i type="logical" name="LNICSALL"> T  </i>
   <i type="logical" name="ORBITALMAG"> F  </i>
   <i type="logical" name="LMAGBLOCH"> F  </i>
   <i type="logical" name="LCHIMAG"> F  </i>
   <i type="logical" name="LGAUGE"> T  </i>
   <i type="int" name="MAGATOM">     0</i>
   <v name="MAGDIPOL">      0.00000000      0.00000000      0.00000000</v>
   <v name="AVECCONST">      0.00000000      0.00000000      0.00000000</v>
  </separator>
  <separator name="response functions" >
   <i type="logical" name="LADDER"> F  </i>
   <i type="logical" name="LRPAFORCE"> F  </i>
   <i type="logical" name="LFXC"> F  </i>
   <i type="logical" name="LHARTREE"> T  </i>
   <i type="int" name="IBSE">     0</i>
   <v type="int" name="KPOINT">    -1     0     0     0</v>
   <i type="logical" name="LTCTE"> F  </i>
   <i type="logical" name="LTETE"> F  </i>
   <i type="logical" name="LTRIPLET"> F  </i>
   <i type="logical" name="LFXCEPS"> F  </i>
   <i type="logical" name="LFXHEG"> F  </i>
   <i type="int" name="NATURALO">     2</i>
   <i type="logical" name="L2ORDER"> F  </i>
   <i type="logical" name="LMP2LT"> F  </i>
   <i type="logical" name="LUSEW"> F  </i>
   <i name="ENCUTGW">     -2.00000000</i>
   <i name="ENCUTGWSOFT">     -2.00000000</i>
   <i name="ENCUTLF">     -1.00000000</i>
   <i type="int" name="LMAXMP2">    -1</i>
   <i name="SCISSOR">      0.00000000</i>
   <i type="int" name="NOMEGA">     0</i>
   <i type="int" name="NOMEGAR">     0</i>
   <i type="int" name="NBANDSGW">    -1</i>
   <i type="int" name="NBANDSO">    -1</i>
   <i type="int" name="NBANDSV">    -1</i>
   <i type="int" name="NELM">     1</i>
   <i type="int" name="NELMHF">     1</i>
   <i type="int" name="DIM">     3</i>
   <i type="int" name="ANTIRES">     0</i>
   <i name="OMEGAMAX">    -30.00000000</i>
   <i name="OMEGAMIN">    -30.00000000</i>
   <i name="OMEGATL">   -200.00000000</i>
   <i type="int" name="OMEGAGRID">   140</i>
   <i name="CSHIFT">     -0.10000000</i>
   <i type="logical" name="SELFENERGY"> F  </i>
   <i type="logical" name="LSPECTRAL"> F  </i>
   <i type="logical" name="LSPECTRALGW"> F  </i>
   <i type="logical" name="LSINGLES"> F  </i>
   <i type="logical" name="LFERMIGW"> F  </i>
   <i type="logical" name="ODDONLYGW"> F  </i>
   <i type="logical" name="EVENONLYGW"> F  </i>
   <i type="int" name="NKREDLFX">     1</i>
   <i type="int" name="NKREDLFY">     1</i>
   <i type="int" name="NKREDLFZ">     1</i>
   <i type="int" name="MAXMEM">  2800</i>
   <i type="int" name="TELESCOPE">     0</i>
   <i type="int" name="TAUPAR">     1</i>
   <i type="int" name="OMEGAPAR">    -1</i>
   <i name="LAMBDA">      1.00000000</i>
  </separator>
  <separator name="External order field" >
   <i name="OFIELD_KAPPA">      0.00000000</i>
   <v name="OFIELD_K">      0.00000000      0.00000000      0.00000000</v>
   <i name="OFIELD_Q6_NEAR">      0.00000000</i>
   <i name="OFIELD_Q6_FAR">      0.00000000</i>
   <i name="OFIELD_A">      0.00000000</i>
  </separator>
 </parameters>
 <atominfo>
  <atoms>      30 </atoms>
  <types>       3 </types>
  <array name="atoms" >
   <dimension dim="1">ion</dimension>
   <field type="string">element</field>
   <field type="int">atomtype</field>
   <set>
    <rc><c>O </c><c>   1</c></rc>
    <rc><c>O </c><c>   1</c></rc>
    <rc><c>O </c><c>   1</c></rc>
    <rc><c>O </c><c>   1</c></rc>
    <rc><c>O </c><c>   1</c></rc>
    <rc><c>O </c><c>   1</c></rc>
    <rc><c>O </c><c>   1</c></rc>
    <rc><c>O </c><c>   1</c></rc>
    <rc><c>O </c><c>   1</c></rc>
    <rc><c>O </c><c>   1</c></rc>
    <rc><c>O </c><c>   1</c></rc>
    <rc><c>O </c><c>   1</c></rc>
    <rc><c>O </c><c>   1</c></rc>
    <rc><c>O </c><c>   1</c></rc>
    <rc><c>O </c><c>   1</c></rc>
    <rc><c>O </c><c>   1</c></rc>
    <rc><c>O </c><c>   1</c></rc>
    <rc><c>O </c><c>   1</c></rc>
    <rc><c>Sr</c><c>   2</c></rc>
    <rc><c>Sr</c><c>   2</c></rc>
    <rc><c>Sr</c><c>   2</c></rc>
    <rc><c>Sr</c><c>   2</c></rc>
    <rc><c>Sr</c><c>   2</c></rc>
    <rc><c>Sr</c><c>   2</c></rc>
    <rc><c>Ti</c><c>   3</c></rc>
    <rc><c>Ti</c><c>   3</c></rc>
    <rc><c>Ti</c><c>   3</c></rc>
    <rc><c>Ti</c><c>   3</c></rc>
    <rc><c>Ti</c><c>   3</c></rc>
    <rc><c>Ti</c><c>   3</c></rc>
   </set>
  </array>
  <array name="atomtypes" >
   <dimension dim="1">type</dimension>
   <field type="int">atomspertype</field>
   <field type="string">element</field>
   <field>mass</field>
   <field>valence</field>
   <field type="string">pseudopotential</field>
   <set>
    <rc><c>  18</c><c>O </c><c>     16.00000000</c><c>      6.00000000</c><c> PAW_PBE O 08Apr2002                    </c></rc>
    <rc><c>   6</c><c>Sr</c><c>     87.62000000</c><c>     10.00000000</c><c> PAW_PBE Sr_sv 07Sep2000                </c></rc>
    <rc><c>   6</c><c>Ti</c><c>     47.88000000</c><c>      4.00000000</c><c> PAW_PBE Ti 08Apr2002                   </c></rc>
   </set>
  </array>
 </atominfo>
 <structure name="initialpos" >
  <crystal>
   <varray name="basis" >
    <v>       3.94684634       0.00000000       0.00000000 </v>
    <v>       0.00000000       3.94684634       0.00000000 </v>
    <v>       0.00000000       0.00000000      33.70765488 </v>
   </varray>
   <i name="volume">    525.08423131 </i>
   <varray name="rec_basis" >
    <v>       0.25336684       0.00000000       0.00000000 </v>
    <v>       0.00000000       0.25336684       0.00000000 </v>
    <v>       0.00000000       0.00000000       0.02966685 </v>
   </varray>
  </crystal>
  <varray name="positions" >
   <v>       0.50000000       0.50000000       0.17800111 </v>
   <v>       0.50000000       0.00000000       0.23654636 </v>
   <v>       0.00000000       0.50000000       0.23654636 </v>
   <v>       0.50000000       0.50000000       0.29509162 </v>
   <v>       0.50000000       0.00000000       0.35363687 </v>
   <v>       0.00000000       0.50000000       0.35363687 </v>
   <v>       0.50000000       0.50000000       0.41218212 </v>
   <v>       0.50000000       0.00000000       0.47072737 </v>
   <v>       0.00000000       0.50000000       0.47072737 </v>
   <v>       0.50000000       0.50000000       0.52927263 </v>
   <v>       0.50000000       0.00000000       0.58781788 </v>
   <v>       0.00000000       0.50000000       0.58781788 </v>
   <v>       0.50000000       0.50000000       0.64636313 </v>
   <v>       0.50000000       0.00000000       0.70490838 </v>
   <v>       0.00000000       0.50000000       0.70490838 </v>
   <v>       0.50000000       0.50000000       0.76345364 </v>
   <v>       0.50000000       0.00000000       0.82199889 </v>
   <v>       0.00000000       0.50000000       0.82199889 </v>
   <v>       0.00000000       0.00000000       0.17800111 </v>
   <v>       0.00000000       0.00000000       0.29509162 </v>
   <v>       0.00000000       0.00000000       0.41218212 </v>
   <v>       0.00000000       0.00000000       0.52927263 </v>
   <v>       0.00000000       0.00000000       0.64636313 </v>
   <v>       0.00000000       0.00000000       0.76345364 </v>
   <v>       0.50000000       0.50000000       0.23654636 </v>
   <v>       0.50000000       0.50000000       0.35363687 </v>
   <v>       0.50000000       0.50000000       0.47072737 </v>
   <v>       0.50000000       0.50000000       0.58781788 </v>
   <v>       0.50000000       0.50000000       0.70490838 </v>
   <v>       0.50000000       0.50000000       0.82199889 </v>
  </varray>
 </structure>
 <calculation>
  <scstep>
   <time name="dav">   12.41   12.41</time>
   <time name="total">   12.58   12.67</time>
   <energy>
    <i name="alphaZ">    757.06897491 </i>
    <i name="ewald">  42626.44612703 </i>
    <i name="hartreedc"> -55582.60589398 </i>
    <i name="XCdc">    489.53974235 </i>
    <i name="pawpsdc">   8001.67783516 </i>
    <i name="pawaedc">  -7708.70676383 </i>
    <i name="eentropy">      0.00000000 </i>
    <i name="bandstr">    427.12208179 </i>
    <i name="atom">  13405.90237526 </i>
    <i name="e_fr_energy">   2416.44447869 </i>
    <i name="e_wo_entrp">   2416.44447869 </i>
    <i name="e_0_energy">   2416.44447869 </i>
   </energy>
  </scstep>
  <scstep>
   <time name="dav">   13.30   13.30</time>
   <time name="total">   13.31   13.31</time>
   <energy>
    <i name="e_fr_energy">    291.58257079 </i>
    <i name="e_wo_entrp">    291.58257079 </i>
    <i name="e_0_energy">    291.58257079 </i>
   </energy>
  </scstep>
  <scstep>
   <time name="dav">   15.17   15.17</time>
   <time name="total">   15.17   15.18</time>
   <energy>
    <i name="e_fr_energy">   -256.12952693 </i>
    <i name="e_wo_entrp">   -256.12952693 </i>
    <i name="e_0_energy">   -256.12952693 </i>
   </energy>
  </scstep>
  <scstep>
   <time name="dav">   15.21   15.21</time>
   <time name="total">   15.21   15.21</time>
   <energy>
    <i name="e_fr_energy">   -300.70881833 </i>
    <i name="e_wo_entrp">   -300.70881833 </i>
    <i name="e_0_energy">   -300.70881833 </i>
   </energy>
  </scstep>
  <scstep>
   <time name="dav">   18.76   18.76</time>
   <time name="total">   19.16   19.16</time>
   <energy>
    <i name="e_fr_energy">   -303.10549448 </i>
    <i name="e_wo_entrp">   -303.10549448 </i>
    <i name="e_0_energy">   -303.10549448 </i>
   </energy>
  </scstep>
  <scstep>
   <time name="diag">    1.20    1.21</time>
   <time name="diis">    9.34    9.33</time>
   <time name="orth">    0.28    0.28</time>
   <time name="total">   11.38   11.38</time>
   <energy>
    <i name="e_fr_energy">   -242.77663968 </i>
    <i name="e_wo_entrp">   -242.77663968 </i>
    <i name="e_0_energy">   -242.77663968 </i>
   </energy>
  </scstep>
  <scstep>
   <time name="diag">    1.21    1.21</time>
   <time name="diis">   10.18   10.17</time>
   <time name="orth">    0.28    0.28</time>
   <time name="total">   12.21   12.21</time>
   <energy>
    <i name="e_fr_energy">   -237.51848922 </i>
    <i name="e_wo_entrp">   -237.51848922 </i>
    <i name="e_0_energy">   -237.51848922 </i>
   </energy>
  </scstep>
  <scstep>
   <time name="diag">    1.21    1.21</time>
   <time name="diis">   11.51   11.51</time>
   <time name="orth">    0.28    0.28</time>
   <time name="total">   13.54   13.54</time>
   <energy>
    <i name="e_fr_energy">   -236.52445637 </i>
    <i name="e_wo_entrp">   -236.52445637 </i>
    <i name="e_0_energy">   -236.52445637 </i>
   </energy>
  </scstep>
  <scstep>
   <time name="diag">    1.20    1.21</time>
   <time name="diis">   11.19   11.19</time>
   <time name="orth">    0.28    0.28</time>
   <time name="total">   13.22   13.22</time>
   <energy>
    <i name="e_fr_energy">   -236.24929543 </i>
    <i name="e_wo_entrp">   -236.24929543 </i>
    <i name="e_0_energy">   -236.24929543 </i>
   </energy>
  </scstep>
  <scstep>
   <time name="diag">    1.21    1.21</time>
   <time name="diis">   13.69   13.68</time>
   <time name="orth">    0.28    0.28</time>
   <time name="total">   15.72   15.72</time>
   <energy>
    <i name="e_fr_energy">   -236.17944961 </i>
    <i name="e_wo_entrp">   -236.17944961 </i>
    <i name="e_0_energy">   -236.17944961 </i>
   </energy>
  </scstep>
  <scstep>
   <time name="diag">    1.21    1.21</time>
   <time name="diis">   12.82   12.82</time>
   <time name="orth">    0.28    0.28</time>
   <time name="total">   14.86   14.86</time>
   <energy>
    <i name="e_fr_energy">   -236.14673966 </i>
    <i name="e_wo_entrp">   -236.14673966 </i>
    <i name="e_0_energy">   -236.14673966 </i>
   </energy>
  </scstep>
  <scstep>
   <time name="diag">    1.21    1.21</time>
   <time name="diis">   13.25   13.24</time>
   <time name="orth">    0.28    0.28</time>
   <time name="total">   15.28   15.28</time>
   <energy>
    <i name="e_fr_energy">   -236.13702307 </i>
    <i name="e_wo_entrp">   -236.13702307 </i>
    <i name="e_0_energy">   -236.13702307 </i>
   </energy>
  </scstep>
  <scstep>
   <time name="diag">    1.21    1.21</time>
   <time name="diis">   15.60   15.60</time>
   <time name="orth">    0.28    0.28</time>
   <time name="total">   17.64   17.64</time>
   <energy>
    <i name="e_fr_energy">   -236.12932418 </i>
    <i name="e_wo_entrp">   -236.12932418 </i>
    <i name="e_0_energy">   -236.12932418 </i>
   </energy>
  </scstep>
  <scstep>
   <time name="diag">    1.23    1.23</time>
   <time name="diis">   13.22   13.22</time>
   <time name="orth">    0.28    0.28</time>
   <time name="total">   15.27   15.27</time>
   <energy>
    <i name="e_fr_energy">   -236.12190286 </i>
    <i name="e_wo_entrp">   -236.12190286 </i>
    <i name="e_0_energy">   -236.12190286 </i>
   </energy>
  </scstep>
  <scstep>
   <time name="diag">    1.21    1.21</time>
   <time name="diis">   14.62   14.62</time>
   <time name="orth">    0.28    0.28</time>
   <time name="total">   16.66   16.66</time>
   <energy>
    <i name="e_fr_energy">   -236.11976456 </i>
    <i name="e_wo_entrp">   -236.11976456 </i>
    <i name="e_0_energy">   -236.11976456 </i>
   </energy>
  </scstep>
  <scstep>
   <time name="diag">    1.20    1.20</time>
   <time name="diis">   13.62   13.61</time>
   <time name="orth">    0.28    0.28</time>
   <time name="total">   15.65   15.64</time>
   <energy>
    <i name="e_fr_energy">   -236.11991678 </i>
    <i name="e_wo_entrp">   -236.11991678 </i>
    <i name="e_0_energy">   -236.11991678 </i>
   </energy>
  </scstep>
  <scstep>
   <time name="diag">    1.20    1.20</time>
   <time name="diis">   12.93   12.92</time>
   <time name="orth">    0.28    0.28</time>
   <time name="total">   14.96   14.95</time>
   <energy>
    <i name="e_fr_energy">   -236.12048061 </i>
    <i name="e_wo_entrp">   -236.12048061 </i>
    <i name="e_0_energy">   -236.12048061 </i>
   </energy>
  </scstep>
  <scstep>
   <time name="diag">    1.21    1.21</time>
   <time name="diis">   12.62   12.62</time>
   <time name="orth">    0.28    0.28</time>
   <time name="total">   14.66   14.66</time>
   <energy>
    <i name="e_fr_energy">   -236.12082259 </i>
    <i name="e_wo_entrp">   -236.12082259 </i>
    <i name="e_0_energy">   -236.12082259 </i>
   </energy>
  </scstep>
  <scstep>
   <time name="diag">    1.20    1.20</time>
   <time name="diis">   12.59   12.59</time>
   <time name="orth">    0.28    0.28</time>
   <time name="total">   14.62   14.62</time>
   <energy>
    <i name="e_fr_energy">   -236.12227675 </i>
    <i name="e_wo_entrp">   -236.12227675 </i>
    <i name="e_0_energy">   -236.12227675 </i>
   </energy>
  </scstep>
  <scstep>
   <time name="diag">    1.21    1.21</time>
   <time name="diis">   11.37   11.37</time>
   <time name="orth">    0.28    0.28</time>
   <time name="total">   13.40   13.40</time>
   <energy>
    <i name="e_fr_energy">   -236.12308270 </i>
    <i name="e_wo_entrp">   -236.12308270 </i>
    <i name="e_0_energy">   -236.12308270 </i>
   </energy>
  </scstep>
  <scstep>
   <time name="diag">    1.20    1.20</time>
   <time name="diis">   10.58   10.58</time>
   <time name="orth">    0.28    0.28</time>
   <time name="total">   12.60   12.60</time>
   <energy>
    <i name="e_fr_energy">   -236.12346779 </i>
    <i name="e_wo_entrp">   -236.12346779 </i>
    <i name="e_0_energy">   -236.12346779 </i>
   </energy>
  </scstep>
  <scstep>
   <time name="diag">    1.20    1.20</time>
   <time name="diis">    8.49    8.49</time>
   <time name="orth">    0.28    0.28</time>
   <time name="total">   10.51   10.51</time>
   <energy>
    <i name="e_fr_energy">   -236.12360992 </i>
    <i name="e_wo_entrp">   -236.12360992 </i>
    <i name="e_0_energy">   -236.12360992 </i>
   </energy>
  </scstep>
  <scstep>
   <time name="diag">    1.20    1.20</time>
   <time name="diis">    7.79    7.79</time>
   <time name="orth">    0.28    0.28</time>
   <time name="total">    9.81    9.81</time>
   <energy>
    <i name="e_fr_energy">   -236.12364987 </i>
    <i name="e_wo_entrp">   -236.12364987 </i>
    <i name="e_0_energy">   -236.12364987 </i>
   </energy>
  </scstep>
  <scstep>
   <time name="diag">    1.20    1.20</time>
   <time name="diis">    7.01    7.01</time>
   <time name="orth">    0.28    0.28</time>
   <time name="total">    8.65    8.65</time>
   <energy>
    <i name="alphaZ">    757.06897491 </i>
    <i name="ewald">  42626.44612703 </i>
    <i name="hartreedc"> -56107.65792156 </i>
    <i name="XCdc">    513.19371430 </i>
    <i name="pawpsdc">   9237.17803838 </i>
    <i name="pawaedc">  -8982.24290332 </i>
    <i name="eentropy">      0.00000000 </i>
    <i name="bandstr">  -1686.01206298 </i>
    <i name="atom">  13405.90237526 </i>
    <i name="e_fr_energy">   -236.12365796 </i>
    <i name="e_wo_entrp">   -236.12365796 </i>
    <i name="e_0_energy">   -236.12365796 </i>
   </energy>
  </scstep>
  <structure>
   <crystal>
    <varray name="basis" >
     <v>       3.94684634       0.00000000       0.00000000 </v>
     <v>       0.00000000       3.94684634       0.00000000 </v>
     <v>       0.00000000       0.00000000      33.70765488 </v>
    </varray>
    <i name="volume">    525.08423131 </i>
    <varray name="rec_basis" >
     <v>       0.25336684       0.00000000       0.00000000 </v>
     <v>       0.00000000       0.25336684       0.00000000 </v>
     <v>       0.00000000       0.00000000       0.02966685 </v>
    </varray>
   </crystal>
   <varray name="positions" >
    <v>       0.50000000       0.50000000       0.17800111 </v>
    <v>       0.50000000       0.00000000       0.23654636 </v>
    <v>       0.00000000       0.50000000       0.23654636 </v>
    <v>       0.50000000       0.50000000       0.29509162 </v>
    <v>       0.50000000       0.00000000       0.35363687 </v>
    <v>       0.00000000       0.50000000       0.35363687 </v>
    <v>       0.50000000       0.50000000       0.41218212 </v>
    <v>       0.50000000       0.00000000       0.47072737 </v>
    <v>       0.00000000       0.50000000       0.47072737 </v>
    <v>       0.50000000       0.50000000       0.52927263 </v>
    <v>       0.50000000       0.00000000       0.58781788 </v>
    <v>       0.00000000       0.50000000       0.58781788 </v>
    <v>       0.50000000       0.50000000       0.64636313 </v>
    <v>       0.50000000       0.00000000       0.70490838 </v>
    <v>       0.00000000       0.50000000       0.70490838 </v>
    <v>       0.50000000       0.50000000       0.76345364 </v>
    <v>       0.50000000       0.00000000       0.82199889 </v>
    <v>       0.00000000       0.50000000       0.82199889 </v>
    <v>       0.00000000       0.00000000       0.17800111 </v>
    <v>       0.00000000       0.00000000       0.29509162 </v>
    <v>       0.00000000       0.00000000       0.41218212 </v>
    <v>       0.00000000       0.00000000       0.52927263 </v>
    <v>       0.00000000       0.00000000       0.64636313 </v>
    <v>       0.00000000       0.00000000       0.76345364 </v>
    <v>       0.50000000       0.50000000       0.23654636 </v>
    <v>       0.50000000       0.50000000       0.35363687 </v>
    <v>       0.50000000       0.50000000       0.47072737 </v>
    <v>       0.50000000       0.50000000       0.58781788 </v>
    <v>       0.50000000       0.50000000       0.70490838 </v>
    <v>       0.50000000       0.50000000       0.82199889 </v>
   </varray>
  </structure>
  <varray name="forces" >
   <v>       0.00000000       0.00000000      -0.68994192 </v>
   <v>       0.00000000       0.00000000      -0.01293166 </v>
   <v>       0.00000000      -0.00000000      -0.01293166 </v>
   <v>       0.00000000      -0.00000000       0.34796801 </v>
   <v>       0.00000000      -0.00000000       0.06506447 </v>
   <v>       0.00000000      -0.00000000       0.06506447 </v>
   <v>       0.00000000       0.00000000       0.22469740 </v>
   <v>       0.00000000      -0.00000000       0.07192188 </v>
   <v>       0.00000000      -0.00000000       0.07192188 </v>
   <v>       0.00000000      -0.00000000       0.22146486 </v>
   <v>       0.00000000       0.00000000       0.06791143 </v>
   <v>       0.00000000      -0.00000000       0.06791143 </v>
   <v>      -0.00000000      -0.00000000       0.27258046 </v>
   <v>       0.00000000      -0.00000000       0.01980805 </v>
   <v>       0.00000000      -0.00000000       0.01980805 </v>
   <v>       0.00000000       0.00000000       0.98189590 </v>
   <v>       0.00000000      -0.00000000       0.37569459 </v>
   <v>       0.00000000       0.00000000       0.37569459 </v>
   <v>       0.00000000      -0.00000000       1.35735085 </v>
   <v>       0.00000000      -0.00000000      -0.00103080 </v>
   <v>       0.00000000       0.00000000      -0.08369349 </v>
   <v>       0.00000000      -0.00000000      -0.08642160 </v>
   <v>       0.00000000      -0.00000000      -0.05598025 </v>
   <v>       0.00000000      -0.00000000       0.64142774 </v>
   <v>      -0.00000000      -0.00000000      -0.96560589 </v>
   <v>       0.00000000      -0.00000000      -0.28118058 </v>
   <v>       0.00000000      -0.00000000      -0.27352597 </v>
   <v>       0.00000000       0.00000000      -0.27657303 </v>
   <v>       0.00000000      -0.00000000      -0.34279718 </v>
   <v>       0.00000000       0.00000000      -2.16557204 </v>
  </varray>
  <varray name="stress" >
   <v>     -16.79279473       0.00000000       0.00000000 </v>
   <v>       0.00000000     -16.79279473       0.00000000 </v>
   <v>       0.00000000       0.00000000     -10.01161364 </v>
  </varray>
  <energy>
   <i name="e_fr_energy">   -236.12365796 </i>
   <i name="e_wo_entrp">   -236.12365796 </i>
   <i name="e_0_energy">      0.00000000 </i>
  </energy>
  <time name="totalsc">  355.18  355.38</time>
  <eigenvalues>
   <array>
    <dimension dim="1">band</dimension>
    <dimension dim="2">kpoint</dimension>
    <dimension dim="3">spin</dimension>
    <field>eigene</field>
    <field>occ</field>
    <set>
     <set comment="spin 1">
      <set comment="kpoint 1">
       <r>  -33.2895    1.0000 </r>
       <r>  -32.5331    1.0000 </r>
       <r>  -32.4118    1.0000 </r>
       <r>  -32.3939    1.0000 </r>
       <r>  -32.2771    1.0000 </r>
       <r>  -32.1816    1.0000 </r>
       <r>  -17.2075    1.0000 </r>
       <r>  -17.0865    1.0000 </r>
       <r>  -16.9618    1.0000 </r>
       <r>  -16.8866    1.0000 </r>
       <r>  -16.7772    1.0000 </r>
       <r>  -16.5767    1.0000 </r>
       <r>  -16.1139    1.0000 </r>
       <r>  -16.0705    1.0000 </r>
       <r>  -16.0431    1.0000 </r>
       <r>  -16.0159    1.0000 </r>
       <r>  -15.9282    1.0000 </r>
       <r>  -15.8808    1.0000 </r>
       <r>  -15.8045    1.0000 </r>
       <r>  -15.7502    1.0000 </r>
       <r>  -15.7115    1.0000 </r>
       <r>  -15.6880    1.0000 </r>
       <r>  -15.5102    1.0000 </r>
       <r>  -15.2157    1.0000 </r>
       <r>  -15.2027    1.0000 </r>
       <r>  -15.2027    1.0000 </r>
       <r>  -14.9509    1.0000 </r>
       <r>  -14.5770    1.0000 </r>
       <r>  -14.5770    1.0000 </r>
       <r>  -14.4546    1.0000 </r>
       <r>  -14.4546    1.0000 </r>
       <r>  -14.4526    1.0000 </r>
       <r>  -14.4526    1.0000 </r>
       <r>  -14.4438    1.0000 </r>
       <r>  -14.3189    1.0000 </r>
       <r>  -14.3189    1.0000 </r>
       <r>  -14.2279    1.0000 </r>
       <r>  -14.2200    1.0000 </r>
       <r>  -14.2200    1.0000 </r>
       <r>  -14.0635    1.0000 </r>
       <r>  -14.0016    1.0000 </r>
       <r>  -13.8297    1.0000 </r>
       <r>   -3.8325    1.0000 </r>
       <r>   -3.4857    1.0000 </r>
       <r>   -3.1349    1.0000 </r>
       <r>   -2.7919    1.0000 </r>
       <r>   -2.5956    1.0000 </r>
       <r>   -2.5956    1.0000 </r>
       <r>   -2.4980    1.0000 </r>
       <r>   -2.4980    1.0000 </r>
       <r>   -2.4707    1.0000 </r>
       <r>   -2.3624    1.0000 </r>
       <r>   -2.3624    1.0000 </r>
       <r>   -2.2298    1.0000 </r>
       <r>   -2.2298    1.0000 </r>
       <r>   -2.1738    1.0000 </r>
       <r>   -2.1738    1.0000 </r>
       <r>   -2.1140    1.0000 </r>
       <r>   -2.1140    1.0000 </r>
       <r>   -1.9544    1.0000 </r>
       <r>   -1.8338    1.0000 </r>
       <r>   -1.7688    1.0000 </r>
       <r>   -1.7688    1.0000 </r>
       <r>   -1.5967    1.0000 </r>
       <r>   -1.5171    1.0000 </r>
       <r>   -1.5171    1.0000 </r>
       <r>   -1.4868    1.0000 </r>
       <r>   -1.3091    1.0000 </r>
       <r>   -1.2668    1.0000 </r>
       <r>   -1.2668    1.0000 </r>
       <r>   -1.2633    1.0000 </r>
       <r>   -1.0939    1.0000 </r>
       <r>   -1.0367    1.0000 </r>
       <r>   -1.0367    1.0000 </r>
       <r>   -0.9415    1.0000 </r>
       <r>   -0.9035    1.0000 </r>
       <r>   -0.7985    1.0000 </r>
       <r>   -0.7985    1.0000 </r>
       <r>   -0.6567    1.0000 </r>
       <r>   -0.4601    1.0000 </r>
       <r>   -0.4408    1.0000 </r>
       <r>   -0.4137    1.0000 </r>
       <r>   -0.4137    1.0000 </r>
       <r>   -0.3849    1.0000 </r>
       <r>   -0.3849    1.0000 </r>
       <r>   -0.2323    1.0000 </r>
       <r>   -0.2323    1.0000 </r>
       <r>   -0.0954    1.0000 </r>
       <r>   -0.0954    1.0000 </r>
       <r>    0.0277    1.0000 </r>
       <r>    0.0277    1.0000 </r>
       <r>    0.0330    1.0000 </r>
       <r>    0.2418    1.0000 </r>
       <r>    0.2418    1.0000 </r>
       <r>    0.2990    1.0000 </r>
       <r>    0.2990    1.0000 </r>
       <r>    1.9057    0.0000 </r>
       <r>    1.9910    0.0000 </r>
       <r>    1.9910    0.0000 </r>
       <r>    2.0384    0.0000 </r>
       <r>    2.1750    0.0000 </r>
       <r>    2.2840    0.0000 </r>
       <r>    2.3092    0.0000 </r>
       <r>    2.3997    0.0000 </r>
       <r>    2.3997    0.0000 </r>
       <r>    2.4311    0.0000 </r>
       <r>    2.7967    0.0000 </r>
       <r>    2.8104    0.0000 </r>
       <r>    2.8884    0.0000 </r>
       <r>    3.2039    0.0000 </r>
       <r>    3.4070    0.0000 </r>
       <r>    3.6237    0.0000 </r>
       <r>    5.7885    0.0000 </r>
       <r>    5.8767    0.0000 </r>
       <r>    6.1546    0.0000 </r>
       <r>    6.1942    0.0000 </r>
      </set>
      <set comment="kpoint 2">
       <r>  -33.2866    1.0000 </r>
       <r>  -32.5296    1.0000 </r>
       <r>  -32.4083    1.0000 </r>
       <r>  -32.3904    1.0000 </r>
       <r>  -32.2736    1.0000 </r>
       <r>  -32.1782    1.0000 </r>
       <r>  -17.1406    1.0000 </r>
       <r>  -17.0446    1.0000 </r>
       <r>  -16.9104    1.0000 </r>
       <r>  -16.8227    1.0000 </r>
       <r>  -16.7561    1.0000 </r>
       <r>  -16.5751    1.0000 </r>
       <r>  -16.1358    1.0000 </r>
       <r>  -16.1003    1.0000 </r>
       <r>  -16.0322    1.0000 </r>
       <r>  -16.0080    1.0000 </r>
       <r>  -15.9711    1.0000 </r>
       <r>  -15.8890    1.0000 </r>
       <r>  -15.8444    1.0000 </r>
       <r>  -15.8071    1.0000 </r>
       <r>  -15.7411    1.0000 </r>
       <r>  -15.7148    1.0000 </r>
       <r>  -15.5065    1.0000 </r>
       <r>  -15.4471    1.0000 </r>
       <r>  -15.1958    1.0000 </r>
       <r>  -15.1857    1.0000 </r>
       <r>  -14.6835    1.0000 </r>
       <r>  -14.5685    1.0000 </r>
       <r>  -14.4804    1.0000 </r>
       <r>  -14.4519    1.0000 </r>
       <r>  -14.4460    1.0000 </r>
       <r>  -14.4439    1.0000 </r>
       <r>  -14.3584    1.0000 </r>
       <r>  -14.3567    1.0000 </r>
       <r>  -14.3104    1.0000 </r>
       <r>  -14.2337    1.0000 </r>
       <r>  -14.2198    1.0000 </r>
       <r>  -14.2114    1.0000 </r>
       <r>  -14.1185    1.0000 </r>
       <r>  -14.0764    1.0000 </r>
       <r>  -14.0291    1.0000 </r>
       <r>  -13.8634    1.0000 </r>
       <r>   -3.8441    1.0000 </r>
       <r>   -3.5095    1.0000 </r>
       <r>   -3.1901    1.0000 </r>
       <r>   -2.9163    1.0000 </r>
       <r>   -2.8561    1.0000 </r>
       <r>   -2.8012    1.0000 </r>
       <r>   -2.7172    1.0000 </r>
       <r>   -2.5994    1.0000 </r>
       <r>   -2.5909    1.0000 </r>
       <r>   -2.5489    1.0000 </r>
       <r>   -2.5016    1.0000 </r>
       <r>   -2.4629    1.0000 </r>
       <r>   -2.4113    1.0000 </r>
       <r>   -2.3665    1.0000 </r>
       <r>   -2.3320    1.0000 </r>
       <r>   -2.2343    1.0000 </r>
       <r>   -2.1851    1.0000 </r>
       <r>   -2.1750    1.0000 </r>
       <r>   -2.1672    1.0000 </r>
       <r>   -1.9803    1.0000 </r>
       <r>   -1.8479    1.0000 </r>
       <r>   -1.7696    1.0000 </r>
       <r>   -1.6170    1.0000 </r>
       <r>   -1.6048    1.0000 </r>
       <r>   -1.5347    1.0000 </r>
       <r>   -1.4071    1.0000 </r>
       <r>   -1.3649    1.0000 </r>
       <r>   -1.2589    1.0000 </r>
       <r>   -1.1847    1.0000 </r>
       <r>   -1.1683    1.0000 </r>
       <r>   -1.0037    1.0000 </r>
       <r>   -0.9620    1.0000 </r>
       <r>   -0.9489    1.0000 </r>
       <r>   -0.8745    1.0000 </r>
       <r>   -0.7989    1.0000 </r>
       <r>   -0.7293    1.0000 </r>
       <r>   -0.6698    1.0000 </r>
       <r>   -0.6667    1.0000 </r>
       <r>   -0.6356    1.0000 </r>
       <r>   -0.6174    1.0000 </r>
       <r>   -0.5882    1.0000 </r>
       <r>   -0.5516    1.0000 </r>
       <r>   -0.4916    1.0000 </r>
       <r>   -0.4614    1.0000 </r>
       <r>   -0.4507    1.0000 </r>
       <r>   -0.4125    1.0000 </r>
       <r>   -0.3134    1.0000 </r>
       <r>   -0.3051    1.0000 </r>
       <r>   -0.2274    1.0000 </r>
       <r>   -0.1556    1.0000 </r>
       <r>   -0.0702    1.0000 </r>
       <r>   -0.0082    1.0000 </r>
       <r>    0.1214    1.0000 </r>
       <r>    0.1232    1.0000 </r>
       <r>    2.0085    0.0000 </r>
       <r>    2.3075    0.0000 </r>
       <r>    2.3612    0.0000 </r>
       <r>    2.4149    0.0000 </r>
       <r>    2.4466    0.0000 </r>
       <r>    2.5734    0.0000 </r>
       <r>    2.6681    0.0000 </r>
       <r>    2.7011    0.0000 </r>
       <r>    2.7105    0.0000 </r>
       <r>    2.8000    0.0000 </r>
       <r>    2.8360    0.0000 </r>
       <r>    2.9322    0.0000 </r>
       <r>    3.0676    0.0000 </r>
       <r>    3.2165    0.0000 </r>
       <r>    3.3338    0.0000 </r>
       <r>    3.5626    0.0000 </r>
       <r>    3.7913    0.0000 </r>
       <r>    6.1328    0.0000 </r>
       <r>    6.2256    0.0000 </r>
       <r>    6.5244    0.0000 </r>
      </set>
      <set comment="kpoint 3">
       <r>  -33.2800    1.0000 </r>
       <r>  -32.5218    1.0000 </r>
       <r>  -32.4005    1.0000 </r>
       <r>  -32.3826    1.0000 </r>
       <r>  -32.2658    1.0000 </r>
       <r>  -32.1704    1.0000 </r>
       <r>  -17.1099    1.0000 </r>
       <r>  -16.9503    1.0000 </r>
       <r>  -16.8220    1.0000 </r>
       <r>  -16.7198    1.0000 </r>
       <r>  -16.6360    1.0000 </r>
       <r>  -16.5728    1.0000 </r>
       <r>  -16.2085    1.0000 </r>
       <r>  -16.1078    1.0000 </r>
       <r>  -16.0718    1.0000 </r>
       <r>  -15.9947    1.0000 </r>
       <r>  -15.9791    1.0000 </r>
       <r>  -15.9108    1.0000 </r>
       <r>  -15.8988    1.0000 </r>
       <r>  -15.8556    1.0000 </r>
       <r>  -15.8337    1.0000 </r>
       <r>  -15.7180    1.0000 </r>
       <r>  -15.5362    1.0000 </r>
       <r>  -15.4875    1.0000 </r>
       <r>  -15.1803    1.0000 </r>
       <r>  -15.1760    1.0000 </r>
       <r>  -14.5494    1.0000 </r>
       <r>  -14.4451    1.0000 </r>
       <r>  -14.4264    1.0000 </r>
       <r>  -14.4241    1.0000 </r>
       <r>  -14.3800    1.0000 </r>
       <r>  -14.3131    1.0000 </r>
       <r>  -14.2910    1.0000 </r>
       <r>  -14.2563    1.0000 </r>
       <r>  -14.1920    1.0000 </r>
       <r>  -14.1833    1.0000 </r>
       <r>  -14.1533    1.0000 </r>
       <r>  -14.1194    1.0000 </r>
       <r>  -14.0954    1.0000 </r>
       <r>  -14.0168    1.0000 </r>
       <r>  -13.9356    1.0000 </r>
       <r>  -13.9072    1.0000 </r>
       <r>   -3.8834    1.0000 </r>
       <r>   -3.6932    1.0000 </r>
       <r>   -3.5029    1.0000 </r>
       <r>   -3.4557    1.0000 </r>
       <r>   -3.4004    1.0000 </r>
       <r>   -3.2829    1.0000 </r>
       <r>   -3.1631    1.0000 </r>
       <r>   -3.1436    1.0000 </r>
       <r>   -3.0346    1.0000 </r>
       <r>   -2.9564    1.0000 </r>
       <r>   -2.9088    1.0000 </r>
       <r>   -2.7822    1.0000 </r>
       <r>   -2.7083    1.0000 </r>
       <r>   -2.5990    1.0000 </r>
       <r>   -2.5056    1.0000 </r>
       <r>   -2.5027    1.0000 </r>
       <r>   -2.4008    1.0000 </r>
       <r>   -2.3779    1.0000 </r>
       <r>   -2.3070    1.0000 </r>
       <r>   -2.2336    1.0000 </r>
       <r>   -2.1582    1.0000 </r>
       <r>   -2.0385    1.0000 </r>
       <r>   -2.0155    1.0000 </r>
       <r>   -1.8402    1.0000 </r>
       <r>   -1.6476    1.0000 </r>
       <r>   -1.6301    1.0000 </r>
       <r>   -1.5434    1.0000 </r>
       <r>   -1.4463    1.0000 </r>
       <r>   -1.4289    1.0000 </r>
       <r>   -1.4037    1.0000 </r>
       <r>   -1.3519    1.0000 </r>
       <r>   -1.3207    1.0000 </r>
       <r>   -1.2181    1.0000 </r>
       <r>   -1.1476    1.0000 </r>
       <r>   -1.1155    1.0000 </r>
       <r>   -1.0506    1.0000 </r>
       <r>   -1.0401    1.0000 </r>
       <r>   -1.0080    1.0000 </r>
       <r>   -0.9345    1.0000 </r>
       <r>   -0.8696    1.0000 </r>
       <r>   -0.8501    1.0000 </r>
       <r>   -0.8287    1.0000 </r>
       <r>   -0.6538    1.0000 </r>
       <r>   -0.6358    1.0000 </r>
       <r>   -0.5537    1.0000 </r>
       <r>   -0.4768    1.0000 </r>
       <r>   -0.4656    1.0000 </r>
       <r>   -0.3605    1.0000 </r>
       <r>   -0.3370    1.0000 </r>
       <r>   -0.2453    1.0000 </r>
       <r>   -0.1331    1.0000 </r>
       <r>   -0.0447    1.0000 </r>
       <r>   -0.0081    1.0000 </r>
       <r>    0.2041    1.0000 </r>
       <r>    2.0536    0.0000 </r>
       <r>    2.4526    0.0000 </r>
       <r>    2.8288    0.0000 </r>
       <r>    3.0543    0.0000 </r>
       <r>    3.0640    0.0000 </r>
       <r>    3.1615    0.0000 </r>
       <r>    3.2270    0.0000 </r>
       <r>    3.2768    0.0000 </r>
       <r>    3.3181    0.0000 </r>
       <r>    3.4234    0.0000 </r>
       <r>    3.4321    0.0000 </r>
       <r>    3.4471    0.0000 </r>
       <r>    3.5338    0.0000 </r>
       <r>    3.5540    0.0000 </r>
       <r>    3.5665    0.0000 </r>
       <r>    3.7184    0.0000 </r>
       <r>    3.8748    0.0000 </r>
       <r>    3.9365    0.0000 </r>
       <r>    6.9537    0.0000 </r>
       <r>    7.1728    0.0000 </r>
      </set>
      <set comment="kpoint 4">
       <r>  -33.2747    1.0000 </r>
       <r>  -32.5155    1.0000 </r>
       <r>  -32.3943    1.0000 </r>
       <r>  -32.3763    1.0000 </r>
       <r>  -32.2595    1.0000 </r>
       <r>  -32.1642    1.0000 </r>
       <r>  -17.1739    1.0000 </r>
       <r>  -16.9669    1.0000 </r>
       <r>  -16.8079    1.0000 </r>
       <r>  -16.6640    1.0000 </r>
       <r>  -16.4942    1.0000 </r>
       <r>  -16.4097    1.0000 </r>
       <r>  -16.2131    1.0000 </r>
       <r>  -16.1522    1.0000 </r>
       <r>  -16.0756    1.0000 </r>
       <r>  -16.0557    1.0000 </r>
       <r>  -16.0062    1.0000 </r>
       <r>  -15.9591    1.0000 </r>
       <r>  -15.8792    1.0000 </r>
       <r>  -15.7942    1.0000 </r>
       <r>  -15.7870    1.0000 </r>
       <r>  -15.7402    1.0000 </r>
       <r>  -15.5688    1.0000 </r>
       <r>  -15.4709    1.0000 </r>
       <r>  -15.1678    1.0000 </r>
       <r>  -15.1366    1.0000 </r>
       <r>  -14.5339    1.0000 </r>
       <r>  -14.4363    1.0000 </r>
       <r>  -14.4107    1.0000 </r>
       <r>  -14.4080    1.0000 </r>
       <r>  -14.2754    1.0000 </r>
       <r>  -14.2644    1.0000 </r>
       <r>  -14.2103    1.0000 </r>
       <r>  -14.1887    1.0000 </r>
       <r>  -14.1762    1.0000 </r>
       <r>  -14.1351    1.0000 </r>
       <r>  -14.1109    1.0000 </r>
       <r>  -14.0656    1.0000 </r>
       <r>  -14.0287    1.0000 </r>
       <r>  -13.9592    1.0000 </r>
       <r>  -13.9027    1.0000 </r>
       <r>  -13.7821    1.0000 </r>
       <r>   -4.0502    1.0000 </r>
       <r>   -4.0245    1.0000 </r>
       <r>   -3.9142    1.0000 </r>
       <r>   -3.7963    1.0000 </r>
       <r>   -3.7337    1.0000 </r>
       <r>   -3.6903    1.0000 </r>
       <r>   -3.6330    1.0000 </r>
       <r>   -3.5396    1.0000 </r>
       <r>   -3.5010    1.0000 </r>
       <r>   -3.4093    1.0000 </r>
       <r>   -3.3656    1.0000 </r>
       <r>   -3.0628    1.0000 </r>
       <r>   -2.9830    1.0000 </r>
       <r>   -2.6981    1.0000 </r>
       <r>   -2.5716    1.0000 </r>
       <r>   -2.5299    1.0000 </r>
       <r>   -2.5145    1.0000 </r>
       <r>   -2.4131    1.0000 </r>
       <r>   -2.3916    1.0000 </r>
       <r>   -2.3597    1.0000 </r>
       <r>   -2.2545    1.0000 </r>
       <r>   -2.1912    1.0000 </r>
       <r>   -2.1341    1.0000 </r>
       <r>   -2.0588    1.0000 </r>
       <r>   -1.9892    1.0000 </r>
       <r>   -1.9281    1.0000 </r>
       <r>   -1.7419    1.0000 </r>
       <r>   -1.7132    1.0000 </r>
       <r>   -1.6437    1.0000 </r>
       <r>   -1.5510    1.0000 </r>
       <r>   -1.4942    1.0000 </r>
       <r>   -1.4458    1.0000 </r>
       <r>   -1.4105    1.0000 </r>
       <r>   -1.3017    1.0000 </r>
       <r>   -1.2714    1.0000 </r>
       <r>   -1.2228    1.0000 </r>
       <r>   -1.2013    1.0000 </r>
       <r>   -1.0657    1.0000 </r>
       <r>   -1.0548    1.0000 </r>
       <r>   -1.0193    1.0000 </r>
       <r>   -0.8904    1.0000 </r>
       <r>   -0.8622    1.0000 </r>
       <r>   -0.8480    1.0000 </r>
       <r>   -0.8055    1.0000 </r>
       <r>   -0.6676    1.0000 </r>
       <r>   -0.6599    1.0000 </r>
       <r>   -0.5684    1.0000 </r>
       <r>   -0.4751    1.0000 </r>
       <r>   -0.3810    1.0000 </r>
       <r>   -0.1465    1.0000 </r>
       <r>   -0.1208    1.0000 </r>
       <r>   -0.0659    1.0000 </r>
       <r>    0.1254    1.0000 </r>
       <r>    0.3870    1.0000 </r>
       <r>    2.0908    0.0000 </r>
       <r>    2.4883    0.0000 </r>
       <r>    2.8600    0.0000 </r>
       <r>    3.2332    0.0000 </r>
       <r>    3.4992    0.0000 </r>
       <r>    3.5639    0.0000 </r>
       <r>    3.5808    0.0000 </r>
       <r>    3.6621    0.0000 </r>
       <r>    3.6962    0.0000 </r>
       <r>    3.8142    0.0000 </r>
       <r>    3.8328    0.0000 </r>
       <r>    3.8992    0.0000 </r>
       <r>    3.9283    0.0000 </r>
       <r>    3.9682    0.0000 </r>
       <r>    3.9846    0.0000 </r>
       <r>    4.0732    0.0000 </r>
       <r>    4.1194    0.0000 </r>
       <r>    4.2679    0.0000 </r>
       <r>    7.7178    0.0000 </r>
       <r>    7.9153    0.0000 </r>
      </set>
      <set comment="kpoint 5">
       <r>  -33.2837    1.0000 </r>
       <r>  -32.5262    1.0000 </r>
       <r>  -32.4049    1.0000 </r>
       <r>  -32.3870    1.0000 </r>
       <r>  -32.2702    1.0000 </r>
       <r>  -32.1748    1.0000 </r>
       <r>  -17.0845    1.0000 </r>
       <r>  -16.9897    1.0000 </r>
       <r>  -16.8539    1.0000 </r>
       <r>  -16.7516    1.0000 </r>
       <r>  -16.7168    1.0000 </r>
       <r>  -16.5561    1.0000 </r>
       <r>  -16.1389    1.0000 </r>
       <r>  -16.1278    1.0000 </r>
       <r>  -16.0314    1.0000 </r>
       <r>  -16.0006    1.0000 </r>
       <r>  -15.9642    1.0000 </r>
       <r>  -15.8989    1.0000 </r>
       <r>  -15.8570    1.0000 </r>
       <r>  -15.7965    1.0000 </r>
       <r>  -15.7861    1.0000 </r>
       <r>  -15.7385    1.0000 </r>
       <r>  -15.5704    1.0000 </r>
       <r>  -15.5078    1.0000 </r>
       <r>  -15.1848    1.0000 </r>
       <r>  -15.1705    1.0000 </r>
       <r>  -14.5770    1.0000 </r>
       <r>  -14.5664    1.0000 </r>
       <r>  -14.4660    1.0000 </r>
       <r>  -14.4385    1.0000 </r>
       <r>  -14.4299    1.0000 </r>
       <r>  -14.4256    1.0000 </r>
       <r>  -14.3136    1.0000 </r>
       <r>  -14.3044    1.0000 </r>
       <r>  -14.3022    1.0000 </r>
       <r>  -14.2220    1.0000 </r>
       <r>  -14.2003    1.0000 </r>
       <r>  -14.1723    1.0000 </r>
       <r>  -14.1006    1.0000 </r>
       <r>  -14.0706    1.0000 </r>
       <r>  -14.0241    1.0000 </r>
       <r>  -13.8997    1.0000 </r>
       <r>   -3.8534    1.0000 </r>
       <r>   -3.5354    1.0000 </r>
       <r>   -3.2603    1.0000 </r>
       <r>   -3.0517    1.0000 </r>
       <r>   -2.9786    1.0000 </r>
       <r>   -2.9314    1.0000 </r>
       <r>   -2.8101    1.0000 </r>
       <r>   -2.7140    1.0000 </r>
       <r>   -2.7032    1.0000 </r>
       <r>   -2.6314    1.0000 </r>
       <r>   -2.6279    1.0000 </r>
       <r>   -2.5627    1.0000 </r>
       <r>   -2.5511    1.0000 </r>
       <r>   -2.4604    1.0000 </r>
       <r>   -2.4464    1.0000 </r>
       <r>   -2.3902    1.0000 </r>
       <r>   -2.3389    1.0000 </r>
       <r>   -2.3081    1.0000 </r>
       <r>   -2.2426    1.0000 </r>
       <r>   -2.2152    1.0000 </r>
       <r>   -2.0710    1.0000 </r>
       <r>   -2.0145    1.0000 </r>
       <r>   -1.8895    1.0000 </r>
       <r>   -1.8119    1.0000 </r>
       <r>   -1.6504    1.0000 </r>
       <r>   -1.6190    1.0000 </r>
       <r>   -1.4332    1.0000 </r>
       <r>   -1.4024    1.0000 </r>
       <r>   -1.3178    1.0000 </r>
       <r>   -1.2949    1.0000 </r>
       <r>   -1.1555    1.0000 </r>
       <r>   -1.1161    1.0000 </r>
       <r>   -1.1098    1.0000 </r>
       <r>   -0.9979    1.0000 </r>
       <r>   -0.9453    1.0000 </r>
       <r>   -0.8082    1.0000 </r>
       <r>   -0.7456    1.0000 </r>
       <r>   -0.7304    1.0000 </r>
       <r>   -0.7020    1.0000 </r>
       <r>   -0.6499    1.0000 </r>
       <r>   -0.6081    1.0000 </r>
       <r>   -0.5610    1.0000 </r>
       <r>   -0.5385    1.0000 </r>
       <r>   -0.5293    1.0000 </r>
       <r>   -0.4847    1.0000 </r>
       <r>   -0.4266    1.0000 </r>
       <r>   -0.4195    1.0000 </r>
       <r>   -0.3839    1.0000 </r>
       <r>   -0.3465    1.0000 </r>
       <r>   -0.3455    1.0000 </r>
       <r>   -0.2335    1.0000 </r>
       <r>   -0.0443    1.0000 </r>
       <r>    0.0852    1.0000 </r>
       <r>    0.1103    1.0000 </r>
       <r>    2.2945    0.0000 </r>
       <r>    2.4508    0.0000 </r>
       <r>    2.5576    0.0000 </r>
       <r>    2.6565    0.0000 </r>
       <r>    2.6924    0.0000 </r>
       <r>    2.7322    0.0000 </r>
       <r>    2.8265    0.0000 </r>
       <r>    2.9348    0.0000 </r>
       <r>    2.9596    0.0000 </r>
       <r>    2.9690    0.0000 </r>
       <r>    3.0102    0.0000 </r>
       <r>    3.0739    0.0000 </r>
       <r>    3.1905    0.0000 </r>
       <r>    3.3240    0.0000 </r>
       <r>    3.4786    0.0000 </r>
       <r>    3.7631    0.0000 </r>
       <r>    3.8497    0.0000 </r>
       <r>    6.3146    0.0000 </r>
       <r>    6.5159    0.0000 </r>
       <r>    6.7780    0.0000 </r>
      </set>
      <set comment="kpoint 6">
       <r>  -33.2772    1.0000 </r>
       <r>  -32.5185    1.0000 </r>
       <r>  -32.3973    1.0000 </r>
       <r>  -32.3793    1.0000 </r>
       <r>  -32.2626    1.0000 </r>
       <r>  -32.1672    1.0000 </r>
       <r>  -17.0448    1.0000 </r>
       <r>  -16.8786    1.0000 </r>
       <r>  -16.7471    1.0000 </r>
       <r>  -16.6473    1.0000 </r>
       <r>  -16.5541    1.0000 </r>
       <r>  -16.5191    1.0000 </r>
       <r>  -16.1808    1.0000 </r>
       <r>  -16.1153    1.0000 </r>
       <r>  -16.0661    1.0000 </r>
       <r>  -15.9871    1.0000 </r>
       <r>  -15.9516    1.0000 </r>
       <r>  -15.9077    1.0000 </r>
       <r>  -15.8508    1.0000 </r>
       <r>  -15.8426    1.0000 </r>
       <r>  -15.8248    1.0000 </r>
       <r>  -15.7386    1.0000 </r>
       <r>  -15.5967    1.0000 </r>
       <r>  -15.4963    1.0000 </r>
       <r>  -15.2264    1.0000 </r>
       <r>  -15.1240    1.0000 </r>
       <r>  -14.5632    1.0000 </r>
       <r>  -14.4883    1.0000 </r>
       <r>  -14.4328    1.0000 </r>
       <r>  -14.4027    1.0000 </r>
       <r>  -14.3900    1.0000 </r>
       <r>  -14.3391    1.0000 </r>
       <r>  -14.3007    1.0000 </r>
       <r>  -14.2732    1.0000 </r>
       <r>  -14.1858    1.0000 </r>
       <r>  -14.1773    1.0000 </r>
       <r>  -14.1564    1.0000 </r>
       <r>  -14.1466    1.0000 </r>
       <r>  -14.1347    1.0000 </r>
       <r>  -14.0221    1.0000 </r>
       <r>  -13.9696    1.0000 </r>
       <r>  -13.9131    1.0000 </r>
       <r>   -3.8852    1.0000 </r>
       <r>   -3.6804    1.0000 </r>
       <r>   -3.5132    1.0000 </r>
       <r>   -3.4664    1.0000 </r>
       <r>   -3.3924    1.0000 </r>
       <r>   -3.3144    1.0000 </r>
       <r>   -3.1676    1.0000 </r>
       <r>   -3.1505    1.0000 </r>
       <r>   -3.0371    1.0000 </r>
       <r>   -2.9477    1.0000 </r>
       <r>   -2.9166    1.0000 </r>
       <r>   -2.8177    1.0000 </r>
       <r>   -2.7861    1.0000 </r>
       <r>   -2.7254    1.0000 </r>
       <r>   -2.6915    1.0000 </r>
       <r>   -2.6679    1.0000 </r>
       <r>   -2.5395    1.0000 </r>
       <r>   -2.5174    1.0000 </r>
       <r>   -2.4634    1.0000 </r>
       <r>   -2.3964    1.0000 </r>
       <r>   -2.3816    1.0000 </r>
       <r>   -2.3443    1.0000 </r>
       <r>   -2.2652    1.0000 </r>
       <r>   -2.1638    1.0000 </r>
       <r>   -2.0269    1.0000 </r>
       <r>   -1.9872    1.0000 </r>
       <r>   -1.9407    1.0000 </r>
       <r>   -1.8192    1.0000 </r>
       <r>   -1.7928    1.0000 </r>
       <r>   -1.7045    1.0000 </r>
       <r>   -1.5942    1.0000 </r>
       <r>   -1.5301    1.0000 </r>
       <r>   -1.4225    1.0000 </r>
       <r>   -1.2695    1.0000 </r>
       <r>   -1.1087    1.0000 </r>
       <r>   -1.0028    1.0000 </r>
       <r>   -0.9027    1.0000 </r>
       <r>   -0.8609    1.0000 </r>
       <r>   -0.8283    1.0000 </r>
       <r>   -0.7167    1.0000 </r>
       <r>   -0.6998    1.0000 </r>
       <r>   -0.6373    1.0000 </r>
       <r>   -0.5911    1.0000 </r>
       <r>   -0.5669    1.0000 </r>
       <r>   -0.5109    1.0000 </r>
       <r>   -0.4662    1.0000 </r>
       <r>   -0.4344    1.0000 </r>
       <r>   -0.3703    1.0000 </r>
       <r>   -0.3035    1.0000 </r>
       <r>   -0.2172    1.0000 </r>
       <r>   -0.0754    1.0000 </r>
       <r>   -0.0191    1.0000 </r>
       <r>    0.0345    1.0000 </r>
       <r>    0.1862    1.0000 </r>
       <r>    2.3899    0.0000 </r>
       <r>    2.7289    0.0000 </r>
       <r>    3.0169    0.0000 </r>
       <r>    3.0835    0.0000 </r>
       <r>    3.1600    0.0000 </r>
       <r>    3.2755    0.0000 </r>
       <r>    3.2905    0.0000 </r>
       <r>    3.3352    0.0000 </r>
       <r>    3.4230    0.0000 </r>
       <r>    3.4594    0.0000 </r>
       <r>    3.5292    0.0000 </r>
       <r>    3.5478    0.0000 </r>
       <r>    3.5773    0.0000 </r>
       <r>    3.6444    0.0000 </r>
       <r>    3.6630    0.0000 </r>
       <r>    3.7301    0.0000 </r>
       <r>    3.7707    0.0000 </r>
       <r>    3.9633    0.0000 </r>
       <r>    4.0730    0.0000 </r>
       <r>    7.3889    0.0000 </r>
      </set>
      <set comment="kpoint 7">
       <r>  -33.2720    1.0000 </r>
       <r>  -32.5124    1.0000 </r>
       <r>  -32.3912    1.0000 </r>
       <r>  -32.3731    1.0000 </r>
       <r>  -32.2565    1.0000 </r>
       <r>  -32.1611    1.0000 </r>
       <r>  -17.0826    1.0000 </r>
       <r>  -16.8765    1.0000 </r>
       <r>  -16.7181    1.0000 </r>
       <r>  -16.5779    1.0000 </r>
       <r>  -16.4181    1.0000 </r>
       <r>  -16.3311    1.0000 </r>
       <r>  -16.1741    1.0000 </r>
       <r>  -16.1094    1.0000 </r>
       <r>  -16.0701    1.0000 </r>
       <r>  -16.0163    1.0000 </r>
       <r>  -15.9728    1.0000 </r>
       <r>  -15.9608    1.0000 </r>
       <r>  -15.8570    1.0000 </r>
       <r>  -15.8066    1.0000 </r>
       <r>  -15.7336    1.0000 </r>
       <r>  -15.7321    1.0000 </r>
       <r>  -15.5353    1.0000 </r>
       <r>  -15.4894    1.0000 </r>
       <r>  -15.2850    1.0000 </r>
       <r>  -15.0790    1.0000 </r>
       <r>  -14.5610    1.0000 </r>
       <r>  -14.5190    1.0000 </r>
       <r>  -14.4236    1.0000 </r>
       <r>  -14.3605    1.0000 </r>
       <r>  -14.3106    1.0000 </r>
       <r>  -14.2969    1.0000 </r>
       <r>  -14.2714    1.0000 </r>
       <r>  -14.2570    1.0000 </r>
       <r>  -14.1809    1.0000 </r>
       <r>  -14.1734    1.0000 </r>
       <r>  -14.1205    1.0000 </r>
       <r>  -14.1087    1.0000 </r>
       <r>  -14.0803    1.0000 </r>
       <r>  -14.0125    1.0000 </r>
       <r>  -13.9594    1.0000 </r>
       <r>  -13.8341    1.0000 </r>
       <r>   -4.0435    1.0000 </r>
       <r>   -3.9372    1.0000 </r>
       <r>   -3.8790    1.0000 </r>
       <r>   -3.7978    1.0000 </r>
       <r>   -3.7003    1.0000 </r>
       <r>   -3.6445    1.0000 </r>
       <r>   -3.6087    1.0000 </r>
       <r>   -3.5427    1.0000 </r>
       <r>   -3.4884    1.0000 </r>
       <r>   -3.3875    1.0000 </r>
       <r>   -3.3179    1.0000 </r>
       <r>   -3.0887    1.0000 </r>
       <r>   -2.9987    1.0000 </r>
       <r>   -2.8884    1.0000 </r>
       <r>   -2.7698    1.0000 </r>
       <r>   -2.7223    1.0000 </r>
       <r>   -2.7077    1.0000 </r>
       <r>   -2.6417    1.0000 </r>
       <r>   -2.5974    1.0000 </r>
       <r>   -2.5753    1.0000 </r>
       <r>   -2.5503    1.0000 </r>
       <r>   -2.4478    1.0000 </r>
       <r>   -2.4172    1.0000 </r>
       <r>   -2.4035    1.0000 </r>
       <r>   -2.3304    1.0000 </r>
       <r>   -2.2756    1.0000 </r>
       <r>   -2.0588    1.0000 </r>
       <r>   -1.9694    1.0000 </r>
       <r>   -1.9634    1.0000 </r>
       <r>   -1.8979    1.0000 </r>
       <r>   -1.7406    1.0000 </r>
       <r>   -1.6543    1.0000 </r>
       <r>   -1.4919    1.0000 </r>
       <r>   -1.3171    1.0000 </r>
       <r>   -1.2821    1.0000 </r>
       <r>   -1.0450    1.0000 </r>
       <r>   -0.9755    1.0000 </r>
       <r>   -0.8967    1.0000 </r>
       <r>   -0.8510    1.0000 </r>
       <r>   -0.7996    1.0000 </r>
       <r>   -0.7404    1.0000 </r>
       <r>   -0.7134    1.0000 </r>
       <r>   -0.6905    1.0000 </r>
       <r>   -0.6284    1.0000 </r>
       <r>   -0.5940    1.0000 </r>
       <r>   -0.5804    1.0000 </r>
       <r>   -0.5427    1.0000 </r>
       <r>   -0.4318    1.0000 </r>
       <r>   -0.3725    1.0000 </r>
       <r>   -0.1412    1.0000 </r>
       <r>   -0.1020    1.0000 </r>
       <r>   -0.0146    1.0000 </r>
       <r>    0.1370    1.0000 </r>
       <r>    0.3944    1.0000 </r>
       <r>    2.4245    0.0000 </r>
       <r>    2.7700    0.0000 </r>
       <r>    3.0677    0.0000 </r>
       <r>    3.3770    0.0000 </r>
       <r>    3.6230    0.0000 </r>
       <r>    3.6381    0.0000 </r>
       <r>    3.6756    0.0000 </r>
       <r>    3.7562    0.0000 </r>
       <r>    3.8085    0.0000 </r>
       <r>    3.8827    0.0000 </r>
       <r>    3.9281    0.0000 </r>
       <r>    3.9738    0.0000 </r>
       <r>    4.0000    0.0000 </r>
       <r>    4.0188    0.0000 </r>
       <r>    4.0521    0.0000 </r>
       <r>    4.1173    0.0000 </r>
       <r>    4.2063    0.0000 </r>
       <r>    4.3106    0.0000 </r>
       <r>    7.9091    0.0000 </r>
       <r>    8.0831    0.0000 </r>
      </set>
      <set comment="kpoint 8">
       <r>  -33.2710    1.0000 </r>
       <r>  -32.5113    1.0000 </r>
       <r>  -32.3901    1.0000 </r>
       <r>  -32.3720    1.0000 </r>
       <r>  -32.2553    1.0000 </r>
       <r>  -32.1600    1.0000 </r>
       <r>  -16.9132    1.0000 </r>
       <r>  -16.7279    1.0000 </r>
       <r>  -16.5841    1.0000 </r>
       <r>  -16.4810    1.0000 </r>
       <r>  -16.3905    1.0000 </r>
       <r>  -16.3487    1.0000 </r>
       <r>  -16.2105    1.0000 </r>
       <r>  -16.0845    1.0000 </r>
       <r>  -16.0650    1.0000 </r>
       <r>  -15.9566    1.0000 </r>
       <r>  -15.9451    1.0000 </r>
       <r>  -15.8923    1.0000 </r>
       <r>  -15.8358    1.0000 </r>
       <r>  -15.7499    1.0000 </r>
       <r>  -15.7423    1.0000 </r>
       <r>  -15.7253    1.0000 </r>
       <r>  -15.6581    1.0000 </r>
       <r>  -15.4956    1.0000 </r>
       <r>  -15.2131    1.0000 </r>
       <r>  -15.1274    1.0000 </r>
       <r>  -14.6068    1.0000 </r>
       <r>  -14.5228    1.0000 </r>
       <r>  -14.4639    1.0000 </r>
       <r>  -14.4490    1.0000 </r>
       <r>  -14.4290    1.0000 </r>
       <r>  -14.3416    1.0000 </r>
       <r>  -14.3314    1.0000 </r>
       <r>  -14.2752    1.0000 </r>
       <r>  -14.2648    1.0000 </r>
       <r>  -14.2147    1.0000 </r>
       <r>  -14.1870    1.0000 </r>
       <r>  -14.1692    1.0000 </r>
       <r>  -14.1096    1.0000 </r>
       <r>  -14.1036    1.0000 </r>
       <r>  -14.0033    1.0000 </r>
       <r>  -13.9278    1.0000 </r>
       <r>   -3.8980    1.0000 </r>
       <r>   -3.7309    1.0000 </r>
       <r>   -3.6081    1.0000 </r>
       <r>   -3.5547    1.0000 </r>
       <r>   -3.4510    1.0000 </r>
       <r>   -3.3562    1.0000 </r>
       <r>   -3.3050    1.0000 </r>
       <r>   -3.2432    1.0000 </r>
       <r>   -3.1582    1.0000 </r>
       <r>   -3.1421    1.0000 </r>
       <r>   -3.0687    1.0000 </r>
       <r>   -3.0428    1.0000 </r>
       <r>   -2.9906    1.0000 </r>
       <r>   -2.9863    1.0000 </r>
       <r>   -2.9137    1.0000 </r>
       <r>   -2.8746    1.0000 </r>
       <r>   -2.8673    1.0000 </r>
       <r>   -2.8366    1.0000 </r>
       <r>   -2.8277    1.0000 </r>
       <r>   -2.7853    1.0000 </r>
       <r>   -2.7351    1.0000 </r>
       <r>   -2.7177    1.0000 </r>
       <r>   -2.6949    1.0000 </r>
       <r>   -2.5939    1.0000 </r>
       <r>   -2.5768    1.0000 </r>
       <r>   -2.5548    1.0000 </r>
       <r>   -2.4606    1.0000 </r>
       <r>   -2.4411    1.0000 </r>
       <r>   -2.3010    1.0000 </r>
       <r>   -2.2790    1.0000 </r>
       <r>   -2.1349    1.0000 </r>
       <r>   -1.9636    1.0000 </r>
       <r>   -1.8516    1.0000 </r>
       <r>   -1.7820    1.0000 </r>
       <r>   -1.3040    1.0000 </r>
       <r>   -1.0858    1.0000 </r>
       <r>   -0.9377    1.0000 </r>
       <r>   -0.8332    1.0000 </r>
       <r>   -0.6774    1.0000 </r>
       <r>   -0.5891    1.0000 </r>
       <r>   -0.4975    1.0000 </r>
       <r>   -0.4858    1.0000 </r>
       <r>   -0.3728    1.0000 </r>
       <r>   -0.3500    1.0000 </r>
       <r>   -0.3049    1.0000 </r>
       <r>   -0.1932    1.0000 </r>
       <r>   -0.1890    1.0000 </r>
       <r>   -0.1746    1.0000 </r>
       <r>   -0.0876    1.0000 </r>
       <r>   -0.0623    1.0000 </r>
       <r>    0.0527    1.0000 </r>
       <r>    0.0603    1.0000 </r>
       <r>    0.2425    1.0000 </r>
       <r>    0.4263    1.0000 </r>
       <r>    2.9626    0.0000 </r>
       <r>    3.2010    0.0000 </r>
       <r>    3.2741    0.0000 </r>
       <r>    3.3871    0.0000 </r>
       <r>    3.4730    0.0000 </r>
       <r>    3.4821    0.0000 </r>
       <r>    3.5629    0.0000 </r>
       <r>    3.6139    0.0000 </r>
       <r>    3.6671    0.0000 </r>
       <r>    3.7355    0.0000 </r>
       <r>    3.7513    0.0000 </r>
       <r>    3.8529    0.0000 </r>
       <r>    3.8730    0.0000 </r>
       <r>    3.8759    0.0000 </r>
       <r>    3.9249    0.0000 </r>
       <r>    3.9720    0.0000 </r>
       <r>    4.0167    0.0000 </r>
       <r>    4.1441    0.0000 </r>
       <r>    4.2322    0.0000 </r>
       <r>    7.9503    0.0000 </r>
      </set>
      <set comment="kpoint 9">
       <r>  -33.2659    1.0000 </r>
       <r>  -32.5054    1.0000 </r>
       <r>  -32.3842    1.0000 </r>
       <r>  -32.3661    1.0000 </r>
       <r>  -32.2495    1.0000 </r>
       <r>  -32.1542    1.0000 </r>
       <r>  -16.8447    1.0000 </r>
       <r>  -16.6419    1.0000 </r>
       <r>  -16.4863    1.0000 </r>
       <r>  -16.3592    1.0000 </r>
       <r>  -16.2344    1.0000 </r>
       <r>  -16.1979    1.0000 </r>
       <r>  -16.1374    1.0000 </r>
       <r>  -16.0662    1.0000 </r>
       <r>  -16.0356    1.0000 </r>
       <r>  -15.9708    1.0000 </r>
       <r>  -15.9431    1.0000 </r>
       <r>  -15.9089    1.0000 </r>
       <r>  -15.8126    1.0000 </r>
       <r>  -15.7837    1.0000 </r>
       <r>  -15.6935    1.0000 </r>
       <r>  -15.6046    1.0000 </r>
       <r>  -15.5056    1.0000 </r>
       <r>  -15.4994    1.0000 </r>
       <r>  -15.3165    1.0000 </r>
       <r>  -15.0874    1.0000 </r>
       <r>  -14.6365    1.0000 </r>
       <r>  -14.5943    1.0000 </r>
       <r>  -14.5260    1.0000 </r>
       <r>  -14.4927    1.0000 </r>
       <r>  -14.4294    1.0000 </r>
       <r>  -14.3822    1.0000 </r>
       <r>  -14.3460    1.0000 </r>
       <r>  -14.2951    1.0000 </r>
       <r>  -14.2824    1.0000 </r>
       <r>  -14.2522    1.0000 </r>
       <r>  -14.2008    1.0000 </r>
       <r>  -14.1850    1.0000 </r>
       <r>  -14.1510    1.0000 </r>
       <r>  -14.0688    1.0000 </r>
       <r>  -14.0530    1.0000 </r>
       <r>  -13.9338    1.0000 </r>
       <r>   -4.0478    1.0000 </r>
       <r>   -3.9484    1.0000 </r>
       <r>   -3.8191    1.0000 </r>
       <r>   -3.7097    1.0000 </r>
       <r>   -3.6643    1.0000 </r>
       <r>   -3.6108    1.0000 </r>
       <r>   -3.5774    1.0000 </r>
       <r>   -3.5675    1.0000 </r>
       <r>   -3.5044    1.0000 </r>
       <r>   -3.4310    1.0000 </r>
       <r>   -3.3740    1.0000 </r>
       <r>   -3.3499    1.0000 </r>
       <r>   -3.2771    1.0000 </r>
       <r>   -3.2714    1.0000 </r>
       <r>   -3.1858    1.0000 </r>
       <r>   -3.1016    1.0000 </r>
       <r>   -3.0769    1.0000 </r>
       <r>   -3.0255    1.0000 </r>
       <r>   -2.9997    1.0000 </r>
       <r>   -2.9555    1.0000 </r>
       <r>   -2.9062    1.0000 </r>
       <r>   -2.8756    1.0000 </r>
       <r>   -2.8350    1.0000 </r>
       <r>   -2.7641    1.0000 </r>
       <r>   -2.6986    1.0000 </r>
       <r>   -2.6556    1.0000 </r>
       <r>   -2.6430    1.0000 </r>
       <r>   -2.5748    1.0000 </r>
       <r>   -2.4427    1.0000 </r>
       <r>   -2.4103    1.0000 </r>
       <r>   -2.2666    1.0000 </r>
       <r>   -2.1791    1.0000 </r>
       <r>   -2.0563    1.0000 </r>
       <r>   -1.8400    1.0000 </r>
       <r>   -1.3651    1.0000 </r>
       <r>   -1.1347    1.0000 </r>
       <r>   -0.9427    1.0000 </r>
       <r>   -0.8126    1.0000 </r>
       <r>   -0.7263    1.0000 </r>
       <r>   -0.6394    1.0000 </r>
       <r>   -0.4592    1.0000 </r>
       <r>   -0.4140    1.0000 </r>
       <r>   -0.3072    1.0000 </r>
       <r>   -0.2430    1.0000 </r>
       <r>   -0.2097    1.0000 </r>
       <r>   -0.1373    1.0000 </r>
       <r>   -0.0697    1.0000 </r>
       <r>   -0.0406    1.0000 </r>
       <r>    0.0675    1.0000 </r>
       <r>    0.0737    1.0000 </r>
       <r>    0.0889    1.0000 </r>
       <r>    0.1946    1.0000 </r>
       <r>    0.4190    1.0000 </r>
       <r>    0.5836    1.0000 </r>
       <r>    3.0831    0.0000 </r>
       <r>    3.3568    0.0000 </r>
       <r>    3.5604    0.0000 </r>
[...]
       <r>   -3.4067    1.0000 </r>
       <r>   -3.3761    1.0000 </r>
       <r>   -3.3443    1.0000 </r>
       <r>   -3.3421    1.0000 </r>
       <r>   -3.2972    1.0000 </r>
       <r>   -3.2701    1.0000 </r>
       <r>   -3.1469    1.0000 </r>
       <r>   -3.0901    1.0000 </r>
       <r>   -3.0430    1.0000 </r>
       <r>   -2.9068    1.0000 </r>
       <r>   -2.8864    1.0000 </r>
       <r>   -2.8494    1.0000 </r>
       <r>   -2.8479    1.0000 </r>
       <r>   -2.6472    1.0000 </r>
       <r>   -2.6253    1.0000 </r>
       <r>   -2.4151    1.0000 </r>
       <r>   -2.3241    1.0000 </r>
       <r>   -2.2807    1.0000 </r>
       <r>   -2.1778    1.0000 </r>
       <r>   -2.1098    1.0000 </r>
       <r>   -1.5701    1.0000 </r>
       <r>   -1.0266    1.0000 </r>
       <r>   -0.9620    1.0000 </r>
       <r>   -0.7190    1.0000 </r>
       <r>   -0.6878    1.0000 </r>
       <r>   -0.6377    1.0000 </r>
       <r>   -0.3754    1.0000 </r>
       <r>   -0.3334    1.0000 </r>
       <r>   -0.1037    1.0000 </r>
       <r>   -0.0639    1.0000 </r>
       <r>    0.0851    1.0000 </r>
       <r>    0.1143    1.0000 </r>
       <r>    0.1581    1.0000 </r>
       <r>    0.1861    1.0000 </r>
       <r>    0.3148    1.0000 </r>
       <r>    0.3771    1.0000 </r>
       <r>    0.4045    1.0000 </r>
       <r>    0.4560    1.0000 </r>
       <r>    0.4758    1.0000 </r>
       <r>    0.9135    1.0000 </r>
       <r>    3.6091    0.0000 </r>
       <r>    3.6656    0.0000 </r>
       <r>    3.8193    0.0000 </r>
       <r>    3.8380    0.0000 </r>
       <r>    3.9859    0.0000 </r>
       <r>    3.9971    0.0000 </r>
       <r>    4.0648    0.0000 </r>
       <r>    4.1333    0.0000 </r>
       <r>    4.1578    0.0000 </r>
       <r>    4.2148    0.0000 </r>
       <r>    4.2870    0.0000 </r>
       <r>    4.3344    0.0000 </r>
       <r>    4.3888    0.0000 </r>
       <r>    4.4703    0.0000 </r>
       <r>    4.5003    0.0000 </r>
       <r>    4.5479    0.0000 </r>
       <r>    7.5388    0.0000 </r>
       <r>    7.5961    0.0000 </r>
       <r>    7.7342    0.0000 </r>
       <r>    7.9715    0.0000 </r>
      </set>
     </set>
    </set>
   </array>
  </eigenvalues>
  <separator name="orbital magnetization" >
   <v name="MAGDIPOLOUT">      0.00000000      0.00000000      0.00000000</v>
  </separator>
  <dos>
   <i name="efermi">      0.97391986 </i>
   <total>
    <array>
     <dimension dim="1">gridpoints</dimension>
     <dimension dim="2">spin</dimension>
     <field>energy</field>
     <field>total</field>
     <field>integrated</field>
     <set>
      <set comment="spin 1">
       <r>   -35.3582     0.0000     0.0000 </r>
       <r>   -35.2065     0.0000     0.0000 </r>
       <r>   -35.0548     0.0000     0.0000 </r>
       <r>   -34.9031     0.0000     0.0000 </r>
       <r>   -34.7514     0.0000     0.0000 </r>
       <r>   -34.5997     0.0000     0.0000 </r>
       <r>   -34.4480     0.0000     0.0000 </r>
       <r>   -34.2963     0.0000     0.0000 </r>
       <r>   -34.1446     0.0000     0.0000 </r>
       <r>   -33.9929     0.0000     0.0000 </r>
       <r>   -33.8412     0.0000     0.0000 </r>
       <r>   -33.6895     0.0000     0.0000 </r>
       <r>   -33.5378     0.0000     0.0000 </r>
       <r>   -33.3861     0.0000     0.0000 </r>
       <r>   -33.2344     0.0000     2.0000 </r>
       <r>   -33.0827     0.0000     2.0000 </r>
       <r>   -32.9310     0.0000     2.0000 </r>
       <r>   -32.7793     0.0000     2.0000 </r>
       <r>   -32.6276     0.0000     2.0000 </r>
       <r>   -32.4759     0.0000     4.0000 </r>
       <r>   -32.3242     0.0000     8.0000 </r>
       <r>   -32.1725    49.3742    10.3425 </r>
       <r>   -32.0208     0.0000    12.0000 </r>
       <r>   -31.8691     0.0000    12.0000 </r>
       <r>   -31.7174     0.0000    12.0000 </r>
       <r>   -31.5657     0.0000    12.0000 </r>
       <r>   -31.4140     0.0000    12.0000 </r>
       <r>   -31.2623     0.0000    12.0000 </r>
       <r>   -31.1106     0.0000    12.0000 </r>
       <r>   -30.9589     0.0000    12.0000 </r>
       <r>   -30.8072     0.0000    12.0000 </r>
       <r>   -30.6555     0.0000    12.0000 </r>
       <r>   -30.5038     0.0000    12.0000 </r>
       <r>   -30.3521     0.0000    12.0000 </r>
       <r>   -30.2004     0.0000    12.0000 </r>
       <r>   -30.0487     0.0000    12.0000 </r>
       <r>   -29.8970     0.0000    12.0000 </r>
       <r>   -29.7453     0.0000    12.0000 </r>
       <r>   -29.5936     0.0000    12.0000 </r>
       <r>   -29.4419     0.0000    12.0000 </r>
       <r>   -29.2902     0.0000    12.0000 </r>
       <r>   -29.1385     0.0000    12.0000 </r>
       <r>   -28.9868     0.0000    12.0000 </r>
       <r>   -28.8351     0.0000    12.0000 </r>
       <r>   -28.6834     0.0000    12.0000 </r>
       <r>   -28.5317     0.0000    12.0000 </r>
       <r>   -28.3800     0.0000    12.0000 </r>
       <r>   -28.2283     0.0000    12.0000 </r>
       <r>   -28.0766     0.0000    12.0000 </r>
       <r>   -27.9249     0.0000    12.0000 </r>
       <r>   -27.7732     0.0000    12.0000 </r>
       <r>   -27.6215     0.0000    12.0000 </r>
       <r>   -27.4698     0.0000    12.0000 </r>
       <r>   -27.3181     0.0000    12.0000 </r>
       <r>   -27.1664     0.0000    12.0000 </r>
       <r>   -27.0147     0.0000    12.0000 </r>
       <r>   -26.8630     0.0000    12.0000 </r>
       <r>   -26.7113     0.0000    12.0000 </r>
       <r>   -26.5596     0.0000    12.0000 </r>
       <r>   -26.4079     0.0000    12.0000 </r>
       <r>   -26.2562     0.0000    12.0000 </r>
       <r>   -26.1045     0.0000    12.0000 </r>
       <r>   -25.9528     0.0000    12.0000 </r>
       <r>   -25.8011     0.0000    12.0000 </r>
       <r>   -25.6494     0.0000    12.0000 </r>
       <r>   -25.4977     0.0000    12.0000 </r>
       <r>   -25.3460     0.0000    12.0000 </r>
       <r>   -25.1943     0.0000    12.0000 </r>
       <r>   -25.0426     0.0000    12.0000 </r>
       <r>   -24.8909     0.0000    12.0000 </r>
       <r>   -24.7392     0.0000    12.0000 </r>
       <r>   -24.5875     0.0000    12.0000 </r>
       <r>   -24.4358     0.0000    12.0000 </r>
       <r>   -24.2841     0.0000    12.0000 </r>
       <r>   -24.1324     0.0000    12.0000 </r>
       <r>   -23.9807     0.0000    12.0000 </r>
       <r>   -23.8290     0.0000    12.0000 </r>
       <r>   -23.6773     0.0000    12.0000 </r>
       <r>   -23.5256     0.0000    12.0000 </r>
       <r>   -23.3739     0.0000    12.0000 </r>
       <r>   -23.2222     0.0000    12.0000 </r>
       <r>   -23.0705     0.0000    12.0000 </r>
       <r>   -22.9188     0.0000    12.0000 </r>
       <r>   -22.7671     0.0000    12.0000 </r>
       <r>   -22.6154     0.0000    12.0000 </r>
       <r>   -22.4637     0.0000    12.0000 </r>
       <r>   -22.3120     0.0000    12.0000 </r>
       <r>   -22.1603     0.0000    12.0000 </r>
       <r>   -22.0086     0.0000    12.0000 </r>
       <r>   -21.8569     0.0000    12.0000 </r>
       <r>   -21.7052     0.0000    12.0000 </r>
       <r>   -21.5535     0.0000    12.0000 </r>
       <r>   -21.4018     0.0000    12.0000 </r>
       <r>   -21.2501     0.0000    12.0000 </r>
       <r>   -21.0984     0.0000    12.0000 </r>
       <r>   -20.9467     0.0000    12.0000 </r>
       <r>   -20.7950     0.0000    12.0000 </r>
       <r>   -20.6433     0.0000    12.0000 </r>
       <r>   -20.4916     0.0000    12.0000 </r>
       <r>   -20.3399     0.0000    12.0000 </r>
       <r>   -20.1882     0.0000    12.0000 </r>
       <r>   -20.0365     0.0000    12.0000 </r>
       <r>   -19.8848     0.0000    12.0000 </r>
       <r>   -19.7331     0.0000    12.0000 </r>
       <r>   -19.5814     0.0000    12.0000 </r>
       <r>   -19.4297     0.0000    12.0000 </r>
       <r>   -19.2780     0.0000    12.0000 </r>
       <r>   -19.1263     0.0000    12.0000 </r>
       <r>   -18.9746     0.0000    12.0000 </r>
       <r>   -18.8229     0.0000    12.0000 </r>
       <r>   -18.6712     0.0000    12.0000 </r>
       <r>   -18.5195     0.0000    12.0000 </r>
       <r>   -18.3678     0.0000    12.0000 </r>
       <r>   -18.2161     0.0000    12.0000 </r>
       <r>   -18.0644     0.0000    12.0000 </r>
       <r>   -17.9127     0.0000    12.0000 </r>
       <r>   -17.7610     0.0000    12.0000 </r>
       <r>   -17.6093     0.0000    12.0000 </r>
       <r>   -17.4576     0.0000    12.0000 </r>
       <r>   -17.3059     0.0000    12.0000 </r>
       <r>   -17.1542     5.0299    12.1013 </r>
       <r>   -17.0025     6.7969    13.4716 </r>
       <r>   -16.8508    10.6751    15.1231 </r>
       <r>   -16.6991    13.4702    17.3238 </r>
       <r>   -16.5474    17.3388    19.7572 </r>
       <r>   -16.3957    12.1482    21.7894 </r>
       <r>   -16.2440     6.3309    23.2635 </r>
       <r>   -16.0923    18.2358    27.3383 </r>
       <r>   -15.9406    30.6273    34.0931 </r>
       <r>   -15.7889    36.2502    39.7358 </r>
       <r>   -15.6372     5.6099    43.6450 </r>
       <r>   -15.4855    48.4986    47.3415 </r>
       <r>   -15.3338     0.4654    47.9725 </r>
       <r>   -15.1821    25.3861    50.0663 </r>
       <r>   -15.0304     0.0000    52.0000 </r>
       <r>   -14.8787     0.2004    52.0072 </r>
       <r>   -14.7270     2.2629    52.1970 </r>
       <r>   -14.5753    31.5159    53.8830 </r>
       <r>   -14.4236    81.9007    59.8576 </r>
       <r>   -14.2719    60.3238    67.6937 </r>
       <r>   -14.1202    70.0833    76.3691 </r>
       <r>   -13.9685    20.9557    81.4801 </r>
       <r>   -13.8168     5.1823    83.8555 </r>
       <r>   -13.6651     0.0000    84.0000 </r>
       <r>   -13.5134     0.0000    84.0000 </r>
       <r>   -13.3617     0.0000    84.0000 </r>
       <r>   -13.2100     0.0000    84.0000 </r>
       <r>   -13.0583     0.0000    84.0000 </r>
       <r>   -12.9066     0.0000    84.0000 </r>
       <r>   -12.7549     0.0000    84.0000 </r>
       <r>   -12.6032     0.0000    84.0000 </r>
       <r>   -12.4515     0.0000    84.0000 </r>
       <r>   -12.2998     0.0000    84.0000 </r>
       <r>   -12.1481     0.0000    84.0000 </r>
       <r>   -11.9964     0.0000    84.0000 </r>
       <r>   -11.8447     0.0000    84.0000 </r>
       <r>   -11.6930     0.0000    84.0000 </r>
       <r>   -11.5413     0.0000    84.0000 </r>
       <r>   -11.3896     0.0000    84.0000 </r>
       <r>   -11.2379     0.0000    84.0000 </r>
       <r>   -11.0862     0.0000    84.0000 </r>
       <r>   -10.9345     0.0000    84.0000 </r>
       <r>   -10.7828     0.0000    84.0000 </r>
       <r>   -10.6311     0.0000    84.0000 </r>
       <r>   -10.4794     0.0000    84.0000 </r>
       <r>   -10.3277     0.0000    84.0000 </r>
       <r>   -10.1760     0.0000    84.0000 </r>
       <r>   -10.0243     0.0000    84.0000 </r>
       <r>    -9.8726     0.0000    84.0000 </r>
       <r>    -9.7209     0.0000    84.0000 </r>
       <r>    -9.5692     0.0000    84.0000 </r>
       <r>    -9.4175     0.0000    84.0000 </r>
       <r>    -9.2658     0.0000    84.0000 </r>
       <r>    -9.1141     0.0000    84.0000 </r>
       <r>    -8.9624     0.0000    84.0000 </r>
       <r>    -8.8107     0.0000    84.0000 </r>
       <r>    -8.6590     0.0000    84.0000 </r>
       <r>    -8.5073     0.0000    84.0000 </r>
       <r>    -8.3556     0.0000    84.0000 </r>
       <r>    -8.2039     0.0000    84.0000 </r>
       <r>    -8.0522     0.0000    84.0000 </r>
       <r>    -7.9005     0.0000    84.0000 </r>
       <r>    -7.7488     0.0000    84.0000 </r>
       <r>    -7.5971     0.0000    84.0000 </r>
       <r>    -7.4454     0.0000    84.0000 </r>
       <r>    -7.2937     0.0000    84.0000 </r>
       <r>    -7.1420     0.0000    84.0000 </r>
       <r>    -6.9903     0.0000    84.0000 </r>
       <r>    -6.8386     0.0000    84.0000 </r>
       <r>    -6.6869     0.0000    84.0000 </r>
       <r>    -6.5352     0.0000    84.0000 </r>
       <r>    -6.3835     0.0000    84.0000 </r>
       <r>    -6.2318     0.0000    84.0000 </r>
       <r>    -6.0801     0.0000    84.0000 </r>
       <r>    -5.9284     0.0000    84.0000 </r>
       <r>    -5.7767     0.0000    84.0000 </r>
       <r>    -5.6250     0.0000    84.0000 </r>
       <r>    -5.4733     0.0000    84.0000 </r>
       <r>    -5.3216     0.0000    84.0000 </r>
       <r>    -5.1699     0.0000    84.0000 </r>
       <r>    -5.0182     0.0000    84.0000 </r>
       <r>    -4.8665     0.0000    84.0000 </r>
       <r>    -4.7148     0.0000    84.0000 </r>
       <r>    -4.5631     0.0000    84.0000 </r>
       <r>    -4.4114     0.0000    84.0000 </r>
       <r>    -4.2597     0.0000    84.0000 </r>
       <r>    -4.1080     2.0597    84.1350 </r>
       <r>    -3.9563    10.9779    85.5190 </r>
       <r>    -3.8046     6.7846    87.9699 </r>
       <r>    -3.6529    21.8578    91.0435 </r>
       <r>    -3.5012    32.4727    95.1363 </r>
       <r>    -3.3495    26.3764    98.9132 </r>
       <r>    -3.1978    23.7141   102.6618 </r>
       <r>    -3.0461    23.5054   106.3020 </r>
       <r>    -2.8944    28.5403   110.4994 </r>
       <r>    -2.7427    33.1212   115.4052 </r>
       <r>    -2.5910    39.8965   120.8919 </r>
       <r>    -2.4393    31.7293   126.1738 </r>
       <r>    -2.2876    29.6405   131.0215 </r>
       <r>    -2.1359    21.5324   135.0753 </r>
       <r>    -1.9842    17.7585   138.0680 </r>
       <r>    -1.8325    19.0384   140.8016 </r>
       <r>    -1.6808    16.2532   143.4162 </r>
       <r>    -1.5291    17.4196   146.0887 </r>
       <r>    -1.3774    14.4038   148.5301 </r>
       <r>    -1.2257    12.7242   151.2151 </r>
       <r>    -1.0740    21.4050   153.5818 </r>
       <r>    -0.9223    21.3815   157.4097 </r>
       <r>    -0.7706    31.1521   161.5567 </r>
       <r>    -0.6189    36.4564   166.8190 </r>
       <r>    -0.4672    37.3037   171.9038 </r>
       <r>    -0.3155    27.2576   177.1502 </r>
       <r>    -0.1638    21.2603   180.3967 </r>
       <r>    -0.0121    24.7897   184.6346 </r>
       <r>     0.1396    17.5918   188.0084 </r>
       <r>     0.2913     8.1202   189.8793 </r>
       <r>     0.4430     7.1691   191.2058 </r>
       <r>     0.5947     1.0582   191.7116 </r>
       <r>     0.7464     0.7902   191.8518 </r>
       <r>     0.8981     0.5222   191.9514 </r>
       <r>     1.0498     0.0000   192.0000 </r>
       <r>     1.2015     0.0000   192.0000 </r>
       <r>     1.3532     0.0000   192.0000 </r>
       <r>     1.5049     0.0000   192.0000 </r>
       <r>     1.6566     0.0000   192.0000 </r>
       <r>     1.8083     0.0000   192.0000 </r>
       <r>     1.9600     0.6411   192.0174 </r>
       <r>     2.1117     3.4664   192.2840 </r>
       <r>     2.2634     3.9692   192.8417 </r>
       <r>     2.4151     5.5275   193.5924 </r>
       <r>     2.5668     7.5638   194.5901 </r>
       <r>     2.7185     8.3978   195.8079 </r>
       <r>     2.8702    11.8909   197.1609 </r>
       <r>     3.0219    12.5905   199.0172 </r>
       <r>     3.1736    12.9042   200.9475 </r>
       <r>     3.3253    16.4042   203.3200 </r>
       <r>     3.4770    19.2978   206.1503 </r>
       <r>     3.6287    27.0176   209.7915 </r>
       <r>     3.7804    27.6990   213.9725 </r>
       <r>     3.9321    29.4727   218.4067 </r>
       <r>     4.0838    21.8554   222.3474 </r>
       <r>     4.2355    13.9107   225.1160 </r>
       <r>     4.3872     4.2100   226.5931 </r>
       <r>     4.5389     1.4926   227.1165 </r>
       <r>     4.6906     0.9482   227.3074 </r>
       <r>     4.8423     0.9282   227.4497 </r>
       <r>     4.9940     1.0715   227.6044 </r>
       <r>     5.1457     1.0604   227.7661 </r>
       <r>     5.2974     1.0493   227.9261 </r>
       <r>     5.4491     1.0383   228.0845 </r>
       <r>     5.6008     1.0272   228.2411 </r>
       <r>     5.7525     1.0161   228.3961 </r>
       <r>     5.9042     1.0863   228.5509 </r>
       <r>     6.0559     1.4945   228.7466 </r>
       <r>     6.2076     2.6507   229.0234 </r>
       <r>     6.3593     1.5795   229.3110 </r>
       <r>     6.5110     1.5057   229.5450 </r>
       <r>     6.6627     1.4384   229.7742 </r>
       <r>     6.8144     1.3065   229.9807 </r>
       <r>     6.9661     1.2782   230.1761 </r>
       <r>     7.1178     1.3626   230.3764 </r>
       <r>     7.2695     1.4131   230.5879 </r>
       <r>     7.4212     1.4430   230.8048 </r>
       <r>     7.5729     1.3641   231.0605 </r>
       <r>     7.7246     2.1345   231.3058 </r>
       <r>     7.8763     1.8686   231.6469 </r>
       <r>     8.0280     1.2974   231.9360 </r>
       <r>     8.1797     0.0000   232.0000 </r>
       <r>     8.3314     0.0000   232.0000 </r>
       <r>     8.4831     0.0000   232.0000 </r>
       <r>     8.6348     0.0000   232.0000 </r>
       <r>     8.7865     0.0000   232.0000 </r>
       <r>     8.9382     0.0000   232.0000 </r>
       <r>     9.0899     0.0000   232.0000 </r>
       <r>     9.2416     0.0000   232.0000 </r>
       <r>     9.3933     0.0000   232.0000 </r>
       <r>     9.5450     0.0000   232.0000 </r>
       <r>     9.6967     0.0000   232.0000 </r>
       <r>     9.8484     0.0000   232.0000 </r>
       <r>    10.0001     0.0000   232.0000 </r>
       <r>    10.1517     0.0000   232.0000 </r>
      </set>
     </set>
    </array>
   </total>
  </dos>
 </calculation>
 <structure name="finalpos" >
  <crystal>
   <varray name="basis" >
    <v>       3.94684634       0.00000000       0.00000000 </v>
    <v>       0.00000000       3.94684634       0.00000000 </v>
    <v>       0.00000000       0.00000000      33.70765488 </v>
   </varray>
   <i name="volume">    525.08423131 </i>
   <varray name="rec_basis" >
    <v>       0.25336684       0.00000000       0.00000000 </v>
    <v>       0.00000000       0.25336684       0.00000000 </v>
    <v>       0.00000000       0.00000000       0.02966685 </v>
   </varray>
  </crystal>
  <varray name="positions" >
   <v>       0.50000000       0.50000000       0.17800111 </v>
   <v>       0.50000000       0.00000000       0.23654636 </v>
   <v>       0.00000000       0.50000000       0.23654636 </v>
   <v>       0.50000000       0.50000000       0.29509162 </v>
   <v>       0.50000000       0.00000000       0.35363687 </v>
   <v>       0.00000000       0.50000000       0.35363687 </v>
   <v>       0.50000000       0.50000000       0.41218212 </v>
   <v>       0.50000000       0.00000000       0.47072737 </v>
   <v>       0.00000000       0.50000000       0.47072737 </v>
   <v>       0.50000000       0.50000000       0.52927263 </v>
   <v>       0.50000000       0.00000000       0.58781788 </v>
   <v>       0.00000000       0.50000000       0.58781788 </v>
   <v>       0.50000000       0.50000000       0.64636313 </v>
   <v>       0.50000000       0.00000000       0.70490838 </v>
   <v>       0.00000000       0.50000000       0.70490838 </v>
   <v>       0.50000000       0.50000000       0.76345364 </v>
   <v>       0.50000000       0.00000000       0.82199889 </v>
   <v>       0.00000000       0.50000000       0.82199889 </v>
   <v>       0.00000000       0.00000000       0.17800111 </v>
   <v>       0.00000000       0.00000000       0.29509162 </v>
   <v>       0.00000000       0.00000000       0.41218212 </v>
   <v>       0.00000000       0.00000000       0.52927263 </v>
   <v>       0.00000000       0.00000000       0.64636313 </v>
   <v>       0.00000000       0.00000000       0.76345364 </v>
   <v>       0.50000000       0.50000000       0.23654636 </v>
   <v>       0.50000000       0.50000000       0.35363687 </v>
   <v>       0.50000000       0.50000000       0.47072737 </v>
   <v>       0.50000000       0.50000000       0.58781788 </v>
   <v>       0.50000000       0.50000000       0.70490838 </v>
   <v>       0.50000000       0.50000000       0.82199889 </v>
  </varray>
 </structure>
</modeling>
