unknown system                          
           1
     3.946846    0.000000    0.000000
     0.000000    3.946846    0.000000
     0.000000    0.000000   33.707655
   O    Sr   Ti
  18   6   6
Direct configuration=     1
   0.50000000  0.50000000  0.17800111
   0.50000000  0.00000000  0.23654636
   0.00000000  0.50000000  0.23654636
   0.50000000  0.50000000  0.29509162
   0.50000000  0.00000000  0.35363687
   0.00000000  0.50000000  0.35363687
   0.50000000  0.50000000  0.41218212
   0.50000000  0.00000000  0.47072737
   0.00000000  0.50000000  0.47072737
   0.50000000  0.50000000  0.52927263
   0.50000000  0.00000000  0.58781788
   0.00000000  0.50000000  0.58781788
   0.50000000  0.50000000  0.64636313
   0.50000000  0.00000000  0.70490838
   0.00000000  0.50000000  0.70490838
   0.50000000  0.50000000  0.76345364
   0.50000000  0.00000000  0.82199889
   0.00000000  0.50000000  0.82199889
   0.00000000  0.00000000  0.17800111
   0.00000000  0.00000000  0.29509162
   0.00000000  0.00000000  0.41218212
   0.00000000  0.00000000  0.52927263
   0.00000000  0.00000000  0.64636313
   0.00000000  0.00000000  0.76345364
   0.50000000  0.50000000  0.23654636
   0.50000000  0.50000000  0.35363687
   0.50000000  0.50000000  0.47072737
   0.50000000  0.50000000  0.58781788
   0.50000000  0.50000000  0.70490838
   0.50000000  0.50000000  0.82199889
