   13   13    1    1
  0.1475154E+03  0.5431010E-09  0.1879101E-08  0.1879101E-08  0.5000000E-15
  1.000000000000000E-004
  CAR 
 unknown system                          
     52      3     34
 
  0.0000000E+00  0.0000000E+00  0.0000000E+00  0.2000000E+00
    1      -14.058968   1.000000
    2      -12.605903   1.000000
    3      -12.605849   1.000000
    4      -11.656991   1.000000
    5      -10.715561   1.000000
    6      -10.189271   1.000000
    7       -9.904467   1.000000
    8       -9.840826   1.000000
    9       -9.840823   1.000000
   10       -8.998137   1.000000
   11       -7.998055   1.000000
   12       -7.998043   1.000000
   13       -6.382584   1.000000
   14       -6.382583   1.000000
   15       -5.919085   1.000000
   16       -5.625075   1.000000
   17       -5.560798   1.000000
   18       -5.173467   1.000000
   19       -4.591830   1.000000
   20       -4.591813   1.000000
   21       -4.537000   1.000000
   22       -3.850711   1.000000
   23       -3.831002   1.000000
   24       -3.830982   1.000000
   25       -3.342472   0.952331
   26       -3.291229   0.827214
   27       -3.291199   0.827102
   28       -3.127210   0.084353
   29       -3.124384   0.078339
   30       -3.050019   0.006793
   31       -2.564893   0.000000
   32       -2.564889   0.000000
   33       -1.940172   0.000000
   34       -1.940165   0.000000
 
  0.2000000E+00  0.0000000E+00  0.0000000E+00  0.4000000E+00
    1      -13.906965   1.000000
    2      -12.524180   1.000000
    3      -12.524122   1.000000
    4      -12.018256   1.000000
    5      -10.614371   1.000000
    6      -10.143527   1.000000
    7      -10.102274   1.000000
    8      -10.013990   1.000000
    9      -10.013981   1.000000
   10       -8.542308   1.000000
   11       -8.116956   1.000000
   12       -8.116943   1.000000
   13       -6.664763   1.000000
   14       -6.154350   1.000000
   15       -6.154348   1.000000
   16       -5.821247   1.000000
   17       -5.517667   1.000000
   18       -4.683225   1.000000
   19       -4.507666   1.000000
   20       -4.507642   1.000000
   21       -4.498444   1.000000
   22       -4.048751   1.000000
   23       -4.048746   1.000000
   24       -3.852458   1.000000
   25       -3.461580   0.999599
   26       -3.242270   0.599022
   27       -3.242255   0.598944
   28       -3.223530   0.494332
   29       -2.830077   0.000000
   30       -2.746271   0.000000
   31       -2.746264   0.000000
   32       -2.399826   0.000000
   33       -1.742356   0.000000
   34       -1.553401   0.000000
 
  0.4000000E+00  0.0000000E+00  0.0000000E+00  0.4000000E+00
    1      -13.474563   1.000000
    2      -12.745430   1.000000
    3      -12.366496   1.000000
    4      -12.366428   1.000000
    5      -10.404482   1.000000
    6      -10.332389   1.000000
    7      -10.332368   1.000000
    8      -10.234663   1.000000
    9      -10.063874   1.000000
   10       -8.193941   1.000000
   11       -8.193929   1.000000
   12       -8.158043   1.000000
   13       -7.226197   1.000000
   14       -6.201327   1.000000
   15       -5.832444   1.000000
   16       -5.832440   1.000000
   17       -5.558279   1.000000
   18       -4.639766   1.000000
   19       -4.639746   1.000000
   20       -4.548418   1.000000
   21       -4.380569   1.000000
   22       -4.380562   1.000000
   23       -3.991351   1.000000
   24       -3.643821   1.000000
   25       -3.314865   0.899282
   26       -3.055202   0.008317
   27       -3.055192   0.008313
   28       -3.035362   0.003733
   29       -2.987029   0.000391
   30       -2.535338   0.000000
   31       -2.535331   0.000000
   32       -2.511381   0.000000
   33       -1.769785   0.000000
   34       -1.727182   0.000000
