unknown system                          
   1.00000000000000     
     5.431010    0.000000    0.000000
     0.000000   18.791010    0.000000
     0.000000    0.000000   18.791010
   Si
    13
Direct
  0.000000  0.000000  0.000000
  0.499999  0.144511  0.000000
  0.250000  0.072255  0.072255
  0.750000  0.216766  0.072255
  0.000000  0.144511  0.144511
  0.499999  0.000000  0.144511
  0.250000  0.216766  0.216766
  0.750000  0.072255  0.216766
  0.000000  0.000000  0.289022
  0.499999  0.144511  0.289022
  0.000000  0.289022  0.000000
  0.499999  0.289022  0.144511
  0.000000  0.289022  0.289022
 
   24   80   80
 0.20939     0.24283     0.44333     0.63788     0.71019     0.66852     0.53842     0.37699     0.22819     0.11898    
 0.57861E-01 0.30344E-01 0.21300E-01 0.23356E-01 0.42990E-01 0.11841     0.32849     0.62271     0.81763     0.90224    
 0.92301     0.89233     0.74770     0.41700     0.21212     0.31644     0.56126     0.72647     0.76780     0.71521    
 0.59237     0.43920     0.28528     0.16386     0.89572E-01 0.50803E-01 0.34220E-01 0.31770E-01 0.46231E-01 0.10290    
 0.26383     0.53265     0.75356     0.86278     0.88999     0.84431     0.65682     0.34121     0.39769     0.54420    
 0.72541     0.80937     0.80967     0.74371     0.62852     0.48228     0.32851     0.20690     0.12946     0.84057E-01
 0.59425E-01 0.50060E-01 0.57665E-01 0.95929E-01 0.20316     0.41517     0.64793     0.79209     0.83915     0.80023    
 0.65142     0.44875     0.59359     0.70284     0.79953     0.83245     0.80915     0.74049     0.63457     0.49691    
 0.35875     0.25420     0.18586     0.14161     0.11108     0.92378E-01 0.89907E-01 0.11021     0.17085     0.30479    
 0.50217     0.67047     0.75194     0.74616     0.66857     0.58226     0.66053     0.73489     0.78943     0.79930    
 0.76919     0.70520     0.60764     0.49337     0.39511     0.32511     0.27754     0.24215     0.21035     0.18327    
 0.16740     0.16527     0.18360     0.24304     0.36010     0.50234     0.60636     0.64527     0.63425     0.62270    
 0.60017     0.66567     0.71088     0.72108     0.69618     0.63829     0.56255     0.49788     0.45685     0.43215    
 0.41410     0.39335     0.36631     0.33851     0.31390     0.28769     0.26008     0.25042     0.27996     0.34873    
 0.42719     0.48250     0.51317     0.54522     0.46147     0.53343     0.58736     0.60636     0.58965     0.55479    
 0.53007     0.53032     0.54810     0.56970     0.58183     0.57443     0.55251     0.52951     0.50657     0.46954    
 0.40724     0.33185     0.27681     0.26207     0.28084     0.31218     0.34699     0.39496     0.30926     0.38015    
 0.43489     0.46075     0.46967     0.48669     0.52766     0.58913     0.65597     0.70914     0.73027     0.71662    
 0.68830     0.67089     0.66365     0.63991     0.57558     0.46643     0.33918     0.24309     0.19684     0.18689    
 0.20281     0.24486     0.17317     0.23036     0.28146     0.32301     0.37269     0.44795     0.54898     0.65940    
 0.75284     0.80336     0.80269     0.76014     0.70991     0.69871     0.72258     0.73416     0.69705     0.59489    
 0.43620     0.27307     0.16635     0.11774     0.10785     0.12802     0.81463E-01 0.11868     0.16533     0.22325    
 0.30873     0.43249     0.58094     0.71958     0.80849     0.83222     0.79289     0.69379     0.59665     0.60048    
 0.68504     0.75150     0.75306     0.67657     0.52042     0.32316     0.16752     0.88400E-01 0.60375E-01 0.60643E-01
 0.38227E-01 0.57761E-01 0.94761E-01 0.15965     0.27015     0.42953     0.60682     0.74949     0.81712     0.80577    
 0.70222     0.49906     0.34856     0.39160     0.57615     0.72372     0.76638     0.71499     0.57128     0.36719    
 0.18428     0.82161E-01 0.42618E-01 0.32633E-01 0.23337E-01 0.32278E-01 0.58543E-01 0.12046     0.24292     0.42325    
 0.61291     0.74908     0.79556     0.74495     0.55764     0.28030     0.15835     0.23604     0.49095     0.70296    
 0.77163     0.73340     0.59862     0.40010     0.21083     0.92775E-01 0.42122E-01 0.25279E-01 0.22663E-01 0.25315E-01
 0.43023E-01 0.95132E-01 0.21435     0.40349     0.60091     0.73531     0.77319     0.70391     0.48889     0.22898    
 0.14800     0.26345     0.54223     0.73753     0.79227     0.74772     0.61231     0.42153     0.23972     0.11675    
 0.55827E-01 0.30698E-01 0.35277E-01 0.30887E-01 0.41737E-01 0.82622E-01 0.18699     0.37185     0.57550     0.71784    
 0.76673     0.71950     0.56161     0.36534     0.31688     0.46892     0.68583     0.79949     0.81561     0.75079    
 0.60877     0.42922     0.26661     0.15376     0.88797E-01 0.53115E-01 0.73996E-01 0.55585E-01 0.56992E-01 0.86646E-01
 0.16887     0.32920     0.52830     0.68320     0.75630     0.74976     0.67468     0.57946     0.57224     0.67708    
 0.78631     0.83169     0.81188     0.72507     0.58482     0.43171     0.30294     0.21378     0.15451     0.10874    
 0.15912     0.11706     0.99823E-01 0.11246     0.16521     0.27880     0.44791     0.60764     0.70713     0.73988    
 0.72284     0.69373     0.70389     0.75819     0.80570     0.81028     0.76223     0.66775     0.55259     0.44500    
 0.36322     0.30863     0.26482     0.21403     0.29134     0.22840     0.18841     0.17563     0.19068     0.24459    
 0.35006     0.48367     0.59382     0.65609     0.67647     0.68079     0.69751     0.72762     0.74373     0.72389    
 0.66905     0.59744     0.52924     0.48043     0.45614     0.44261     0.41539     0.36113     0.44282     0.37570    
 0.32741     0.29395     0.26722     0.25645     0.28126     0.34633     0.42815     0.49263     0.52946     0.55133    
 0.57367     0.59558     0.60236     0.58745     0.56075     0.53630     0.52814     0.54511     0.57496     0.58984    
 0.57011     0.51540     0.58596     0.52914     0.49371     0.46067     0.40652     0.33419     0.27558     0.25641    
 0.27458     0.30762     0.33614     0.36114     0.38849     0.41469     0.43345     0.44760     0.46649     0.50016    
 0.55731     0.62842     0.68496     0.70909     0.69775     0.65185     0.65947     0.61939     0.62419     0.62829    
 0.58508     0.48129     0.34630     0.24004     0.18907     0.17612     0.18132     0.19873     0.22637     0.25793    
 0.29176     0.33615     0.40100     0.49294     0.60257     0.69869     0.76204     0.79190     0.78319     0.73141    
 0.60924     0.59331     0.66832     0.73717     0.73755     0.65171     0.48338     0.29396     0.16972     0.11421    
 0.96329E-01 0.10034     0.12023     0.15124     0.19475     0.26121     0.36236     0.49704     0.63295     0.73792    
 0.80621     0.83125     0.80240     0.71295     0.42569     0.46702     0.65403     0.79477     0.83103     0.78033    
 0.63204     0.40031     0.19741     0.96203E-01 0.60115E-01 0.53504E-01 0.63871E-01 0.89428E-01 0.13506     0.21215    
 0.33257     0.48565     0.63100     0.74509     0.81196     0.81549     0.73974     0.57055     0.22670     0.34715    
 0.65214     0.83871     0.88499     0.85617     0.74323     0.51915     0.25584     0.10128     0.47044E-01 0.33292E-01
 0.36444E-01 0.54078E-01 0.93922E-01 0.16935     0.29138     0.44585     0.59799     0.72016     0.77470     0.73897    
 0.58336     0.34000     0.19714     0.39428     0.73254     0.88653     0.91968     0.89857     0.81176     0.61355    
 0.32159     0.11637     0.43232E-01 0.24090E-01 0.22461E-01 0.32330E-01 0.61193E-01 0.12438     0.23535     0.38510    
 0.54530     0.67425     0.71611     0.64483     0.44783     0.23889     0.43965     0.66397     0.85837     0.92902    
 0.94209     0.92126     0.84820     0.66972     0.36896     0.12952     0.41690E-01 0.19122E-01 0.14926E-01 0.19510E-01
 0.37920E-01 0.84776E-01 0.17808     0.32062     0.49056     0.63524     0.69086     0.64414     0.51520     0.39968    
 0.80260     0.88442     0.93536     0.95474     0.95367     0.92976     0.85990     0.68732     0.38482     0.13402    
 0.39671E-01 0.15703E-01 0.10434E-01 0.12184E-01 0.23534E-01 0.56767E-01 0.13314     0.26806     0.44800     0.61877    
 0.71649     0.74085     0.73118     0.73992     0.93130     0.95192     0.96295     0.96475     0.95534     0.92546    
 0.84860     0.66672     0.36566     0.12762     0.36859E-01 0.13080E-01 0.74594E-02 0.78315E-02 0.14870E-01 0.38333E-01
 0.10120     0.22949     0.41644     0.61065     0.74997     0.82609     0.86936     0.90270     0.95704     0.96540    
 0.96759     0.96290     0.94678     0.90664     0.81126     0.60630     0.31398     0.10971     0.32595E-01 0.10811E-01
 0.53381E-02 0.51102E-02 0.94646E-02 0.25381E-01 0.74526E-01 0.19224     0.38200     0.59097     0.75624     0.85664    
 0.91091     0.94058     0.95296     0.95904     0.95822     0.94898     0.92448     0.86733     0.74175     0.51083    
 0.24428     0.85634E-01 0.26861E-01 0.86662E-02 0.38459E-02 0.34125E-02 0.60400E-02 0.16129E-01 0.50811E-01 0.14825    
 0.33091     0.54947     0.72958     0.84379     0.90599     0.93763     0.93068     0.93721     0.93365     0.91739    
 0.87856     0.79520     0.63472     0.39539     0.17630     0.62745E-01 0.20608E-01 0.66906E-02 0.28547E-02 0.23886E-02
 0.39767E-02 0.10387E-01 0.33945E-01 0.10640     0.26243     0.47709     0.66979     0.79840     0.87232     0.91163    
 0.88785     0.89479     0.88434     0.85267     0.78913     0.67520     0.49443     0.27986     0.12078     0.43810E-01
 0.14669E-01 0.50257E-02 0.22389E-02 0.17493E-02 0.26545E-02 0.68990E-02 0.23320E-01 0.74298E-01 0.18982     0.37297    
 0.56713     0.71512     0.80862     0.86169     0.80010     0.80616     0.78329     0.72914     0.64029     0.50976    
 0.34020     0.17933     0.76744E-01 0.28133E-01 0.96011E-02 0.36424E-02 0.17716E-02 0.12642E-02 0.16947E-02 0.43785E-02
 0.15104E-01 0.48284E-01 0.12618     0.26191     0.43013     0.58303     0.69471     0.76465     0.63024     0.64195    
 0.61881     0.55704     0.45896     0.33342     0.20258     0.10174     0.43857E-01 0.16896E-01 0.63144E-02 0.26769E-02
 0.13440E-02 0.87608E-03 0.10576E-02 0.25634E-02 0.84065E-02 0.26696E-01 0.74241E-01 0.16747     0.29260     0.41654    
 0.51739     0.58839     0.45704     0.46364     0.44002     0.37991     0.28782     0.18729     0.10432     0.50542E-01
 0.22477E-01 0.96382E-02 0.41321E-02 0.18124E-02 0.88805E-03 0.59583E-03 0.71665E-03 0.15321E-02 0.43289E-02 0.13233E-01
 0.38940E-01 0.95170E-01 0.18080     0.27699     0.36292     0.42402     0.28091     0.28388     0.26448     0.21848    
 0.15492     0.95138E-01 0.52273E-01 0.25819E-01 0.11985E-01 0.56711E-02 0.26038E-02 0.11141E-02 0.54076E-03 0.40273E-03
 0.50397E-03 0.94270E-03 0.23402E-02 0.69085E-02 0.20217E-01 0.49056E-01 0.94539E-01 0.15150     0.20996     0.25614    
 0.16332     0.14533     0.12295     0.10037     0.73933E-01 0.47797E-01 0.27732E-01 0.14757E-01 0.71245E-02 0.32305E-02
 0.14122E-02 0.62293E-03 0.33675E-03 0.27303E-03 0.33380E-03 0.57393E-03 0.13618E-02 0.39381E-02 0.10784E-01 0.24943E-01
 0.48778E-01 0.83150E-01 0.12432     0.15754     0.55362E-01 0.58514E-01 0.56115E-01 0.48034E-01 0.35954E-01 0.24328E-01
 0.15543E-01 0.89223E-02 0.43286E-02 0.19394E-02 0.92226E-03 0.49311E-03 0.28616E-03 0.19517E-03 0.18874E-03 0.30447E-03
 0.76246E-03 0.21117E-02 0.51969E-02 0.11112E-01 0.20303E-01 0.30278E-01 0.39373E-01 0.48178E-01 0.58561E-01 0.43984E-01
 0.31181E-01 0.22613E-01 0.15443E-01 0.95196E-02 0.56258E-02 0.32412E-02 0.17451E-02 0.89830E-03 0.49870E-03 0.31456E-03
 0.19438E-03 0.12529E-03 0.11855E-03 0.18619E-03 0.39320E-03 0.90317E-03 0.20275E-02 0.46072E-02 0.10277E-01 0.21077E-01
 0.38361E-01 0.56835E-01 0.74409E-02 0.98234E-02 0.11133E-01 0.93170E-02 0.65701E-02 0.43180E-02 0.25560E-02 0.14082E-02
 0.82054E-03 0.53033E-03 0.34110E-03 0.18575E-03 0.97611E-04 0.66501E-04 0.70603E-04 0.99989E-04 0.17232E-03 0.36235E-03
 0.88009E-03 0.19776E-02 0.33668E-02 0.44232E-02 0.50057E-02 0.58710E-02 0.98719E-01 0.13653E-01 0.54584E-02 0.35462E-02
 0.25466E-02 0.16251E-02 0.10402E-02 0.68026E-03 0.41288E-03 0.21800E-03 0.98889E-04 0.48676E-04 0.32653E-04 0.34155E-04
 0.48529E-04 0.66683E-04 0.95857E-04 0.18959E-03 0.47054E-03 0.10928E-02 0.27947E-02 0.11476E-01 0.16779     0.97423    
 0.36896E-03 0.66176E-03 0.12253E-02 0.15973E-02 0.15366E-02 0.14838E-02 0.11864E-02 0.65516E-03 0.34177E-03 0.20543E-03
 0.16457E-03 0.10773E-03 0.48317E-04 0.25717E-04 0.18639E-04 0.22024E-04 0.42237E-04 0.11289E-03 0.24180E-03 0.35169E-03
 0.36494E-03 0.30069E-03 0.24771E-03 0.25948E-03 0.39153E-03 0.34343E-02 0.39298E-02 0.63130E-03 0.28202E-03 0.16135E-03
 0.11220E-03 0.83930E-04 0.50482E-04 0.25877E-04 0.17912E-04 0.19186E-04 0.18901E-04 0.14666E-04 0.12962E-04 0.15105E-04
 0.25810E-04 0.44618E-04 0.66811E-04 0.12478E-03 0.64577E-03 0.43474E-02 0.32302E-03 0.21353E-03 0.13291E-04 0.23070E-04
 0.50529E-04 0.11305E-03 0.19578E-03 0.24140E-03 0.14672E-03 0.59127E-04 0.35144E-04 0.43560E-04 0.64679E-04 0.48050E-04
 0.15773E-04 0.42918E-05 0.26396E-05 0.33799E-05 0.60614E-05 0.11420E-04 0.18305E-04 0.24520E-04 0.21960E-04 0.13255E-04
 0.95792E-05 0.94674E-05 0.14218E-05 0.57858E-05 0.20458E-03 0.65978E-04 0.15687E-04 0.77262E-05 0.56800E-05 0.53756E-05
 0.43015E-05 0.20748E-05 0.10323E-05 0.58479E-06 0.48557E-06 0.11933E-05 0.42348E-05 0.61353E-05 0.45909E-05 0.38646E-05
 0.75406E-05 0.30475E-04 0.18297E-03 0.56037E-05 0.16273E-05 0.99160E-06 0.84915E-06 0.83806E-06 0.11930E-05 0.35884E-05
 0.25696E-04 0.83739E-03 0.58790E-04 0.13469E-04 0.74659E-05 0.46456E-04 0.95091E-06 0.46556E-06 0.22427E-05 0.30830E-05
 0.76359E-06 0.63890E-06 0.75632E-06 0.17237E-05 0.26954E-05 0.21944E-05 0.89604E-06 0.38079E-06 0.32498E-06 0.54973E-06
 0.26068E-07 0.80748E-07 0.86515E-06 0.20841E-04 0.11013E-05 0.62889E-06 0.74404E-06 0.90557E-06 0.98764E-06 0.14196E-05
 0.34383E-02 0.13784E-05 0.34487E-05 0.79027E-03 0.12194E-04 0.64434E-05 0.42031E-05 0.26767E-05 0.34804E-05 0.13544E-04
 0.36764E-05 0.23636E-06 0.54807E-07 0.24766E-07 0.87891E-06 0.96950E-06 0.28178E-06 0.92422E-06 0.14863E-03 0.10363E-04
 0.31537E-04 0.94454E-04 0.19483E-03 0.48005E-05 0.43482E-06 0.22154E-06 0.48996E-06 0.77870E-03 0.13364E-05 0.97802E-06
 0.15215E-05 0.29953E-05 0.41587E-05 0.16782E-05 0.57586E-06 0.41219E-06 0.28111E-05 0.74696E-06 0.36651E-08 0.13891E-07
 0.26720E-06 0.11098E-03 0.37040E-05 0.18143E-05 0.15545E-05 0.18352E-05 0.20919E-05 0.21510E-04 0.24214E-05 0.75310E-06
 0.22816E-05 0.43727E-02 0.71792E-04 0.36442E-04 0.69500E-05 0.44705E-05 0.44341E-05 0.14119E-03 0.13638E-05 0.11926E-06
 0.18589E-07 0.48560E-08 0.35560E-08 0.17363E-07 0.13850E-04 0.90857E-06 0.69904E-04 0.44634E-05 0.14855E-04 0.17224E-01
 0.85794E-05 0.15184E-06 0.17289E-07 0.70728E-08 0.11609E-07 0.19125E-06 0.38672E-05 0.12290E-05 0.17821E-05 0.32843E-05
 0.64237E-05 0.50159E-05 0.14078E-04 0.64615E-06 0.23836E-07 0.45195E-08 0.81554E-09 0.25395E-08 0.43823E-07 0.10374E-04
 0.23914E-04 0.12257E-04 0.49295E-05 0.58589E-05 0.10231E-03 0.21649E-06 0.35625E-07 0.21152E-07 0.40338E-07 0.29916E-06
 0.10711E-04 0.32013E-04 0.53822E-05 0.41219E-05 0.47354E-05 0.95665E-03 0.44637E-06 0.44342E-07 0.58933E-08 0.12553E-08
 0.50764E-09 0.11104E-08 0.15188E-07 0.69422E-06 0.29100E-05 0.73106E-06 0.26696E-05 0.20060E-04 0.15783E-05 0.44629E-07
 0.54421E-08 0.31056E-08 0.49903E-08 0.41310E-07 0.16419E-03 0.13879E-05 0.23250E-05 0.44695E-05 0.69978E-05 0.11954E-04
 0.81889E-06 0.14222E-07 0.17042E-08 0.61387E-09 0.13041E-09 0.66359E-09 0.20275E-07 0.72761E-05 0.26484E-05 0.11490E-05
 0.10206E-04 0.13750E-02 0.25243E-05 0.74504E-07 0.14302E-07 0.96543E-08 0.17568E-07 0.12935E-06 0.41759E-05 0.29632E-04
 0.63337E-05 0.41038E-05 0.36191E-05 0.11652E-02 0.53354E-06 0.46828E-07 0.34150E-08 0.30789E-09 0.28303E-09 0.42225E-09
 0.43928E-08 0.91482E-06 0.19032E-05 0.51400E-06 0.30420E-05 0.64996E-03 0.19847E-05 0.17298E-07 0.67585E-09 0.85139E-10
 0.91336E-10 0.31431E-08 0.23665E-05 0.11674E-05 0.21726E-05 0.43968E-05 0.68746E-05 0.14504E-02 0.49218E-06 0.28372E-07
 0.25795E-08 0.54246E-09 0.24396E-09 0.79130E-09 0.13720E-07 0.44825E-05 0.13237E-05 0.48016E-06 0.21951E-05 0.44825E-04
 0.14344E-05 0.75447E-07 0.16576E-07 0.11313E-07 0.21219E-07 0.12505E-06 0.21787E-05 0.47016E-04 0.57828E-05 0.34393E-05
 0.27986E-05 0.10144E-04 0.94548E-06 0.70833E-07 0.56063E-08 0.58871E-09 0.93445E-09 0.12387E-08 0.82736E-08 0.11985E-04
 0.25993E-05 0.36370E-03 0.45796E-04 0.71067E-05 0.81436E-04 0.20462E-06 0.18314E-07 0.92704E-08 0.17555E-07 0.23539E-06
 0.27744E-05 0.13431E-05 0.27499E-05 0.57406E-05 0.81566E-05 0.68053E-03 0.59750E-06 0.57201E-07 0.81618E-08 0.18665E-08
 0.29416E-08 0.59616E-08 0.69196E-07 0.46207E-05 0.53374E-05 0.27270E-05 0.10914E-04 0.65613E-02 0.37576E-05 0.17236E-06
 0.36256E-07 0.21685E-07 0.35953E-07 0.18494E-06 0.35085E-05 0.27906E-04 0.44077E-05 0.29076E-05 0.24527E-05 0.24725E-05
 0.97165E-05 0.44368E-03 0.28233E-06 0.10651E-07 0.35425E-08 0.53284E-08 0.52446E-07 0.22301E-05 0.14123E-05 0.60494E-05
 0.35627E-05 0.24698E-05 0.18575E-05 0.64534E-05 0.12994E-05 0.45472E-06 0.23617E-04 0.42889E-06 0.43199E-06 0.10557E-05
 0.25829E-05 0.53452E-05 0.82819E-05 0.59273E-04 0.27116E-04 0.10308E-05 0.77477E-07 0.97997E-08 0.10491E-05 0.43204E-06
 0.60395E-05 0.19049E-02 0.59349E-05 0.49434E-05 0.17419E-03 0.30028E-04 0.18935E-03 0.56471E-06 0.10129E-06 0.69449E-07
 0.13538E-06 0.70228E-06 0.14154E-04 0.15935E-04 0.37059E-05 0.26463E-05 0.21261E-05 0.15289E-05 0.12181E-05 0.75385E-06
 0.36243E-06 0.80627E-06 0.20634E-07 0.31811E-07 0.31151E-06 0.17715E-05 0.58918E-06 0.85551E-06 0.12795E-05 0.10826E-05
 0.66547E-06 0.33612E-06 0.35603E-06 0.74097E-06 0.99152E-06 0.69784E-06 0.53019E-06 0.80498E-06 0.17665E-05 0.26644E-05
 0.47625E-05 0.98817E-05 0.17439E-03 0.55589E-05 0.26058E-06 0.44191E-07 0.56834E-06 0.15763E-05 0.45023E-05 0.38970E-04
 0.16633E-03 0.30284E-02 0.19566E-04 0.78065E-05 0.17930E-04 0.20731E-05 0.33471E-06 0.20922E-06 0.26870E-06 0.97450E-06
 0.61309E-04 0.66798E-05 0.19527E-05 0.19824E-05 0.20513E-05 0.24673E-05 0.25457E-05 0.17332E-05 0.68243E-06 0.39411E-06
 0.93049E-06 0.11870E-05 0.10767E-04 0.17673E-04 0.46932E-05 0.41932E-05 0.33786E-05 0.19072E-05 0.10749E-05 0.46032E-06
 0.20094E-06 0.11634E-06 0.11499E-06 0.24434E-06 0.64718E-06 0.18106E-05 0.56701E-05 0.11508E-04 0.19908E-04 0.49922E-04
 0.14403E-03 0.47215     0.16423E-04 0.21868E-05 0.93917E-05 0.13038E-04 0.33829E-04 0.15391E-03 0.53234E-03 0.13316E-03
 0.34809E-04 0.17958E-04 0.21204E-04 0.96596E-03 0.20069E-04 0.11994E-04 0.54444E-04 0.45054E-03 0.51018E-04 0.23794E-04
 0.17799E-04 0.22242E-04 0.31857E-04 0.38975E-04 0.47198E-04 0.44972E-04 0.23131E-04 0.11457E-04 0.26211E-03 0.54704E-03
 0.11379E-01 0.24102E-03 0.90261E-04 0.54131E-04 0.40407E-04 0.27887E-04 0.12146E-04 0.45467E-05 0.27598E-05 0.31403E-05
 0.54148E-05 0.88538E-05 0.13800E-04 0.26360E-04 0.56377E-04 0.10653E-03 0.17059E-03 0.28683E-03 0.51639E-03 0.13334E-02
 0.12550     0.57588E-03 0.31192E-03 0.34855E-03 0.55135E-03 0.91293E-03 0.86757E-03 0.51837E-03 0.27456E-03 0.12771E-03
 0.57140E-04 0.44395E-04 0.75931E-04 0.22234E-03 0.25374E-03 0.16549E-03 0.12759E-03 0.14800E-03 0.24287E-03 0.40296E-03
 0.60477E-03 0.72893E-03 0.84080E-03 0.94602E-03 0.71403E-03 0.41799E-03 0.11976     0.54060E-01 0.88833E-02 0.26570E-02
 0.13039E-02 0.74452E-03 0.38475E-03 0.16095E-03 0.72481E-04 0.40697E-04 0.25165E-04 0.18909E-04 0.21998E-04 0.39711E-04
 0.90879E-04 0.21417E-03 0.43854E-03 0.78867E-03 0.12800E-02 0.20344E-02 0.31009E-02 0.42628E-02 0.74880E-02 0.24797E-01
 0.65562E-02 0.65917E-02 0.68744E-02 0.62861E-02 0.41735E-02 0.21185E-02 0.87004E-03 0.34926E-03 0.17783E-03 0.12131E-03
 0.99150E-04 0.89318E-04 0.11065E-03 0.18075E-03 0.30824E-03 0.46914E-03 0.70774E-03 0.11746E-02 0.20603E-02 0.34046E-02
 0.51752E-02 0.71713E-02 0.81855E-02 0.74059E-02 0.53424E-01 0.41677E-01 0.24992E-01 0.14334E-01 0.78342E-02 0.38440E-02
 0.17453E-02 0.77980E-03 0.33568E-03 0.15403E-03 0.93594E-04 0.97104E-04 0.15755E-03 0.27896E-03 0.47129E-03 0.84586E-03
 0.16120E-02 0.29872E-02 0.52665E-02 0.90620E-02 0.14859E-01 0.22327E-01 0.32091E-01 0.45379E-01 0.51241E-01 0.47400E-01
 0.40558E-01 0.31180E-01 0.19994E-01 0.10397E-01 0.47698E-02 0.19650E-02 0.73247E-03 0.30320E-03 0.19534E-03 0.20880E-03
 0.30385E-03 0.49169E-03 0.86283E-03 0.17708E-02 0.38941E-02 0.79086E-02 0.13649E-01 0.21288E-01 0.31527E-01 0.42129E-01
 0.49185E-01 0.51946E-01 0.14689     0.13680     0.10542     0.70946E-01 0.42681E-01 0.22369E-01 0.98571E-02 0.36397E-02
 0.12501E-02 0.51501E-03 0.29684E-03 0.24742E-03 0.31272E-03 0.58450E-03 0.13260E-02 0.30488E-02 0.68128E-02 0.14146E-01
 0.26329E-01 0.44911E-01 0.68916E-01 0.93138E-01 0.11383     0.13369     0.26373     0.24410     0.20114     0.14417    
 0.88779E-01 0.45647E-01 0.18816E-01 0.64683E-02 0.22079E-02 0.90892E-03 0.49721E-03 0.39555E-03 0.51772E-03 0.10455E-02
 0.24282E-02 0.52868E-02 0.11122E-01 0.23796E-01 0.47850E-01 0.86700E-01 0.14086     0.19857     0.24124     0.26186    
 0.43607     0.40236     0.34132     0.25791     0.16713     0.87696E-01 0.35810E-01 0.12123E-01 0.39771E-02 0.14271E-02
 0.67574E-03 0.55909E-03 0.82863E-03 0.17109E-02 0.39271E-02 0.90365E-02 0.20764E-01 0.46481E-01 0.96053E-01 0.17370    
 0.27032     0.36081     0.42037     0.44340     0.60731     0.56650     0.49736     0.39904     0.27853     0.15773    
 0.69024E-01 0.24618E-01 0.77874E-02 0.24154E-02 0.10120E-02 0.84405E-03 0.12968E-02 0.25740E-02 0.59977E-02 0.15787E-01
 0.40548E-01 0.93806E-01 0.18785     0.31279     0.43618     0.53432     0.59602     0.61887     0.78375     0.74689    
 0.67527     0.56294     0.41213     0.24912     0.11912     0.45311E-01 0.14156E-01 0.41006E-02 0.15907E-02 0.12051E-02
 0.17138E-02 0.35033E-02 0.91132E-02 0.26538E-01 0.72202E-01 0.16875     0.32220     0.48828     0.61930     0.71015    
 0.76636     0.79020     0.88046     0.85329     0.79818     0.70197     0.55196     0.35925     0.18151     0.70958E-01
 0.22272E-01 0.65695E-02 0.25290E-02 0.16899E-02 0.21813E-02 0.48396E-02 0.13975E-01 0.41694E-01 0.11480     0.26648    
 0.47572     0.65693     0.77405     0.84112     0.87545     0.88727     0.92677     0.90701     0.86638     0.79052    
 0.65967     0.46581     0.25344     0.10194     0.32378E-01 0.98634E-02 0.37809E-02 0.22920E-02 0.27616E-02 0.64727E-02
 0.19869E-01 0.60260E-01 0.16886     0.38102     0.61923     0.78344     0.87053     0.91178     0.92933     0.93340    
 0.95117     0.93558     0.90328     0.83992     0.72423     0.54253     0.32335     0.14280     0.48351E-01 0.15266E-01
 0.57342E-02 0.32608E-02 0.37015E-02 0.84112E-02 0.26097E-01 0.82656E-01 0.23554     0.49742     0.73075     0.86061    
 0.92044     0.94626     0.95612     0.95722     0.95768     0.94175     0.91222     0.85710     0.75469     0.58724    
 0.37683     0.18719     0.71402E-01 0.24051E-01 0.89505E-02 0.48545E-02 0.51252E-02 0.10546E-01 0.31969E-01 0.10695    
 0.30607     0.59635     0.80467     0.90313     0.94492     0.96191     0.96716     0.96548     0.93732     0.91122    
 0.87825     0.83265     0.75251     0.60915     0.41274     0.22520     0.97825E-01 0.36535E-01 0.14080E-01 0.74315E-02
 0.71619E-02 0.12789E-01 0.36422E-01 0.12601     0.36092     0.66150     0.84554     0.92401     0.95488     0.96512    
 0.96441     0.95521     0.82975     0.77163     0.75490     0.75371     0.72118     0.61780     0.44379     0.26273    
 0.12871     0.54075E-01 0.22237E-01 0.11528E-01 0.10011E-01 0.15359E-01 0.39368E-01 0.13393     0.38429     0.68696    
 0.85975     0.92993     0.95439     0.95670     0.94069     0.89847     0.48905     0.43914     0.53815     0.65261    
 0.69178     0.63206     0.48463     0.31331     0.17187     0.80686E-01 0.35780E-01 0.18378E-01 0.14257E-01 0.18651E-01
 0.41442E-01 0.13069     0.37248     0.67404     0.85081     0.92301     0.94405     0.93312     0.87126     0.70047    
 0.21212     0.31644     0.56126     0.72647     0.76780     0.71522     0.59235     0.43922     0.28525     0.16387    
 0.89549E-01 0.50807E-01 0.34215E-01 0.31770E-01 0.46240E-01 0.10288     0.26388     0.53259     0.75359     0.86277    
 0.88999     0.84431     0.65682     0.34121     0.28291     0.49576     0.73620     0.83328     0.83987     0.78265    
 0.67388     0.52980     0.36830     0.23091     0.13902     0.83855E-01 0.53736E-01 0.42238E-01 0.50149E-01 0.93852E-01
 0.22023     0.45420     0.68243     0.81065     0.84177     0.77532     0.56001     0.31145     0.51197     0.71922    
 0.85205     0.88976     0.87525     0.81947     0.72605     0.59157     0.43321     0.29526     0.19691     0.13146    
 0.88139E-01 0.63942E-01 0.61975E-01 0.90592E-01 0.17726     0.35576     0.57298     0.72306     0.77275     0.72137    
 0.57326     0.44717     0.68019     0.81156     0.88196     0.89622     0.87571     0.82742     0.74416     0.61933    
 0.48135     0.36313     0.27155     0.20260     0.14821     0.10843     0.91772E-01 0.10328     0.15304     0.26518    
 0.43567     0.58996     0.66932     0.66611     0.61057     0.58955     0.71642     0.80981     0.85914     0.86854    
 0.85186     0.80772     0.72607     0.62120     0.52684     0.44882     0.37804     0.31194     0.24879     0.19348    
 0.15787     0.14743     0.16287     0.21439     0.31285     0.43159     0.52220     0.56797     0.58677     0.62681    
 0.64718     0.73810     0.79297     0.81223     0.80011     0.75334     0.68368     0.62579     0.59204     0.56125    
 0.51739     0.45949     0.39271     0.32839     0.27754     0.24278     0.22148     0.21826     0.24482     0.30004    
 0.36332     0.42033     0.47617     0.54968     0.51594     0.61829     0.68853     0.71780     0.70869     0.67622    
 0.65380     0.66160     0.68056     0.68419     0.66439     0.62064     0.55824     0.49353     0.43789     0.38749    
 0.33419     0.27842     0.23713     0.22476     0.23892     0.27280     0.32773     0.41019     0.36388     0.46523    
 0.54025     0.57969     0.59503     0.61321     0.65747     0.71741     0.76434     0.78726     0.78446     0.74983    
 0.68775     0.62521     0.57989     0.53636     0.47258     0.38159     0.27974     0.20258     0.16520     0.16299    
 0.19516     0.26496     0.21506     0.29936     0.37304     0.43278     0.49328     0.57344     0.67236     0.76198    
 0.82314     0.85398     0.85025     0.80273     0.71808     0.64924     0.63165     0.62817     0.58871     0.49300    
 0.35432     0.22031     0.13584     0.10110     0.10411     0.14320     0.10662     0.16482     0.23167     0.30831    
 0.40805     0.53731     0.67442     0.78489     0.85357     0.87813     0.85492     0.76385     0.61566     0.53550    
 0.57678     0.64649     0.65741     0.58274     0.43434     0.26238     0.13630     0.75594E-01 0.58051E-01 0.68993E-01
 0.50799E-01 0.82828E-01 0.13506     0.21520     0.33692     0.49712     0.65992     0.78488     0.85107     0.85632    
 0.78680     0.59129     0.36300     0.32539     0.46963     0.63551     0.69709     0.64756     0.50545     0.31853    
 0.16110     0.75336E-01 0.42730E-01 0.37532E-01 0.30399E-01 0.44070E-01 0.78743E-01 0.15006     0.27616     0.45011    
 0.62703     0.75781     0.81236     0.78053     0.61808     0.31996     0.15800     0.20907     0.44790     0.67066    
 0.74472     0.70293     0.56856     0.38295     0.20962     0.98903E-01 0.48194E-01 0.30801E-01 0.29455E-01 0.31193E-01
 0.50212E-01 0.10339     0.21661     0.39086     0.57569     0.70949     0.75188     0.68026     0.45709     0.20782    
 0.14687     0.29412     0.59357     0.76813     0.80556     0.75276     0.62168     0.44354     0.26896     0.14350    
 0.74050E-01 0.41444E-01 0.46809E-01 0.35644E-01 0.42340E-01 0.76913E-01 0.16581     0.32613     0.51347     0.65451    
 0.70186     0.63592     0.45936     0.30231     0.32917     0.55931     0.77167     0.85006     0.84826     0.78306    
 0.65699     0.49188     0.32919     0.20593     0.12626     0.76098E-01 0.97281E-01 0.63299E-01 0.54866E-01 0.74330E-01
 0.13799     0.26860     0.44350     0.59175     0.66304     0.64534     0.56444     0.51244     0.59203     0.75134    
 0.85113     0.87806     0.85515     0.78619     0.67354     0.53262     0.39864     0.29525     0.21750     0.15206    
 0.19899     0.13134     0.96286E-01 0.96360E-01 0.13452     0.22445     0.36422     0.50546     0.59961     0.63393    
 0.63032     0.64302     0.71346     0.80322     0.85406     0.85925     0.82842     0.76592     0.67351     0.56918    
 0.48214     0.41610     0.35376     0.28044     0.34496     0.24831     0.18155     0.15298     0.15955     0.20291    
 0.28761     0.39551     0.48878     0.55159     0.59201     0.63489     0.69754     0.76086     0.79573     0.79752    
 0.77296     0.72388     0.65937     0.60745     0.58163     0.56137     0.51995     0.44492     0.49811     0.39214    
 0.31008     0.25697     0.22720     0.21945     0.23988     0.28923     0.35059     0.40666     0.45775     0.51307    
 0.57744     0.63918     0.68110     0.69828     0.69167     0.66800     0.65257     0.66714     0.69524     0.70298    
 0.67282     0.60132     0.63339     0.53453     0.45869     0.40126     0.34573     0.28771     0.24081     0.22263    
 0.23250     0.25830     0.29565     0.34773     0.41249     0.47913     0.53558     0.57629     0.60192     0.62825    
 0.67855     0.74452     0.79118     0.80314     0.78236     0.72555     0.71305     0.62303     0.57762     0.55197    
 0.50242     0.41313     0.30125     0.21182     0.16710     0.15596     0.16938     0.20727     0.26412     0.32812    
 0.39349     0.46111     0.53331     0.62087     0.72166     0.80305     0.84732     0.86322     0.85325     0.80454    
 0.69118     0.60055     0.61211     0.65719     0.65361     0.57107     0.41891     0.25634     0.15215     0.10658    
 0.97447E-01 0.11629     0.15806     0.21369     0.28255     0.37233     0.48660     0.62059     0.74388     0.82662    