PROCAR lm decomposed
# of k-points:    3         # of bands:  34         # of ions:  13

 k-point    1 :    0.00000000 0.00000000 0.00000000     weight = 0.20000000

band   1 # energy  -14.05896769 # occ.  2.00000000
 
ion      s     py     pz     px    dxy    dyz    dz2    dxz    dx2    tot
  1  0.005  0.000  0.000  0.000  0.000  0.000  0.000  0.000  0.000  0.006
  2  0.020  0.000  0.002  0.000  0.000  0.000  0.000  0.000  0.000  0.022
  3  0.054  0.001  0.001  0.000  0.000  0.000  0.000  0.000  0.000  0.055
  4  0.054  0.001  0.001  0.000  0.000  0.000  0.000  0.000  0.000  0.055
  5  0.111  0.000  0.000  0.000  0.000  0.000  0.000  0.000  0.000  0.111
  6  0.020  0.002  0.000  0.000  0.000  0.000  0.000  0.000  0.000  0.022
  7  0.054  0.001  0.001  0.000  0.000  0.000  0.000  0.000  0.000  0.055
  8  0.054  0.001  0.001  0.000  0.000  0.000  0.000  0.000  0.000  0.055
  9  0.005  0.000  0.000  0.000  0.000  0.000  0.000  0.000  0.000  0.006
 10  0.020  0.000  0.002  0.000  0.000  0.000  0.000  0.000  0.000  0.022
 11  0.005  0.000  0.000  0.000  0.000  0.000  0.000  0.000  0.000  0.006
 12  0.020  0.002  0.000  0.000  0.000  0.000  0.000  0.000  0.000  0.022
 13  0.005  0.000  0.000  0.000  0.000  0.000  0.000  0.000  0.000  0.006
tot  0.428  0.007  0.007  0.001  0.000  0.000  0.000  0.000  0.000  0.444
 
band   2 # energy  -12.60590327 # occ.  2.00000000
 
ion      s     py     pz     px    dxy    dyz    dz2    dxz    dx2    tot
  1  0.034  0.001  0.001  0.001  0.000  0.000  0.000  0.000  0.000  0.038
  2  0.030  0.001  0.002  0.001  0.000  0.000  0.000  0.000  0.000  0.033
  3  0.116  0.000  0.000  0.000  0.000  0.000  0.000  0.000  0.000  0.116
  4  0.000  0.001  0.001  0.000  0.000  0.000  0.000  0.000  0.000  0.003
  5  0.000  0.005  0.005  0.000  0.000  0.000  0.000  0.000  0.000  0.010
  6  0.030  0.002  0.001  0.001  0.000  0.000  0.000  0.000  0.000  0.033
  7  0.116  0.000  0.000  0.000  0.000  0.000  0.000  0.000  0.000  0.116
  8  0.000  0.001  0.001  0.000  0.000  0.000  0.000  0.000  0.000  0.003
  9  0.000  0.000  0.000  0.000  0.000  0.000  0.000  0.000  0.000  0.000
 10  0.030  0.001  0.002  0.001  0.000  0.000  0.000  0.000  0.000  0.033
 11  0.000  0.000  0.000  0.000  0.000  0.000  0.000  0.000  0.000  0.000
 12  0.030  0.002  0.001  0.001  0.000  0.000  0.000  0.000  0.000  0.033
 13  0.034  0.001  0.001  0.001  0.000  0.000  0.000  0.000  0.000  0.038
tot  0.421  0.016  0.016  0.004  0.000  0.000  0.000  0.000  0.000  0.458
 
band   3 # energy  -12.60584878 # occ.  2.00000000
 
ion      s     py     pz     px    dxy    dyz    dz2    dxz    dx2    tot
  1  0.000  0.000  0.000  0.000  0.000  0.000  0.000  0.000  0.000  0.000
  2  0.030  0.001  0.002  0.001  0.000  0.000  0.000  0.000  0.000  0.033
  3  0.000  0.001  0.001  0.000  0.000  0.000  0.000  0.000  0.000  0.003
  4  0.116  0.000  0.000  0.000  0.000  0.000  0.000  0.000  0.000  0.116
  5  0.000  0.005  0.005  0.000  0.000  0.000  0.000  0.000  0.000  0.010
  6  0.030  0.002  0.001  0.001  0.000  0.000  0.000  0.000  0.000  0.033
  7  0.000  0.001  0.001  0.000  0.000  0.000  0.000  0.000  0.000  0.003
  8  0.116  0.000  0.000  0.000  0.000  0.000  0.000  0.000  0.000  0.116
  9  0.034  0.001  0.001  0.001  0.000  0.000  0.000  0.000  0.000  0.038
 10  0.030  0.001  0.002  0.001  0.000  0.000  0.000  0.000  0.000  0.033
 11  0.034  0.001  0.001  0.001  0.000  0.000  0.000  0.000  0.000  0.038
 12  0.030  0.002  0.001  0.001  0.000  0.000  0.000  0.000  0.000  0.033
 13  0.000  0.000  0.000  0.000  0.000  0.000  0.000  0.000  0.000  0.000
tot  0.421  0.016  0.016  0.004  0.000  0.000  0.000  0.000  0.000  0.458
 
band   4 # energy  -11.65699095 # occ.  2.00000000
 
ion      s     py     pz     px    dxy    dyz    dz2    dxz    dx2    tot
  1  0.040  0.001  0.001  0.001  0.000  0.000  0.000  0.000  0.000  0.044
  2  0.000  0.004  0.000  0.002  0.000  0.000  0.000  0.000  0.000  0.006
  3  0.067  0.001  0.001  0.000  0.000  0.000  0.000  0.000  0.000  0.068
  4  0.067  0.001  0.001  0.000  0.000  0.000  0.000  0.000  0.000  0.068
  5  0.000  0.000  0.000  0.008  0.000  0.000  0.000  0.000  0.000  0.008
  6  0.000  0.000  0.004  0.002  0.000  0.000  0.000  0.000  0.000  0.006
  7  0.067  0.001  0.001  0.000  0.000  0.000  0.000  0.000  0.000  0.068
  8  0.067  0.001  0.001  0.000  0.000  0.000  0.000  0.000  0.000  0.068
  9  0.040  0.001  0.001  0.001  0.000  0.000  0.000  0.000  0.000  0.044
 10  0.000  0.004  0.000  0.002  0.000  0.000  0.000  0.000  0.000  0.006
 11  0.040  0.001  0.001  0.001  0.000  0.000  0.000  0.000  0.000  0.044
 12  0.000  0.000  0.004  0.002  0.000  0.000  0.000  0.000  0.000  0.006
 13  0.040  0.001  0.001  0.001  0.000  0.000  0.000  0.000  0.000  0.044
tot  0.427  0.014  0.014  0.024  0.000  0.000  0.000  0.000  0.000  0.479
 
band   5 # energy  -10.71556125 # occ.  2.00000000
 
ion      s     py     pz     px    dxy    dyz    dz2    dxz    dx2    tot
  1  0.015  0.000  0.000  0.000  0.000  0.000  0.000  0.000  0.000  0.016
  2  0.029  0.000  0.000  0.000  0.000  0.000  0.000  0.000  0.000  0.029
  3  0.001  0.006  0.006  0.007  0.000  0.000  0.000  0.000  0.000  0.019
  4  0.001  0.006  0.006  0.007  0.000  0.000  0.000  0.000  0.000  0.019
  5  0.229  0.000  0.000  0.000  0.000  0.000  0.000  0.000  0.000  0.229
  6  0.029  0.000  0.000  0.000  0.000  0.000  0.000  0.000  0.000  0.029
  7  0.001  0.006  0.006  0.007  0.000  0.000  0.000  0.000  0.000  0.019
  8  0.001  0.006  0.006  0.007  0.000  0.000  0.000  0.000  0.000  0.019
  9  0.015  0.000  0.000  0.000  0.000  0.000  0.000  0.000  0.000  0.016
 10  0.029  0.000  0.000  0.000  0.000  0.000  0.000  0.000  0.000  0.029
 11  0.015  0.000  0.000  0.000  0.000  0.000  0.000  0.000  0.000  0.016
 12  0.029  0.000  0.000  0.000  0.000  0.000  0.000  0.000  0.000  0.029
 13  0.015  0.000  0.000  0.000  0.000  0.000  0.000  0.000  0.000  0.016
tot  0.409  0.023  0.023  0.028  0.000  0.000  0.000  0.000  0.000  0.482
 
band   6 # energy  -10.18927105 # occ.  2.00000000
 
ion      s     py     pz     px    dxy    dyz    dz2    dxz    dx2    tot
  1  0.000  0.000  0.000  0.000  0.000  0.000  0.000  0.000  0.000  0.000
  2  0.100  0.000  0.001  0.000  0.000  0.000  0.000  0.000  0.000  0.101
  3  0.000  0.008  0.008  0.000  0.000  0.000  0.000  0.000  0.000  0.016
  4  0.000  0.008  0.008  0.000  0.000  0.000  0.000  0.000  0.000  0.016
  5  0.000  0.000  0.000  0.000  0.000  0.000  0.000  0.000  0.000  0.000
  6  0.100  0.001  0.000  0.000  0.000  0.000  0.000  0.000  0.000  0.101
  7  0.000  0.008  0.008  0.000  0.000  0.000  0.000  0.000  0.000  0.016
  8  0.000  0.008  0.008  0.000  0.000  0.000  0.000  0.000  0.000  0.016
  9  0.000  0.000  0.000  0.000  0.000  0.000  0.000  0.000  0.000  0.000
 10  0.100  0.000  0.001  0.000  0.000  0.000  0.000  0.000  0.000  0.101
 11  0.000  0.000  0.000  0.000  0.000  0.000  0.000  0.000  0.000  0.000
 12  0.100  0.001  0.000  0.000  0.000  0.000  0.000  0.000  0.000  0.101
 13  0.000  0.000  0.000  0.000  0.000  0.000  0.000  0.000  0.000  0.000
tot  0.401  0.036  0.036  0.000  0.000  0.000  0.000  0.000  0.000  0.473
 
band   7 # energy   -9.90446721 # occ.  2.00000000
 
ion      s     py     pz     px    dxy    dyz    dz2    dxz    dx2    tot
  1  0.077  0.000  0.000  0.000  0.000  0.000  0.000  0.000  0.000  0.078
  2  0.025  0.000  0.002  0.000  0.000  0.000  0.000  0.000  0.000  0.027
  3  0.000  0.002  0.002  0.012  0.000  0.000  0.000  0.000  0.000  0.015
  4  0.000  0.002  0.002  0.012  0.000  0.000  0.000  0.000  0.000  0.015
  5  0.004  0.000  0.000  0.000  0.000  0.000  0.000  0.000  0.000  0.004
  6  0.025  0.002  0.000  0.000  0.000  0.000  0.000  0.000  0.000  0.027
  7  0.000  0.002  0.002  0.012  0.000  0.000  0.000  0.000  0.000  0.015
  8  0.000  0.002  0.002  0.012  0.000  0.000  0.000  0.000  0.000  0.015
  9  0.076  0.000  0.000  0.000  0.000  0.000  0.000  0.000  0.000  0.078
 10  0.025  0.000  0.002  0.000  0.000  0.000  0.000  0.000  0.000  0.027
 11  0.076  0.000  0.000  0.000  0.000  0.000  0.000  0.000  0.000  0.078
 12  0.025  0.002  0.000  0.000  0.000  0.000  0.000  0.000  0.000  0.027
 13  0.076  0.000  0.000  0.000  0.000  0.000  0.000  0.000  0.000  0.078
tot  0.411  0.013  0.013  0.048  0.000  0.000  0.000  0.000  0.000  0.484
 
band   8 # energy   -9.84082624 # occ.  2.00000000
 
ion      s     py     pz     px    dxy    dyz    dz2    dxz    dx2    tot
  1  0.000  0.000  0.000  0.000  0.000  0.000  0.000  0.000  0.000  0.000
  2  0.040  0.000  0.001  0.000  0.000  0.000  0.000  0.000  0.000  0.041
  3  0.000  0.004  0.004  0.000  0.000  0.000  0.000  0.000  0.000  0.008
  4  0.000  0.004  0.004  0.012  0.000  0.000  0.000  0.000  0.000  0.019
  5  0.000  0.000  0.000  0.000  0.000  0.000  0.000  0.000  0.000  0.000
  6  0.040  0.001  0.000  0.000  0.000  0.000  0.000  0.000  0.000  0.041
  7  0.000  0.004  0.004  0.000  0.000  0.000  0.000  0.000  0.000  0.008
  8  0.000  0.004  0.004  0.012  0.000  0.000  0.000  0.000  0.000  0.019
  9  0.135  0.001  0.001  0.001  0.000  0.000  0.000  0.000  0.000  0.138
 10  0.040  0.000  0.001  0.000  0.000  0.000  0.000  0.000  0.000  0.041
 11  0.135  0.001  0.001  0.001  0.000  0.000  0.000  0.000  0.000  0.138
 12  0.040  0.001  0.000  0.000  0.000  0.000  0.000  0.000  0.000  0.041
 13  0.000  0.000  0.000  0.000  0.000  0.000  0.000  0.000  0.000  0.000
tot  0.431  0.019  0.019  0.027  0.000  0.000  0.000  0.000  0.000  0.495
 
band   9 # energy   -9.84082340 # occ.  2.00000000
 
ion      s     py     pz     px    dxy    dyz    dz2    dxz    dx2    tot
  1  0.135  0.001  0.001  0.001  0.000  0.000  0.000  0.000  0.000  0.137
  2  0.040  0.000  0.001  0.000  0.000  0.000  0.000  0.000  0.000  0.041
  3  0.000  0.004  0.004  0.012  0.000  0.000  0.000  0.000  0.000  0.019
  4  0.000  0.004  0.004  0.000  0.000  0.000  0.000  0.000  0.000  0.008
  5  0.000  0.000  0.000  0.000  0.000  0.000  0.000  0.000  0.000  0.000
  6  0.040  0.001  0.000  0.000  0.000  0.000  0.000  0.000  0.000  0.041
  7  0.000  0.004  0.004  0.012  0.000  0.000  0.000  0.000  0.000  0.019
  8  0.000  0.004  0.004  0.000  0.000  0.000  0.000  0.000  0.000  0.008
  9  0.000  0.000  0.000  0.000  0.000  0.000  0.000  0.000  0.000  0.000
 10  0.040  0.000  0.001  0.000  0.000  0.000  0.000  0.000  0.000  0.041
 11  0.000  0.000  0.000  0.000  0.000  0.000  0.000  0.000  0.000  0.000
 12  0.040  0.001  0.000  0.000  0.000  0.000  0.000  0.000  0.000  0.041
 13  0.136  0.001  0.001  0.001  0.000  0.000  0.000  0.000  0.000  0.138
tot  0.431  0.019  0.019  0.027  0.000  0.000  0.000  0.000  0.000  0.495
 
band  10 # energy   -8.99813680 # occ.  2.00000000
 
ion      s     py     pz     px    dxy    dyz    dz2    dxz    dx2    tot
  1  0.062  0.000  0.000  0.000  0.000  0.000  0.000  0.000  0.000  0.062
  2  0.000  0.001  0.000  0.005  0.000  0.000  0.000  0.000  0.000  0.006
  3  0.033  0.004  0.004  0.002  0.000  0.000  0.000  0.000  0.000  0.042
  4  0.033  0.004  0.004  0.002  0.000  0.000  0.000  0.000  0.000  0.042
  5  0.000  0.000  0.000  0.033  0.000  0.000  0.000  0.000  0.000  0.033
  6  0.000  0.000  0.001  0.005  0.000  0.000  0.000  0.000  0.000  0.006
  7  0.033  0.004  0.004  0.002  0.000  0.000  0.000  0.000  0.000  0.042
  8  0.033  0.004  0.004  0.002  0.000  0.000  0.000  0.000  0.000  0.042
  9  0.062  0.000  0.000  0.000  0.000  0.000  0.000  0.000  0.000  0.062
 10  0.000  0.001  0.000  0.005  0.000  0.000  0.000  0.000  0.000  0.006
 11  0.062  0.000  0.000  0.000  0.000  0.000  0.000  0.000  0.000  0.062
 12  0.000  0.000  0.001  0.005  0.000  0.000  0.000  0.000  0.000  0.006
 13  0.062  0.000  0.000  0.000  0.000  0.000  0.000  0.000  0.000  0.062
tot  0.380  0.017  0.017  0.060  0.000  0.000  0.000  0.000  0.000  0.474
 
band  11 # energy   -7.99805549 # occ.  2.00000000
 
ion      s     py     pz     px    dxy    dyz    dz2    dxz    dx2    tot
  1  0.000  0.000  0.000  0.000  0.000  0.000  0.000  0.000  0.000  0.001
  2  0.027  0.002  0.001  0.006  0.000  0.000  0.000  0.000  0.000  0.036
  3  0.000  0.006  0.006  0.000  0.000  0.000  0.000  0.000  0.000  0.013
  4  0.078  0.003  0.003  0.002  0.000  0.000  0.000  0.000  0.000  0.085
  5  0.000  0.013  0.013  0.000  0.000  0.000  0.000  0.000  0.000  0.027
  6  0.027  0.001  0.002  0.006  0.000  0.000  0.000  0.000  0.000  0.036
  7  0.000  0.006  0.006  0.000  0.000  0.000  0.000  0.000  0.000  0.013
  8  0.078  0.003  0.003  0.002  0.000  0.000  0.000  0.000  0.000  0.085
  9  0.047  0.002  0.002  0.001  0.000  0.000  0.000  0.000  0.000  0.052
 10  0.027  0.002  0.001  0.006  0.000  0.000  0.000  0.000  0.000  0.036
 11  0.047  0.002  0.002  0.001  0.000  0.000  0.000  0.000  0.000  0.052
 12  0.027  0.001  0.002  0.006  0.000  0.000  0.000  0.000  0.000  0.036
 13  0.000  0.000  0.000  0.000  0.000  0.000  0.000  0.000  0.000  0.001
tot  0.361  0.042  0.042  0.030  0.000  0.000  0.000  0.000  0.000  0.474
 
band  12 # energy   -7.99804334 # occ.  2.00000000
 
ion      s     py     pz     px    dxy    dyz    dz2    dxz    dx2    tot
  1  0.047  0.002  0.002  0.001  0.000  0.000  0.000  0.000  0.000  0.052
  2  0.027  0.002  0.001  0.006  0.000  0.000  0.000  0.000  0.000  0.036
  3  0.078  0.003  0.003  0.002  0.000  0.000  0.000  0.000  0.000  0.085
  4  0.000  0.006  0.006  0.000  0.000  0.000  0.000  0.000  0.000  0.013
  5  0.000  0.013  0.013  0.000  0.000  0.000  0.000  0.000  0.000  0.027
  6  0.027  0.001  0.002  0.006  0.000  0.000  0.000  0.000  0.000  0.036
  7  0.078  0.003  0.003  0.002  0.000  0.000  0.000  0.000  0.000  0.085
  8  0.000  0.006  0.006  0.000  0.000  0.000  0.000  0.000  0.000  0.013
  9  0.000  0.000  0.000  0.000  0.000  0.000  0.000  0.000  0.000  0.001
 10  0.027  0.002  0.001  0.006  0.000  0.000  0.000  0.000  0.000  0.036
 11  0.000  0.000  0.000  0.000  0.000  0.000  0.000  0.000  0.000  0.001
 12  0.027  0.001  0.002  0.006  0.000  0.000  0.000  0.000  0.000  0.036
 13  0.047  0.002  0.002  0.001  0.000  0.000  0.000  0.000  0.000  0.052
tot  0.361  0.042  0.042  0.030  0.000  0.000  0.000  0.000  0.000  0.474
 
band  13 # energy   -6.38258414 # occ.  2.00000000
 
ion      s     py     pz     px    dxy    dyz    dz2    dxz    dx2    tot
  1  0.000  0.001  0.001  0.000  0.000  0.000  0.000  0.000  0.000  0.002
  2  0.001  0.010  0.000  0.008  0.000  0.000  0.000  0.000  0.000  0.019
  3  0.000  0.014  0.014  0.000  0.000  0.000  0.000  0.000  0.000  0.027
  4  0.001  0.008  0.008  0.044  0.000  0.000  0.000  0.000  0.000  0.061
  5  0.000  0.045  0.045  0.000  0.000  0.000  0.000  0.000  0.000  0.090
  6  0.001  0.000  0.010  0.008  0.000  0.000  0.000  0.000  0.000  0.019
  7  0.000  0.014  0.014  0.000  0.000  0.000  0.000  0.000  0.000  0.027
  8  0.001  0.008  0.008  0.044  0.000  0.000  0.000  0.000  0.000  0.061
  9  0.000  0.001  0.001  0.003  0.000  0.000  0.000  0.000  0.000  0.005
 10  0.001  0.010  0.000  0.008  0.000  0.000  0.000  0.000  0.000  0.019
 11  0.000  0.001  0.001  0.003  0.000  0.000  0.000  0.000  0.000  0.005
 12  0.001  0.000  0.010  0.008  0.000  0.000  0.000  0.000  0.000  0.019
 13  0.000  0.001  0.001  0.000  0.000  0.000  0.000  0.000  0.000  0.002
tot  0.007  0.112  0.112  0.125  0.000  0.000  0.000  0.000  0.000  0.357
 
band  14 # energy   -6.38258294 # occ.  2.00000000
 
ion      s     py     pz     px    dxy    dyz    dz2    dxz    dx2    tot
  1  0.000  0.001  0.001  0.003  0.000  0.000  0.000  0.000  0.000  0.005
  2  0.001  0.010  0.000  0.008  0.000  0.000  0.000  0.000  0.000  0.019
  3  0.001  0.008  0.008  0.044  0.000  0.000  0.000  0.000  0.000  0.061
  4  0.000  0.014  0.014  0.000  0.000  0.000  0.000  0.000  0.000  0.027
  5  0.000  0.045  0.045  0.000  0.000  0.000  0.000  0.000  0.000  0.090
  6  0.001  0.000  0.010  0.008  0.000  0.000  0.000  0.000  0.000  0.019
  7  0.001  0.008  0.008  0.044  0.000  0.000  0.000  0.000  0.000  0.061
  8  0.000  0.014  0.014  0.000  0.000  0.000  0.000  0.000  0.000  0.027
  9  0.000  0.001  0.001  0.000  0.000  0.000  0.000  0.000  0.000  0.002
 10  0.001  0.010  0.000  0.008  0.000  0.000  0.000  0.000  0.000  0.019
 11  0.000  0.001  0.001  0.000  0.000  0.000  0.000  0.000  0.000  0.002
 12  0.001  0.000  0.010  0.008  0.000  0.000  0.000  0.000  0.000  0.019
 13  0.000  0.001  0.001  0.003  0.000  0.000  0.000  0.000  0.000  0.005
tot  0.007  0.112  0.112  0.125  0.000  0.000  0.000  0.000  0.000  0.357
 
band  15 # energy   -5.91908516 # occ.  2.00000000
 
ion      s     py     pz     px    dxy    dyz    dz2    dxz    dx2    tot
  1  0.010  0.001  0.001  0.001  0.000  0.000  0.000  0.000  0.000  0.012
  2  0.000  0.019  0.000  0.000  0.000  0.000  0.000  0.000  0.000  0.019
  3  0.000  0.011  0.011  0.013  0.000  0.000  0.000  0.000  0.000  0.037
  4  0.000  0.011  0.011  0.013  0.000  0.000  0.000  0.000  0.000  0.037
  5  0.000  0.000  0.000  0.094  0.000  0.000  0.000  0.000  0.000  0.094
  6  0.000  0.000  0.019  0.000  0.000  0.000  0.000  0.000  0.000  0.019
  7  0.000  0.011  0.011  0.013  0.000  0.000  0.000  0.000  0.000  0.037
  8  0.000  0.011  0.011  0.013  0.000  0.000  0.000  0.000  0.000  0.037
  9  0.010  0.001  0.001  0.001  0.000  0.000  0.000  0.000  0.000  0.012
 10  0.000  0.019  0.000  0.000  0.000  0.000  0.000  0.000  0.000  0.019
 11  0.010  0.001  0.001  0.001  0.000  0.000  0.000  0.000  0.000  0.012
 12  0.000  0.000  0.019  0.000  0.000  0.000  0.000  0.000  0.000  0.019
 13  0.010  0.001  0.001  0.001  0.000  0.000  0.000  0.000  0.000  0.012
tot  0.042  0.087  0.087  0.151  0.000  0.000  0.000  0.000  0.000  0.367
 
band  16 # energy   -5.62507473 # occ.  2.00000000
 
ion      s     py     pz     px    dxy    dyz    dz2    dxz    dx2    tot
  1  0.012  0.007  0.007  0.013  0.000  0.000  0.000  0.000  0.000  0.040
  2  0.015  0.000  0.002  0.000  0.000  0.000  0.000  0.000  0.000  0.018
  3  0.033  0.006  0.006  0.001  0.000  0.000  0.000  0.000  0.000  0.045
  4  0.033  0.006  0.006  0.001  0.000  0.000  0.000  0.000  0.000  0.045
  5  0.030  0.000  0.000  0.000  0.000  0.000  0.000  0.000  0.000  0.030
  6  0.015  0.002  0.000  0.000  0.000  0.000  0.000  0.000  0.000  0.018
  7  0.033  0.006  0.006  0.001  0.000  0.000  0.000  0.000  0.000  0.045
  8  0.033  0.006  0.006  0.001  0.000  0.000  0.000  0.000  0.000  0.045
  9  0.012  0.007  0.007  0.013  0.000  0.000  0.000  0.000  0.000  0.040
 10  0.015  0.000  0.002  0.000  0.000  0.000  0.000  0.000  0.000  0.018
 11  0.012  0.007  0.007  0.013  0.000  0.000  0.000  0.000  0.000  0.040
 12  0.015  0.002  0.000  0.000  0.000  0.000  0.000  0.000  0.000  0.018
 13  0.012  0.007  0.007  0.013  0.000  0.000  0.000  0.000  0.000  0.040
tot  0.269  0.057  0.057  0.057  0.000  0.000  0.000  0.000  0.000  0.441
 
band  17 # energy   -5.56079811 # occ.  2.00000000
 
ion      s     py     pz     px    dxy    dyz    dz2    dxz    dx2    tot
  1  0.000  0.002  0.002  0.000  0.000  0.000  0.000  0.000  0.000  0.004
  2  0.000  0.016  0.000  0.030  0.000  0.000  0.000  0.000  0.000  0.046
  3  0.000  0.023  0.023  0.000  0.000  0.000  0.000  0.000  0.000  0.046
  4  0.000  0.023  0.023  0.000  0.000  0.000  0.000  0.000  0.000  0.046
  5  0.000  0.000  0.000  0.000  0.000  0.000  0.000  0.000  0.000  0.000
  6  0.000  0.000  0.016  0.030  0.000  0.000  0.000  0.000  0.000  0.046
  7  0.000  0.023  0.023  0.000  0.000  0.000  0.000  0.000  0.000  0.046
  8  0.000  0.023  0.023  0.000  0.000  0.000  0.000  0.000  0.000  0.046
  9  0.000  0.002  0.002  0.000  0.000  0.000  0.000  0.000  0.000  0.004
 10  0.000  0.016  0.000  0.030  0.000  0.000  0.000  0.000  0.000  0.046
 11  0.000  0.002  0.002  0.000  0.000  0.000  0.000  0.000  0.000  0.004
 12  0.000  0.000  0.016  0.030  0.000  0.000  0.000  0.000  0.000  0.046
 13  0.000  0.002  0.002  0.000  0.000  0.000  0.000  0.000  0.000  0.004
tot  0.000  0.134  0.134  0.119  0.000  0.000  0.000  0.000  0.000  0.387
 
band  18 # energy   -5.17346663 # occ.  2.00000000
 
ion      s     py     pz     px    dxy    dyz    dz2    dxz    dx2    tot
  1  0.008  0.003  0.003  0.000  0.000  0.000  0.000  0.000  0.000  0.014
  2  0.018  0.000  0.028  0.000  0.000  0.000  0.000  0.000  0.000  0.046
  3  0.003  0.002  0.002  0.014  0.000  0.000  0.000  0.000  0.000  0.021
  4  0.003  0.002  0.002  0.014  0.000  0.000  0.000  0.000  0.000  0.021
  5  0.011  0.000  0.000  0.000  0.000  0.000  0.000  0.000  0.000  0.011
  6  0.018  0.028  0.000  0.000  0.000  0.000  0.000  0.000  0.000  0.046
  7  0.003  0.002  0.002  0.014  0.000  0.000  0.000  0.000  0.000  0.021
  8  0.003  0.002  0.002  0.014  0.000  0.000  0.000  0.000  0.000  0.021
  9  0.008  0.003  0.003  0.000  0.000  0.000  0.000  0.000  0.000  0.014
 10  0.018  0.000  0.028  0.000  0.000  0.000  0.000  0.000  0.000  0.046
 11  0.008  0.003  0.003  0.000  0.000  0.000  0.000  0.000  0.000  0.014
 12  0.018  0.028  0.000  0.000  0.000  0.000  0.000  0.000  0.000  0.046
 13  0.008  0.003  0.003  0.000  0.000  0.000  0.000  0.000  0.000  0.014
tot  0.125  0.077  0.077  0.056  0.000  0.000  0.000  0.000  0.000  0.336
 
band  19 # energy   -4.59183031 # occ.  2.00000000
 
ion      s     py     pz     px    dxy    dyz    dz2    dxz    dx2    tot
  1  0.008  0.011  0.011  0.026  0.000  0.000  0.000  0.000  0.000  0.055
  2  0.002  0.005  0.017  0.002  0.000  0.000  0.000  0.000  0.000  0.026
  3  0.000  0.013  0.013  0.020  0.000  0.000  0.000  0.000  0.000  0.046
  4  0.000  0.000  0.000  0.000  0.000  0.000  0.000  0.000  0.000  0.000
  5  0.000  0.003  0.003  0.000  0.000  0.000  0.000  0.000  0.000  0.005
  6  0.002  0.017  0.005  0.002  0.000  0.000  0.000  0.000  0.000  0.026
  7  0.000  0.013  0.013  0.020  0.000  0.000  0.000  0.000  0.000  0.046
  8  0.000  0.000  0.000  0.000  0.000  0.000  0.000  0.000  0.000  0.000
  9  0.000  0.003  0.003  0.000  0.000  0.000  0.000  0.000  0.000  0.006
 10  0.002  0.005  0.017  0.002  0.000  0.000  0.000  0.000  0.000  0.026
 11  0.000  0.003  0.003  0.000  0.000  0.000  0.000  0.000  0.000  0.006
 12  0.002  0.017  0.005  0.002  0.000  0.000  0.000  0.000  0.000  0.026
 13  0.008  0.011  0.011  0.026  0.000  0.000  0.000  0.000  0.000  0.055
tot  0.026  0.100  0.100  0.099  0.000  0.000  0.000  0.000  0.000  0.324
 
band  20 # energy   -4.59181276 # occ.  2.00000000
 
ion      s     py     pz     px    dxy    dyz    dz2    dxz    dx2    tot
  1  0.000  0.003  0.003  0.000  0.000  0.000  0.000  0.000  0.000  0.006
  2  0.002  0.005  0.017  0.002  0.000  0.000  0.000  0.000  0.000  0.026
  3  0.000  0.000  0.000  0.000  0.000  0.000  0.000  0.000  0.000  0.000
  4  0.000  0.013  0.013  0.020  0.000  0.000  0.000  0.000  0.000  0.046
  5  0.000  0.003  0.003  0.000  0.000  0.000  0.000  0.000  0.000  0.005
  6  0.002  0.017  0.005  0.002  0.000  0.000  0.000  0.000  0.000  0.026
  7  0.000  0.000  0.000  0.000  0.000  0.000  0.000  0.000  0.000  0.000
  8  0.000  0.013  0.013  0.020  0.000  0.000  0.000  0.000  0.000  0.046
  9  0.008  0.011  0.011  0.026  0.000  0.000  0.000  0.000  0.000  0.055
 10  0.002  0.005  0.017  0.002  0.000  0.000  0.000  0.000  0.000  0.026
 11  0.008  0.011  0.011  0.026  0.000  0.000  0.000  0.000  0.000  0.055
 12  0.002  0.017  0.005  0.002  0.000  0.000  0.000  0.000  0.000  0.026
 13  0.000  0.003  0.003  0.000  0.000  0.000  0.000  0.000  0.000  0.006
tot  0.026  0.100  0.100  0.099  0.000  0.000  0.000  0.000  0.000  0.324
 
band  21 # energy   -4.53700037 # occ.  2.00000000
 
ion      s     py     pz     px    dxy    dyz    dz2    dxz    dx2    tot
  1  0.003  0.015  0.015  0.009  0.000  0.000  0.000  0.000  0.000  0.041
  2  0.000  0.011  0.000  0.000  0.000  0.000  0.000  0.000  0.000  0.011
  3  0.001  0.004  0.004  0.027  0.000  0.000  0.000  0.000  0.000  0.036
  4  0.001  0.004  0.004  0.027  0.000  0.000  0.000  0.000  0.000  0.036
  5  0.000  0.000  0.000  0.007  0.000  0.000  0.000  0.000  0.000  0.007
  6  0.000  0.000  0.011  0.000  0.000  0.000  0.000  0.000  0.000  0.011
  7  0.001  0.004  0.004  0.027  0.000  0.000  0.000  0.000  0.000  0.037
  8  0.001  0.004  0.004  0.027  0.000  0.000  0.000  0.000  0.000  0.036
  9  0.003  0.015  0.015  0.009  0.000  0.000  0.000  0.000  0.000  0.041
 10  0.000  0.011  0.000  0.000  0.000  0.000  0.000  0.000  0.000  0.011
 11  0.003  0.015  0.015  0.009  0.000  0.000  0.000  0.000  0.000  0.041
 12  0.000  0.000  0.011  0.000  0.000  0.000  0.000  0.000  0.000  0.011
 13  0.003  0.015  0.015  0.009  0.000  0.000  0.000  0.000  0.000  0.041
tot  0.015  0.097  0.097  0.153  0.000  0.000  0.000  0.000  0.000  0.362
 
band  22 # energy   -3.85071107 # occ.  2.00000000
 
ion      s     py     pz     px    dxy    dyz    dz2    dxz    dx2    tot
  1  0.001  0.006  0.006  0.023  0.000  0.000  0.000  0.000  0.000  0.036
  2  0.000  0.003  0.000  0.019  0.000  0.000  0.000  0.000  0.000  0.022
  3  0.001  0.002  0.002  0.002  0.000  0.000  0.000  0.000  0.000  0.008
  4  0.001  0.002  0.002  0.002  0.000  0.000  0.000  0.000  0.000  0.008
  5  0.000  0.000  0.000  0.009  0.000  0.000  0.000  0.000  0.000  0.009
  6  0.000  0.000  0.003  0.019  0.000  0.000  0.000  0.000  0.000  0.022
  7  0.001  0.002  0.002  0.002  0.000  0.000  0.000  0.000  0.000  0.008
  8  0.001  0.002  0.002  0.002  0.000  0.000  0.000  0.000  0.000  0.008
  9  0.001  0.006  0.006  0.023  0.000  0.000  0.000  0.000  0.000  0.036
 10  0.000  0.003  0.000  0.018  0.000  0.000  0.000  0.000  0.000  0.021
 11  0.001  0.006  0.006  0.023  0.000  0.000  0.000  0.000  0.000  0.036
 12  0.000  0.000  0.003  0.018  0.000  0.000  0.000  0.000  0.000  0.021
 13  0.001  0.006  0.006  0.023  0.000  0.000  0.000  0.000  0.000  0.036
tot  0.007  0.039  0.039  0.184  0.000  0.000  0.000  0.000  0.000  0.269
 
band  23 # energy   -3.83100187 # occ.  2.00000000
 
ion      s     py     pz     px    dxy    dyz    dz2    dxz    dx2    tot
  1  0.005  0.021  0.021  0.004  0.000  0.000  0.000  0.000  0.000  0.050
  2  0.002  0.004  0.004  0.018  0.000  0.000  0.000  0.000  0.000  0.029
  3  0.000  0.019  0.019  0.000  0.000  0.000  0.000  0.000  0.000  0.038
  4  0.000  0.005  0.005  0.000  0.000  0.000  0.000  0.000  0.000  0.011
  5  0.000  0.004  0.004  0.000  0.000  0.000  0.000  0.000  0.000  0.009
  6  0.002  0.004  0.004  0.018  0.000  0.000  0.000  0.000  0.000  0.029
  7  0.000  0.019  0.019  0.000  0.000  0.000  0.000  0.000  0.000  0.038
  8  0.000  0.005  0.005  0.000  0.000  0.000  0.000  0.000  0.000  0.011
  9  0.000  0.002  0.002  0.000  0.000  0.000  0.000  0.000  0.000  0.004
 10  0.002  0.004  0.004  0.018  0.000  0.000  0.000  0.000  0.000  0.029
 11  0.000  0.002  0.002  0.000  0.000  0.000  0.000  0.000  0.000  0.004
 12  0.002  0.004  0.004  0.018  0.000  0.000  0.000  0.000  0.000  0.029
 13  0.005  0.021  0.021  0.004  0.000  0.000  0.000  0.000  0.000  0.050
tot  0.020  0.114  0.114  0.080  0.000  0.000  0.000  0.000  0.000  0.328
 
band  24 # energy   -3.83098231 # occ.  2.00000000
 
ion      s     py     pz     px    dxy    dyz    dz2    dxz    dx2    tot
  1  0.000  0.002  0.002  0.000  0.000  0.000  0.000  0.000  0.000  0.004
  2  0.002  0.004  0.004  0.018  0.000  0.000  0.000  0.000  0.000  0.029
  3  0.000  0.005  0.005  0.000  0.000  0.000  0.000  0.000  0.000  0.011
  4  0.000  0.019  0.019  0.000  0.000  0.000  0.000  0.000  0.000  0.038
  5  0.000  0.004  0.004  0.000  0.000  0.000  0.000  0.000  0.000  0.009
  6  0.002  0.004  0.004  0.018  0.000  0.000  0.000  0.000  0.000  0.029
  7  0.000  0.005  0.005  0.000  0.000  0.000  0.000  0.000  0.000  0.011
  8  0.000  0.019  0.019  0.000  0.000  0.000  0.000  0.000  0.000  0.038
  9  0.005  0.021  0.021  0.004  0.000  0.000  0.000  0.000  0.000  0.050
 10  0.002  0.004  0.004  0.018  0.000  0.000  0.000  0.000  0.000  0.029
 11  0.005  0.021  0.021  0.004  0.000  0.000  0.000  0.000  0.000  0.050
 12  0.002  0.004  0.004  0.018  0.000  0.000  0.000  0.000  0.000  0.029
 13  0.000  0.002  0.002  0.000  0.000  0.000  0.000  0.000  0.000  0.004
tot  0.020  0.114  0.114  0.080  0.000  0.000  0.000  0.000  0.000  0.328
 
band  25 # energy   -3.34247155 # occ.  1.90466152
 
ion      s     py     pz     px    dxy    dyz    dz2    dxz    dx2    tot
  1  0.000  0.015  0.015  0.000  0.000  0.000  0.000  0.000  0.000  0.030
  2  0.001  0.000  0.033  0.000  0.000  0.000  0.000  0.000  0.000  0.034
  3  0.000  0.002  0.002  0.000  0.000  0.000  0.000  0.000  0.000  0.005
  4  0.000  0.002  0.002  0.000  0.000  0.000  0.000  0.000  0.000  0.005
  5  0.000  0.000  0.000  0.000  0.000  0.000  0.000  0.000  0.000  0.000
  6  0.001  0.033  0.000  0.000  0.000  0.000  0.000  0.000  0.000  0.034
  7  0.000  0.002  0.002  0.000  0.000  0.000  0.000  0.000  0.000  0.005
  8  0.000  0.002  0.002  0.000  0.000  0.000  0.000  0.000  0.000  0.005
  9  0.000  0.015  0.015  0.000  0.000  0.000  0.000  0.000  0.000  0.030
 10  0.001  0.000  0.033  0.000  0.000  0.000  0.000  0.000  0.000  0.034
 11  0.000  0.015  0.015  0.000  0.000  0.000  0.000  0.000  0.000  0.030
 12  0.001  0.033  0.000  0.000  0.000  0.000  0.000  0.000  0.000  0.034
 13  0.000  0.015  0.015  0.000  0.000  0.000  0.000  0.000  0.000  0.030
tot  0.002  0.136  0.136  0.000  0.000  0.000  0.000  0.000  0.000  0.275
 
band  26 # energy   -3.29122949 # occ.  1.65442815
 
ion      s     py     pz     px    dxy    dyz    dz2    dxz    dx2    tot
  1  0.000  0.006  0.006  0.000  0.000  0.000  0.000  0.000  0.000  0.012
  2  0.004  0.009  0.020  0.000  0.000  0.000  0.000  0.000  0.000  0.033
  3  0.000  0.012  0.012  0.000  0.000  0.000  0.000  0.000  0.000  0.023
  4  0.003  0.000  0.000  0.006  0.000  0.000  0.000  0.000  0.000  0.009
  5  0.000  0.003  0.003  0.000  0.000  0.000  0.000  0.000  0.000  0.007
  6  0.004  0.020  0.009  0.000  0.000  0.000  0.000  0.000  0.000  0.033
  7  0.000  0.012  0.012  0.000  0.000  0.000  0.000  0.000  0.000  0.023