Starting job 28277784 ("jobname") on c14-30 at Fri Oct 4 10:59:37 CEST 2019
 running on    4 total cores
 distrk:  each k-point on    4 cores,    1 groups
 distr:  one band on    2 cores,    2 groups
 using from now: INCAR     
 vasp.5.4.1 05Feb16 (build Mar 02 2016 14:09:44) complex                        
  
 POSCAR found type information on POSCAR  Si
 POSCAR found :  1 types and      13 ions
 LDA part: xc-table for Pade appr. of Perdew
 POSCAR, INCAR and KPOINTS ok, starting setup
 WARNING: small aliasing (wrap around) errors must be expected
 FFT: planning ...
 WAVECAR not read
 entering main loop
       N       E                     dE             d eps       ncg     rms          rms(c)
DAV:   1     0.184819640897E+03    0.18482E+03   -0.98375E+03   236   0.540E+02
DAV:   2    -0.265168751226E+02   -0.21134E+03   -0.20730E+03   288   0.130E+02
DAV:   3    -0.539647623073E+02   -0.27448E+02   -0.26863E+02   210   0.462E+01
DAV:   4    -0.552439002810E+02   -0.12791E+01   -0.12640E+01   298   0.125E+01
DAV:   5    -0.552879449549E+02   -0.44045E-01   -0.44005E-01   328   0.205E+00    0.742E+00
RMM:   6    -0.524870506231E+02    0.28009E+01   -0.11626E+01   221   0.610E+00    0.364E+00
RMM:   7    -0.521049225985E+02    0.38213E+00   -0.14687E+00   225   0.304E+00    0.216E+00
RMM:   8    -0.520225835669E+02    0.82339E-01   -0.50116E-01   242   0.181E+00    0.773E-01
RMM:   9    -0.520102089460E+02    0.12375E-01   -0.66361E-02   244   0.836E-01    0.269E-01
RMM:  10    -0.520096946864E+02    0.51426E-03   -0.20018E-02   254   0.400E-01    0.143E-01
RMM:  11    -0.520101149966E+02   -0.42031E-03   -0.38315E-03   229   0.181E-01    0.101E-01
RMM:  12    -0.520098676232E+02    0.24737E-03   -0.21733E-03   236   0.117E-01    0.348E-02
RMM:  13    -0.520104871742E+02   -0.61955E-03   -0.11232E-03   231   0.877E-02    0.331E-02
RMM:  14    -0.520109151102E+02   -0.42794E-03   -0.55950E-04   223   0.533E-02    0.111E-02
RMM:  15    -0.520116708340E+02   -0.75572E-03   -0.29792E-04   237   0.406E-02    0.153E-02
RMM:  16    -0.520117974034E+02   -0.12657E-03   -0.90092E-05   244   0.235E-02    0.412E-03
RMM:  17    -0.520121849455E+02   -0.38754E-03   -0.35340E-05   203   0.129E-02    0.278E-03
RMM:  18    -0.520122095095E+02   -0.24564E-04   -0.50494E-06   181   0.478E-03    0.151E-03
RMM:  19    -0.520122721562E+02   -0.62647E-04   -0.72492E-06   176   0.604E-03    0.146E-03
RMM:  20    -0.520122787982E+02   -0.66419E-05   -0.95035E-07   138   0.246E-03    0.675E-04
RMM:  21    -0.520122863248E+02   -0.75266E-05   -0.14301E-06   139   0.279E-03    0.667E-04
RMM:  22    -0.520122876938E+02   -0.13690E-05   -0.19597E-07    75   0.131E-03    0.290E-04
RMM:  23    -0.520122903479E+02   -0.26541E-05   -0.59101E-07   115   0.200E-03    0.456E-04
RMM:  24    -0.520122906375E+02   -0.28952E-06   -0.59460E-08    47   0.988E-04
   1 F= -.52012291E+02 E0= -.51959307E+02  d E =-.105968E+00

Currently Loaded Modulefiles:
  1) Anaconda3/5.1.0       3) vesta/3.3.8           5) intel/2016.1
  2) gnuplot/5.0.4         4) imagemagick/6.7.9-0   6) vasp/5.4.1.Feb16

Job script resource usage:
       JobID  MaxVMSize     MaxRSS 
------------ ---------- ---------- 
28277784.ba+    499280K      6215K 

Job step resource usage:
       JobID    JobName  AllocCPUS  MaxVMSize     MaxRSS    Elapsed ExitCode 
------------ ---------- ---------- ---------- ---------- ---------- -------- 
28277784        jobname          4                         00:00:39      0:0 
28277784.0    pmi_proxy          1   1440468K    311846K   00:00:38      0:0 

Job 28277784 ("jobname") completed on c14-30 at Fri Oct 4 11:00:15 CEST 2019
