unknown system                          
   1.00000000000000     
     2.573869    0.000000    0.000000
     1.286934    2.229036    0.000000
     0.000000    0.000000   30.304665
   Cu   H 
     4     1
Direct
  0.000000  0.000000  0.396440
  0.333332  0.333332  0.465152
  0.666668  0.666665  0.533916
  0.000000  0.000000  0.606744
  0.333332  0.333332  0.638067
 
   20   20  240
 0.47705E-01 0.43879E-01 0.34418E-01 0.22886E-01 0.12799E-01 0.61449E-02 0.27002E-02 0.74718E-03 -.11245E-02 -.28567E-02
 -.35485E-02 -.28052E-02 -.11244E-02 0.81956E-03 0.30189E-02 0.64833E-02 0.12799E-01 0.22694E-01 0.34463E-01 0.44114E-01
 0.43879E-01 0.37323E-01 0.27211E-01 0.16724E-01 0.84653E-02 0.34278E-02 0.54642E-03 -.19219E-02 -.43437E-02 -.56294E-02
 -.50580E-02 -.32460E-02 -.12027E-02 0.80740E-03 0.34449E-02 0.80453E-02 0.15926E-01 0.26794E-01 0.37641E-01 0.44185E-01
 0.34418E-01 0.27211E-01 0.18288E-01 0.99019E-02 0.36167E-02 -.68995E-03 -.45614E-02 -.87865E-02 -.12124E-01 -.12915E-01
 -.11141E-01 -.80737E-02 -.46499E-02 -.97192E-03 0.33866E-02 0.93529E-02 0.17687E-01 0.27312E-01 0.34974E-01 0.37553E-01
 0.22886E-01 0.16724E-01 0.99019E-02 0.36737E-02 -.15911E-02 -.69923E-02 -.13623E-01 -.20368E-01 -.24437E-01 -.24182E-01
 -.20297E-01 -.14401E-01 -.77990E-02 -.14903E-02 0.41595E-02 0.99564E-02 0.16716E-01 0.23344E-01 0.27262E-01 0.26915E-01
 0.12799E-01 0.84653E-02 0.36167E-02 -.15911E-02 -.79402E-02 -.16660E-01 -.27095E-01 -.35783E-01 -.39037E-01 -.35894E-01
 -.27990E-01 -.17816E-01 -.79418E-02 -.44586E-03 0.44497E-02 0.84538E-02 0.12795E-01 0.16466E-01 0.17693E-01 0.16154E-01
 0.61449E-02 0.34278E-02 -.68995E-03 -.69923E-02 -.16660E-01 -.29670E-01 -.42786E-01 -.50840E-01 -.50626E-01 -.42757E-01
 -.30257E-01 -.16848E-01 -.60885E-02 0.17855E-03 0.31493E-02 0.54488E-02 0.79846E-02 0.95753E-02 0.93932E-02 0.80426E-02
 0.27002E-02 0.54642E-03 -.45614E-02 -.13623E-01 -.27095E-01 -.42786E-01 -.55333E-01 -.59615E-01 -.54404E-01 -.42232E-01
 -.27128E-01 -.13327E-01 -.41444E-02 -.42658E-04 0.14501E-02 0.26968E-02 0.37201E-02 0.37386E-02 0.32476E-02 0.30954E-02
 0.74718E-03 -.19219E-02 -.87865E-02 -.20368E-01 -.35783E-01 -.50840E-01 -.59615E-01 -.58847E-01 -.49704E-01 -.35681E-01
 -.20712E-01 -.87287E-02 -.21980E-02 -.32163E-03 -.34097E-03 -.74151E-03 -.15972E-02 -.23307E-02 -.16391E-02 0.15299E-03
 -.11245E-02 -.43437E-02 -.12124E-01 -.24437E-01 -.39037E-01 -.50626E-01 -.54404E-01 -.49704E-01 -.39039E-01 -.25497E-01
 -.12509E-01 -.38294E-02 -.11196E-02 -.25687E-02 -.53853E-02 -.82589E-02 -.10267E-01 -.97040E-02 -.61630E-02 -.22058E-02
 -.28567E-02 -.56294E-02 -.12915E-01 -.24182E-01 -.35894E-01 -.42757E-01 -.42232E-01 -.35681E-01 -.25497E-01 -.13999E-01
 -.48073E-02 -.16033E-02 -.46275E-02 -.10699E-01 -.16773E-01 -.21147E-01 -.21906E-01 -.17695E-01 -.10460E-01 -.45733E-02
 -.35485E-02 -.50580E-02 -.11141E-01 -.20297E-01 -.27990E-01 -.30257E-01 -.27128E-01 -.20712E-01 -.12509E-01 -.48073E-02
 -.17985E-02 -.60400E-02 -.15372E-01 -.25438E-01 -.33278E-01 -.36794E-01 -.33822E-01 -.24758E-01 -.14049E-01 -.64741E-02
 -.28052E-02 -.32460E-02 -.80737E-02 -.14401E-01 -.17816E-01 -.16848E-01 -.13327E-01 -.87287E-02 -.38294E-02 -.16033E-02
 -.60400E-02 -.17275E-01 -.31052E-01 -.43060E-01 -.50665E-01 -.51197E-01 -.43072E-01 -.29250E-01 -.15898E-01 -.69709E-02
 -.11244E-02 -.12027E-02 -.46499E-02 -.77990E-02 -.79418E-02 -.60885E-02 -.41444E-02 -.21980E-02 -.11196E-02 -.46275E-02
 -.15372E-01 -.31052E-01 -.46834E-01 -.59094E-01 -.64740E-01 -.60547E-01 -.46833E-01 -.29440E-01 -.14941E-01 -.56504E-02
 0.81956E-03 0.80740E-03 -.97192E-03 -.14903E-02 -.44586E-03 0.17855E-03 -.42658E-04 -.32163E-03 -.25687E-02 -.10699E-01
 -.25438E-01 -.43060E-01 -.59094E-01 -.69868E-01 -.71299E-01 -.61112E-01 -.42991E-01 -.24695E-01 -.11296E-01 -.30690E-02
 0.30189E-02 0.34449E-02 0.33866E-02 0.41595E-02 0.44497E-02 0.31493E-02 0.14501E-02 -.34097E-03 -.53853E-02 -.16773E-01
 -.33278E-01 -.50665E-01 -.64740E-01 -.71299E-01 -.66624E-01 -.51505E-01 -.32609E-01 -.16928E-01 -.64849E-02 -.58723E-04
 0.64833E-02 0.80453E-02 0.93529E-02 0.99564E-02 0.84538E-02 0.54488E-02 0.26968E-02 -.74151E-03 -.82589E-02 -.21147E-01
 -.36794E-01 -.51197E-01 -.60547E-01 -.61112E-01 -.51505E-01 -.35639E-01 -.20309E-01 -.92494E-02 -.17679E-02 0.34396E-02
 0.12799E-01 0.15926E-01 0.17687E-01 0.16716E-01 0.12795E-01 0.79846E-02 0.37201E-02 -.15972E-02 -.10267E-01 -.21906E-01
 -.33822E-01 -.43072E-01 -.46833E-01 -.42991E-01 -.32609E-01 -.20309E-01 -.10265E-01 -.29133E-02 0.32509E-02 0.86199E-02
 0.22694E-01 0.26794E-01 0.27312E-01 0.23344E-01 0.16466E-01 0.95753E-02 0.37386E-02 -.23307E-02 -.97040E-02 -.17695E-01
 -.24758E-01 -.29250E-01 -.29440E-01 -.24695E-01 -.16928E-01 -.92494E-02 -.29133E-02 0.31233E-02 0.97963E-02 0.16649E-01
 0.34463E-01 0.37641E-01 0.34974E-01 0.27262E-01 0.17693E-01 0.93932E-02 0.32476E-02 -.16391E-02 -.61630E-02 -.10460E-01
 -.14049E-01 -.15898E-01 -.14941E-01 -.11296E-01 -.64849E-02 -.17679E-02 0.32509E-02 0.97963E-02 0.18156E-01 0.27117E-01
 0.44114E-01 0.44185E-01 0.37553E-01 0.26915E-01 0.16154E-01 0.80426E-02 0.30954E-02 0.15299E-03 -.22058E-02 -.45733E-02
 -.64741E-02 -.69709E-02 -.56504E-02 -.30690E-02 -.58723E-04 0.34396E-02 0.86199E-02 0.16649E-01 0.27117E-01 0.37493E-01
 -.22542E-01 -.20711E-01 -.16464E-01 -.10991E-01 -.56435E-02 -.17709E-02 0.58289E-04 0.41886E-03 0.20641E-03 -.17549E-03
 -.52787E-03 -.44027E-03 0.20704E-03 0.73801E-03 0.20683E-03 -.18839E-02 -.56453E-02 -.10908E-01 -.16690E-01 -.21112E-01
 -.20711E-01 -.17722E-01 -.12748E-01 -.73572E-02 -.30715E-02 -.72173E-03 -.13261E-03 -.45021E-03 -.83585E-03 -.87392E-03
 -.51456E-03 0.71098E-04 0.51365E-03 0.31403E-03 -.98943E-03 -.37053E-02 -.78696E-02 -.12970E-01 -.17776E-01 -.20719E-01
 -.16464E-01 -.12748E-01 -.80138E-02 -.39915E-02 -.15636E-02 -.65346E-03 -.71875E-03 -.10780E-02 -.11465E-02 -.80544E-03
 -.42513E-03 -.32251E-03 -.44984E-03 -.83423E-03 -.19805E-02 -.44569E-02 -.82105E-02 -.12464E-01 -.16037E-01 -.17656E-01
 -.10991E-01 -.73572E-02 -.39915E-02 -.19271E-02 -.98041E-03 -.73549E-03 -.10200E-02 -.14618E-02 -.15880E-02 -.14885E-02
 -.15676E-02 -.16650E-02 -.13244E-02 -.92576E-03 -.15962E-02 -.38612E-02 -.71212E-02 -.10390E-01 -.12721E-01 -.13089E-01
 -.56435E-02 -.30715E-02 -.15636E-02 -.98041E-03 -.70703E-03 -.89495E-03 -.17536E-02 -.26421E-02 -.29314E-02 -.28804E-02
 -.27442E-02 -.20410E-02 -.70777E-03 0.31165E-04 -.94718E-03 -.32244E-02 -.56479E-02 -.76015E-02 -.86280E-02 -.79693E-02
 -.17709E-02 -.72173E-03 -.65346E-03 -.73549E-03 -.89495E-03 -.18739E-02 -.34002E-02 -.42009E-02 -.39312E-02 -.33385E-02
 -.25684E-02 -.11766E-02 0.21384E-03 0.22037E-03 -.11987E-02 -.27020E-02 -.36186E-02 -.42872E-02 -.44860E-02 -.34927E-02
 0.58289E-04 -.13261E-03 -.71875E-03 -.10200E-02 -.17536E-02 -.34002E-02 -.47070E-02 -.45033E-02 -.35057E-02 -.27719E-02
 -.19632E-02 -.70351E-03 0.14652E-04 -.52888E-03 -.12913E-02 -.12293E-02 -.99841E-03 -.13549E-02 -.15135E-02 -.73397E-03
 0.41886E-03 -.45021E-03 -.10780E-02 -.14618E-02 -.26421E-02 -.42009E-02 -.45033E-02 -.35142E-02 -.27895E-02 -.26572E-02
 -.20066E-02 -.84266E-03 -.37402E-03 -.53790E-03 -.86983E-04 0.83343E-03 0.83085E-03 -.83914E-05 -.18097E-03 0.42808E-03
 0.20641E-03 -.83585E-03 -.11465E-02 -.15880E-02 -.29314E-02 -.39312E-02 -.35057E-02 -.27895E-02 -.29320E-02 -.29188E-02
 -.16711E-02 -.23578E-03 0.21006E-03 0.47029E-03 0.13823E-02 0.18709E-02 0.10553E-02 0.21792E-03 0.54726E-03 0.95486E-03
 -.17549E-03 -.87392E-03 -.80544E-03 -.14885E-02 -.28804E-02 -.33385E-02 -.27719E-02 -.26572E-02 -.29188E-02 -.20047E-02
 -.99357E-04 0.93166E-03 0.85167E-03 0.11714E-02 0.19885E-02 0.18926E-02 0.10112E-02 0.93215E-03 0.15542E-02 0.11891E-02
 -.52787E-03 -.51456E-03 -.42513E-03 -.15676E-02 -.27442E-02 -.25684E-02 -.19632E-02 -.20066E-02 -.16711E-02 -.99357E-04
 0.12404E-02 0.10862E-02 0.75610E-03 0.16384E-02 0.26370E-02 0.24461E-02 0.20006E-02 0.23080E-02 0.22283E-02 0.80863E-03
 -.44027E-03 0.71098E-04 -.32251E-03 -.16650E-02 -.20410E-02 -.11766E-02 -.70351E-03 -.84266E-03 -.23578E-03 0.93166E-03
 0.10862E-02 0.56128E-03 0.12995E-02 0.32013E-02 0.41398E-02 0.36393E-02 0.31986E-02 0.30167E-02 0.18463E-02 0.90112E-04
 0.20704E-03 0.51365E-03 -.44984E-03 -.13244E-02 -.70777E-03 0.21384E-03 0.14652E-04 -.37402E-03 0.21006E-03 0.85167E-03
 0.75610E-03 0.12995E-02 0.34145E-02 0.52965E-02 0.51681E-02 0.40408E-02 0.34165E-02 0.26651E-02 0.10542E-02 -.99106E-04
 0.73801E-03 0.31403E-03 -.83423E-03 -.92576E-03 0.31165E-04 0.22037E-03 -.52888E-03 -.53790E-03 0.47029E-03 0.11714E-02
 0.16384E-02 0.32013E-02 0.52965E-02 0.57928E-02 0.45609E-02 0.35217E-02 0.31528E-02 0.21923E-02 0.74478E-03 0.31965E-03
 0.20683E-03 -.98943E-03 -.19805E-02 -.15962E-02 -.94718E-03 -.11987E-02 -.12913E-02 -.86983E-04 0.13823E-02 0.19885E-02
 0.26370E-02 0.41398E-02 0.51681E-02 0.45609E-02 0.35257E-02 0.33587E-02 0.31391E-02 0.18508E-02 0.58123E-03 0.39386E-03
 -.18839E-02 -.37053E-02 -.44569E-02 -.38612E-02 -.32244E-02 -.27020E-02 -.12293E-02 0.83343E-03 0.18709E-02 0.18926E-02
 0.24461E-02 0.36393E-02 0.40408E-02 0.35217E-02 0.33587E-02 0.35115E-02 0.26482E-02 0.90600E-03 -.20767E-03 -.67335E-03
 -.56453E-02 -.78696E-02 -.82105E-02 -.71212E-02 -.56479E-02 -.36186E-02 -.99841E-03 0.83085E-03 0.10553E-02 0.10112E-02
 0.20006E-02 0.31986E-02 0.34165E-02 0.31528E-02 0.31391E-02 0.26482E-02 0.10582E-02 -.64462E-03 -.16964E-02 -.31164E-02
 -.10908E-01 -.12970E-01 -.12464E-01 -.10390E-01 -.76015E-02 -.42872E-02 -.13549E-02 -.83914E-05 0.21792E-03 0.93215E-03
 0.23080E-02 0.30167E-02 0.26651E-02 0.21923E-02 0.18508E-02 0.90600E-03 -.64462E-03 -.21389E-02 -.39894E-02 -.71723E-02
 -.16690E-01 -.17776E-01 -.16037E-01 -.12721E-01 -.86280E-02 -.44860E-02 -.15135E-02 -.18097E-03 0.54726E-03 0.15542E-02
 0.22283E-02 0.18463E-02 0.10542E-02 0.74478E-03 0.58123E-03 -.20767E-03 -.16964E-02 -.39894E-02 -.77486E-02 -.12687E-01
 -.21112E-01 -.20719E-01 -.17656E-01 -.13089E-01 -.79693E-02 -.34927E-02 -.73397E-03 0.42808E-03 0.95486E-03 0.11891E-02
 0.80863E-03 0.90112E-04 -.99106E-04 0.31965E-03 0.39386E-03 -.67335E-03 -.31164E-02 -.71723E-02 -.12687E-01 -.18097E-01
 -.47319E-01 -.43223E-01 -.34169E-01 -.22961E-01 -.12412E-01 -.50616E-02 -.15250E-02 0.32500E-04 0.14671E-02 0.26327E-02
 0.27010E-02 0.20514E-02 0.14675E-02 0.59672E-03 -.15485E-02 -.56267E-02 -.12414E-01 -.22602E-01 -.34669E-01 -.44260E-01
 -.43223E-01 -.36867E-01 -.26866E-01 -.16154E-01 -.75537E-02 -.25501E-02 -.21672E-03 0.15799E-02 0.36855E-02 0.52121E-02
 0.53596E-02 0.44024E-02 0.27896E-02 0.41658E-03 -.31025E-02 -.84021E-02 -.16382E-01 -.26896E-01 -.37294E-01 -.43545E-01
 -.34169E-01 -.26866E-01 -.17639E-01 -.92970E-02 -.33725E-02 0.59487E-03 0.42500E-02 0.84814E-02 0.12345E-01 0.14062E-01
 0.12805E-01 0.92803E-02 0.48772E-02 0.51674E-03 -.39748E-02 -.96783E-02 -.17433E-01 -.26402E-01 -.33874E-01 -.36879E-01
 -.22961E-01 -.16154E-01 -.92970E-02 -.37414E-02 0.12477E-02 0.71125E-02 0.14200E-01 0.21159E-01 0.25608E-01 0.25553E-01
 0.20876E-01 0.13688E-01 0.67407E-02 0.12570E-02 -.35640E-02 -.90904E-02 -.15674E-01 -.22218E-01 -.26662E-01 -.27051E-01
 -.12412E-01 -.75537E-02 -.33725E-02 0.12477E-02 0.83033E-02 0.17971E-01 0.28250E-01 0.36297E-01 0.39377E-01 0.35932E-01
 0.27163E-01 0.16834E-01 0.83030E-02 0.21251E-02 -.29743E-02 -.78486E-02 -.12414E-01 -.16128E-01 -.17904E-01 -.16555E-01
 -.50616E-02 -.25501E-02 0.59487E-03 0.71125E-02 0.17971E-01 0.30950E-01 0.42667E-01 0.50047E-01 0.50372E-01 0.42762E-01
 0.30147E-01 0.17594E-01 0.81081E-02 0.14737E-02 -.32275E-02 -.62286E-02 -.80227E-02 -.92664E-02 -.94836E-02 -.78308E-02
 -.15250E-02 -.21672E-03 0.42500E-02 0.14200E-01 0.28250E-01 0.42667E-01 0.54054E-01 0.59270E-01 0.55529E-01 0.43369E-01
 0.27862E-01 0.14538E-01 0.53029E-02 -.41815E-03 -.29757E-02 -.30252E-02 -.25411E-02 -.28443E-02 -.30974E-02 -.24305E-02
 0.32500E-04 0.15799E-02 0.84814E-02 0.21159E-01 0.36297E-01 0.50047E-01 0.59270E-01 0.60482E-01 0.51735E-01 0.36165E-01
 0.20411E-01 0.88951E-02 0.20110E-02 -.81150E-03 0.33436E-04 0.24692E-02 0.35033E-02 0.25584E-02 0.13388E-02 0.57079E-03
 0.14671E-02 0.36855E-02 0.12345E-01 0.25608E-01 0.39377E-01 0.50372E-01 0.55529E-01 0.51735E-01 0.39379E-01 0.24006E-01
 0.11680E-01 0.43709E-02 0.14679E-02 0.26921E-02 0.68232E-02 0.10355E-01 0.10618E-01 0.84913E-02 0.59288E-02 0.32995E-02
 0.26327E-02 0.52121E-02 0.14062E-01 0.25553E-01 0.35932E-01 0.42762E-01 0.43369E-01 0.36165E-01 0.24006E-01 0.12749E-01
 0.59401E-02 0.35926E-02 0.53792E-02 0.11076E-01 0.17916E-01 0.21579E-01 0.20574E-01 0.16724E-01 0.11603E-01 0.60023E-02
 0.27010E-02 0.53596E-02 0.12805E-01 0.20876E-01 0.27163E-01 0.30147E-01 0.27862E-01 0.20411E-01 0.11680E-01 0.59401E-02
 0.44892E-02 0.72298E-02 0.14543E-01 0.24975E-01 0.33715E-01 0.36430E-01 0.32986E-01 0.25634E-01 0.16165E-01 0.71078E-02
 0.20514E-02 0.44024E-02 0.92803E-02 0.13688E-01 0.16834E-01 0.17594E-01 0.14538E-01 0.88951E-02 0.43709E-02 0.35926E-02
 0.72298E-02 0.15914E-01 0.29352E-01 0.43440E-01 0.51858E-01 0.51390E-01 0.43448E-01 0.30984E-01 0.17105E-01 0.61674E-02
 0.14675E-02 0.27896E-02 0.48772E-02 0.67407E-02 0.83030E-02 0.81081E-02 0.53029E-02 0.20110E-02 0.14679E-02 0.53792E-02
 0.14543E-01 0.29352E-01 0.47176E-01 0.61443E-01 0.66156E-01 0.60385E-01 0.47179E-01 0.30471E-01 0.14709E-01 0.45024E-02
 0.59672E-03 0.41658E-03 0.51674E-03 0.12570E-02 0.21251E-02 0.14737E-02 -.41815E-03 -.81150E-03 0.26921E-02 0.11076E-01
 0.24975E-01 0.43440E-01 0.61443E-01 0.71822E-01 0.70790E-01 0.59912E-01 0.43276E-01 0.25341E-01 0.10822E-01 0.28907E-02
 -.15485E-02 -.31025E-02 -.39748E-02 -.35640E-02 -.29743E-02 -.32275E-02 -.29757E-02 0.33436E-04 0.68232E-02 0.17916E-01
 0.33715E-01 0.51858E-01 0.66156E-01 0.70790E-01 0.64756E-01 0.51137E-01 0.34050E-01 0.17796E-01 0.63206E-02 0.71203E-03
 -.56267E-02 -.84021E-02 -.96783E-02 -.90904E-02 -.78486E-02 -.62286E-02 -.30252E-02 0.24692E-02 0.10355E-01 0.21579E-01
 0.36430E-01 0.51390E-01 0.60385E-01 0.59912E-01 0.51137E-01 0.37403E-01 0.22249E-01 0.94156E-02 0.14157E-02 -.26545E-02
 -.12414E-01 -.16382E-01 -.17433E-01 -.15674E-01 -.12414E-01 -.80227E-02 -.25411E-02 0.35033E-02 0.10618E-01 0.20574E-01
 0.32986E-01 0.43448E-01 0.47179E-01 0.43276E-01 0.34050E-01 0.22249E-01 0.10622E-01 0.18700E-02 -.34666E-02 -.76544E-02
 -.22602E-01 -.26896E-01 -.26402E-01 -.22218E-01 -.16128E-01 -.92664E-02 -.28443E-02 0.25584E-02 0.84913E-02 0.16724E-01
 0.25634E-01 0.30984E-01 0.30471E-01 0.25341E-01 0.17796E-01 0.94156E-02 0.18700E-02 -.37984E-02 -.88947E-02 -.15453E-01
 -.34669E-01 -.37294E-01 -.33874E-01 -.26662E-01 -.17904E-01 -.94836E-02 -.30974E-02 0.13388E-02 0.59288E-02 0.11603E-01
 0.16165E-01 0.17105E-01 0.14709E-01 0.10822E-01 0.63206E-02 0.14157E-02 -.34666E-02 -.88947E-02 -.16609E-01 -.26447E-01
 -.44260E-01 -.43545E-01 -.36879E-01 -.27051E-01 -.16555E-01 -.78308E-02 -.24305E-02 0.57079E-03 0.32995E-02 0.60023E-02
 0.71078E-02 0.61674E-02 0.45024E-02 0.28907E-02 0.71203E-03 -.26545E-02 -.76544E-02 -.15453E-01 -.26447E-01 -.37701E-01
 0.21312E-01 0.20515E-01 0.15826E-01 0.98837E-02 0.56265E-02 0.31338E-02 0.12402E-02 0.12434E-03 0.17452E-03 0.32463E-03
 -.25525E-03 -.57235E-03 0.17442E-03 0.93183E-03 0.10431E-02 0.21165E-02 0.56240E-02 0.10521E-01 0.15055E-01 0.18842E-01
 0.20515E-01 0.17416E-01 0.11945E-01 0.70439E-02 0.39646E-02 0.18309E-02 0.20856E-03 -.23521E-03 0.34928E-03 0.76406E-03
 0.70060E-03 0.87734E-03 0.12198E-02 0.10267E-02 0.99259E-03 0.29017E-02 0.70994E-02 0.12108E-01 0.16616E-01 0.19877E-01
 0.15826E-01 0.11945E-01 0.75422E-02 0.41842E-02 0.19632E-02 0.50457E-03 0.81809E-04 0.85043E-03 0.19437E-02 0.23722E-02
 0.21423E-02 0.16930E-02 0.10673E-02 0.52959E-03 0.11762E-02 0.38868E-02 0.81497E-02 0.12587E-01 0.15989E-01 0.17328E-01
 0.98837E-02 0.70439E-02 0.41842E-02 0.19412E-02 0.78418E-03 0.86740E-03 0.18574E-02 0.30335E-02 0.36787E-02 0.34677E-02
 0.25734E-02 0.14779E-02 0.71354E-03 0.74986E-03 0.19658E-02 0.44664E-02 0.77667E-02 0.10771E-01 0.12322E-01 0.11910E-01
 0.56265E-02 0.39646E-02 0.19632E-02 0.78418E-03 0.12792E-02 0.27108E-02 0.37998E-02 0.42368E-02 0.42689E-02 0.37447E-02
 0.26158E-02 0.15831E-02 0.12797E-02 0.15279E-02 0.21429E-02 0.35272E-02 0.56279E-02 0.72885E-02 0.75644E-02 0.68005E-02
 0.31338E-02 0.18309E-02 0.50457E-03 0.86740E-03 0.27108E-02 0.40740E-02 0.42990E-02 0.44725E-02 0.48539E-02 0.44288E-02
 0.31616E-02 0.22393E-02 0.19088E-02 0.13880E-02 0.95214E-03 0.17305E-02 0.33755E-02 0.42637E-02 0.40276E-02 0.36327E-02
 0.12402E-02 0.20856E-03 0.81809E-04 0.18574E-02 0.37998E-02 0.42990E-02 0.44584E-02 0.55230E-02 0.62085E-02 0.50754E-02
 0.32314E-02 0.22153E-02 0.14543E-02 0.20213E-03 -.31167E-03 0.87586E-03 0.22606E-02 0.22594E-02 0.16627E-02 0.15699E-02
 0.12434E-03 -.23521E-03 0.85043E-03 0.30335E-02 0.42368E-02 0.44725E-02 0.55230E-02 0.69593E-02 0.64384E-02 0.39862E-02
 0.20832E-02 0.14426E-02 0.55177E-03 -.60603E-03 -.35427E-03 0.10237E-02 0.13140E-02 0.26324E-03 -.22302E-03 0.20494E-03
 0.17452E-03 0.34928E-03 0.19437E-02 0.36787E-02 0.42689E-02 0.48539E-02 0.62085E-02 0.64384E-02 0.42728E-02 0.18056E-02
 0.11390E-02 0.11204E-02 0.17253E-03 -.58425E-03 0.60619E-04 0.59226E-03 -.42981E-03 -.14826E-02 -.89294E-03 0.14623E-03
 0.32463E-03 0.76406E-03 0.23722E-02 0.34677E-02 0.37447E-02 0.44288E-02 0.50754E-02 0.39862E-02 0.18056E-02 0.94537E-03
 0.14459E-02 0.11366E-02 -.20866E-03 -.72096E-03 -.31532E-03 -.76466E-03 -.18933E-02 -.16428E-02 -.49323E-04 0.70159E-03
 -.25525E-03 0.70060E-03 0.21423E-02 0.25734E-02 0.26158E-02 0.31616E-02 0.32314E-02 0.20832E-02 0.11390E-02 0.14459E-02
 0.15523E-02 0.21057E-03 -.12135E-02 -.13192E-02 -.11567E-02 -.17954E-02 -.19772E-02 -.66861E-03 0.55822E-03 0.24416E-03
 -.57235E-03 0.87734E-03 0.16930E-02 0.14779E-02 0.15831E-02 0.22393E-02 0.22153E-02 0.14426E-02 0.11204E-02 0.11366E-02
 0.21057E-03 -.13747E-02 -.20001E-02 -.16274E-02 -.16738E-02 -.21104E-02 -.16094E-02 -.45529E-03 -.27882E-03 -.91810E-03
 0.17442E-03 0.12198E-02 0.10673E-02 0.71354E-03 0.12797E-02 0.19088E-02 0.14543E-02 0.55177E-03 0.17253E-03 -.20866E-03
 -.12135E-02 -.20001E-02 -.18521E-02 -.16711E-02 -.22112E-02 -.25325E-02 -.18498E-02 -.11295E-02 -.11797E-02 -.10102E-02
 0.93183E-03 0.10267E-02 0.52959E-03 0.74986E-03 0.15279E-02 0.13880E-02 0.20213E-03 -.60603E-03 -.58425E-03 -.72096E-03
 -.13192E-02 -.16274E-02 -.16711E-02 -.22623E-02 -.30940E-02 -.29575E-02 -.19069E-02 -.11398E-02 -.80192E-03 -.36512E-04
 0.10431E-02 0.99259E-03 0.11762E-02 0.19658E-02 0.21429E-02 0.95214E-03 -.31167E-03 -.35427E-03 0.60619E-04 -.31532E-03
 -.11567E-02 -.16738E-02 -.22112E-02 -.30940E-02 -.33666E-02 -.23336E-02 -.99032E-03 -.41743E-03 -.14198E-03 0.52207E-03
 0.21165E-02 0.29017E-02 0.38868E-02 0.44664E-02 0.35272E-02 0.17305E-02 0.87586E-03 0.10237E-02 0.59226E-03 -.76466E-03
 -.17954E-02 -.21104E-02 -.25325E-02 -.29575E-02 -.23336E-02 -.91694E-03 -.18355E-03 -.32208E-03 -.40402E-04 0.10624E-02
 0.56240E-02 0.70994E-02 0.81497E-02 0.77667E-02 0.56279E-02 0.33755E-02 0.22606E-02 0.13140E-02 -.42981E-03 -.18933E-02
 -.19772E-02 -.16094E-02 -.18498E-02 -.19069E-02 -.99032E-03 -.18355E-03 -.42771E-03 -.47669E-03 0.11083E-02 0.36098E-02
 0.10521E-01 0.12108E-01 0.12587E-01 0.10771E-01 0.72885E-02 0.42637E-02 0.22594E-02 0.26324E-03 -.14826E-02 -.16428E-02
 -.66861E-03 -.45529E-03 -.11295E-02 -.11398E-02 -.41743E-03 -.32208E-03 -.47669E-03 0.11350E-02 0.47073E-02 0.82071E-02
 0.15055E-01 0.16616E-01 0.15989E-01 0.12322E-01 0.75644E-02 0.40276E-02 0.16627E-02 -.22302E-03 -.89294E-03 -.49323E-04
 0.55822E-03 -.27882E-03 -.11797E-02 -.80192E-03 -.14198E-03 -.40402E-04 0.11083E-02 0.47073E-02 0.92728E-02 0.12716E-01
 0.18842E-01 0.19877E-01 0.17328E-01 0.11910E-01 0.68005E-02 0.36327E-02 0.15699E-02 0.20494E-03 0.14623E-03 0.70159E-03
 0.24416E-03 -.91810E-03 -.10102E-02 -.36512E-04 0.52207E-03 0.10624E-02 0.36098E-02 0.82071E-02 0.12716E-01 0.16126E-01
 0.47679E-01 0.45132E-01 0.34954E-01 0.22332E-01 0.12802E-01 0.70563E-02 0.30637E-02 0.28025E-03 -.11169E-02 -.22424E-02
 -.35785E-02 -.34546E-02 -.11169E-02 0.13313E-02 0.26930E-02 0.55871E-02 0.12800E-01 0.23246E-01 0.33911E-01 0.42822E-01
 0.45132E-01 0.38310E-01 0.26709E-01 0.16020E-01 0.89369E-02 0.40705E-02 0.45802E-04 -.27156E-02 -.42070E-02 -.52876E-02
 -.55611E-02 -.38664E-02 -.10154E-02 0.10470E-02 0.29449E-02 0.76601E-02 0.16361E-01 0.27064E-01 0.37135E-01 0.44178E-01
 0.34954E-01 0.26709E-01 0.17209E-01 0.96854E-02 0.41467E-02 -.83590E-03 -.54597E-02 -.90829E-02 -.11592E-01 -.12764E-01
 -.11655E-01 -.81967E-02 -.41158E-02 -.70841E-03 0.31737E-02 0.94709E-02 0.18218E-01 0.27531E-01 0.34986E-01 0.38057E-01
 0.22332E-01 0.16020E-01 0.96854E-02 0.40722E-02 -.13671E-02 -.73462E-02 -.13825E-01 -.19863E-01 -.23868E-01 -.24236E-01
 -.20502E-01 -.14072E-01 -.72808E-02 -.14447E-02 0.39432E-02 0.10043E-01 0.16986E-01 0.23364E-01 0.27057E-01 0.26623E-01
 0.12802E-01 0.89369E-02 0.41467E-02 -.13671E-02 -.79501E-02 -.16544E-01 -.26726E-01 -.35454E-01 -.39036E-01 -.36074E-01
 -.28007E-01 -.17662E-01 -.79481E-02 -.75606E-03 0.41093E-02 0.83578E-02 0.12805E-01 0.16227E-01 0.17149E-01 0.15681E-01
 0.70563E-02 0.40705E-02 -.83590E-03 -.73462E-02 -.16544E-01 -.29378E-01 -.42927E-01 -.51275E-01 -.50837E-01 -.42762E-01
 -.30398E-01 -.17110E-01 -.62595E-02 0.52319E-04 0.29914E-02 0.54164E-02 0.80772E-02 0.95098E-02 0.92563E-02 0.84019E-02
 0.30637E-02 0.45802E-04 -.54597E-02 -.13825E-01 -.26726E-01 -.42927E-01 -.56054E-01 -.59899E-01 -.54029E-01 -.42075E-01
 -.27472E-01 -.13447E-01 -.37701E-02 0.23252E-03 0.14109E-02 0.28113E-02 0.40808E-02 0.39656E-02 0.34408E-02 0.36035E-02
 0.28025E-03 -.27156E-02 -.90829E-02 -.19863E-01 -.35454E-01 -.51275E-01 -.59899E-01 -.58240E-01 -.49033E-01 -.35823E-01
 -.21016E-01 -.83131E-02 -.15742E-02 -.33632E-03 -.62641E-03 -.56697E-03 -.12508E-02 -.24080E-02 -.19318E-02 -.47167E-04
 -.11169E-02 -.42070E-02 -.11592E-01 -.23868E-01 -.39036E-01 -.50837E-01 -.54029E-01 -.49033E-01 -.39031E-01 -.26013E-01
 -.12536E-01 -.33492E-02 -.11202E-02 -.31911E-02 -.57004E-02 -.80119E-02 -.10271E-01 -.10297E-01 -.67130E-02 -.23388E-02
 -.22424E-02 -.52876E-02 -.12764E-01 -.24236E-01 -.36074E-01 -.42762E-01 -.42075E-01 -.35823E-01 -.26013E-01 -.14304E-01
 -.46517E-02 -.15777E-02 -.51113E-02 -.11125E-01 -.16615E-01 -.20866E-01 -.22117E-01 -.18076E-01 -.10308E-01 -.39145E-02
 -.35785E-02 -.55611E-02 -.11655E-01 -.20502E-01 -.28007E-01 -.30398E-01 -.27472E-01 -.21016E-01 -.12536E-01 -.46517E-02
 -.17527E-02 -.61697E-02 -.15407E-01 -.25182E-01 -.32932E-01 -.36669E-01 -.33843E-01 -.24539E-01 -.13485E-01 -.59798E-02
 -.34546E-02 -.38664E-02 -.81967E-02 -.14072E-01 -.17662E-01 -.17110E-01 -.13447E-01 -.83131E-02 -.33492E-02 -.15777E-02
 -.61697E-02 -.17038E-01 -.30619E-01 -.42922E-01 -.50788E-01 -.51193E-01 -.42894E-01 -.29162E-01 -.16038E-01 -.73647E-02
 -.11169E-02 -.10154E-02 -.41158E-02 -.72808E-02 -.79481E-02 -.62595E-02 -.37701E-02 -.15742E-02 -.11202E-02 -.51113E-02
 -.15407E-01 -.30619E-01 -.46838E-01 -.59681E-01 -.65064E-01 -.60348E-01 -.46838E-01 -.29997E-01 -.15506E-01 -.58392E-02
 0.13313E-02 0.10470E-02 -.70841E-03 -.14447E-02 -.75606E-03 0.52319E-04 0.23252E-03 -.33632E-03 -.31911E-02 -.11125E-01
 -.25182E-01 -.42922E-01 -.59681E-01 -.70400E-01 -.71033E-01 -.60725E-01 -.43317E-01 -.25189E-01 -.11033E-01 -.22946E-02
 0.26930E-02 0.29449E-02 0.31737E-02 0.39432E-02 0.41093E-02 0.29914E-02 0.14109E-02 -.62641E-03 -.57004E-02 -.16615E-01
 -.32932E-01 -.50788E-01 -.65064E-01 -.71033E-01 -.65975E-01 -.51386E-01 -.32932E-01 -.16698E-01 -.56025E-02 0.44830E-03
 0.55871E-02 0.76601E-02 0.94709E-02 0.10043E-01 0.83578E-02 0.54164E-02 0.28113E-02 -.56697E-03 -.80119E-02 -.20866E-01
 -.36669E-01 -.51193E-01 -.60348E-01 -.60725E-01 -.51386E-01 -.35883E-01 -.20372E-01 -.89016E-02 -.16425E-02 0.28142E-02
 0.12800E-01 0.16361E-01 0.18218E-01 0.16986E-01 0.12805E-01 0.80772E-02 0.40808E-02 -.12508E-02 -.10271E-01 -.22117E-01
 -.33843E-01 -.42894E-01 -.46838E-01 -.43317E-01 -.32932E-01 -.20372E-01 -.10271E-01 -.32008E-02 0.27016E-02 0.81793E-02
 0.23246E-01 0.27064E-01 0.27531E-01 0.23364E-01 0.16227E-01 0.95098E-02 0.39656E-02 -.24080E-02 -.10297E-01 -.18076E-01
 -.24539E-01 -.29162E-01 -.29997E-01 -.25189E-01 -.16698E-01 -.89016E-02 -.32008E-02 0.26707E-02 0.10027E-01 0.17391E-01
 0.33911E-01 0.37135E-01 0.34986E-01 0.27057E-01 0.17149E-01 0.92563E-02 0.34408E-02 -.19318E-02 -.67130E-02 -.10308E-01
 -.13485E-01 -.16038E-01 -.15506E-01 -.11033E-01 -.56025E-02 -.16425E-02 0.27016E-02 0.10027E-01 0.19271E-01 0.27630E-01
 0.42822E-01 0.44178E-01 0.38057E-01 0.26623E-01 0.15681E-01 0.84019E-02 0.36035E-02 -.47167E-04 -.23388E-02 -.39145E-02
 -.59798E-02 -.73647E-02 -.58392E-02 -.22946E-02 0.44830E-03 0.28142E-02 0.81793E-02 0.17391E-01 0.27630E-01 0.36476E-01
 -.19392E-01 -.16530E-01 -.13645E-01 -.10057E-01 -.48433E-02 -.51410E-03 0.53545E-03 -.43863E-04 0.14473E-03 0.30910E-03
 -.71290E-03 -.12188E-02 0.14532E-03 0.12523E-02 -.78422E-05 -.24351E-02 -.48440E-02 -.88643E-02 -.14961E-01 -.19478E-01
 -.16530E-01 -.14250E-01 -.11475E-01 -.70132E-02 -.21002E-02 0.97036E-04 -.62682E-03 -.13506E-02 -.90574E-03 -.80484E-03
 -.12881E-02 -.75150E-03 0.59582E-03 0.55741E-03 -.13163E-02 -.35901E-02 -.63850E-02 -.10927E-01 -.15802E-01 -.17801E-01
 -.13645E-01 -.11475E-01 -.79425E-02 -.36069E-02 -.81882E-03 -.83987E-03 -.18640E-02 -.18248E-02 -.12350E-02 -.13437E-02
 -.15599E-02 -.89448E-03 -.16046E-03 -.60992E-03 -.19800E-02 -.37406E-02 -.65317E-02 -.10473E-01 -.13743E-01 -.14672E-01
 -.10057E-01 -.70132E-02 -.36069E-02 -.12961E-02 -.82810E-03 -.14679E-02 -.19454E-02 -.20129E-02 -.22890E-02 -.28141E-02
 -.28330E-02 -.20597E-02 -.11825E-02 -.94999E-03 -.15812E-02 -.31758E-02 -.58011E-02 -.88772E-02 -.11154E-01 -.11612E-01
 -.48433E-02 -.21002E-02 -.81882E-03 -.82810E-03 -.11457E-02 -.16746E-02 -.27977E-02 -.41456E-02 -.49241E-02 -.48940E-02
 -.41775E-02 -.27850E-02 -.11431E-02 -.34873E-03 -.10703E-02 -.28192E-02 -.48397E-02 -.67964E-02 -.80307E-02 -.73990E-02
 -.51410E-03 0.97036E-04 -.83987E-03 -.14679E-02 -.16746E-02 -.31324E-02 -.57217E-02 -.72045E-02 -.67099E-02 -.55205E-02
 -.42603E-02 -.23366E-02 -.33590E-03 0.55066E-04 -.11800E-02 -.23913E-02 -.30385E-02 -.37725E-02 -.40411E-02 -.26423E-02
 0.53545E-03 -.62682E-03 -.18640E-02 -.19454E-02 -.27977E-02 -.57217E-02 -.82172E-02 -.78075E-02 -.59171E-02 -.47927E-02
 -.37199E-02 -.15468E-02 0.14083E-03 -.24941E-03 -.12190E-02 -.95767E-03 -.45524E-03 -.93605E-03 -.11381E-02 -.67995E-04
 -.43863E-04 -.13506E-02 -.18248E-02 -.20129E-02 -.41456E-02 -.72045E-02 -.78075E-02 -.59270E-02 -.46886E-02 -.46321E-02
 -.33667E-02 -.87726E-03 0.14309E-03 -.54868E-03 -.39427E-03 0.91912E-03 0.10404E-02 -.22449E-03 -.56599E-03 0.20452E-03
 0.14473E-03 -.90574E-03 -.12350E-02 -.22890E-02 -.49241E-02 -.67099E-02 -.59171E-02 -.46886E-02 -.49220E-02 -.47069E-02
 -.23183E-02 0.40171E-04 0.14165E-03 -.29937E-03 0.74156E-03 0.16305E-02 0.49940E-03 -.86446E-03 -.33023E-03 0.67393E-03
 0.30910E-03 -.80484E-03 -.13437E-02 -.28141E-02 -.48940E-02 -.55205E-02 -.47927E-02 -.46321E-02 -.47069E-02 -.29984E-02
 -.21512E-03 0.82812E-03 0.10630E-03 0.17680E-03 0.12461E-02 0.10644E-02 -.30865E-03 -.34708E-03 0.11400E-02 0.15881E-02
 -.71290E-03 -.12881E-02 -.15599E-02 -.28330E-02 -.41775E-02 -.42603E-02 -.37199E-02 -.33667E-02 -.23183E-02 -.21512E-03
 0.11309E-02 0.61873E-03 -.50704E-04 0.59053E-03 0.12468E-02 0.66922E-03 0.24497E-03 0.12257E-02 0.20233E-02 0.96577E-03
 -.12188E-02 -.75150E-03 -.89448E-03 -.20597E-02 -.27850E-02 -.23366E-02 -.15468E-02 -.87726E-03 0.40171E-04 0.82812E-03
 0.61873E-03 -.53471E-04 0.17312E-03 0.10947E-02 0.13512E-02 0.97727E-03 0.11319E-02 0.15463E-02 0.85446E-03 -.64336E-03
 0.14532E-03 0.59582E-03 -.16046E-03 -.11825E-02 -.11431E-02 -.33590E-03 0.14083E-03 0.14309E-03 0.14165E-03 0.10630E-03
 -.50704E-04 0.17312E-03 0.97107E-03 0.15745E-02 0.14418E-02 0.11011E-02 0.96902E-03 0.54857E-03 -.28305E-03 -.55159E-03
 0.12523E-02 0.55741E-03 -.60992E-03 -.94999E-03 -.34873E-03 0.55066E-04 -.24941E-03 -.54868E-03 -.29937E-03 0.17680E-03
 0.59053E-03 0.10947E-02 0.15745E-02 0.15791E-02 0.11436E-02 0.77029E-03 0.58287E-03 0.39711E-03 0.44119E-03 0.94581E-03
 -.78422E-05 -.13163E-02 -.19800E-02 -.15812E-02 -.10703E-02 -.11800E-02 -.12190E-02 -.39427E-03 0.74156E-03 0.12461E-02
 0.12468E-02 0.13512E-02 0.14418E-02 0.11436E-02 0.77215E-03 0.81430E-03 0.10821E-02 0.11827E-02 0.11392E-02 0.88028E-03
 -.24351E-02 -.35901E-02 -.37406E-02 -.31758E-02 -.28192E-02 -.23913E-02 -.95767E-03 0.91912E-03 0.16305E-02 0.10644E-02
 0.66922E-03 0.97727E-03 0.11011E-02 0.77029E-03 0.81430E-03 0.13672E-02 0.14752E-02 0.76459E-03 -.17115E-03 -.11392E-02
 -.48440E-02 -.63850E-02 -.65317E-02 -.58011E-02 -.48397E-02 -.30385E-02 -.45524E-03 0.10404E-02 0.49940E-03 -.30865E-03
 0.24497E-03 0.11319E-02 0.96902E-03 0.58287E-03 0.10821E-02 0.14752E-02 0.49657E-03 -.10723E-02 -.20631E-02 -.30665E-02
 -.88643E-02 -.10927E-01 -.10473E-01 -.88772E-02 -.67964E-02 -.37725E-02 -.93605E-03 -.22449E-03 -.86446E-03 -.34708E-03
 0.12257E-02 0.15463E-02 0.54857E-03 0.39711E-03 0.11827E-02 0.76459E-03 -.10723E-02 -.24010E-02 -.31791E-02 -.53867E-02
 -.14961E-01 -.15802E-01 -.13743E-01 -.11154E-01 -.80307E-02 -.40411E-02 -.11381E-02 -.56599E-03 -.33023E-03 0.11400E-02
 0.20233E-02 0.85446E-03 -.28305E-03 0.44119E-03 0.11392E-02 -.17115E-03 -.20631E-02 -.31791E-02 -.54949E-02 -.10403E-01
 -.19478E-01 -.17801E-01 -.14672E-01 -.11612E-01 -.73990E-02 -.26423E-02 -.67995E-04 0.20452E-03 0.67393E-03 0.15881E-02
 0.96577E-03 -.64336E-03 -.55159E-03 0.94581E-03 0.88028E-03 -.11392E-02 -.30665E-02 -.53867E-02 -.10403E-01 -.16632E-01
 -.47347E-01 -.41974E-01 -.33647E-01 -.23536E-01 -.12426E-01 -.41569E-02 -.11633E-02 -.43536E-03 0.14769E-02 0.32555E-02
 0.26826E-02 0.14105E-02 0.14776E-02 0.11063E-02 -.18796E-02 -.65306E-02 -.12425E-01 -.22064E-01 -.35236E-01 -.45561E-01
 -.41974E-01 -.35881E-01 -.27374E-01 -.16871E-01 -.70937E-02 -.19109E-02 -.71409E-03 0.79081E-03 0.38257E-02 0.55585E-02
 0.48654E-02 0.37937E-02 0.29842E-02 0.65393E-03 -.36115E-02 -.87955E-02 -.15954E-01 -.26633E-01 -.37813E-01 -.43564E-01