unknown system                          
   1.00000000000000     
     2.573869    0.000000    0.000000
     1.286934    2.229036    0.000000
     0.000000    0.000000   30.304665
   Cu   H 
     4     1
Direct
  0.000000  0.000000  0.396440
  0.333332  0.333332  0.465152
  0.666668  0.666665  0.533916
  0.000000  0.000000  0.606744
  0.333332  0.333332  0.638067
 
   20   20  240
 0.47704524095E-01 0.43879051952E-01 0.34417698737E-01 0.22886235359E-01 0.12799444257E-01
 0.61449205359E-02 0.27002300738E-02 0.74717613111E-03 -.11244532257E-02 -.28567116293E-02
 -.35485056075E-02 -.28051965695E-02 -.11243825470E-02 0.81956055532E-03 0.30188564318E-02
 0.64833140510E-02 0.12799477655E-01 0.22694083822E-01 0.34463434943E-01 0.44113890606E-01
 0.43879051952E-01 0.37322870181E-01 0.27210562441E-01 0.16723756336E-01 0.84653319728E-02
 0.34278110557E-02 0.54642484350E-03 -.19219085998E-02 -.43437474430E-02 -.56294049088E-02
 -.50579773986E-02 -.32459989551E-02 -.12026898933E-02 0.80739615994E-03 0.34449238861E-02
 0.80452717580E-02 0.15926275650E-01 0.26793626299E-01 0.37640733510E-01 0.44185470195E-01
 0.34417698737E-01 0.27210562441E-01 0.18287802790E-01 0.99019114035E-02 0.36166618342E-02
 -.68995073158E-03 -.45614203055E-02 -.87865138361E-02 -.12124470091E-01 -.12915171710E-01
 -.11140883146E-01 -.80737351593E-02 -.46498522836E-02 -.97192458146E-03 0.33865799440E-02
 0.93528767102E-02 0.17687298050E-01 0.27312433300E-01 0.34974306359E-01 0.37553234053E-01
 0.22886235359E-01 0.16723756336E-01 0.99019114031E-02 0.36737324106E-02 -.15910774547E-02
 -.69922922263E-02 -.13622581682E-01 -.20367850600E-01 -.24436664698E-01 -.24181860476E-01
 -.20296890267E-01 -.14401457241E-01 -.77989847422E-02 -.14902684804E-02 0.41595075668E-02
 0.99564354075E-02 0.16716126882E-01 0.23343881584E-01 0.27261594995E-01 0.26915100648E-01
 0.12799444257E-01 0.84653319723E-02 0.36166618335E-02 -.15910774557E-02 -.79401635606E-02
 -.16659941853E-01 -.27094999893E-01 -.35782651584E-01 -.39037441555E-01 -.35893917376E-01
 -.27989847063E-01 -.17816425986E-01 -.79418035808E-02 -.44585971096E-03 0.44497121054E-02
 0.84537820269E-02 0.12795367175E-01 0.16466363039E-01 0.17692858044E-01 0.16154184690E-01
 0.61449205362E-02 0.34278110548E-02 -.68995073327E-03 -.69922922281E-02 -.16659941854E-01
 -.29670453110E-01 -.42786081911E-01 -.50840354257E-01 -.50625655176E-01 -.42757379682E-01
 -.30256804976E-01 -.16847533242E-01 -.60885449540E-02 0.17855015815E-03 0.31492593416E-02
 0.54487673302E-02 0.79846462381E-02 0.95753207529E-02 0.93932362498E-02 0.80426459853E-02
 0.27002300745E-02 0.54642484279E-03 -.45614203074E-02 -.13622581685E-01 -.27094999894E-01
 -.42786081911E-01 -.55333358173E-01 -.59614944854E-01 -.54403833591E-01 -.42231504722E-01
 -.27127664851E-01 -.13327069335E-01 -.41443969970E-02 -.42657844361E-04 0.14500537123E-02
 0.26967642802E-02 0.37201316377E-02 0.37385727858E-02 0.32476152294E-02 0.30954352823E-02
 0.74717613242E-03 -.19219086000E-02 -.87865138380E-02 -.20367850602E-01 -.35782651585E-01
 -.50840354257E-01 -.59614944854E-01 -.58847380325E-01 -.49703676452E-01 -.35681165460E-01
 -.20712303326E-01 -.87286761428E-02 -.21980271975E-02 -.32163091084E-03 -.34096565327E-03
 -.74150962837E-03 -.15971525024E-02 -.23306699492E-02 -.16390964113E-02 0.15299018848E-03
 -.11244532237E-02 -.43437474425E-02 -.12124470093E-01 -.24436664701E-01 -.39037441558E-01
 -.50625655176E-01 -.54403833590E-01 -.49703676451E-01 -.39039473364E-01 -.25496720971E-01
 -.12509187082E-01 -.38293695102E-02 -.11195749101E-02 -.25687362203E-02 -.53853150929E-02
 -.82588883002E-02 -.10266580363E-01 -.97040122005E-02 -.61629750255E-02 -.22058333283E-02
 -.28567116272E-02 -.56294049082E-02 -.12915171712E-01 -.24181860480E-01 -.35893917379E-01
 -.42757379683E-01 -.42231504721E-01 -.35681165459E-01 -.25496720971E-01 -.13999362282E-01
 -.48072814590E-02 -.16033257471E-02 -.46274595338E-02 -.10699492787E-01 -.16772651401E-01
 -.21146874908E-01 -.21905993205E-01 -.17695051849E-01 -.10459825212E-01 -.45733191180E-02
 -.35485056053E-02 -.50579773981E-02 -.11140883149E-01 -.20296890272E-01 -.27989847067E-01
 -.30256804977E-01 -.27127664851E-01 -.20712303326E-01 -.12509187083E-01 -.48072814605E-02
 -.17985038667E-02 -.60400297194E-02 -.15371799124E-01 -.25438345517E-01 -.33278286539E-01
 -.36793547343E-01 -.33821689329E-01 -.24758210032E-01 -.14049116691E-01 -.64740932605E-02
 -.28051965675E-02 -.32459989557E-02 -.80737351640E-02 -.14401457248E-01 -.17816425991E-01
 -.16847533244E-01 -.13327069335E-01 -.87286761447E-02 -.38293695140E-02 -.16033257508E-02
 -.60400297210E-02 -.17274559746E-01 -.31051764985E-01 -.43059584094E-01 -.50665116448E-01
 -.51196556594E-01 -.43071918526E-01 -.29250478298E-01 -.15898416354E-01 -.69708725294E-02
 -.11243825460E-02 -.12026898950E-02 -.46498522892E-02 -.77989847492E-02 -.79418035854E-02
 -.60885449563E-02 -.41443969990E-02 -.21980272014E-02 -.11195749156E-02 -.46274595377E-02
 -.15371799124E-01 -.31051764982E-01 -.46833641217E-01 -.59094346019E-01 -.64740134469E-01
 -.60546765007E-01 -.46832824672E-01 -.29440411047E-01 -.14941015144E-01 -.56504315655E-02
 0.81956055574E-03 0.80739615750E-03 -.97192458685E-03 -.14902684861E-02 -.44585971447E-03
 0.17855015637E-03 -.42657846947E-04 -.32163091529E-03 -.25687362248E-02 -.10699492787E-01
 -.25438345510E-01 -.43059584083E-01 -.59094346009E-01 -.69867931836E-01 -.71298814615E-01
 -.61111714301E-01 -.42991252354E-01 -.24695113702E-01 -.11296417498E-01 -.30690040077E-02
 0.30188564321E-02 0.34449238841E-02 0.33865799402E-02 0.41595075633E-02 0.44497121038E-02
 0.31492593406E-02 0.14500537102E-02 -.34096565646E-03 -.53853150939E-02 -.16772651394E-01
 -.33278286522E-01 -.50665116424E-01 -.64740134446E-01 -.71298814601E-01 -.66623631735E-01
 -.51505373256E-01 -.32608750961E-01 -.16927859735E-01 -.64848971418E-02 -.58723434186E-04
 0.64833140513E-02 0.80452717567E-02 0.93528767080E-02 0.99564354062E-02 0.84537820269E-02
 0.54487673301E-02 0.26967642789E-02 -.74150962953E-03 -.82588882967E-02 -.21146874895E-01
 -.36793547319E-01 -.51196556562E-01 -.60546764975E-01 -.61111714277E-01 -.51505373245E-01
 -.35638546795E-01 -.20308784611E-01 -.92494344760E-02 -.17678909573E-02 0.34396498026E-02
 0.12799477655E-01 0.15926275650E-01 0.17687298050E-01 0.16716126882E-01 0.12795367176E-01
 0.79846462382E-02 0.37201316368E-02 -.15971525019E-02 -.10266580358E-01 -.21905993189E-01
 -.33821689303E-01 -.43071918493E-01 -.46832824639E-01 -.42991252328E-01 -.32608750946E-01
 -.20308784607E-01 -.10264737389E-01 -.29132691494E-02 0.32508549267E-02 0.86198683085E-02
 0.22694083822E-01 0.26793626299E-01 0.27312433300E-01 0.23343881585E-01 0.16466363039E-01
 0.95753207523E-02 0.37385727847E-02 -.23306699488E-02 -.97040121951E-02 -.17695051836E-01
 -.24758210011E-01 -.29250478274E-01 -.29440411023E-01 -.24695113684E-01 -.16927859724E-01
 -.92494344718E-02 -.29132691485E-02 0.31233190909E-02 0.97962980215E-02 0.16648589353E-01
 0.34463434944E-01 0.37640733510E-01 0.34974306359E-01 0.27261594994E-01 0.17692858044E-01
 0.93932362487E-02 0.32476152277E-02 -.16390964118E-02 -.61629750232E-02 -.10459825205E-01
 -.14049116680E-01 -.15898416341E-01 -.14941015132E-01 -.11296417490E-01 -.64848971378E-02
 -.17678909562E-02 0.32508549263E-02 0.97962980210E-02 0.18156082887E-01 0.27116932045E-01
 0.44113890605E-01 0.44185470195E-01 0.37553234052E-01 0.26915100648E-01 0.16154184690E-01
 0.80426459841E-02 0.30954352806E-02 0.15299018681E-03 -.22058333292E-02 -.45733191175E-02
 -.64740932591E-02 -.69708725274E-02 -.56504315639E-02 -.30690040067E-02 -.58723434599E-04
 0.34396498017E-02 0.86198683073E-02 0.16648589353E-01 0.27116932045E-01 0.37493212879E-01
 -.22541943769E-01 -.20710536541E-01 -.16463509825E-01 -.10990568211E-01 -.56435313556E-02
 -.17709061684E-02 0.58289083313E-04 0.41886218804E-03 0.20641126878E-03 -.17549473790E-03
 -.52786882856E-03 -.44026981218E-03 0.20704104244E-03 0.73800700500E-03 0.20683331957E-03
 -.18838519149E-02 -.56452899053E-02 -.10907619141E-01 -.16690424227E-01 -.21111615864E-01
 -.20710536541E-01 -.17721667411E-01 -.12747531924E-01 -.73571855369E-02 -.30714827076E-02
 -.72172581531E-03 -.13261013193E-03 -.45020613782E-03 -.83585264602E-03 -.87392090582E-03
 -.51456010332E-03 0.71098128299E-04 0.51365357245E-03 0.31402520358E-03 -.98943398558E-03
 -.37052836524E-02 -.78696311771E-02 -.12970436793E-01 -.17775861087E-01 -.20718543810E-01
 -.16463509825E-01 -.12747531924E-01 -.80138076930E-02 -.39915362009E-02 -.15635938623E-02
 -.65346147003E-03 -.71875166928E-03 -.10779557510E-02 -.11464645174E-02 -.80543918403E-03
 -.42512638833E-03 -.32251291717E-03 -.44984355320E-03 -.83422805406E-03 -.19805331260E-02
 -.44568806039E-02 -.82104965914E-02 -.12464040026E-01 -.16037030376E-01 -.17655571470E-01
 -.10990568210E-01 -.73571855368E-02 -.39915362009E-02 -.19271321583E-02 -.98040692743E-03
 -.73549370016E-03 -.10200353826E-02 -.14618269971E-02 -.15879898045E-02 -.14884980276E-02
 -.15675612495E-02 -.16649950613E-02 -.13244494165E-02 -.92575916955E-03 -.15961837840E-02
 -.38611978647E-02 -.71211895763E-02 -.10390180347E-01 -.12721362469E-01 -.13089014156E-01
 -.56435313556E-02 -.30714827080E-02 -.15635938626E-02 -.98040692800E-03 -.70703148332E-03
 -.89494753260E-03 -.17536283071E-02 -.26420968270E-02 -.29313875280E-02 -.28803735291E-02
 -.27442320375E-02 -.20409659211E-02 -.70777087902E-03 0.31165053137E-04 -.94717923638E-03
 -.32244481087E-02 -.56479091435E-02 -.76014591832E-02 -.86280419623E-02 -.79692901110E-02
 -.17709061704E-02 -.72172581677E-03 -.65346147138E-03 -.73549370127E-03 -.89494753295E-03
 -.18739348180E-02 -.34002125361E-02 -.42008713967E-02 -.39312428250E-02 -.33384651299E-02
 -.25683914540E-02 -.11765783071E-02 0.21384139949E-03 0.22037275580E-03 -.11986569550E-02
 -.27020403543E-02 -.36185707425E-02 -.42871804384E-02 -.44860351145E-02 -.34926661958E-02
 0.58289079305E-04 -.13261013469E-03 -.71875167126E-03 -.10200353841E-02 -.17536283078E-02
 -.34002125359E-02 -.47069873348E-02 -.45033308047E-02 -.35056989240E-02 -.27719321709E-02
 -.19632488540E-02 -.70350834999E-03 0.14652182461E-04 -.52887766030E-03 -.12913475959E-02
 -.12292587935E-02 -.99841443328E-03 -.13549229827E-02 -.15135276751E-02 -.73397471732E-03
 0.41886218207E-03 -.45020614225E-03 -.10779557540E-02 -.14618269986E-02 -.26420968275E-02
 -.42008713966E-02 -.45033308043E-02 -.35142199734E-02 -.27894955827E-02 -.26572149901E-02
 -.20066426801E-02 -.84265988275E-03 -.37402343971E-03 -.53789532406E-03 -.86983064477E-04
 0.83342545204E-03 0.83084997829E-03 -.83914021189E-05 -.18096518730E-03 0.42807947816E-03
 0.20641126117E-03 -.83585265196E-03 -.11464645213E-02 -.15879898065E-02 -.29313875286E-02
 -.39312428251E-02 -.35056989241E-02 -.27894955827E-02 -.29319963931E-02 -.29188377898E-02
 -.16711308500E-02 -.23577692858E-03 0.21005861962E-03 0.47028860286E-03 0.13823490637E-02
 0.18708701571E-02 0.10553477063E-02 0.21792428999E-03 0.54726364703E-03 0.95486461511E-03
 -.17549474679E-03 -.87392091333E-03 -.80543918907E-03 -.14884980306E-02 -.28803735306E-02
 -.33384651307E-02 -.27719321720E-02 -.26572149908E-02 -.29188377901E-02 -.20046912639E-02
 -.99356946635E-04 0.93166327907E-03 0.85166640522E-03 0.11714449458E-02 0.19884601906E-02
 0.18926233687E-02 0.10112452709E-02 0.93215191578E-03 0.15542060772E-02 0.11890503889E-02
 -.52786883805E-03 -.51456011135E-03 -.42512639370E-03 -.15675612531E-02 -.27442320401E-02
 -.25683914570E-02 -.19632488563E-02 -.20066426816E-02 -.16711308505E-02 -.99356946816E-04
 0.12404076462E-02 0.10861687865E-02 0.75609779273E-03 0.16384330096E-02 0.26370185152E-02
 0.24461148890E-02 0.20005829407E-02 0.23079550094E-02 0.22282878131E-02 0.80862848418E-03
 -.44026982151E-03 0.71098120305E-04 -.32251292248E-03 -.16649950657E-02 -.20409659254E-02
 -.11765783114E-02 -.70350835355E-03 -.84265988458E-03 -.23577692903E-03 0.93166327846E-03
 0.10861687852E-02 0.56127707555E-03 0.12994711572E-02 0.32012551153E-02 0.41397504679E-02
 0.36393352791E-02 0.31986127686E-02 0.30167193030E-02 0.18462581632E-02 0.90112479395E-04
 0.20704103373E-03 0.51365356598E-03 -.44984355774E-03 -.13244494211E-02 -.70777088445E-03
 0.21384139412E-03 0.14652179004E-04 -.37402344064E-03 0.21005861959E-03 0.85166640343E-03
 0.75609778806E-03 0.12994711526E-02 0.34144640069E-02 0.52965134301E-02 0.51681082707E-02
 0.40408146077E-02 0.34164826876E-02 0.26651221236E-02 0.10542141316E-02 -.99105540848E-04
 0.73800699812E-03 0.31402519939E-03 -.83422805714E-03 -.92575917396E-03 0.31165047503E-04
 0.22037275114E-03 -.52887766184E-03 -.53789532251E-03 0.47028860396E-03 0.11714449421E-02
 0.16384329996E-02 0.32012551027E-02 0.52965134212E-02 0.57927505904E-02 0.45609416349E-02
 0.35216822112E-02 0.31527585791E-02 0.21922512201E-02 0.74477688258E-03 0.31965092744E-03
 0.20683331554E-03 -.98943398679E-03 -.19805331272E-02 -.15961837875E-02 -.94717924092E-03
 -.11986569573E-02 -.12913475939E-02 -.86983059596E-04 0.13823490661E-02 0.19884601852E-02
 0.26370185000E-02 0.41397504474E-02 0.51681082528E-02 0.45609416254E-02 0.35256754176E-02
 0.33587459266E-02 0.31391413237E-02 0.18507949818E-02 0.58123424787E-03 0.39386478613E-03
 -.18838519162E-02 -.37052836516E-02 -.44568806040E-02 -.38611978672E-02 -.32244481116E-02
 -.27020403539E-02 -.12292587880E-02 0.83342546007E-03 0.18708701613E-02 0.18926233630E-02
 0.24461148718E-02 0.36393352557E-02 0.40408145861E-02 0.35216821975E-02 0.33587459222E-02
 0.35114908188E-02 0.26482454475E-02 0.90599640360E-03 -.20766823172E-03 -.67334828847E-03
 -.56452899044E-02 -.78696311750E-02 -.82104965912E-02 -.71211895779E-02 -.56479091450E-02
 -.36185707398E-02 -.99841442535E-03 0.83084998833E-03 0.10553477119E-02 0.10112452669E-02
 0.20005829264E-02 0.31986127487E-02 0.34164826699E-02 0.31527585689E-02 0.31391413212E-02
 0.26482454483E-02 0.10582166668E-02 -.64461696048E-03 -.16963905531E-02 -.31164328903E-02
 -.10907619139E-01 -.12970436792E-01 -.12464040026E-01 -.10390180349E-01 -.76014591835E-02
 -.42871804347E-02 -.13549229744E-02 -.83913917521E-05 0.21792429724E-03 0.93215191592E-03
 0.23079550022E-02 0.30167192927E-02 0.26651221156E-02 0.21922512176E-02 0.18507949844E-02
 0.90599640786E-03 -.64461695779E-03 -.21388769738E-02 -.39894019607E-02 -.71723167358E-02
 -.16690424226E-01 -.17775861087E-01 -.16037030376E-01 -.12721362470E-01 -.86280419627E-02
 -.44860351111E-02 -.15135276679E-02 -.18096517777E-03 0.54726365522E-03 0.15542060818E-02
 0.22282878143E-02 0.18462581634E-02 0.10542141333E-02 0.74477688743E-03 0.58123425459E-03
 -.20766822570E-03 -.16963905498E-02 -.39894019600E-02 -.77486237896E-02 -.12686985816E-01
 -.21111615864E-01 -.20718543810E-01 -.17655571470E-01 -.13089014157E-01 -.79692901112E-02
 -.34926661933E-02 -.73397471198E-03 0.42807948579E-03 0.95486462345E-03 0.11890503969E-02
 0.80862849128E-03 0.90112486667E-04 -.99105533053E-04 0.31965093558E-03 0.39386479290E-03
 -.67334828401E-03 -.31164328887E-02 -.71723167360E-02 -.12686985816E-01 -.18096622611E-01
 -.47318785303E-01 -.43222583794E-01 -.34169350374E-01 -.22961205844E-01 -.12411648882E-01
 -.50615962521E-02 -.15250294441E-02 0.32499842852E-04 0.14670819921E-02 0.26326546067E-02
 0.27010184529E-02 0.20514106810E-02 0.14674825565E-02 0.59671782328E-03 -.15484968215E-02
 -.56266594851E-02 -.12414306231E-01 -.22601840223E-01 -.34668633666E-01 -.44260065075E-01
 -.43222583794E-01 -.36867181446E-01 -.26865640833E-01 -.16153711088E-01 -.75537139618E-02
 -.25500644820E-02 -.21671890497E-03 0.15799099497E-02 0.36855453012E-02 0.52121194132E-02
 0.53596312385E-02 0.44024458576E-02 0.27896037969E-02 0.41657997653E-03 -.31025089613E-02
 -.84021368745E-02 -.16382372963E-01 -.26895547388E-01 -.37294035719E-01 -.43545208717E-01
 -.34169350373E-01 -.26865640833E-01 -.17639407507E-01 -.92969856615E-02 -.33724932605E-02
 0.59486663897E-03 0.42500103466E-02 0.84814299379E-02 0.12345127313E-01 0.14062165083E-01
 0.12804807874E-01 0.92802897294E-02 0.48771898672E-02 0.51673808218E-03 -.39748236725E-02
 -.96783005320E-02 -.17433489440E-01 -.26402377657E-01 -.33874247509E-01 -.36878861149E-01
 -.22961205844E-01 -.16153711088E-01 -.92969856610E-02 -.37414454049E-02 0.12477005264E-02
 0.71125292129E-02 0.14199947313E-01 0.21158530238E-01 0.25608242558E-01 0.25552589557E-01
 0.20875886881E-01 0.13687821635E-01 0.67406530543E-02 0.12570338570E-02 -.35640149211E-02
 -.90903966718E-02 -.15674052347E-01 -.22217573448E-01 -.26661773391E-01 -.27050979718E-01
 -.12411648882E-01 -.75537139617E-02 -.33724932599E-02 0.12477005266E-02 0.83032870993E-02
 0.17970523638E-01 0.28250399629E-01 0.36297406390E-01 0.39377232998E-01 0.35932216999E-01
 0.27163289870E-01 0.16833815210E-01 0.83029734699E-02 0.21250746340E-02 -.29742780473E-02
 -.78486360572E-02 -.12413524862E-01 -.16128090365E-01 -.17904277057E-01 -.16555336057E-01
 -.50615962544E-02 -.25500644825E-02 0.59486663933E-03 0.71125292135E-02 0.17970523639E-01
 0.30950203821E-01 0.42666904474E-01 0.50046540918E-01 0.50371806310E-01 0.42762360041E-01
 0.30146938583E-01 0.17594330101E-01 0.81080620116E-02 0.14737128064E-02 -.32274639956E-02
 -.62286053695E-02 -.80226500742E-02 -.92664203605E-02 -.94835663041E-02 -.78307616586E-02
 -.15250294488E-02 -.21671890698E-03 0.42500103466E-02 0.14199947314E-01 0.28250399630E-01
 0.42666904475E-01 0.54053582325E-01 0.59269708759E-01 0.55528786103E-01 0.43369129220E-01
 0.27861842892E-01 0.14537525176E-01 0.53028962925E-02 -.41815407478E-03 -.29756651555E-02
 -.30251724474E-02 -.25411133018E-02 -.28443462702E-02 -.30974289168E-02 -.24305424790E-02
 0.32499835473E-04 0.15799099455E-02 0.84814299369E-02 0.21158530239E-01 0.36297406391E-01
 0.50046540919E-01 0.59269708759E-01 0.60482167943E-01 0.51734905740E-01 0.36164742237E-01
 0.20411378161E-01 0.88950683951E-02 0.20109805278E-02 -.81150110088E-03 0.33436374494E-04
 0.24692187094E-02 0.35033494208E-02 0.25584316163E-02 0.13387995614E-02 0.57078580578E-03
 0.14670819824E-02 0.36855452948E-02 0.12345127311E-01 0.25608242559E-01 0.39377232999E-01
 0.50371806310E-01 0.55528786102E-01 0.51734905739E-01 0.39378851867E-01 0.24006111034E-01
 0.11680166685E-01 0.43709059042E-02 0.14678748442E-02 0.26921081729E-02 0.68231824248E-02
 0.10355161562E-01 0.10618491720E-01 0.84913091222E-02 0.59288279271E-02 0.32995281648E-02
 0.26326545955E-02 0.52121194048E-02 0.14062165080E-01 0.25552589558E-01 0.35932217001E-01
 0.42762360041E-01 0.43369129218E-01 0.36164742235E-01 0.24006111033E-01 0.12748559737E-01
 0.59401037045E-02 0.35925547730E-02 0.53791586272E-02 0.11076296034E-01 0.17915996778E-01
 0.21579111962E-01 0.20573904130E-01 0.16723606990E-01 0.11602839498E-01 0.60023389312E-02
 0.27010184411E-02 0.53596312300E-02 0.12804807872E-01 0.20875886883E-01 0.27163289871E-01
 0.30146938582E-01 0.27861842889E-01 0.20411378159E-01 0.11680166686E-01 0.59401037058E-02
 0.44892429462E-02 0.72297649741E-02 0.14542996684E-01 0.24974504128E-01 0.33715401750E-01
 0.36429964926E-01 0.32986380636E-01 0.25634207139E-01 0.16165041759E-01 0.71078098077E-02
 0.20514106699E-02 0.44024458502E-02 0.92802897289E-02 0.13687821637E-01 0.16833815211E-01
 0.17594330098E-01 0.14537525173E-01 0.88950683952E-02 0.43709059074E-02 0.35925547762E-02
 0.72297649743E-02 0.15913828868E-01 0.29351732078E-01 0.43439880386E-01 0.51858263054E-01
 0.51389595384E-01 0.43447712967E-01 0.30983866709E-01 0.17105380792E-01 0.61674084501E-02
 0.14674825466E-02 0.27896037921E-02 0.48771898683E-02 0.67406530564E-02 0.83029734691E-02
 0.81080620084E-02 0.53028962910E-02 0.20109805309E-02 0.14678748497E-02 0.53791586294E-02
 0.14542996679E-01 0.29351732070E-01 0.47175678595E-01 0.61442992095E-01 0.66156391245E-01
 0.60384591986E-01 0.47178608850E-01 0.30470798393E-01 0.14708912953E-01 0.45024327841E-02
 0.59671781574E-03 0.41657997475E-03 0.51673808446E-03 0.12570338581E-02 0.21250746318E-02
 0.14737128034E-02 -.41815407380E-03 -.81150109479E-03 0.26921081786E-02 0.11076296030E-01
 0.24974504111E-01 0.43439880361E-01 0.61442992076E-01 0.71821752196E-01 0.70789638463E-01
 0.59911857858E-01 0.43275692405E-01 0.25340592765E-01 0.10821554582E-01 0.28906615225E-02
 -.15484968260E-02 -.31025089604E-02 -.39748236697E-02 -.35640149212E-02 -.29742780504E-02
 -.32274639971E-02 -.29756651515E-02 0.33436382708E-04 0.68231824282E-02 0.17915996766E-01
 0.33715401718E-01 0.51858263010E-01 0.66156391204E-01 0.70789638441E-01 0.64756232330E-01
 0.51137018301E-01 0.34049636398E-01 0.17795756183E-01 0.63205737132E-02 0.71203288938E-03
 -.56266594867E-02 -.84021368723E-02 -.96783005300E-02 -.90903966732E-02 -.78486360600E-02
 -.62286053689E-02 -.30251724404E-02 0.24692187187E-02 0.10355161563E-01 0.21579111943E-01
 0.36429964884E-01 0.51389595328E-01 0.60384591932E-01 0.59911857820E-01 0.51137018285E-01
 0.37402683922E-01 0.22248775684E-01 0.94155740911E-02 0.14156505803E-02 -.26545084980E-02
 -.12414306230E-01 -.16382372960E-01 -.17433489439E-01 -.15674052349E-01 -.12413524864E-01
 -.80226500713E-02 -.25411132928E-02 0.35033494306E-02 0.10618491719E-01 0.20573904110E-01
 0.32986380595E-01 0.43447712914E-01 0.47178608799E-01 0.43275692369E-01 0.34049636381E-01
 0.22248775680E-01 0.10621847293E-01 0.18699809888E-02 -.34666286181E-02 -.76544377696E-02
 -.22601840222E-01 -.26895547387E-01 -.26402377657E-01 -.22217573450E-01 -.16128090366E-01
 -.92664203562E-02 -.28443462605E-02 0.25584316265E-02 0.84913091243E-02 0.16723606977E-01
 0.25634207111E-01 0.30983866674E-01 0.30470798361E-01 0.25340592744E-01 0.17795756175E-01
 0.94155740912E-02 0.18699809908E-02 -.37983934554E-02 -.88947486371E-02 -.15453488844E-01
 -.34668633665E-01 -.37294035719E-01 -.33874247510E-01 -.26661773393E-01 -.17904277056E-01
 -.94835662993E-02 -.30974289078E-02 0.13387995718E-02 0.59288279333E-02 0.11602839496E-01
 0.16165041750E-01 0.17105380780E-01 0.14708912943E-01 0.10821554578E-01 0.63205737160E-02
 0.14156505854E-02 -.34666286143E-02 -.88947486359E-02 -.16609263833E-01 -.26447224210E-01
 -.44260065075E-01 -.43545208717E-01 -.36878861150E-01 -.27050979718E-01 -.16555336057E-01
 -.78307616548E-02 -.24305424720E-02 0.57078581514E-03 0.32995281742E-02 0.60023389390E-02
 0.71078098135E-02 0.61674084555E-02 0.45024327903E-02 0.28906615299E-02 0.71203289661E-03
 -.26545084924E-02 -.76544377670E-02 -.15453488843E-01 -.26447224210E-01 -.37700910369E-01
 0.21311787510E-01 0.20515056729E-01 0.15825665566E-01 0.98837454075E-02 0.56265213260E-02
 0.31337641285E-02 0.12402104556E-02 0.12433993220E-03 0.17452175831E-03 0.32462923471E-03
 -.25525399005E-03 -.57234790884E-03 0.17441868265E-03 0.93182668116E-03 0.10430638296E-02
 0.21164970407E-02 0.56240095489E-02 0.10520577243E-01 0.15054696806E-01 0.18841553006E-01
 0.20515056728E-01 0.17416382406E-01 0.11945285385E-01 0.70439256162E-02 0.39645819928E-02
 0.18309026133E-02 0.20856371243E-03 -.23521106171E-03 0.34927861333E-03 0.76405648275E-03
 0.70059697473E-03 0.87734032635E-03 0.12198241594E-02 0.10267254488E-02 0.99259158802E-03
 0.29017023630E-02 0.70993807674E-02 0.12108006730E-01 0.16616142926E-01 0.19877471925E-01
 0.15825665566E-01 0.11945285386E-01 0.75422498224E-02 0.41842362520E-02 0.19632301373E-02
 0.50457491162E-03 0.81809102937E-04 0.85043229504E-03 0.19437300669E-02 0.23722482408E-02
 0.21422708237E-02 0.16929914646E-02 0.10673110674E-02 0.52958907797E-03 0.11762309279E-02
 0.38868161281E-02 0.81496616833E-02 0.12587277963E-01 0.15989011107E-01 0.17327718586E-01
 0.98837454071E-02 0.70439256164E-02 0.41842362522E-02 0.19411601216E-02 0.78417787381E-03
 0.86740079467E-03 0.18574179147E-02 0.30335126656E-02 0.36786967459E-02 0.34677005906E-02
 0.25734452824E-02 0.14779081445E-02 0.71354068049E-03 0.74986007017E-03 0.19658020577E-02
 0.44664068535E-02 0.77667236763E-02 0.10771218844E-01 0.12321770857E-01 0.11910463048E-01
 0.56265213258E-02 0.39645819933E-02 0.19632301383E-02 0.78417787446E-03 0.12791712135E-02
 0.27107617608E-02 0.37997881570E-02 0.42368187531E-02 0.42688743924E-02 0.37447199640E-02
 0.26158145995E-02 0.15830888834E-02 0.12797488860E-02 0.15279013479E-02 0.21428805795E-02
 0.35271809590E-02 0.56278969957E-02 0.72885484527E-02 0.75643761390E-02 0.68005224389E-02
 0.31337641279E-02 0.18309026142E-02 0.50457491333E-03 0.86740079616E-03 0.27107617617E-02
 0.40740336581E-02 0.42989895984E-02 0.44724884683E-02 0.48539089448E-02 0.44287935803E-02
 0.31616498675E-02 0.22393007472E-02 0.19088210192E-02 0.13880153407E-02 0.95213885497E-03
 0.17305139176E-02 0.33755265886E-02 0.42636745421E-02 0.40276464012E-02 0.36326584130E-02
 0.12402104548E-02 0.20856371337E-03 0.81809105197E-04 0.18574179167E-02 0.37997881586E-02
 0.42989895989E-02 0.44584278054E-02 0.55230470421E-02 0.62085269507E-02 0.50754090890E-02
 0.32313512100E-02 0.22152881575E-02 0.14543064018E-02 0.20213423439E-03 -.31166893042E-03
 0.87586372950E-03 0.22605526835E-02 0.22594408913E-02 0.16627394746E-02 0.15698889415E-02
 0.12433993065E-03 -.23521106149E-03 0.85043229717E-03 0.30335126685E-02 0.42368187551E-02
 0.44724884685E-02 0.55230470418E-02 0.69593344282E-02 0.64383943200E-02 0.39861611548E-02
 0.20832349315E-02 0.14425717606E-02 0.55176876911E-03 -.60602644551E-03 -.35426579389E-03
 0.10237276297E-02 0.13139962489E-02 0.26324318102E-03 -.22302361486E-03 0.20494110129E-03
 0.17452175605E-03 0.34927861280E-03 0.19437300690E-02 0.36786967489E-02 0.42688743949E-02
 0.48539089449E-02 0.62085269496E-02 0.64383943189E-02 0.42727962298E-02 0.18055627032E-02
 0.11390396085E-02 0.11204370227E-02 0.17253093014E-03 -.58425374333E-03 0.60618523886E-04
 0.59225862694E-03 -.42981258460E-03 -.14826331258E-02 -.89294412821E-03 0.14623163912E-03
 0.32462923196E-03 0.76405648172E-03 0.23722482431E-02 0.34677005944E-02 0.37447199670E-02
 0.44287935809E-02 0.50754090874E-02 0.39861611531E-02 0.18055627027E-02 0.94537028059E-03
 0.14459453088E-02 0.11366424629E-02 -.20866192900E-03 -.72095976055E-03 -.31531662570E-03
 -.76466440222E-03 -.18933187243E-02 -.16427946089E-02 -.49322764358E-04 0.70158871579E-03
 -.25525399262E-03 0.70059697436E-03 0.21422708273E-02 0.25734452880E-02 0.26158146040E-02
 0.31616498684E-02 0.32313512094E-02 0.20832349309E-02 0.11390396095E-02 0.14459453104E-02
 0.15523136937E-02 0.21056605709E-03 -.12134628751E-02 -.13192280852E-02 -.11567377234E-02
 -.17953686638E-02 -.19771541913E-02 -.66860783317E-03 0.55821549735E-03 0.24416281124E-03
 -.57234791070E-03 0.87734032687E-03 0.16929914697E-02 0.14779081512E-02 0.15830888885E-02
 0.22393007491E-02 0.22152881582E-02 0.14425717625E-02 0.11204370266E-02 0.11366424668E-02
 0.21056605859E-03 -.13746932492E-02 -.20000670514E-02 -.16273740635E-02 -.16737821014E-02
 -.21103590827E-02 -.16093974733E-02 -.45528520950E-03 -.27882461754E-03 -.91809940520E-03
 0.17441868139E-03 0.12198241612E-02 0.10673110733E-02 0.71354068731E-03 0.12797488909E-02
 0.19088210214E-02 0.14543064039E-02 0.55176877312E-03 0.17253093582E-03 -.20866192486E-03
 -.12134628754E-02 -.20000670545E-02 -.18520933205E-02 -.16711199058E-02 -.22112240186E-02
 -.25324863203E-02 -.18498466911E-02 -.11294680239E-02 -.11797454330E-02 -.10102077678E-02
 0.93182668031E-03 0.10267254512E-02 0.52958908351E-03 0.74986007568E-03 0.15279013512E-02
 0.13880153423E-02 0.20213423692E-03 -.60602644083E-03 -.58425373847E-03 -.72095976017E-03
 -.13192280925E-02 -.16273740761E-02 -.16711199161E-02 -.22623036668E-02 -.30939898368E-02
 -.29575213558E-02 -.19068513241E-02 -.11398200885E-02 -.80192472724E-03 -.36511764595E-04
 0.10430638290E-02 0.99259159020E-03 0.11762309320E-02 0.19658020610E-02 0.21428805809E-02
 0.95213885584E-03 -.31166892818E-03 -.35426579036E-03 0.60618525040E-04 -.31531663231E-03
 -.11567377409E-02 -.16737821266E-02 -.22112240429E-02 -.30939898513E-02 -.33666267853E-02
 -.23335861156E-02 -.99032043191E-03 -.41742756996E-03 -.14197954557E-03 0.52207197086E-03
 0.21164970402E-02 0.29017023643E-02 0.38868161302E-02 0.44664068546E-02 0.35271809590E-02
 0.17305139178E-02 0.87586373130E-03 0.10237276311E-02 0.59225862380E-03 -.76466441555E-03
 -.17953686896E-02 -.21103591169E-02 -.25324863544E-02 -.29575213808E-02 -.23335861269E-02
 -.91693623595E-03 -.18354778553E-03 -.32207672632E-03 -.40402445322E-04 0.10624321903E-02
 0.56240095486E-02 0.70993807682E-02 0.81496616839E-02 0.77667236760E-02 0.56278969952E-02
 0.33755265888E-02 0.22605526848E-02 0.13139962489E-02 -.42981259053E-03 -.18933187404E-02
 -.19771542188E-02 -.16093975083E-02 -.18498467255E-02 -.19068513503E-02 -.99032044665E-03
 -.18354779071E-03 -.42771472415E-03 -.47669015505E-03 0.11083052090E-02 0.36097556782E-02
 0.10520577243E-01 0.12108006730E-01 0.12587277962E-01 0.10771218844E-01 0.72885484523E-02
 0.42636745430E-02 0.22594408929E-02 0.26324318123E-03 -.14826331306E-02 -.16427946218E-02
 -.66860785431E-03 -.45528523507E-03 -.11294680484E-02 -.11398201073E-02 -.41742758074E-03
 -.32207673045E-03 -.47669015559E-03 0.11349901553E-02 0.47072658102E-02 0.82071268329E-02
 0.15054696806E-01 0.16616142926E-01 0.15989011107E-01 0.12321770857E-01 0.75643761398E-02
 0.40276464026E-02 0.16627394766E-02 -.22302361351E-03 -.89294412990E-03 -.49322770604E-04
 0.55821548688E-03 -.27882463001E-03 -.11797454445E-02 -.80192473530E-03 -.14197954941E-03
 -.40402446224E-04 0.11083052094E-02 0.47072658103E-02 0.92728249608E-02 0.12716172261E-01
 0.18841553006E-01 0.19877471925E-01 0.17327718586E-01 0.11910463048E-01 0.68005224395E-02
 0.36326584146E-02 0.15698889433E-02 0.20494110327E-03 0.14623164041E-03 0.70158871593E-03
 0.24416280990E-03 -.91809940702E-03 -.10102077694E-02 -.36511765064E-04 0.52207197142E-03
 0.10624321914E-02 0.36097556793E-02 0.82071268335E-02 0.12716172261E-01 0.16125798509E-01
 0.47678909261E-01 0.45131711945E-01 0.34953744394E-01 0.22331558462E-01 0.12801577836E-01
 0.70562522136E-02 0.30636804967E-02 0.28025286641E-03 -.11169009037E-02 -.22423834901E-02
 -.35784907254E-02 -.34545812595E-02 -.11169004778E-02 0.13313381813E-02 0.26929962849E-02
 0.55871129741E-02 0.12799804333E-01 0.23246288030E-01 0.33911022682E-01 0.42821893259E-01
 0.45131711945E-01 0.38309940071E-01 0.26708953338E-01 0.16019552644E-01 0.89368774373E-02