   5   5   1   0
  0.3477306E+02  0.2573869E-09  0.2573869E-09  0.3030467E-08  0.5000000E-15
  1.000000000000000E-004
  CAR 
 unknown system                          
      7.00000000    -17.00000000 2401     -2.29132178      1.00000000
    -17.000  0.0000E+00  0.0000E+00
    -16.990  0.0000E+00  0.0000E+00
    -16.980  0.0000E+00  0.0000E+00
    -16.970  0.0000E+00  0.0000E+00
    -16.960  0.0000E+00  0.0000E+00
    -16.950  0.0000E+00  0.0000E+00
    -16.940  0.0000E+00  0.0000E+00
    -16.930  0.0000E+00  0.0000E+00
    -16.920  0.0000E+00  0.0000E+00
    -16.910  0.0000E+00  0.0000E+00
    -16.900  0.0000E+00  0.0000E+00
    -16.890  0.0000E+00  0.0000E+00
    -16.880  0.0000E+00  0.0000E+00
    -16.870  0.0000E+00  0.0000E+00
    -16.860  0.0000E+00  0.0000E+00
    -16.850  0.0000E+00  0.0000E+00
    -16.840  0.0000E+00  0.0000E+00
    -16.830  0.0000E+00  0.0000E+00
    -16.820  0.0000E+00  0.0000E+00
    -16.810  0.0000E+00  0.0000E+00
    -16.800  0.0000E+00  0.0000E+00
    -16.790  0.0000E+00  0.0000E+00
    -16.780  0.0000E+00  0.0000E+00
    -16.770  0.0000E+00  0.0000E+00
    -16.760  0.0000E+00  0.0000E+00
    -16.750  0.0000E+00  0.0000E+00
    -16.740  0.0000E+00  0.0000E+00
    -16.730  0.0000E+00  0.0000E+00
    -16.720  0.0000E+00  0.0000E+00
    -16.710  0.0000E+00  0.0000E+00
    -16.700  0.0000E+00  0.0000E+00
    -16.690  0.0000E+00  0.0000E+00
    -16.680  0.0000E+00  0.0000E+00
    -16.670  0.0000E+00  0.0000E+00
    -16.660  0.0000E+00  0.0000E+00
    -16.650  0.0000E+00  0.0000E+00
    -16.640  0.0000E+00  0.0000E+00
    -16.630  0.0000E+00  0.0000E+00
    -16.620  0.0000E+00  0.0000E+00
    -16.610  0.0000E+00  0.0000E+00
    -16.600  0.0000E+00  0.0000E+00
    -16.590  0.0000E+00  0.0000E+00
    -16.580  0.0000E+00  0.0000E+00
    -16.570  0.0000E+00  0.0000E+00
    -16.560  0.0000E+00  0.0000E+00
    -16.550  0.0000E+00  0.0000E+00
    -16.540  0.0000E+00  0.0000E+00
    -16.530  0.0000E+00  0.0000E+00
    -16.520  0.0000E+00  0.0000E+00
    -16.510  0.0000E+00  0.0000E+00
    -16.500  0.0000E+00  0.0000E+00
    -16.490  0.0000E+00  0.0000E+00
    -16.480  0.0000E+00  0.0000E+00
    -16.470  0.0000E+00  0.0000E+00
    -16.460  0.0000E+00  0.0000E+00
    -16.450  0.0000E+00  0.0000E+00
    -16.440  0.0000E+00  0.0000E+00
    -16.430  0.0000E+00  0.0000E+00
    -16.420  0.0000E+00  0.0000E+00
    -16.410  0.0000E+00  0.0000E+00
    -16.400  0.0000E+00  0.0000E+00
    -16.390  0.0000E+00  0.0000E+00
    -16.380  0.0000E+00  0.0000E+00
    -16.370  0.0000E+00  0.0000E+00
    -16.360  0.0000E+00  0.0000E+00
    -16.350  0.0000E+00  0.0000E+00
    -16.340  0.0000E+00  0.0000E+00
    -16.330  0.0000E+00  0.0000E+00
    -16.320  0.0000E+00  0.0000E+00
    -16.310  0.0000E+00  0.0000E+00
    -16.300  0.0000E+00  0.0000E+00
    -16.290  0.0000E+00  0.0000E+00
    -16.280  0.0000E+00  0.0000E+00
    -16.270  0.0000E+00  0.0000E+00
    -16.260  0.0000E+00  0.0000E+00
    -16.250  0.0000E+00  0.0000E+00
    -16.240  0.0000E+00  0.0000E+00
    -16.230  0.0000E+00  0.0000E+00
    -16.220  0.0000E+00  0.0000E+00
    -16.210  0.0000E+00  0.0000E+00
    -16.200  0.0000E+00  0.0000E+00
    -16.190  0.0000E+00  0.0000E+00
    -16.180  0.0000E+00  0.0000E+00
    -16.170  0.0000E+00  0.0000E+00
    -16.160  0.0000E+00  0.0000E+00
    -16.150  0.0000E+00  0.0000E+00
    -16.140  0.0000E+00  0.0000E+00
    -16.130  0.0000E+00  0.0000E+00
    -16.120  0.0000E+00  0.0000E+00
    -16.110  0.0000E+00  0.0000E+00
    -16.100  0.0000E+00  0.0000E+00
    -16.090  0.0000E+00  0.0000E+00
    -16.080  0.0000E+00  0.0000E+00
    -16.070  0.0000E+00  0.0000E+00
    -16.060  0.0000E+00  0.0000E+00
    -16.050  0.0000E+00  0.0000E+00
    -16.040  0.0000E+00  0.0000E+00
    -16.030  0.0000E+00  0.0000E+00
    -16.020  0.0000E+00  0.0000E+00
    -16.010  0.0000E+00  0.0000E+00
    -16.000  0.0000E+00  0.0000E+00
    -15.990  0.0000E+00  0.0000E+00
    -15.980  0.0000E+00  0.0000E+00
    -15.970  0.0000E+00  0.0000E+00
    -15.960  0.0000E+00  0.0000E+00
    -15.950  0.0000E+00  0.0000E+00
    -15.940  0.0000E+00  0.0000E+00
    -15.930  0.0000E+00  0.0000E+00
    -15.920  0.0000E+00  0.0000E+00
    -15.910  0.0000E+00  0.0000E+00
    -15.900  0.0000E+00  0.0000E+00
    -15.890  0.0000E+00  0.0000E+00
    -15.880  0.0000E+00  0.0000E+00
    -15.870  0.0000E+00  0.0000E+00
    -15.860  0.0000E+00  0.0000E+00
    -15.850  0.0000E+00  0.0000E+00
    -15.840  0.0000E+00  0.0000E+00
    -15.830  0.0000E+00  0.0000E+00
    -15.820  0.0000E+00  0.0000E+00
    -15.810  0.0000E+00  0.0000E+00
    -15.800  0.0000E+00  0.0000E+00
    -15.790  0.0000E+00  0.0000E+00
    -15.780  0.0000E+00  0.0000E+00
    -15.770  0.0000E+00  0.0000E+00
    -15.760  0.0000E+00  0.0000E+00
    -15.750  0.0000E+00  0.0000E+00
    -15.740  0.0000E+00  0.0000E+00
    -15.730  0.0000E+00  0.0000E+00
    -15.720  0.0000E+00  0.0000E+00
    -15.710  0.0000E+00  0.0000E+00
    -15.700  0.0000E+00  0.0000E+00
    -15.690  0.0000E+00  0.0000E+00
    -15.680  0.0000E+00  0.0000E+00
    -15.670  0.0000E+00  0.0000E+00
    -15.660  0.0000E+00  0.0000E+00
    -15.650  0.0000E+00  0.0000E+00
    -15.640  0.0000E+00  0.0000E+00
    -15.630  0.0000E+00  0.0000E+00
    -15.620  0.0000E+00  0.0000E+00
    -15.610  0.0000E+00  0.0000E+00
    -15.600  0.0000E+00  0.0000E+00
    -15.590  0.0000E+00  0.0000E+00
    -15.580  0.0000E+00  0.0000E+00
    -15.570  0.0000E+00  0.0000E+00
    -15.560  0.0000E+00  0.0000E+00
    -15.550  0.0000E+00  0.0000E+00
    -15.540  0.0000E+00  0.0000E+00
    -15.530  0.0000E+00  0.0000E+00
    -15.520  0.0000E+00  0.0000E+00
    -15.510  0.0000E+00  0.0000E+00
    -15.500  0.0000E+00  0.0000E+00
    -15.490  0.0000E+00  0.0000E+00
    -15.480  0.0000E+00  0.0000E+00
    -15.470  0.0000E+00  0.0000E+00
    -15.460  0.0000E+00  0.0000E+00
    -15.450  0.0000E+00  0.0000E+00
    -15.440  0.0000E+00  0.0000E+00
    -15.430  0.0000E+00  0.0000E+00
    -15.420  0.0000E+00  0.0000E+00
    -15.410  0.0000E+00  0.0000E+00
    -15.400  0.0000E+00  0.0000E+00
    -15.390  0.0000E+00  0.0000E+00
    -15.380  0.0000E+00  0.0000E+00
    -15.370  0.0000E+00  0.0000E+00
    -15.360  0.0000E+00  0.0000E+00
    -15.350  0.0000E+00  0.0000E+00
    -15.340  0.0000E+00  0.0000E+00
    -15.330  0.0000E+00  0.0000E+00
    -15.320  0.0000E+00  0.0000E+00
    -15.310  0.0000E+00  0.0000E+00
    -15.300  0.0000E+00  0.0000E+00
    -15.290  0.0000E+00  0.0000E+00
    -15.280  0.0000E+00  0.0000E+00
    -15.270  0.0000E+00  0.0000E+00
    -15.260  0.0000E+00  0.0000E+00
    -15.250  0.0000E+00  0.0000E+00
    -15.240  0.0000E+00  0.0000E+00
    -15.230  0.0000E+00  0.0000E+00
    -15.220  0.0000E+00  0.0000E+00
    -15.210  0.0000E+00  0.0000E+00
    -15.200  0.0000E+00  0.0000E+00
    -15.190  0.0000E+00  0.0000E+00
    -15.180  0.0000E+00  0.0000E+00
    -15.170  0.0000E+00  0.0000E+00
    -15.160  0.0000E+00  0.0000E+00
    -15.150  0.0000E+00  0.0000E+00
    -15.140  0.0000E+00  0.0000E+00
    -15.130  0.0000E+00  0.0000E+00
    -15.120  0.0000E+00  0.0000E+00
    -15.110  0.0000E+00  0.0000E+00
    -15.100  0.0000E+00  0.0000E+00
    -15.090  0.0000E+00  0.0000E+00
    -15.080  0.0000E+00  0.0000E+00
    -15.070  0.0000E+00  0.0000E+00
    -15.060  0.0000E+00  0.0000E+00
    -15.050  0.0000E+00  0.0000E+00
    -15.040  0.0000E+00  0.0000E+00
    -15.030  0.0000E+00  0.0000E+00
    -15.020  0.0000E+00  0.0000E+00
    -15.010  0.0000E+00  0.0000E+00
    -15.000  0.0000E+00  0.0000E+00
    -14.990  0.0000E+00  0.0000E+00
    -14.980  0.0000E+00  0.0000E+00
    -14.970  0.0000E+00  0.0000E+00
    -14.960  0.0000E+00  0.0000E+00
    -14.950  0.0000E+00  0.0000E+00
    -14.940  0.0000E+00  0.0000E+00
    -14.930  0.0000E+00  0.0000E+00
    -14.920  0.0000E+00  0.0000E+00
    -14.910  0.0000E+00  0.0000E+00
    -14.900  0.0000E+00  0.0000E+00
    -14.890  0.0000E+00  0.0000E+00
    -14.880  0.0000E+00  0.0000E+00
    -14.870  0.0000E+00  0.0000E+00
    -14.860  0.0000E+00  0.0000E+00
    -14.850  0.0000E+00  0.0000E+00
    -14.840  0.0000E+00  0.0000E+00
    -14.830  0.0000E+00  0.0000E+00
    -14.820  0.0000E+00  0.0000E+00
    -14.810  0.0000E+00  0.0000E+00
    -14.800  0.0000E+00  0.0000E+00
    -14.790  0.0000E+00  0.0000E+00
    -14.780  0.0000E+00  0.0000E+00
    -14.770  0.0000E+00  0.0000E+00
    -14.760  0.0000E+00  0.0000E+00
    -14.750  0.0000E+00  0.0000E+00
    -14.740  0.0000E+00  0.0000E+00
    -14.730  0.0000E+00  0.0000E+00
    -14.720  0.0000E+00  0.0000E+00
    -14.710  0.0000E+00  0.0000E+00
    -14.700  0.0000E+00  0.0000E+00
    -14.690  0.0000E+00  0.0000E+00
    -14.680  0.0000E+00  0.0000E+00
    -14.670  0.0000E+00  0.0000E+00
    -14.660  0.0000E+00  0.0000E+00
    -14.650  0.0000E+00  0.0000E+00
    -14.640  0.0000E+00  0.0000E+00
    -14.630  0.0000E+00  0.0000E+00
    -14.620  0.0000E+00  0.0000E+00
    -14.610  0.0000E+00  0.0000E+00
    -14.600  0.0000E+00  0.0000E+00
    -14.590  0.0000E+00  0.0000E+00
    -14.580  0.0000E+00  0.0000E+00
    -14.570  0.0000E+00  0.0000E+00
    -14.560  0.0000E+00  0.0000E+00
    -14.550  0.0000E+00  0.0000E+00
    -14.540  0.0000E+00  0.0000E+00
    -14.530  0.0000E+00  0.0000E+00
    -14.520  0.0000E+00  0.0000E+00
    -14.510  0.0000E+00  0.0000E+00
    -14.500  0.0000E+00  0.0000E+00
    -14.490  0.0000E+00  0.0000E+00
    -14.480  0.0000E+00  0.0000E+00
    -14.470  0.0000E+00  0.0000E+00
    -14.460  0.0000E+00  0.0000E+00
    -14.450  0.0000E+00  0.0000E+00
    -14.440  0.0000E+00  0.0000E+00
    -14.430  0.0000E+00  0.0000E+00
    -14.420  0.0000E+00  0.0000E+00
    -14.410  0.0000E+00  0.0000E+00
    -14.400  0.0000E+00  0.0000E+00
    -14.390  0.0000E+00  0.0000E+00
    -14.380  0.0000E+00  0.0000E+00
    -14.370  0.0000E+00  0.0000E+00
    -14.360  0.0000E+00  0.0000E+00
    -14.350  0.0000E+00  0.0000E+00
    -14.340  0.0000E+00  0.0000E+00
    -14.330  0.0000E+00  0.0000E+00
    -14.320  0.0000E+00  0.0000E+00
    -14.310  0.0000E+00  0.0000E+00
    -14.300  0.0000E+00  0.0000E+00
    -14.290  0.0000E+00  0.0000E+00
    -14.280  0.0000E+00  0.0000E+00
    -14.270  0.0000E+00  0.0000E+00
    -14.260  0.0000E+00  0.0000E+00
    -14.250  0.0000E+00  0.0000E+00
    -14.240  0.0000E+00  0.0000E+00
    -14.230  0.0000E+00  0.0000E+00
    -14.220  0.0000E+00  0.0000E+00
    -14.210  0.0000E+00  0.0000E+00
    -14.200  0.0000E+00  0.0000E+00
    -14.190  0.0000E+00  0.0000E+00
    -14.180  0.0000E+00  0.0000E+00
    -14.170  0.0000E+00  0.0000E+00
    -14.160  0.0000E+00  0.0000E+00
    -14.150  0.0000E+00  0.0000E+00
    -14.140  0.0000E+00  0.0000E+00
    -14.130  0.0000E+00  0.0000E+00
    -14.120  0.0000E+00  0.0000E+00
    -14.110  0.0000E+00  0.0000E+00
    -14.100  0.0000E+00  0.0000E+00
    -14.090  0.0000E+00  0.0000E+00
    -14.080  0.0000E+00  0.0000E+00
    -14.070  0.0000E+00  0.0000E+00
    -14.060  0.0000E+00  0.0000E+00
    -14.050  0.0000E+00  0.0000E+00
    -14.040  0.0000E+00  0.0000E+00
    -14.030  0.0000E+00  0.0000E+00
    -14.020  0.0000E+00  0.0000E+00
    -14.010  0.0000E+00  0.0000E+00
    -14.000  0.0000E+00  0.0000E+00
    -13.990  0.0000E+00  0.0000E+00
    -13.980  0.0000E+00  0.0000E+00
    -13.970  0.0000E+00  0.0000E+00
    -13.960  0.0000E+00  0.0000E+00
    -13.950  0.0000E+00  0.0000E+00
    -13.940  0.0000E+00  0.0000E+00
    -13.930  0.0000E+00  0.0000E+00
    -13.920  0.0000E+00  0.0000E+00
    -13.910  0.0000E+00  0.0000E+00
    -13.900  0.0000E+00  0.0000E+00
    -13.890  0.0000E+00  0.0000E+00
    -13.880  0.0000E+00  0.0000E+00
    -13.870  0.0000E+00  0.0000E+00
    -13.860  0.0000E+00  0.0000E+00
    -13.850  0.0000E+00  0.0000E+00
    -13.840  0.0000E+00  0.0000E+00
    -13.830  0.0000E+00  0.0000E+00
    -13.820  0.0000E+00  0.0000E+00
    -13.810  0.0000E+00  0.0000E+00
    -13.800  0.0000E+00  0.0000E+00
    -13.790  0.0000E+00  0.0000E+00
    -13.780  0.0000E+00  0.0000E+00
    -13.770  0.0000E+00  0.0000E+00
    -13.760  0.0000E+00  0.0000E+00
    -13.750  0.0000E+00  0.0000E+00
    -13.740  0.0000E+00  0.0000E+00
    -13.730  0.0000E+00  0.0000E+00
    -13.720  0.0000E+00  0.0000E+00
    -13.710  0.0000E+00  0.0000E+00
    -13.700  0.0000E+00  0.0000E+00
    -13.690  0.0000E+00  0.0000E+00
    -13.680  0.0000E+00  0.0000E+00
    -13.670  0.0000E+00  0.0000E+00
    -13.660  0.0000E+00  0.0000E+00
    -13.650  0.0000E+00  0.0000E+00
    -13.640  0.0000E+00  0.0000E+00
    -13.630  0.0000E+00  0.0000E+00
    -13.620  0.0000E+00  0.0000E+00
    -13.610  0.0000E+00  0.0000E+00
    -13.600  0.0000E+00  0.0000E+00
    -13.590  0.0000E+00  0.0000E+00
    -13.580  0.0000E+00  0.0000E+00
    -13.570  0.0000E+00  0.0000E+00
    -13.560  0.0000E+00  0.0000E+00
    -13.550  0.0000E+00  0.0000E+00
    -13.540  0.0000E+00  0.0000E+00
    -13.530  0.0000E+00  0.0000E+00
    -13.520  0.0000E+00  0.0000E+00
    -13.510  0.0000E+00  0.0000E+00
    -13.500  0.0000E+00  0.0000E+00
    -13.490  0.0000E+00  0.0000E+00
    -13.480  0.0000E+00  0.0000E+00
    -13.470  0.0000E+00  0.0000E+00
    -13.460  0.0000E+00  0.0000E+00
    -13.450  0.0000E+00  0.0000E+00
    -13.440  0.0000E+00  0.0000E+00
    -13.430  0.0000E+00  0.0000E+00
    -13.420  0.0000E+00  0.0000E+00
    -13.410  0.0000E+00  0.0000E+00
    -13.400  0.0000E+00  0.0000E+00
    -13.390  0.0000E+00  0.0000E+00
    -13.380  0.0000E+00  0.0000E+00
    -13.370  0.0000E+00  0.0000E+00
    -13.360  0.0000E+00  0.0000E+00
    -13.350  0.0000E+00  0.0000E+00
    -13.340  0.0000E+00  0.0000E+00
    -13.330  0.0000E+00  0.0000E+00
    -13.320  0.0000E+00  0.0000E+00
    -13.310  0.0000E+00  0.0000E+00
    -13.300  0.0000E+00  0.0000E+00
    -13.290  0.0000E+00  0.0000E+00
    -13.280  0.0000E+00  0.0000E+00
    -13.270  0.0000E+00  0.0000E+00
    -13.260  0.0000E+00  0.0000E+00
    -13.250  0.0000E+00  0.0000E+00
    -13.240  0.0000E+00  0.0000E+00
    -13.230  0.0000E+00  0.0000E+00
    -13.220  0.0000E+00  0.0000E+00
    -13.210  0.0000E+00  0.0000E+00
    -13.200  0.0000E+00  0.0000E+00
    -13.190  0.0000E+00  0.0000E+00
    -13.180  0.0000E+00  0.0000E+00
    -13.170  0.0000E+00  0.0000E+00
    -13.160  0.0000E+00  0.0000E+00
    -13.150  0.0000E+00  0.0000E+00
    -13.140  0.0000E+00  0.0000E+00
    -13.130  0.0000E+00  0.0000E+00
    -13.120  0.0000E+00  0.0000E+00
    -13.110  0.0000E+00  0.0000E+00
    -13.100  0.0000E+00  0.0000E+00
    -13.090  0.0000E+00  0.0000E+00
    -13.080  0.0000E+00  0.0000E+00
    -13.070  0.0000E+00  0.0000E+00
    -13.060  0.0000E+00  0.0000E+00
    -13.050  0.0000E+00  0.0000E+00
    -13.040  0.0000E+00  0.0000E+00
    -13.030  0.0000E+00  0.0000E+00
    -13.020  0.0000E+00  0.0000E+00
    -13.010  0.0000E+00  0.0000E+00
    -13.000  0.0000E+00  0.0000E+00
    -12.990  0.0000E+00  0.0000E+00
    -12.980  0.0000E+00  0.0000E+00
    -12.970  0.0000E+00  0.0000E+00
    -12.960  0.0000E+00  0.0000E+00
    -12.950  0.0000E+00  0.0000E+00
    -12.940  0.0000E+00  0.0000E+00
    -12.930  0.0000E+00  0.0000E+00
    -12.920  0.0000E+00  0.0000E+00
    -12.910  0.0000E+00  0.0000E+00
    -12.900  0.0000E+00  0.0000E+00
    -12.890  0.0000E+00  0.0000E+00
    -12.880  0.0000E+00  0.0000E+00
    -12.870  0.0000E+00  0.0000E+00
    -12.860  0.0000E+00  0.0000E+00
    -12.850  0.0000E+00  0.0000E+00
    -12.840  0.0000E+00  0.0000E+00
    -12.830  0.0000E+00  0.0000E+00
    -12.820  0.0000E+00  0.0000E+00
    -12.810  0.0000E+00  0.0000E+00
    -12.800  0.0000E+00  0.0000E+00
    -12.790  0.0000E+00  0.0000E+00
    -12.780  0.0000E+00  0.0000E+00
    -12.770  0.0000E+00  0.0000E+00
    -12.760  0.0000E+00  0.0000E+00
    -12.750  0.0000E+00  0.0000E+00
    -12.740  0.0000E+00  0.0000E+00
    -12.730  0.0000E+00  0.0000E+00
    -12.720  0.0000E+00  0.0000E+00
    -12.710  0.0000E+00  0.0000E+00
    -12.700  0.0000E+00  0.0000E+00
    -12.690  0.0000E+00  0.0000E+00
    -12.680  0.0000E+00  0.0000E+00
    -12.670  0.0000E+00  0.0000E+00
    -12.660  0.0000E+00  0.0000E+00
    -12.650  0.0000E+00  0.0000E+00
    -12.640  0.0000E+00  0.0000E+00
    -12.630  0.0000E+00  0.0000E+00
    -12.620  0.0000E+00  0.0000E+00
    -12.610  0.0000E+00  0.0000E+00
    -12.600  0.0000E+00  0.0000E+00
    -12.590  0.0000E+00  0.0000E+00
    -12.580  0.0000E+00  0.0000E+00
    -12.570  0.0000E+00  0.0000E+00
    -12.560  0.0000E+00  0.0000E+00
    -12.550  0.0000E+00  0.0000E+00
    -12.540  0.0000E+00  0.0000E+00
    -12.530  0.0000E+00  0.0000E+00
    -12.520  0.0000E+00  0.0000E+00
    -12.510  0.0000E+00  0.0000E+00
    -12.500  0.0000E+00  0.0000E+00
    -12.490  0.0000E+00  0.0000E+00
    -12.480  0.0000E+00  0.0000E+00
    -12.470  0.0000E+00  0.0000E+00
    -12.460  0.0000E+00  0.0000E+00
    -12.450  0.0000E+00  0.0000E+00
    -12.440  0.0000E+00  0.0000E+00
    -12.430  0.0000E+00  0.0000E+00
    -12.420  0.0000E+00  0.0000E+00
    -12.410  0.0000E+00  0.0000E+00
    -12.400  0.0000E+00  0.0000E+00
    -12.390  0.0000E+00  0.0000E+00
    -12.380  0.0000E+00  0.0000E+00
    -12.370  0.0000E+00  0.0000E+00
    -12.360  0.0000E+00  0.0000E+00
    -12.350  0.0000E+00  0.0000E+00
    -12.340  0.0000E+00  0.0000E+00
    -12.330  0.0000E+00  0.0000E+00
    -12.320  0.0000E+00  0.0000E+00
    -12.310  0.0000E+00  0.0000E+00
    -12.300  0.0000E+00  0.0000E+00
    -12.290  0.0000E+00  0.0000E+00
    -12.280  0.0000E+00  0.0000E+00
    -12.270  0.0000E+00  0.0000E+00
    -12.260  0.0000E+00  0.0000E+00
    -12.250  0.0000E+00  0.0000E+00
    -12.240  0.0000E+00  0.0000E+00
    -12.230  0.0000E+00  0.0000E+00
    -12.220  0.0000E+00  0.0000E+00
    -12.210  0.0000E+00  0.0000E+00
    -12.200  0.0000E+00  0.0000E+00
    -12.190  0.0000E+00  0.0000E+00
    -12.180  0.0000E+00  0.0000E+00
    -12.170  0.0000E+00  0.0000E+00
    -12.160  0.0000E+00  0.0000E+00
    -12.150  0.1110E-15  0.1110E-17
    -12.140  0.3331E-15  0.4441E-17
    -12.130  0.8882E-15  0.1332E-16
    -12.120  0.2776E-14  0.4108E-16
    -12.110  0.8549E-14  0.1266E-15
    -12.100  0.2542E-13  0.3808E-15
    -12.090  0.7383E-13  0.1119E-14
    -12.080  0.2106E-12  0.3225E-14
    -12.070  0.5891E-12  0.9116E-14
    -12.060  0.1615E-11  0.2527E-13
    -12.050  0.4340E-11  0.6867E-13
    -12.040  0.1143E-10  0.1830E-12
    -12.030  0.2952E-10  0.4782E-12
    -12.020  0.7473E-10  0.1226E-11
    -12.010  0.1854E-09  0.3080E-11
    -12.000  0.4509E-09  0.7589E-11
    -11.990  0.1075E-08  0.1834E-10
    -11.980  0.2512E-08  0.4346E-10
    -11.970  0.5755E-08  0.1010E-09
    -11.960  0.1292E-07  0.2302E-09
    -11.950  0.2844E-07  0.5146E-09
    -11.940  0.6136E-07  0.1128E-08
    -11.930  0.1298E-06  0.2426E-08
    -11.920  0.2690E-06  0.5116E-08
    -11.910  0.5466E-06  0.1058E-07
    -11.900  0.1089E-05  0.2147E-07
    -11.890  0.2126E-05  0.4273E-07
    -11.880  0.4068E-05  0.8341E-07
    -11.870  0.7633E-05  0.1597E-06
    -11.860  0.1404E-04  0.3001E-06
    -11.850  0.2530E-04  0.5531E-06
    -11.840  0.4471E-04  0.1000E-05
    -11.830  0.7743E-04  0.1775E-05
    -11.820  0.1315E-03  0.3089E-05
    -11.810  0.2188E-03  0.5277E-05
    -11.800  0.3569E-03  0.8846E-05
    -11.790  0.5707E-03  0.1455E-04
    -11.780  0.8946E-03  0.2350E-04
    -11.770  0.1375E-02  0.3725E-04
    -11.760  0.2070E-02  0.5795E-04
    -11.750  0.3056E-02  0.8851E-04
    -11.740  0.4423E-02  0.1327E-03
    -11.730  0.6274E-02  0.1955E-03
    -11.720  0.8724E-02  0.2827E-03
    -11.710  0.1189E-01  0.4016E-03
    -11.700  0.1589E-01  0.5605E-03
    -11.690  0.2081E-01  0.7686E-03
    -11.680  0.2671E-01  0.1036E-02
    -11.670  0.3361E-01  0.1372E-02
    -11.660  0.4146E-01  0.1786E-02
    -11.650  0.5013E-01  0.2288E-02
    -11.640  0.5941E-01  0.2882E-02
    -11.630  0.6903E-01  0.3572E-02
    -11.620  0.7861E-01  0.4358E-02
    -11.610  0.8775E-01  0.5236E-02
    -11.600  0.9603E-01  0.6196E-02
    -11.590  0.1030E+00  0.7226E-02
    -11.580  0.1083E+00  0.8309E-02
    -11.570  0.1116E+00  0.9426E-02
    -11.560  0.1128E+00  0.1055E-01
    -11.550  0.1118E+00  0.1167E-01
    -11.540  0.1086E+00  0.1276E-01
    -11.530  0.1036E+00  0.1379E-01
    -11.520  0.9694E-01  0.1476E-01
    -11.510  0.8920E-01  0.1566E-01
    -11.500  0.8087E-01  0.1646E-01
    -11.490  0.7254E-01  0.1719E-01
    -11.480  0.6481E-01  0.1784E-01
    -11.470  0.5832E-01  0.1842E-01
    -11.460  0.5370E-01  0.1896E-01
    -11.450  0.5161E-01  0.1947E-01
    -11.440  0.5271E-01  0.2000E-01
    -11.430  0.5766E-01  0.2058E-01
    -11.420  0.6715E-01  0.2125E-01
    -11.410  0.8180E-01  0.2207E-01
    -11.400  0.1022E+00  0.2309E-01
    -11.390  0.1289E+00  0.2438E-01
    -11.380  0.1620E+00  0.2600E-01
    -11.370  0.2016E+00  0.2801E-01
    -11.360  0.2473E+00  0.3049E-01
    -11.350  0.2983E+00  0.3347E-01
    -11.340  0.3533E+00  0.3700E-01
    -11.330  0.4106E+00  0.4111E-01
    -11.320  0.4680E+00  0.4579E-01
    -11.310  0.5230E+00  0.5102E-01
    -11.300  0.5730E+00  0.5675E-01
    -11.290  0.6154E+00  0.6290E-01
    -11.280  0.6479E+00  0.6938E-01
    -11.270  0.6686E+00  0.7607E-01
    -11.260  0.6764E+00  0.8283E-01
    -11.250  0.6708E+00  0.8954E-01
    -11.240  0.6521E+00  0.9606E-01
    -11.230  0.6213E+00  0.1023E+00
    -11.220  0.5803E+00  0.1081E+00
    -11.210  0.5313E+00  0.1134E+00
    -11.200  0.4768E+00  0.1182E+00
    -11.190  0.4195E+00  0.1224E+00
    -11.180  0.3617E+00  0.1260E+00
    -11.170  0.3058E+00  0.1290E+00
    -11.160  0.2533E+00  0.1316E+00
    -11.150  0.2058E+00  0.1336E+00
    -11.140  0.1638E+00  0.1353E+00
    -11.130  0.1278E+00  0.1365E+00
    -11.120  0.9779E-01  0.1375E+00
    -11.110  0.7333E-01  0.1382E+00
    -11.100  0.5390E-01  0.1388E+00
    -11.090  0.3883E-01  0.1392E+00
    -11.080  0.2742E-01  0.1394E+00
    -11.070  0.1899E-01  0.1396E+00
    -11.060  0.1288E-01  0.1398E+00
    -11.050  0.8571E-02  0.1399E+00
    -11.040  0.5589E-02  0.1399E+00
    -11.030  0.3574E-02  0.1399E+00
    -11.020  0.2244E-02  0.1400E+00
    -11.010  0.1386E-02  0.1400E+00
    -11.000  0.8500E-03  0.1400E+00
    -10.990  0.5310E-03  0.1400E+00
    -10.980  0.3615E-03  0.1400E+00
    -10.970  0.3032E-03  0.1400E+00
    -10.960  0.3426E-03  0.1400E+00
    -10.950  0.4891E-03  0.1400E+00
    -10.940  0.7763E-03  0.1400E+00
    -10.930  0.1266E-02  0.1400E+00
    -10.920  0.2057E-02  0.1401E+00
    -10.910  0.3294E-02  0.1401E+00
    -10.900  0.5177E-02  0.1401E+00
    -10.890  0.7982E-02  0.1402E+00
    -10.880  0.1207E-01  0.1403E+00
    -10.870  0.1788E-01  0.1405E+00
    -10.860  0.2599E-01  0.1408E+00
    -10.850  0.3703E-01  0.1411E+00
    -10.840  0.5172E-01  0.1417E+00
    -10.830  0.7084E-01  0.1424E+00
    -10.820  0.9513E-01  0.1433E+00
    -10.810  0.1253E+00  0.1446E+00
    -10.800  0.1617E+00  0.1462E+00
    -10.790  0.2048E+00  0.1482E+00
    -10.780  0.2542E+00  0.1508E+00
    -10.770  0.3095E+00  0.1539E+00
    -10.760  0.3696E+00  0.1576E+00
    -10.750  0.4328E+00  0.1619E+00
    -10.740  0.4971E+00  0.1669E+00
    -10.730  0.5600E+00  0.1725E+00
    -10.720  0.6188E+00  0.1787E+00
    -10.710  0.6708E+00  0.1854E+00
    -10.700  0.7134E+00  0.1925E+00
    -10.690  0.7444E+00  0.1999E+00
    -10.680  0.7622E+00  0.2076E+00
    -10.670  0.7659E+00  0.2152E+00
    -10.660  0.7554E+00  0.2228E+00
    -10.650  0.7315E+00  0.2301E+00
    -10.640  0.6957E+00  0.2371E+00
    -10.630  0.6501E+00  0.2436E+00
    -10.620  0.5975E+00  0.2495E+00
    -10.610  0.5408E+00  0.2549E+00
    -10.600  0.4831E+00  0.2598E+00
    -10.590  0.4273E+00  0.2640E+00
    -10.580  0.3762E+00  0.2678E+00
    -10.570  0.3323E+00  0.2711E+00
    -10.560  0.2977E+00  0.2741E+00
    -10.550  0.2741E+00  0.2768E+00
    -10.540  0.2627E+00  0.2795E+00
    -10.530  0.2644E+00  0.2821E+00
    -10.520  0.2795E+00  0.2849E+00
    -10.510  0.3082E+00  0.2880E+00
    -10.500  0.3498E+00  0.2915E+00
    -10.490  0.4036E+00  0.2955E+00
    -10.480  0.4681E+00  0.3002E+00
    -10.470  0.5415E+00  0.3056E+00
    -10.460  0.6217E+00  0.3118E+00
    -10.450  0.7059E+00  0.3189E+00
    -10.440  0.7914E+00  0.3268E+00
    -10.430  0.8750E+00  0.3356E+00
    -10.420  0.9536E+00  0.3451E+00
    -10.410  0.1024E+01  0.3553E+00
    -10.400  0.1084E+01  0.3662E+00
    -10.390  0.1131E+01  0.3775E+00
    -10.380  0.1163E+01  0.3891E+00
    -10.370  0.1178E+01  0.4009E+00
    -10.360  0.1177E+01  0.4127E+00
    -10.350  0.1159E+01  0.4243E+00
    -10.340  0.1124E+01  0.4355E+00
    -10.330  0.1075E+01  0.4462E+00
    -10.320  0.1012E+01  0.4564E+00
    -10.310  0.9394E+00  0.4658E+00
    -10.300  0.8585E+00  0.4744E+00
    -10.290  0.7723E+00  0.4821E+00
    -10.280  0.6838E+00  0.4889E+00
    -10.270  0.5957E+00  0.4949E+00
    -10.260  0.5105E+00  0.5000E+00
    -10.250  0.4301E+00  0.5043E+00
    -10.240  0.3563E+00  0.5078E+00
    -10.230  0.2900E+00  0.5107E+00
    -10.220  0.2319E+00  0.5131E+00
    -10.210  0.1822E+00  0.5149E+00
    -10.200  0.1405E+00  0.5163E+00
    -10.190  0.1064E+00  0.5173E+00
    -10.180  0.7912E-01  0.5181E+00
    -10.170  0.5773E-01  0.5187E+00
    -10.160  0.4133E-01  0.5191E+00
    -10.150  0.2903E-01  0.5194E+00
    -10.140  0.2001E-01  0.5196E+00
    -10.130  0.1353E-01  0.5198E+00
    -10.120  0.8971E-02  0.5198E+00
    -10.110  0.5835E-02  0.5199E+00
    -10.100  0.3725E-02  0.5199E+00
    -10.090  0.2335E-02  0.5200E+00
    -10.080  0.1443E-02  0.5200E+00
    -10.070  0.8889E-03  0.5200E+00
    -10.060  0.5633E-03  0.5200E+00
    -10.050  0.3972E-03  0.5200E+00
    -10.040  0.3531E-03  0.5200E+00
    -10.030  0.4207E-03  0.5200E+00
    -10.020  0.6153E-03  0.5200E+00
    -10.010  0.9794E-03  0.5200E+00
    -10.000  0.1588E-02  0.5200E+00
     -9.990  0.2557E-02  0.5201E+00
     -9.980  0.4053E-02  0.5201E+00
     -9.970  0.6305E-02  0.5202E+00
     -9.960  0.9620E-02  0.5203E+00
     -9.950  0.1439E-01  0.5204E+00
     -9.940  0.2111E-01  0.5206E+00
     -9.930  0.3036E-01  0.5209E+00
     -9.920  0.4282E-01  0.5214E+00
     -9.910  0.5921E-01  0.5219E+00
     -9.900  0.8030E-01  0.5227E+00
     -9.890  0.1068E+00  0.5238E+00
     -9.880  0.1394E+00  0.5252E+00
     -9.870  0.1785E+00  0.5270E+00
     -9.860  0.2244E+00  0.5292E+00
     -9.850  0.2769E+00  0.5320E+00
     -9.840  0.3358E+00  0.5354E+00
     -9.830  0.4001E+00  0.5394E+00
     -9.820  0.4690E+00  0.5441E+00
     -9.810  0.5411E+00  0.5495E+00
     -9.800  0.6152E+00  0.5556E+00
     -9.790  0.6900E+00  0.5625E+00
     -9.780  0.7644E+00  0.5702E+00
     -9.770  0.8377E+00  0.5785E+00
     -9.760  0.9096E+00  0.5876E+00
     -9.750  0.9800E+00  0.5974E+00
     -9.740  0.1049E+01  0.6079E+00
     -9.730  0.1117E+01  0.6191E+00
     -9.720  0.1185E+01  0.6309E+00
     -9.710  0.1251E+01  0.6435E+00
     -9.700  0.1317E+01  0.6566E+00
     -9.690  0.1379E+01  0.6704E+00
     -9.680  0.1437E+01  0.6848E+00
     -9.670  0.1488E+01  0.6997E+00
     -9.660  0.1529E+01  0.7150E+00
     -9.650  0.1559E+01  0.7306E+00
     -9.640  0.1574E+01  0.7463E+00
     -9.630  0.1574E+01  0.7620E+00
     -9.620  0.1559E+01  0.7776E+00
     -9.610  0.1528E+01  0.7929E+00
     -9.600  0.1484E+01  0.8077E+00
     -9.590  0.1429E+01  0.8220E+00
     -9.580  0.1368E+01  0.8357E+00
     -9.570  0.1303E+01  0.8487E+00
     -9.560  0.1238E+01  0.8611E+00
     -9.550  0.1175E+01  0.8729E+00
     -9.540  0.1115E+01  0.8840E+00
     -9.530  0.1061E+01  0.8946E+00
     -9.520  0.1011E+01  0.9047E+00
     -9.510  0.9648E+00  0.9144E+00
     -9.500  0.9204E+00  0.9236E+00
     -9.490  0.8761E+00  0.9324E+00
     -9.480  0.8302E+00  0.9407E+00
     -9.470  0.7813E+00  0.9485E+00
     -9.460  0.7285E+00  0.9558E+00
     -9.450  0.6719E+00  0.9625E+00
     -9.440  0.6119E+00  0.9686E+00
     -9.430  0.5496E+00  0.9741E+00
     -9.420  0.4869E+00  0.9790E+00
     -9.410  0.4254E+00  0.9832E+00
     -9.400  0.3673E+00  0.9869E+00
     -9.390  0.3143E+00  0.9900E+00
     -9.380  0.2684E+00  0.9927E+00
     -9.370  0.2309E+00  0.9950E+00
     -9.360  0.2029E+00  0.9971E+00
     -9.350  0.1852E+00  0.9989E+00
     -9.340  0.1783E+00  0.1001E+01
     -9.330  0.1824E+00  0.1003E+01
     -9.320  0.1972E+00  0.1004E+01
     -9.310  0.2223E+00  0.1007E+01
     -9.300  0.2567E+00  0.1009E+01
     -9.290  0.2992E+00  0.1012E+01
     -9.280  0.3481E+00  0.1016E+01
     -9.270  0.4013E+00  0.1020E+01
     -9.260  0.4564E+00  0.1024E+01
     -9.250  0.5107E+00  0.1029E+01
     -9.240  0.5613E+00  0.1035E+01
     -9.230  0.6054E+00  0.1041E+01
     -9.220  0.6405E+00  0.1048E+01
     -9.210  0.6646E+00  0.1054E+01
     -9.200  0.6761E+00  0.1061E+01
     -9.190  0.6743E+00  0.1068E+01
     -9.180  0.6594E+00  0.1074E+01
     -9.170  0.6323E+00  0.1081E+01
     -9.160  0.5945E+00  0.1087E+01
     -9.150  0.5483E+00  0.1092E+01
     -9.140  0.4962E+00  0.1097E+01
     -9.130  0.4409E+00  0.1101E+01
     -9.120  0.3850E+00  0.1105E+01
     -9.110  0.3310E+00  0.1109E+01
     -9.100  0.2808E+00  0.1111E+01
     -9.090  0.2360E+00  0.1114E+01
     -9.080  0.1976E+00  0.1116E+01
     -9.070  0.1661E+00  0.1117E+01
     -9.060  0.1416E+00  0.1119E+01
     -9.050  0.1237E+00  0.1120E+01
     -9.040  0.1118E+00  0.1121E+01
     -9.030  0.1050E+00  0.1122E+01
     -9.020  0.1024E+00  0.1123E+01
     -9.010  0.1028E+00  0.1124E+01
     -9.000  0.1052E+00  0.1125E+01
     -8.990  0.1087E+00  0.1126E+01
     -8.980  0.1125E+00  0.1127E+01
     -8.970  0.1160E+00  0.1129E+01
     -8.960  0.1188E+00  0.1130E+01
     -8.950  0.1208E+00  0.1131E+01
     -8.940  0.1223E+00  0.1132E+01
     -8.930  0.1238E+00  0.1133E+01
     -8.920  0.1263E+00  0.1135E+01
     -8.910  0.1311E+00  0.1136E+01
     -8.900  0.1398E+00  0.1137E+01
     -8.890  0.1543E+00  0.1139E+01
     -8.880  0.1769E+00  0.1141E+01
     -8.870  0.2098E+00  0.1143E+01
     -8.860  0.2554E+00  0.1145E+01
     -8.850  0.3159E+00  0.1149E+01
     -8.840  0.3933E+00  0.1153E+01
     -8.830  0.4888E+00  0.1157E+01
     -8.820  0.6029E+00  0.1163E+01
     -8.810  0.7352E+00  0.1171E+01
     -8.800  0.8842E+00  0.1180E+01
     -8.790  0.1047E+01  0.1190E+01
     -8.780  0.1219E+01  0.1202E+01
     -8.770  0.1396E+01  0.1216E+01
     -8.760  0.1572E+01  0.1232E+01
     -8.750  0.1740E+01  0.1249E+01