    5    5    1    1
  0.3477306E+02  0.2573869E-09  0.2573869E-09  0.3030466E-08  0.5000000E-15
  1.000000000000000E-004
  CAR 
 unknown system                          
     45     14     28
 
  0.0000000E+00  0.0000000E+00  0.0000000E+00  0.1000000E-01
    1      -11.564897   1.000000
    2      -10.632386   1.000000
    3       -8.957857   1.000000
    4       -7.482637   1.000000
    5       -5.933335   1.000000
    6       -5.559540   1.000000
    7       -5.516558   1.000000
    8       -5.516281   1.000000
    9       -5.266188   1.000000
   10       -5.216590   1.000000
   11       -5.216280   1.000000
   12       -5.185803   1.000000
   13       -5.185530   1.000000
   14       -4.943274   1.000000
   15       -4.942976   1.000000
   16       -4.851710   1.000000
   17       -4.693918   1.000000
   18       -4.693881   1.000000
   19       -4.446491   1.000000
   20       -4.446412   1.000000
   21       -4.227337   1.000000
   22       -4.227302   1.000000
   23       -3.945890   1.000000
   24       -3.945819   1.000000
   25       -2.879216   1.000000
   26        1.564879   0.000000
   27        1.898963   0.000000
   28        2.304829   0.000000
 
  0.1000000E+00  0.6938894E-17  0.0000000E+00  0.6000000E-01
    1      -11.264187   1.000000
    2      -10.333718   1.000000
    3       -8.689576   1.000000
    4       -7.260160   1.000000
    5       -5.986692   1.000000
    6       -5.679576   1.000000
    7       -5.543049   1.000000
    8       -5.410592   1.000000
    9       -5.337240   1.000000
   10       -5.293728   1.000000
   11       -5.260310   1.000000
   12       -5.113525   1.000000
   13       -5.107343   1.000000
   14       -5.060955   1.000000
   15       -4.964523   1.000000
   16       -4.857699   1.000000
   17       -4.712368   1.000000
   18       -4.634184   1.000000
   19       -4.460476   1.000000
   20       -4.423289   1.000000
   21       -4.254685   1.000000
   22       -4.223312   1.000000
   23       -3.940801   1.000000
   24       -3.738274   1.000000
   25       -2.197679   0.092701
   26        1.808889   0.000000
   27        2.201646   0.000000
   28        2.607449   0.000000
 
  0.2000000E+00 -0.1387779E-16  0.0000000E+00  0.6000000E-01
    1      -10.407818   1.000000
    2       -9.486447   1.000000
    3       -7.986110   1.000000
    4       -6.731231   1.000000
    5       -6.193174   1.000000
    6       -5.836905   1.000000
    7       -5.679458   1.000000
    8       -5.624582   1.000000
    9       -5.444537   1.000000
   10       -5.239108   1.000000
   11       -5.160674   1.000000
   12       -5.145869   1.000000
   13       -4.979997   1.000000
   14       -4.965040   1.000000
   15       -4.851017   1.000000
   16       -4.792878   1.000000
   17       -4.747481   1.000000
   18       -4.566870   1.000000
   19       -4.521435   1.000000
   20       -4.407716   1.000000
   21       -4.223977   1.000000
   22       -4.044718   1.000000
   23       -3.934165   1.000000
   24       -2.875427   1.000000
   25       -0.886502   0.000000
   26        2.536069   0.000000
   27        3.108310   0.000000
   28        3.517473   0.000000
 
  0.3000000E+00 -0.2775558E-16  0.0000000E+00  0.6000000E-01
    1       -9.201335   1.000000
    2       -8.301936   1.000000
    3       -7.268754   1.000000
    4       -6.498761   1.000000
    5       -6.296541   1.000000
    6       -6.082644   1.000000
    7       -5.791540   1.000000
    8       -5.591832   1.000000
    9       -5.494367   1.000000
   10       -5.239981   1.000000
   11       -5.086165   1.000000
   12       -5.010241   1.000000
   13       -4.857986   1.000000
   14       -4.791310   1.000000
   15       -4.701790   1.000000
   16       -4.613792   1.000000
   17       -4.491981   1.000000
   18       -4.330593   1.000000
   19       -4.286790   1.000000
   20       -4.213042   1.000000
   21       -4.093738   1.000000
   22       -3.919310   1.000000
   23       -3.580590   1.000000
   24       -1.710278   0.000000
   25        0.747262   0.000000
   26        3.706274   0.000000
   27        4.573289   0.000000
   28        4.929995   0.000000
 
  0.4000000E+00 -0.2775558E-16  0.0000000E+00  0.6000000E-01
    1       -8.291374   1.000000
    2       -7.288646   1.000000
    3       -6.955699   1.000000
    4       -6.561337   1.000000
    5       -6.425052   1.000000
    6       -6.226655   1.000000
    7       -5.866965   1.000000
    8       -5.427282   1.000000
    9       -5.252123   1.000000
   10       -5.217867   1.000000
   11       -5.166644   1.000000
   12       -4.904973   1.000000
   13       -4.707610   1.000000
   14       -4.437128   1.000000
   15       -4.354049   1.000000
   16       -4.337217   1.000000
   17       -4.061535   1.000000
   18       -4.048721   1.000000
   19       -3.997221   1.000000
   20       -3.921092   1.000000
   21       -3.776838   1.000000
   22       -3.530924   1.000000
   23       -2.524796   0.999520
   24       -0.330284   0.000000
   25        1.607724   0.000000
   26        2.858587   0.000000
   27        3.647032   0.000000
   28        4.668939   0.000000
 
  0.5000000E+00 -0.2775558E-16  0.0000000E+00  0.3000000E-01
    1       -8.071485   1.000000
    2       -6.970248   1.000000
    3       -6.912456   1.000000
    4       -6.531707   1.000000
    5       -6.496665   1.000000
    6       -6.291599   1.000000
    7       -5.859239   1.000000
    8       -5.362320   1.000000
    9       -5.200171   1.000000
   10       -5.172439   1.000000
   11       -5.113746   1.000000
   12       -4.925297   1.000000
   13       -4.416229   1.000000
   14       -4.403756   1.000000
   15       -4.244291   1.000000
   16       -4.216067   1.000000
   17       -4.002576   1.000000
   18       -3.901476   1.000000
   19       -3.843260   1.000000
   20       -3.661313   1.000000
   21       -3.548895   1.000000
   22       -2.211095   0.128277
   23       -1.306502   0.000000
   24       -0.766786   0.000000
   25        0.413590   0.000000
   26        2.161991   0.000000
   27        3.316282   0.000000
   28        4.103704   0.000000
 
  0.2000000E+00  0.1000000E+00  0.0000000E+00  0.6000000E-01
    1      -10.683770   1.000000
    2       -9.758543   1.000000
    3       -8.197960   1.000000
    4       -6.871743   1.000000
    5       -6.122394   1.000000
    6       -5.762216   1.000000
    7       -5.674160   1.000000
    8       -5.566694   1.000000
    9       -5.413624   1.000000
   10       -5.297244   1.000000
   11       -5.205497   1.000000
   12       -5.120307   1.000000
   13       -5.059611   1.000000
   14       -4.997445   1.000000
   15       -4.904063   1.000000
   16       -4.807735   1.000000
   17       -4.661332   1.000000
   18       -4.569977   1.000000
   19       -4.549356   1.000000
   20       -4.421938   1.000000
   21       -4.307888   1.000000
   22       -4.040922   1.000000
   23       -3.982296   1.000000
   24       -3.123120   1.000000
   25       -1.269922   0.000000
   26        2.295579   0.000000
   27        2.806676   0.000000
   28        3.212367   0.000000
 
  0.3000000E+00  0.1000000E+00  0.0000000E+00  0.1200000E+00
    1       -9.632693   1.000000
    2       -8.721955   1.000000
    3       -7.453487   1.000000
    4       -6.438180   1.000000
    5       -6.219662   1.000000
    6       -5.962802   1.000000
    7       -5.790756   1.000000
    8       -5.728203   1.000000
    9       -5.553723   1.000000
   10       -5.262826   1.000000
   11       -5.232927   1.000000
   12       -5.100764   1.000000
   13       -5.010203   1.000000
   14       -4.883284   1.000000
   15       -4.776378   1.000000
   16       -4.721190   1.000000
   17       -4.570028   1.000000
   18       -4.444647   1.000000
   19       -4.319696   1.000000
   20       -4.251316   1.000000
   21       -4.104011   1.000000
   22       -3.999876   1.000000
   23       -3.688815   1.000000
   24       -2.132061   0.012152
   25        0.156915   0.000000
   26        3.274246   0.000000
   27        4.009873   0.000000
   28        4.445836   0.000000
 
  0.4000000E+00  0.1000000E+00  0.0000000E+00  0.1200000E+00
    1       -8.515647   1.000000
    2       -7.571853   1.000000
    3       -6.952853   1.000000
    4       -6.477776   1.000000
    5       -6.273397   1.000000
    6       -6.101909   1.000000
    7       -5.850670   1.000000
    8       -5.590492   1.000000
    9       -5.512822   1.000000
   10       -5.249468   1.000000
   11       -5.182896   1.000000
   12       -5.044879   1.000000
   13       -4.882059   1.000000
   14       -4.704218   1.000000
   15       -4.592395   1.000000
   16       -4.458782   1.000000
   17       -4.344867   1.000000
   18       -4.213664   1.000000
   19       -4.127623   1.000000
   20       -3.936399   1.000000
   21       -3.896706   1.000000
   22       -3.588920   1.000000
   23       -2.818121   1.000000
   24       -0.743650   0.000000
   25        1.811123   0.000000
   26        3.864849   0.000000
   27        4.712168   0.000000
   28        5.203265   0.000000
 
  0.5000000E+00  0.1000000E+00  0.0000000E+00  0.1200000E+00
    1       -8.022060   1.000000
    2       -6.904452   1.000000
    3       -6.810362   1.000000
    4       -6.460673   1.000000
    5       -6.397032   1.000000
    6       -6.185098   1.000000
    7       -5.856088   1.000000
    8       -5.481737   1.000000
    9       -5.339031   1.000000
   10       -5.263064   1.000000
   11       -5.163407   1.000000
   12       -4.903532   1.000000
   13       -4.791175   1.000000
   14       -4.486709   1.000000
   15       -4.359174   1.000000
   16       -4.206078   1.000000
   17       -4.096741   1.000000
   18       -4.048127   1.000000
   19       -3.978082   1.000000
   20       -3.825048   1.000000
   21       -3.335902   1.000000
   22       -2.308420   0.595532
   23       -1.304616   0.000000
   24        0.153000   0.000000
   25        0.877790   0.000000
   26        2.490101   0.000000
   27        3.536218   0.000000
   28        4.588196   0.000000
 
  0.4000000E+00  0.2000000E+00  0.0000000E+00  0.6000000E-01
    1       -8.608627   1.000000
    2       -7.671533   1.000000
    3       -6.909621   1.000000
    4       -6.369728   1.000000
    5       -6.087151   1.000000
    6       -5.973884   1.000000
    7       -5.902565   1.000000
    8       -5.789796   1.000000
    9       -5.530245   1.000000
   10       -5.396780   1.000000
   11       -5.278871   1.000000
   12       -5.228930   1.000000
   13       -4.965227   1.000000
   14       -4.893404   1.000000
   15       -4.720562   1.000000
   16       -4.572888   1.000000
   17       -4.390570   1.000000
   18       -4.230314   1.000000
   19       -4.154933   1.000000
   20       -3.939647   1.000000
   21       -3.884937   1.000000
   22       -3.532594   1.000000
   23       -2.815097   1.000000
   24       -0.872695   0.000000
   25        1.670279   0.000000
   26        4.496277   0.000000
   27        5.272609   0.000000
   28        5.652049   0.000000
 
  0.5000000E+00  0.2000000E+00  0.0000000E+00  0.1200000E+00
    1       -7.930632   1.000000
    2       -6.776886   1.000000
    3       -6.581757   1.000000
    4       -6.351681   1.000000
    5       -6.160788   1.000000
    6       -6.029486   1.000000
    7       -5.837235   1.000000
    8       -5.743573   1.000000
    9       -5.514738   1.000000
   10       -5.418653   1.000000
   11       -5.357579   1.000000
   12       -5.022887   1.000000
   13       -4.933966   1.000000
   14       -4.794529   1.000000
   15       -4.607602   1.000000
   16       -4.497402   1.000000
   17       -4.338035   1.000000
   18       -4.154671   1.000000
   19       -3.991636   1.000000
   20       -3.845006   1.000000
   21       -3.146597   1.000000
   22       -2.318250   0.648331
   23       -1.196524   0.000000
   24        0.766827   0.000000
   25        2.434771   0.000000
   26        3.564406   0.000000
   27        4.387775   0.000000
   28        5.039087   0.000000
 
 -0.4000000E+00  0.2000000E+00  0.0000000E+00  0.6000000E-01
    1       -7.772543   1.000000
    2       -6.542728   1.000000
    3       -6.522486   1.000000
    4       -6.240969   1.000000
    5       -6.222405   1.000000
    6       -5.991887   1.000000
    7       -5.845466   1.000000
    8       -5.771335   1.000000
    9       -5.483863   1.000000
   10       -5.393161   1.000000
   11       -5.302112   1.000000
   12       -5.051589   1.000000
   13       -4.872502   1.000000
   14       -4.661980   1.000000
   15       -4.523621   1.000000
   16       -4.433600   1.000000
   17       -4.233750   1.000000
   18       -4.080848   1.000000
   19       -4.015407   1.000000
   20       -3.912421   1.000000
   21       -2.321444   0.664945
   22       -0.627242   0.000000
   23       -0.041257   0.000000
   24        0.722495   0.000000
   25        0.923534   0.000000
   26        2.755963   0.000000
   27        4.100811   0.000000
   28        4.463060   0.000000
 
 -0.4000000E+00  0.3000000E+00  0.0000000E+00  0.6000000E-01
    1       -7.654993   1.000000
    2       -6.316279   1.000000
    3       -6.266467   1.000000
    4       -6.202519   1.000000
    5       -6.071546   1.000000
    6       -5.956501   1.000000
    7       -5.922523   1.000000
    8       -5.787861   1.000000
    9       -5.622176   1.000000
   10       -5.551215   1.000000
   11       -5.388025   1.000000
   12       -5.006649   1.000000
   13       -4.957095   1.000000
   14       -4.813685   1.000000
   15       -4.621446   1.000000
   16       -4.469766   1.000000
   17       -4.403498   1.000000
   18       -4.113717   1.000000
   19       -4.030270   1.000000
   20       -3.936876   1.000000
   21       -1.886913   0.000000
   22       -0.318986   0.000000
   23        0.841839   0.000000
   24        1.828323   0.000000
   25        2.400601   0.000000
   26        2.437955   0.000000
   27        3.309436   0.000000
   28        4.095243   0.000000
