unknown system                          
   1.00000000000000     
     2.573869    0.000000    0.000000
     1.286934    2.229036    0.000000
     0.000000    0.000000   30.304665
   Cu   H 
     4     1
Direct
  0.000000  0.000000  0.396440
  0.333332  0.333332  0.465152
  0.666668  0.666665  0.533916
  0.000000  0.000000  0.606744
  0.333332  0.333332  0.638067
 
   10   10  120
 0.72858E-16 0.68522E-16 0.45484E-14 0.11808E-09 0.41639E-12 0.65490E-11 0.41286E-13 0.57166E-09 0.19429E-14 0.20817E-16
 0.87604E-16 0.57246E-15 0.29633E-12 0.39334E-10 0.22839E-12 0.11833E-10 0.57829E-13 0.50646E-12 0.12611E-14 -.95410E-17
 0.45484E-14 0.29638E-12 0.15421E-11 0.15722E-12 0.28491E-13 0.10165E-12 0.65531E-13 0.40412E-12 0.29525E-14 0.53950E-15
 0.11808E-09 0.39334E-10 0.15726E-12 0.21205E-13 0.22038E-13 0.47580E-12 0.51403E-13 0.36055E-11 0.20849E-12 0.70489E-12
 0.41631E-12 0.22829E-12 0.28491E-13 0.22093E-13 0.21677E-13 0.15332E-12 0.12240E-13 0.35068E-12 0.19366E-12 0.18133E-12
 0.65490E-11 0.11833E-10 0.10178E-12 0.47574E-12 0.15341E-12 0.37047E-11 0.32752E-13 0.57468E-13 0.29948E-13 0.67891E-11
 0.41300E-13 0.57773E-13 0.65475E-13 0.51362E-13 0.12157E-13 0.32752E-13 0.94091E-14 0.29421E-14 0.33862E-14 0.28255E-13
 0.57166E-09 0.50643E-12 0.40411E-12 0.36055E-11 0.35064E-12 0.57468E-13 0.29143E-14 0.44548E-14 0.42383E-13 0.46373E-11
 0.19533E-14 0.11813E-14 0.29143E-14 0.20847E-12 0.19368E-12 0.29934E-13 0.34139E-14 0.42244E-13 0.18831E-12 0.11860E-12
 0.31225E-16 0.12750E-15 0.49266E-15 0.70495E-12 0.18138E-12 0.67890E-11 0.28186E-13 0.46373E-11 0.11853E-12 0.18440E-14
 0.11796E-15 0.93675E-16 0.88818E-14 0.19854E-11 0.31725E-13 0.63366E-12 0.27303E-12 0.22014E-11 0.17694E-14 0.10755E-15
 0.10755E-15 0.63144E-15 0.39656E-12 0.64460E-11 0.70957E-13 0.19202E-11 0.19398E-12 0.65262E-12 0.18700E-14 0.10061E-15
 0.88332E-14 0.39657E-12 0.11532E-11 0.67932E-13 0.97283E-14 0.52347E-13 0.14551E-12 0.44732E-12 0.46144E-14 0.71471E-15
 0.19853E-11 0.64460E-11 0.67918E-13 0.75495E-14 0.50515E-14 0.19211E-12 0.18599E-12 0.39892E-11 0.22741E-12 0.87817E-12
 0.31739E-13 0.70763E-13 0.97422E-14 0.51348E-14 0.56344E-14 0.48614E-13 0.13919E-13 0.11759E-12 0.15440E-12 0.63713E-13
 0.63367E-12 0.19202E-11 0.52458E-13 0.19222E-12 0.48711E-13 0.34007E-11 0.90303E-13 0.24031E-12 0.93814E-13 0.87684E-10
 0.27302E-12 0.19398E-12 0.14545E-12 0.18588E-12 0.13822E-13 0.90150E-13 0.43091E-13 0.15127E-13 0.97977E-14 0.74690E-13
 0.22014E-11 0.65259E-12 0.44729E-12 0.39892E-11 0.11756E-12 0.24031E-12 0.15238E-13 0.16195E-13 0.14957E-12 0.75876E-10
 0.16862E-14 0.18770E-14 0.45831E-14 0.22734E-12 0.15440E-12 0.93661E-13 0.98532E-14 0.14952E-12 0.21147E-12 0.12039E-12
 0.11623E-15 0.15613E-15 0.67654E-15 0.87810E-12 0.63685E-13 0.87684E-10 0.74760E-13 0.75876E-10 0.12038E-12 0.30254E-14
 0.69389E-16 0.76328E-16 0.95757E-14 0.45200E-13 0.52736E-14 0.36665E-13 0.70208E-13 0.52999E-13 0.71471E-15 0.10408E-15
 0.14225E-15 0.51348E-15 0.54226E-12 0.18122E-11 0.25868E-13 0.59172E-12 0.59069E-12 0.89587E-12 0.23315E-14 0.11449E-15
 0.95826E-14 0.54219E-12 0.64951E-12 0.18485E-13 0.45242E-14 0.17264E-13 0.17288E-12 0.45000E-12 0.55997E-14 0.84655E-15
 0.45228E-13 0.18121E-11 0.18596E-13 0.38858E-14 0.17208E-14 0.69278E-13 0.57683E-12 0.43369E-11 0.23430E-12 0.10247E-11
 0.53152E-14 0.25702E-13 0.45797E-14 0.17486E-14 0.23037E-14 0.18680E-13 0.11130E-13 0.37761E-13 0.80408E-13 0.21025E-13
 0.36693E-13 0.59173E-12 0.17375E-13 0.69264E-13 0.18763E-13 0.36745E-11 0.29711E-12 0.15146E-11 0.17057E-12 0.64856E-11
 0.70222E-13 0.59064E-12 0.17276E-12 0.57686E-12 0.11061E-13 0.29703E-12 0.27406E-12 0.10841E-12 0.25216E-13 0.24757E-12
 0.52985E-13 0.89588E-12 0.45002E-12 0.43369E-11 0.37720E-13 0.15146E-11 0.10845E-12 0.13134E-12 0.27556E-12 0.83775E-10
 0.67307E-15 0.23176E-14 0.55511E-14 0.23430E-12 0.80436E-13 0.17049E-12 0.25299E-13 0.27546E-12 0.15084E-12 0.12315E-12
 0.72858E-16 0.17000E-15 0.85348E-15 0.10246E-11 0.21011E-13 0.64855E-11 0.24764E-12 0.83775E-10 0.12315E-12 0.45935E-14
 0.11102E-15 0.11102E-15 0.69805E-14 0.81879E-14 0.18596E-14 0.60230E-14 0.90344E-14 0.10436E-13 0.19429E-15 0.62450E-16
 0.16653E-15 0.58287E-15 0.68680E-12 0.10406E-11 0.12351E-13 0.33620E-12 0.52477E-11 0.10157E-11 0.34833E-14 0.12490E-15
 0.69111E-14 0.68677E-12 0.49057E-12 0.12101E-13 0.24980E-14 0.11935E-13 0.20682E-12 0.47301E-12 0.62589E-14 0.83267E-15
 0.81601E-14 0.10405E-11 0.12046E-13 0.23592E-14 0.66613E-15 0.51376E-13 0.57991E-11 0.44103E-11 0.19154E-12 0.97480E-12
 0.19013E-14 0.12296E-13 0.24980E-14 0.74940E-15 0.83267E-15 0.94091E-14 0.10325E-13 0.20095E-13 0.41550E-13 0.10769E-13
 0.60230E-14 0.33629E-12 0.12157E-13 0.51348E-13 0.94924E-14 0.35299E-11 0.15768E-11 0.10743E-10 0.36987E-12 0.18756E-11
 0.90900E-14 0.52477E-11 0.20678E-12 0.57989E-11 0.10297E-13 0.15768E-11 0.93852E-10 0.75962E-11 0.88277E-13 0.10315E-11
 0.10436E-13 0.10156E-11 0.47296E-12 0.44102E-11 0.20012E-13 0.10743E-10 0.75963E-11 0.12436E-09 0.65366E-12 0.66015E-11
 0.13878E-15 0.34556E-14 0.63005E-14 0.19154E-12 0.41578E-13 0.36977E-12 0.88304E-13 0.65353E-12 0.66239E-13 0.95202E-13
 0.11102E-15 0.20817E-15 0.91593E-15 0.97473E-12 0.10755E-13 0.18756E-11 0.10316E-11 0.66014E-11 0.95271E-13 0.70638E-14
 0.27756E-16 0.13878E-15 0.44686E-14 0.21649E-14 0.56899E-15 0.17764E-14 0.11657E-14 0.30809E-14 0.69389E-16 0.55511E-16
 0.19429E-15 0.43021E-15 0.10121E-11 0.48775E-12 0.59397E-14 0.16651E-12 0.43477E-10 0.12655E-11 0.48711E-14 0.22204E-15
 0.44964E-14 0.10122E-11 0.34101E-12 0.34417E-14 0.11935E-14 0.39968E-14 0.10184E-12 0.53899E-12 0.76744E-14 0.13323E-14
 0.22066E-14 0.48769E-12 0.33862E-14 0.13045E-14 0.33307E-15 0.25924E-13 0.39235E-10 0.48055E-11 0.23780E-12 0.12559E-11
 0.63838E-15 0.57732E-14 0.12768E-14 0.22204E-15 0.30531E-15 0.45797E-14 0.63005E-14 0.82157E-14 0.22343E-13 0.44548E-14
 0.18596E-14 0.16656E-12 0.40801E-14 0.25813E-13 0.46352E-14 0.40922E-11 0.37704E-11 0.19632E-10 0.21977E-12 0.17497E-11
 0.12212E-14 0.43476E-10 0.10175E-12 0.39235E-10 0.62450E-14 0.37702E-11 0.10698E-10 0.64335E-12 0.10202E-12 0.16172E-11
 0.30809E-14 0.12655E-11 0.53899E-12 0.48055E-11 0.81463E-14 0.19632E-10 0.64340E-12 0.22959E-12 0.32320E-12 0.31061E-11
 0.55511E-16 0.48156E-14 0.76744E-14 0.23778E-12 0.22315E-13 0.21966E-12 0.10209E-12 0.32310E-12 0.23134E-13 0.99670E-13
 0.13878E-15 0.33307E-15 0.13323E-14 0.12560E-11 0.44686E-14 0.17497E-11 0.16172E-11 0.31061E-11 0.99698E-13 0.13087E-13
 0.13878E-15 0.97145E-16 0.29560E-14 0.86042E-15 0.36082E-15 0.69389E-15 0.38858E-15 0.13323E-14 -.55511E-16 0.41633E-16
 0.11102E-15 0.41633E-15 0.19727E-11 0.33423E-12 0.34972E-14 0.11477E-12 0.13959E-09 0.13811E-11 0.79797E-14 0.20817E-15
 0.29005E-14 0.19728E-11 0.26865E-12 0.22204E-14 0.94369E-15 0.29421E-14 0.44298E-13 0.66465E-12 0.10533E-13 0.13461E-14
 0.87430E-15 0.33415E-12 0.22760E-14 0.10270E-14 0.16653E-15 0.19068E-13 0.91610E-10 0.46600E-11 0.24931E-12 0.13111E-11
 0.38858E-15 0.35805E-14 0.86042E-15 0.83267E-16 0.19429E-15 0.27756E-14 0.59119E-14 0.52597E-14 0.15904E-13 0.29143E-14
 0.77716E-15 0.11480E-12 0.30531E-14 0.19040E-13 0.27756E-14 0.40800E-11 0.37577E-11 0.16806E-12 0.16408E-12 0.15347E-11
 0.41633E-15 0.13959E-09 0.44242E-13 0.91610E-10 0.58842E-14 0.37576E-11 0.81392E-12 0.75481E-13 0.71179E-13 0.11461E-11
 0.13323E-14 0.13811E-11 0.66465E-12 0.46599E-11 0.51903E-14 0.16809E-12 0.75606E-13 0.11005E-13 0.21687E-12 0.15688E-11
 -.41633E-16 0.79520E-14 0.10561E-13 0.24936E-12 0.15932E-13 0.16394E-12 0.71221E-13 0.21677E-12 0.99087E-14 0.91982E-13
 0.83267E-16 0.26368E-15 0.14017E-14 0.13111E-11 0.29005E-14 0.15347E-11 0.11462E-11 0.15688E-11 0.91982E-13 0.21136E-13
 0.83267E-16 0.20817E-15 0.17347E-14 0.27756E-15 0.22204E-15 0.38858E-15 0.11102E-15 0.58287E-15 -.13878E-16 0.11102E-15
 0.20817E-15 0.55511E-16 0.25608E-11 0.19762E-12 0.18596E-14 0.69139E-13 0.42161E-11 0.15906E-11 0.97422E-14 0.47184E-15
 0.17208E-14 0.25607E-11 0.20128E-12 0.61062E-15 0.55511E-15 0.13323E-14 0.14683E-13 0.60943E-12 0.10575E-13 0.13600E-14
 0.27756E-15 0.19756E-12 0.66613E-15 0.58287E-15 0.19429E-15 0.11741E-13 0.26531E-11 0.48139E-11 0.24362E-12 0.16188E-11
 0.22204E-15 0.17208E-14 0.55511E-15 0.16653E-15 0.13878E-15 0.14155E-14 0.31364E-14 0.29005E-14 0.92565E-14 0.14294E-14
 0.38858E-15 0.68973E-13 0.12768E-14 0.11768E-13 0.14433E-14 0.52499E-11 0.72453E-12 0.12074E-14 0.63408E-13 0.71655E-11
 0.83267E-16 0.42161E-11 0.14627E-13 0.26529E-11 0.31364E-14 0.72442E-12 0.68515E-13 0.11838E-13 0.14752E-13 0.30623E-12
 0.65226E-15 0.15906E-11 0.60951E-12 0.48138E-11 0.28033E-14 0.12212E-14 0.11866E-13 0.62450E-15 0.78992E-13 0.11500E-11
 0.55511E-16 0.97145E-14 0.10630E-13 0.24360E-12 0.92981E-14 0.63310E-13 0.14794E-13 0.78951E-13 0.55511E-16 0.84044E-13
 0.11102E-15 0.55511E-15 0.13739E-14 0.16188E-11 0.13878E-14 0.71655E-11 0.30626E-12 0.11499E-11 0.84030E-13 0.43049E-13
  0.0000     0.22204E-15 0.13323E-14 0.24980E-15 0.19429E-15 0.19429E-15 0.83267E-16 0.33307E-15 -.27756E-16 0.10408E-15
 0.18041E-15 0.90206E-16 0.15382E-10 0.15386E-12 0.11102E-14 0.52097E-13 0.10636E-11 0.16229E-11 0.15862E-13 0.72164E-15
 0.12212E-14 0.15382E-10 0.17709E-12 0.36082E-15 0.49960E-15 0.66613E-15 0.48572E-14 0.80044E-12 0.14364E-13 0.19568E-14
 0.16653E-15 0.15381E-12 0.47184E-15 0.63838E-15 0.11102E-15 0.89095E-14 0.64090E-12 0.45109E-11 0.25824E-12 0.20863E-11
 0.13878E-15 0.10270E-14 0.36082E-15 0.55511E-16 -.55511E-16 0.77716E-15 0.27062E-14 0.18596E-14 0.69042E-14 0.10131E-14
 0.27756E-15 0.52014E-13 0.61062E-15 0.89373E-14 0.83267E-15 0.53295E-11 0.25355E-12 0.27756E-16 0.35028E-13 0.51905E-09
 0.83267E-16 0.10636E-11 0.48295E-14 0.64096E-12 0.26368E-14 0.25351E-12 0.20164E-13 0.42882E-14 0.51487E-14 0.12237E-12
 0.33307E-15 0.16230E-11 0.80037E-12 0.45108E-11 0.18596E-14  0.0000     0.43021E-14 0.13878E-15 0.43715E-13 0.78776E-12
 -.41633E-16 0.15793E-13 0.14405E-13 0.25822E-12 0.68973E-14 0.34986E-13 0.51487E-14 0.43687E-13 0.29421E-14 0.79839E-13
 0.10408E-15 0.81879E-15 0.19568E-14 0.20863E-11 0.97145E-15 0.51905E-09 0.12232E-12 0.78773E-12 0.79846E-13 0.95535E-13
 0.55511E-16 0.83267E-16 0.10339E-14 0.11102E-15 0.55511E-16 0.16653E-15 0.11102E-15 0.18735E-15 -.27756E-16 0.11796E-15
 0.83267E-16 0.27756E-16 0.21722E-10 0.10789E-12 0.80491E-15 0.39288E-13 0.30376E-12 0.17028E-11 0.23120E-13 0.10270E-14
 0.93675E-15 0.21722E-10 0.19426E-12 0.22204E-15 0.37470E-15 0.52736E-15 0.22482E-14 0.75158E-12 0.15848E-13 0.24494E-14
 0.13878E-15 0.10783E-12 0.27756E-15 0.49960E-15 0.55511E-16 0.77438E-14 0.16565E-12 0.45820E-11 0.22120E-12 0.12329E-11
 0.27756E-16 0.86042E-15 0.16653E-15 0.83267E-16 0.55511E-16 0.72164E-15 0.20539E-14 0.12351E-14 0.49682E-14 0.52736E-15
 0.12490E-15 0.39246E-13 0.52736E-15 0.77993E-14 0.72164E-15 0.79626E-11 0.97873E-13 0.33307E-15 0.20456E-13 0.88612E-12
 0.55511E-16 0.30373E-12 0.20678E-14 0.16565E-12 0.20123E-14 0.97838E-13 0.78132E-14 0.18596E-14 0.20400E-14 0.50793E-13
 0.17347E-15 0.17028E-11 0.75154E-12 0.45820E-11 0.10547E-14 0.36082E-15 0.17972E-14 0.27756E-16 0.24654E-13 0.66083E-12
  0.0000     0.23134E-13 0.15918E-13 0.22114E-12 0.49613E-14 0.20366E-13 0.21094E-14 0.24612E-13 0.92704E-14 0.68411E-13
 0.15266E-15 0.10825E-14 0.25535E-14 0.12329E-11 0.56205E-15 0.88610E-12 0.50765E-13 0.66080E-12 0.68445E-13 0.36264E-12
 0.55511E-16 0.69389E-16 0.10339E-14 0.16653E-15 0.12490E-15 0.69389E-16 0.13878E-15 0.11102E-15 0.55511E-16 0.12490E-15
 0.83267E-16 0.20817E-16 0.19941E-08 0.73545E-13 0.51348E-15 0.29022E-13 0.10306E-12 0.15720E-11 0.38081E-13 0.20262E-14
 0.95757E-15 0.19941E-08 0.20411E-12 0.34694E-16 0.28449E-15 0.24980E-15 0.65919E-15 0.89852E-12 0.20810E-13 0.47740E-14
 0.11102E-15 0.73448E-13 0.69389E-17 0.32960E-15 0.83267E-16 0.68001E-14 0.53346E-13 0.41854E-11 0.22775E-12 0.17630E-11
 0.41633E-16 0.36082E-15 0.23592E-15 -.13878E-16 -.27756E-16 0.41633E-15 0.15057E-14 0.86042E-15 0.34694E-14 0.40939E-15
 0.69389E-16 0.28963E-13 0.22204E-15 0.66891E-14 0.47184E-15 0.90655E-11 0.43569E-13 0.95757E-15 0.11442E-13 0.16841E-12
  0.0000     0.10306E-12 0.54123E-15 0.53457E-13 0.14155E-14 0.43479E-13 0.37192E-14 0.83267E-15 0.85348E-15 0.25070E-13
 0.11102E-15 0.15721E-11 0.89850E-12 0.41854E-11 0.82573E-15 0.98532E-15 0.86042E-15 0.90206E-16 0.14058E-13 0.51762E-12
  0.0000     0.38088E-13 0.20789E-13 0.22771E-12 0.35250E-14 0.11366E-13 0.90900E-15 0.13996E-13 0.14037E-13 0.62769E-13
 0.55511E-16 0.20678E-14 0.48295E-14 0.17630E-11 0.44409E-15 0.16838E-12 0.25084E-13 0.51757E-12 0.62735E-13 0.71524E-11
 0.55511E-16 0.48572E-16 0.88818E-15 0.20817E-16 0.62450E-16  0.0000     0.83267E-16 0.10408E-15 0.27756E-16 0.69389E-16
 0.55511E-16 0.32196E-14 0.64266E-10 0.63435E-13 0.34694E-15 0.24383E-13 0.61312E-13 0.16147E-11 0.51882E-13 0.39552E-14
 0.77716E-15 0.64266E-10 0.20198E-12 0.55511E-16 0.20123E-15 0.20817E-15 0.13878E-15 0.91463E-12 0.21885E-13 0.33723E-14
 0.12490E-15 0.63401E-13 0.97145E-16 0.29490E-15 0.27756E-16 0.76501E-14 0.33890E-13 0.41547E-11 0.22893E-12 0.13769E-11
  0.0000     0.40939E-15 0.76328E-16 0.34694E-16 0.31225E-16 0.30531E-15 0.11866E-14 0.68695E-15 0.25813E-14 0.34694E-15
 0.13878E-16 0.24314E-13 0.22204E-15 0.76397E-14 0.27756E-15 0.13372E-10 0.24022E-13 0.63838E-15 0.73969E-14 0.62068E-13
 0.69389E-17 0.61222E-13 0.48572E-16 0.33862E-13 0.11796E-14 0.24022E-13 0.20262E-14 0.51348E-15 0.44409E-15 0.15168E-13
 0.69389E-16 0.16147E-11 0.91460E-12 0.41547E-11 0.61062E-15 0.66613E-15 0.51348E-15 -.13878E-16 0.88193E-14 0.44966E-12
 0.41633E-16 0.51861E-13 0.21899E-13 0.22889E-12 0.26645E-14 0.74038E-14 0.47184E-15 0.88263E-14 0.15772E-13 0.56490E-13
 -.41633E-16 0.40384E-14 0.33862E-14 0.13769E-11 0.29143E-15 0.62013E-13 0.15141E-13 0.44969E-12 0.56420E-13 0.28595E-11
 0.69389E-16 0.34694E-16 0.81185E-15 -.13878E-16 0.83267E-16 0.69389E-16 0.13878E-15 0.90206E-16 0.27756E-16 0.13878E-15
 0.34694E-16 0.23780E-13 0.19098E-09 0.42813E-13 0.25674E-15 0.18298E-13 0.27187E-13 0.13994E-11 0.74107E-13 0.86389E-14
 0.69389E-15 0.19098E-09 0.21846E-12 -.20817E-16 0.18735E-15 0.62450E-16 0.62450E-16 0.79677E-12 0.23592E-13 0.41911E-14
 0.76328E-16 0.42938E-13 0.41633E-16 0.30531E-15 -.55511E-16 0.74662E-14 0.14190E-13 0.37312E-11 0.20560E-12 0.50034E-12
 0.16653E-15 0.23592E-15 0.13878E-15 -.20817E-16 0.20817E-16 0.22898E-15 0.83267E-15 0.41633E-15 0.20817E-14 0.20817E-15
 0.97145E-16 0.18360E-13 0.13878E-15 0.74316E-14 0.15266E-15 0.21058E-10 0.14169E-13 0.54123E-15 0.54609E-14 0.21122E-13
 -.69389E-17 0.27110E-13 -.13878E-16 0.14058E-13 0.76328E-15 0.14051E-13 0.13808E-14 0.37470E-15 0.29837E-15 0.88957E-14
 0.41633E-16 0.13995E-11 0.79675E-12 0.37312E-11 0.40939E-15 0.56899E-15 0.37470E-15 -.69389E-17 0.65850E-14 0.38213E-12
 -.20817E-16 0.74177E-13 0.23627E-13 0.20561E-12 0.20262E-14 0.54262E-14 0.33307E-15 0.65226E-14 0.16771E-13 0.48489E-13
 -.13878E-16 0.87361E-14 0.42119E-14 0.50030E-12 0.20123E-15 0.21191E-13 0.89304E-14 0.38215E-12 0.48433E-13 0.69900E-12
 0.69389E-17 0.13878E-16 0.89512E-15 -.27756E-16 0.41633E-16 0.27756E-16 0.11796E-15 0.41633E-16 0.13878E-16 0.34694E-16
 -.69389E-17 0.17639E-12 0.15136E-10 0.37206E-13 0.20817E-15 0.15606E-13 0.18860E-13 0.13520E-11 0.11819E-12 0.26305E-13
 0.74940E-15 0.15136E-10 0.22254E-12 0.20817E-16 0.13878E-15 0.83267E-16 0.10408E-15 0.87899E-12 0.29678E-13 0.10734E-13
 0.48572E-16 0.37109E-13 -.13878E-16 0.27756E-15 0.41633E-16 0.74593E-14 0.97700E-14 0.35741E-11 0.19389E-12 0.27402E-12
  0.0000     0.19429E-15 0.55511E-16 0.20817E-16 0.27756E-16 0.13184E-15 0.70777E-15 0.40246E-15 0.16376E-14 0.16653E-15
 0.83267E-16 0.15675E-13 0.69389E-16 0.74454E-14 0.10408E-15 0.66462E-10 0.90761E-14 0.56899E-15 0.34833E-14 0.97422E-14
 -.69389E-17 0.18735E-13 -.69389E-17 0.96728E-14 0.68695E-15 0.90275E-14 0.84655E-15 0.18041E-15 0.90206E-16 0.59952E-14
 0.34694E-16 0.13520E-11 0.87901E-12 0.35741E-11 0.36776E-15 0.48572E-15 0.22204E-15 -.20817E-16 0.44686E-14 0.33879E-12
 -.41633E-16 0.11820E-12 0.29761E-13 0.19389E-12 0.17000E-14 0.34209E-14 0.17347E-15 0.44686E-14 0.16646E-13 0.44229E-13
 -.27756E-16 0.26333E-13 0.10776E-13 0.27404E-12 0.15266E-15 0.96242E-14 0.60299E-14 0.33878E-12 0.44090E-13 0.31895E-12
 0.69389E-17 0.48572E-16 0.72164E-15 0.20817E-16 0.11796E-15 -.69389E-16 0.15266E-15 0.69389E-17 0.55511E-16 0.34694E-16
 0.41633E-16 0.13183E-11 0.58108E-10 0.28019E-13 0.13878E-15 0.12962E-13 0.11373E-13 0.12342E-11 0.13762E-12 0.75315E-13
 0.61756E-15 0.58109E-10 0.25652E-12 0.27756E-16 0.97145E-16 0.13878E-16 0.48572E-16 0.66223E-12 0.24626E-13 0.18346E-13
 -.13878E-16 0.27908E-13  0.0000     0.18041E-15 -.20817E-16 0.78132E-14 0.55303E-14 0.31316E-11 0.15732E-12 0.13628E-13
 0.62450E-16 0.15266E-15 0.48572E-16 -.27756E-16 -.41633E-16 0.13184E-15 0.52042E-15 0.23592E-15 0.15682E-14 0.69389E-16
 0.83267E-16 0.12990E-13 0.34694E-16 0.78132E-14 0.69389E-16 0.84022E-10 0.62519E-14 0.42327E-15 0.27825E-14 0.47115E-14
 -.13878E-16 0.11303E-13 -.48572E-16 0.53985E-14 0.49266E-15 0.60785E-14 0.58981E-15 0.18041E-15 0.12490E-15 0.41217E-14
 -.13878E-16 0.12342E-11 0.66222E-12 0.31315E-11 0.26368E-15 0.35388E-15 0.17347E-15 0.27756E-16 0.35458E-14 0.29957E-12
 0.69389E-17 0.13768E-12 0.24633E-13 0.15728E-12 0.16237E-14 0.27339E-14 0.10408E-15 0.35180E-14 0.14724E-13 0.38650E-13
 0.55511E-16 0.75370E-13 0.18423E-13 0.13559E-13 0.97145E-16 0.47115E-14 0.41217E-14 0.29958E-12 0.38664E-13 0.25133E-12
 -.83267E-16 0.13878E-16 0.79103E-15 -.41633E-16 0.41633E-16 -.69389E-17 0.34694E-16 0.62450E-16 0.90206E-16 0.20817E-16
 0.48572E-16 0.19904E-12 0.92261E-11 0.22815E-13 0.20817E-15 0.11588E-13 0.80075E-14 0.14142E-11 0.18163E-12 0.87469E-12
 0.77716E-15 0.92261E-11 0.25819E-12 0.62450E-16 0.18735E-15  0.0000     0.11102E-15 0.97301E-12 0.31003E-13 0.46574E-13
 0.69389E-17 0.22871E-13 0.69389E-17 0.33307E-15 0.97145E-16 0.81879E-14 0.39899E-14 0.29815E-11 0.16415E-12 0.41078E-14
 0.69389E-16 0.19429E-15 0.12490E-15 0.55511E-16 0.16653E-15 0.13878E-16 0.36082E-15 0.27062E-15 0.12629E-14 0.83267E-16
 0.48572E-16 0.11664E-13 0.62450E-16 0.81879E-14 0.69389E-16 0.11688E-08 0.42119E-14 0.44062E-15 0.20470E-14 0.24009E-14
 0.13878E-16 0.79034E-14 0.13878E-16 0.39760E-14 0.41633E-15 0.40870E-14 0.48225E-15 0.19255E-15 0.10929E-15 0.29560E-14
 0.10408E-15 0.14142E-11 0.97300E-12 0.29815E-11 0.20817E-15 0.38164E-15 0.19082E-15 0.31225E-16 0.33792E-14 0.28569E-12
 0.41633E-16 0.18160E-12 0.31142E-13 0.16408E-12 0.12768E-14 0.19637E-14 0.74593E-16 0.33376E-14 0.15508E-13 0.35250E-13
 0.27756E-16 0.87480E-12 0.46588E-13 0.41703E-14 0.12490E-15 0.23037E-14 0.30739E-14 0.28570E-12 0.35277E-13 0.20301E-12
  0.0000     -.13878E-16 0.62450E-15 -.13878E-16 0.62450E-16 -.76328E-16 0.41633E-16 -.27756E-16 0.69389E-17 -.55511E-16
 0.69389E-17 0.90219E-13 0.56334E-11 0.17750E-13 0.55511E-16 0.84099E-14 0.54401E-14 0.15208E-11 0.15303E-12 0.21198E-10
 0.61062E-15 0.56335E-11 0.27820E-12 -.20817E-16 -.27756E-16 -.41633E-16 0.34694E-16 0.10688E-11 0.20935E-13 0.25840E-13
 -.76328E-16 0.17819E-13 -.55511E-16 0.16653E-15 -.12490E-15 0.70083E-14 0.25951E-14 0.25944E-11 0.14310E-12 0.66905E-13
 -.13878E-16 0.48572E-16 0.27756E-16 -.34694E-16 -.83267E-16 0.62450E-16 0.31919E-15 0.15266E-15 0.13115E-14 -.20817E-16
 0.13878E-16 0.84516E-14 -.27756E-16 0.69875E-14 0.34694E-16 0.15240E-09 0.28831E-14 0.48399E-15 0.14780E-14 0.22898E-15
 -.83267E-16 0.53013E-14 0.69389E-17 0.23939E-14 0.32613E-15 0.28172E-14 0.24460E-15 0.24286E-16 0.38164E-16 0.20470E-14
 -.20817E-16 0.15208E-11 0.10689E-11 0.25945E-11 0.13878E-15 0.46144E-15 0.78930E-16 -.39031E-16 0.22898E-14 0.25504E-12
 -.55511E-16 0.15300E-12 0.20955E-13 0.14311E-12 0.13253E-14 0.14017E-14 -.18215E-16 0.22933E-14 0.14048E-13 0.30823E-13
 -.55511E-16 0.21198E-10 0.25882E-13 0.66849E-13 0.86736E-16 0.22551E-15 0.21233E-14 0.25503E-12 0.30850E-13 0.16852E-12
 0.83267E-16 0.69389E-17 0.83961E-15 0.11102E-15 0.55511E-16 0.27756E-16 0.83267E-16 0.55511E-16 0.76328E-16 -.69389E-17
 0.55511E-16 0.77605E-13 0.10053E-11 0.13697E-13 0.55511E-16 0.81046E-14 0.38719E-14 0.14603E-11 0.18970E-12 0.28027E-10
 0.80491E-15 0.10053E-11 0.27866E-12 0.69389E-16 0.83267E-16 0.10408E-15 0.19429E-15 0.79897E-12 0.24550E-13 0.66822E-13
 -.20817E-16 0.13739E-13 0.16653E-15 0.55511E-15 0.27756E-16 0.87153E-14 0.17070E-14 0.24289E-11 0.14413E-12 0.65524E-13
 0.27756E-16 0.48572E-16 0.12490E-15 0.69389E-16 0.11102E-15 0.97145E-16 0.28449E-15 0.22204E-15 0.12074E-14 0.34694E-16
 0.83267E-16 0.81948E-14 0.13184E-15 0.85765E-14 0.55511E-16 0.38366E-10 0.26090E-14 0.34521E-15 0.16862E-14 0.71991E-15
 0.41633E-16 0.37817E-14 0.19429E-15 0.16862E-14 0.32613E-15 0.26090E-14 0.32006E-15 0.13878E-15 0.74376E-16 0.16862E-14
 0.55511E-16 0.14602E-11 0.79900E-12 0.24289E-11 0.15266E-15 0.33220E-15 0.16653E-15 -.13010E-16 0.32994E-14 0.22376E-12
 -.13878E-16 0.18970E-12 0.24619E-13 0.14412E-12 0.12525E-14 0.15890E-14 0.61800E-16 0.31919E-14 0.13191E-13 0.27367E-13
 0.27756E-16 0.28027E-10 0.66905E-13 0.65475E-13 0.41633E-16 0.66266E-15 0.17937E-14 0.22374E-12 0.27374E-13 0.19373E-12
 -.41633E-16 0.41633E-16 0.68001E-15 0.69389E-17 0.13878E-16 0.27756E-16 0.12490E-15  0.0000     0.69389E-17  0.0000    
 -.20817E-16 0.69778E-13 0.13845E-11 0.11109E-13 -.83267E-16 0.64670E-14 0.28449E-14 0.15156E-11 0.15392E-12 0.10904E-11
 0.62450E-15 0.13845E-11 0.34403E-12 -.69389E-16  0.0000     0.13878E-16 0.97145E-16 0.78056E-12 0.18374E-13 0.50043E-13
  0.0000     0.11185E-13 0.69389E-17 0.33307E-15 -.11102E-15 0.82712E-14 0.14294E-14 0.21224E-11 0.11403E-12 0.14813E-12
 0.41633E-16 0.13878E-16 0.55511E-16 -.69389E-16 0.55511E-16 0.55511E-16 0.28449E-15 0.17347E-15 0.14433E-14 0.97145E-16
 0.69389E-16 0.65642E-14  0.0000     0.83822E-14 -.41633E-16 0.13837E-10 0.17486E-14 0.39205E-15 0.11935E-14 -.41633E-16
 -.13878E-15 0.28449E-14 0.13878E-15 0.12421E-14 0.24980E-15 0.17208E-14 0.12143E-15 0.13878E-16 0.10582E-15 0.10825E-14
 0.41633E-16 0.15156E-11 0.78055E-12 0.21224E-11 0.11102E-15 0.31745E-15 0.11102E-15 0.22551E-16 0.22898E-14 0.21376E-12
 -.11796E-15 0.15390E-12 0.18457E-13 0.11405E-12 0.14641E-14 0.11102E-14 0.48572E-16 0.22204E-14 0.11005E-13 0.24196E-13
 0.13878E-15 0.10905E-11 0.50127E-13 0.14802E-12 0.69389E-16 -.90206E-16 0.11623E-14 0.21376E-12 0.24182E-13 0.20064E-12
 0.27756E-16 0.13878E-16 0.91593E-15 0.27756E-16 0.83267E-16 0.83267E-16 0.97145E-16 0.13878E-16 0.69389E-16 0.27756E-16
 0.13878E-16 0.82434E-13 0.17544E-11 0.99643E-14 0.76328E-16 0.56621E-14 0.25119E-14 0.17011E-11 0.17081E-12 0.15497E-12
 0.83267E-15 0.17544E-11 0.31602E-12 0.48572E-16 0.16653E-15 0.55511E-16 0.69389E-16 0.90138E-12 0.21899E-13 0.33459E-13
 0.69389E-16 0.10075E-13 0.17347E-15 0.49960E-15 0.55511E-16 0.85765E-14 0.11241E-14 0.19883E-11 0.11513E-12 0.86577E-13
  0.0000     0.27756E-16 0.22204E-15 0.13878E-16 0.69389E-16 0.83267E-16 0.19429E-15 0.19429E-15 0.14988E-14 0.55511E-16
 -.55511E-16 0.57732E-14 0.16653E-15 0.85765E-14 0.69389E-16 0.65156E-11 0.16237E-14 0.27756E-15 0.15821E-14 0.22898E-15
 0.11102E-15 0.23453E-14 0.12490E-15 0.10478E-14 0.18041E-15 0.15821E-14 0.24980E-15 0.55511E-16 0.34694E-16 0.99920E-15
 0.55511E-16 0.17011E-11 0.90141E-12 0.19883E-11 0.15266E-15 0.27062E-15 0.97145E-16 0.27756E-16 0.28311E-14 0.18923E-12
 -.13878E-16 0.17079E-12 0.21899E-13 0.11507E-12 0.15196E-14 0.16098E-14 0.41633E-16 0.27756E-14 0.10172E-13 0.27700E-13
 0.83267E-16 0.15497E-12 0.33529E-13 0.86521E-13 0.83267E-16 0.11796E-15 0.11657E-14 0.18920E-12 0.27756E-13 0.21791E-12
 -.13878E-16 -.13878E-16 0.72164E-15 0.83267E-16 -.55511E-16 -.27756E-16 0.69389E-16 -.27756E-16 -.27756E-16 -.27756E-16
 0.27756E-16 0.93189E-13 0.19203E-11 0.79659E-14 -.13878E-16 0.48017E-14 0.18874E-14 0.16468E-11 0.12247E-12 0.39191E-13
 0.69389E-15 0.19204E-11 0.35297E-12 -.83267E-16 0.69389E-16 0.83267E-16 0.27756E-16 0.10213E-11 0.14405E-13 0.44686E-14
 0.41633E-16 0.79381E-14 0.41633E-16 0.38858E-15 -.13878E-15 0.87430E-14 0.76328E-15 0.17183E-11 0.92898E-13 0.14534E-12
 -.27756E-16 -.76328E-16 0.41633E-16 -.15266E-15 -.83267E-16  0.0000     0.20817E-15 0.55511E-16 0.14155E-14 0.55511E-16
 0.13878E-16 0.48572E-14 -.55511E-16 0.87430E-14 0.13878E-16 0.45695E-11 0.11102E-14 0.34694E-15 0.11102E-14 -.69389E-17
  0.0000     0.17486E-14 0.11102E-15 0.69389E-15 0.12490E-15 0.10963E-14 0.24980E-15 0.69389E-16 -.13878E-16 0.77716E-15
 0.55511E-16 0.16468E-11 0.10212E-11 0.17182E-11 0.11102E-15 0.30531E-15 0.83267E-16 0.41633E-16 0.22482E-14 0.17729E-12
 -.27756E-16 0.12247E-12 0.14391E-13 0.92787E-13 0.14433E-14 0.10408E-14  0.0000     0.21372E-14 0.95202E-14 0.25299E-13
  0.0000     0.39191E-13 0.45242E-14 0.14529E-12 0.27756E-16 -.48572E-16 0.83267E-15 0.17730E-12 0.25285E-13 0.24042E-12
 0.11102E-15 -.13878E-16 0.94369E-15 -.97145E-16 0.13878E-16 0.41633E-16 -.13878E-16 -.27756E-16 -.13878E-16 0.13878E-16
 -.13878E-16 0.15471E-12 0.14530E-10 0.75911E-14 0.41633E-16 0.55789E-14 0.17208E-14 0.19438E-11 0.12350E-12 0.14336E-13
 0.81879E-15 0.14530E-10 0.36714E-12 0.55511E-16 -.13878E-16 -.27756E-16 0.12490E-15 0.15573E-11 0.15432E-13 0.24147E-14
  0.0000     0.76328E-14 0.13878E-16 0.40246E-15 -.27756E-16 0.10214E-13 0.70777E-15 0.16037E-11 0.83461E-13 0.15746E-12
 0.11102E-15 0.27756E-16 0.55511E-16 -.83267E-16 0.41633E-16 0.83267E-16 0.13878E-15 0.11102E-15 0.16376E-14 0.27756E-16
 -.41633E-16 0.56066E-14 0.97145E-16 0.10186E-13  0.0000     0.22287E-11 0.99920E-15 0.23592E-15 0.11102E-14 -.69389E-17
 -.13878E-16 0.16376E-14 0.13878E-15 0.70777E-15 0.19429E-15 0.10686E-14 0.12490E-15 0.13878E-16 0.41633E-16 0.74940E-15
 0.41633E-16 0.19437E-11 0.15574E-11 0.16036E-11 0.12490E-15 0.20817E-15 0.83267E-16 -.13878E-16 0.22898E-14 0.16778E-12
 -.27756E-16 0.12348E-12 0.15418E-13 0.83406E-13 0.16653E-14 0.11102E-14 0.55511E-16 0.23037E-14 0.83406E-14 0.30254E-13
 0.12490E-15 0.14364E-13 0.24425E-14 0.15747E-12 0.83267E-16 -.34694E-16 0.72164E-15 0.16774E-12 0.30240E-13 0.24018E-12
 -.69389E-17 0.97145E-16 0.86042E-15  0.0000     0.41633E-16 -.69389E-16 0.69389E-16 -.41633E-16 0.55511E-16 -.62450E-16
 0.20817E-16 0.32699E-12 0.42835E-12 0.59536E-14 0.13878E-16 0.64115E-14 0.13323E-14 0.19253E-11 0.10582E-12 0.67168E-14
 0.86042E-15 0.42845E-12 0.43632E-12 0.69389E-16 0.20817E-15 0.13878E-16 0.55511E-16 0.15484E-11 0.12379E-13 0.15682E-14
 0.69389E-16 0.59536E-14 0.12490E-15 0.47184E-15  0.0000     0.98532E-14 0.56899E-15 0.13999E-11 0.76064E-13 0.11155E-12
 -.13878E-16 0.13878E-16 0.12490E-15 -.55511E-16 0.27756E-16 0.97145E-16 0.16653E-15 0.83267E-16 0.17208E-14 0.27756E-16
 0.83267E-16 0.63005E-14 0.69389E-16 0.97838E-14 0.11102E-15 0.36610E-11 0.76328E-15 0.22204E-15 0.11796E-14 0.69389E-16
 -.13878E-16 0.12490E-14 0.83267E-16 0.52736E-15 0.16653E-15 0.68001E-15 0.22204E-15 0.27756E-16 0.41633E-16 0.55511E-15
 0.69389E-16 0.19255E-11 0.15483E-11 0.13998E-11 0.12490E-15 0.24980E-15 0.55511E-16 0.69389E-16 0.24286E-14 0.14551E-12
 0.55511E-16 0.10585E-12 0.12407E-13 0.76078E-13 0.17625E-14 0.11102E-14 0.55511E-16 0.23453E-14 0.71887E-14 0.31475E-13
 -.69389E-16 0.67793E-14 0.15682E-14 0.11148E-12 0.55511E-16 0.27756E-16 0.63838E-15 0.14552E-12 0.31475E-13 0.33853E-12
 0.24286E-16 0.27756E-16 0.77716E-15 -.55511E-16 0.41633E-16 -.41633E-16  0.0000     -.27756E-16 -.13878E-16  0.0000    
 -.69389E-17 0.50308E-11 0.50654E-13 0.55511E-14 0.27756E-16 0.77993E-14 0.11796E-14 0.20283E-11 0.92780E-13 0.34001E-14
 0.79797E-15 0.50682E-13 0.47758E-12 0.27756E-16 0.55511E-16 0.13878E-16 0.69389E-16 0.14307E-11 0.92842E-14 0.63144E-15
 0.13878E-16 0.55372E-14  0.0000     0.48572E-15 0.27756E-16 0.14239E-13 0.47184E-15 0.12724E-11 0.56427E-13 0.14655E-12
 -.69389E-16  0.0000     0.55511E-16 -.18041E-15 0.97145E-16 0.27756E-16 0.69389E-16 0.97145E-16 0.19845E-14  0.0000    
 -.13878E-16 0.77438E-14 -.13878E-16 0.14072E-13 0.55511E-16 0.18082E-11 0.94369E-15 0.18041E-15 0.13878E-14 0.27756E-16
  0.0000     0.10408E-14 -.13878E-16 0.40246E-15 0.55511E-16 0.81879E-15 0.16653E-15 0.27756E-16 -.55511E-16 0.58287E-15
 0.13878E-16 0.20284E-11 0.14307E-11 0.12723E-11 0.83267E-16 0.11102E-15 0.55511E-16  0.0000     0.29976E-14 0.14477E-12
 0.27756E-16 0.92835E-13 0.92495E-14 0.56427E-13 0.20817E-14 0.14572E-14 -.41633E-16 0.30392E-14 0.62450E-14 0.29907E-13
 0.69389E-17 0.34348E-14 0.65226E-15 0.14656E-12 -.13878E-16 -.97145E-16 0.58287E-15 0.14472E-12 0.29948E-13 0.34271E-12
 0.34694E-17 0.69389E-17 0.10547E-14 0.41633E-16 0.41633E-16  0.0000     0.27756E-16 -.13878E-16 -.48572E-16 -.79797E-16
 -.13878E-16 0.17052E-11 0.32776E-12 0.56621E-14 -.41633E-16 0.90900E-14 0.15682E-14 0.23579E-11 0.10138E-12 0.16723E-14
 0.11727E-14 0.32780E-12 0.54128E-12 -.27756E-16 0.11102E-15 0.13878E-16 0.83267E-16 0.40191E-11 0.99365E-14 0.13808E-14
 0.27756E-16 0.56621E-14 -.55511E-16 0.51348E-15 0.13878E-16 0.12976E-13 0.33307E-15 0.11910E-11 0.78854E-13 0.61673E-13
 0.55511E-16 -.69389E-16 0.41633E-16 -.55511E-16 0.41633E-16 0.12490E-15 0.18041E-15 0.41633E-16 0.23592E-14 0.27756E-16
 -.13878E-16 0.90206E-14 -.27756E-16 0.12823E-13 0.27756E-16 0.48219E-11 0.11935E-14 0.13878E-15 0.13739E-14 0.41633E-16
 0.13878E-16 0.15821E-14 -.83267E-16 0.45797E-15 0.11102E-15 0.11796E-14 0.22204E-15 0.27756E-16 -.13878E-16 0.59674E-15
 0.69389E-16 0.23580E-11 0.40193E-11 0.11910E-11 0.12490E-15 0.12490E-15  0.0000     -.13878E-16 0.27894E-14 0.17619E-12
 0.13878E-16 0.10143E-12 0.99226E-14 0.78867E-13 0.23592E-14 0.13739E-14 -.41633E-16 0.28033E-14 0.55927E-14 0.44270E-13
 -.27756E-16 0.18423E-14 0.14155E-14 0.61659E-13  0.0000     -.13878E-16 0.66613E-15 0.17621E-12 0.44242E-13 0.47948E-12
 0.48572E-16 0.24584E-16 0.11211E-14 -.86736E-17 0.39899E-16 0.28731E-16 0.64835E-16 -.33543E-16 0.11709E-16 0.19516E-17
 0.41173E-16 0.12605E-12 0.98928E-13 0.57168E-14 0.19082E-16 0.12343E-13 0.24113E-14 0.26603E-11 0.94845E-13 0.12090E-14
 0.11696E-14 0.98832E-13 0.65031E-12 -.43368E-16 0.10263E-15 0.65919E-16 0.16697E-15 0.15593E-10 0.85071E-14 0.29577E-15
 -.34694E-17 0.56981E-14 0.15613E-16 0.75981E-15 -.56379E-16 0.18329E-13 0.57116E-15 0.10943E-11 0.94923E-13 0.38351E-13