PROCAR lm decomposed
# of k-points:   14         # of bands:   28         # of ions:    5

 k-point     1 :    0.00000000 0.00000000 0.00000000     weight = 0.01000000

band     1 # energy  -11.56489667 # occ.  2.00000000
 
ion      s     py     pz     px    dxy    dyz    dz2    dxz  x2-y2    tot
    1  0.006  0.000  0.001  0.000  0.000  0.000  0.000  0.000  0.000  0.007
    2  0.038  0.000  0.001  0.000  0.000  0.000  0.000  0.000  0.000  0.039
    3  0.108  0.000  0.002  0.000  0.000  0.000  0.000  0.000  0.000  0.110
    4  0.315  0.000  0.001  0.000  0.000  0.000  0.012  0.000  0.000  0.329
    5  0.103  0.000  0.001  0.000  0.000  0.000  0.000  0.000  0.000  0.104
tot    0.571  0.000  0.006  0.000  0.000  0.000  0.012  0.000  0.000  0.590
 
band     2 # energy  -10.63238648 # occ.  2.00000000
 
ion      s     py     pz     px    dxy    dyz    dz2    dxz  x2-y2    tot
    1  0.116  0.000  0.010  0.000  0.000  0.000  0.000  0.000  0.000  0.127
    2  0.270  0.000  0.000  0.000  0.000  0.000  0.002  0.000  0.000  0.273
    3  0.064  0.000  0.016  0.000  0.000  0.000  0.000  0.000  0.000  0.080
    4  0.059  0.000  0.008  0.000  0.000  0.000  0.011  0.000  0.000  0.078
    5  0.037  0.000  0.000  0.000  0.000  0.000  0.000  0.000  0.000  0.037
tot    0.545  0.000  0.035  0.000  0.000  0.000  0.014  0.000  0.000  0.595
 
band     3 # energy   -8.95785677 # occ.  2.00000000
 
ion      s     py     pz     px    dxy    dyz    dz2    dxz  x2-y2    tot
    1  0.197  0.000  0.002  0.000  0.000  0.000  0.021  0.000  0.000  0.220
    2  0.003  0.000  0.048  0.000  0.000  0.000  0.001  0.000  0.000  0.052
    3  0.211  0.000  0.000  0.000  0.000  0.000  0.036  0.000  0.000  0.248
    4  0.006  0.000  0.027  0.000  0.000  0.000  0.023  0.000  0.000  0.056
    5  0.026  0.000  0.000  0.000  0.000  0.000  0.000  0.000  0.000  0.026
tot    0.444  0.000  0.077  0.000  0.000  0.000  0.081  0.000  0.000  0.602
 
band     4 # energy   -7.48263678 # occ.  2.00000000
 
ion      s     py     pz     px    dxy    dyz    dz2    dxz  x2-y2    tot
    1  0.103  0.000  0.005  0.000  0.000  0.000  0.133  0.000  0.000  0.242
    2  0.098  0.000  0.002  0.000  0.000  0.000  0.236  0.000  0.000  0.337
    3  0.034  0.000  0.014  0.000  0.000  0.000  0.088  0.000  0.000  0.136
    4  0.000  0.000  0.011  0.000  0.000  0.000  0.013  0.000  0.000  0.024
    5  0.005  0.000  0.000  0.000  0.000  0.000  0.000  0.000  0.000  0.005
tot    0.241  0.000  0.033  0.000  0.000  0.000  0.470  0.000  0.000  0.744
 
band     5 # energy   -5.93333514 # occ.  2.00000000
 
ion      s     py     pz     px    dxy    dyz    dz2    dxz  x2-y2    tot
    1  0.000  0.000  0.000  0.000  0.000  0.000  0.003  0.000  0.000  0.003
    2  0.000  0.000  0.001  0.000  0.000  0.000  0.007  0.000  0.000  0.008
    3  0.002  0.000  0.001  0.000  0.000  0.000  0.047  0.000  0.000  0.049
    4  0.003  0.000  0.036  0.000  0.000  0.000  0.665  0.000  0.000  0.704
    5  0.040  0.000  0.001  0.000  0.000  0.000  0.000  0.000  0.000  0.041
tot    0.045  0.000  0.039  0.000  0.000  0.000  0.723  0.000  0.000  0.806
 
band     6 # energy   -5.55953973 # occ.  2.00000000
 
ion      s     py     pz     px    dxy    dyz    dz2    dxz  x2-y2    tot
    1  0.000  0.000  0.001  0.000  0.000  0.000  0.056  0.000  0.000  0.058
    2  0.003  0.000  0.002  0.000  0.000  0.000  0.002  0.000  0.000  0.006
    3  0.002  0.000  0.016  0.000  0.000  0.000  0.608  0.000  0.000  0.625
    4  0.006  0.000  0.032  0.000  0.000  0.000  0.150  0.000  0.000  0.187
    5  0.010  0.000  0.000  0.000  0.000  0.000  0.000  0.000  0.000  0.010
tot    0.021  0.000  0.050  0.000  0.000  0.000  0.816  0.000  0.000  0.887
 
band     7 # energy   -5.51655839 # occ.  2.00000000
 
ion      s     py     pz     px    dxy    dyz    dz2    dxz  x2-y2    tot
    1  0.000  0.000  0.000  0.000  0.000  0.000  0.000  0.000  0.000  0.000
    2  0.000  0.000  0.000  0.000  0.001  0.000  0.000  0.000  0.004  0.005
    3  0.000  0.000  0.000  0.000  0.001  0.013  0.000  0.004  0.002  0.021
    4  0.000  0.000  0.000  0.000  0.233  0.005  0.000  0.002  0.699  0.940
    5  0.000  0.001  0.000  0.000  0.000  0.000  0.000  0.000  0.000  0.002
tot    0.000  0.001  0.000  0.000  0.235  0.019  0.000  0.006  0.705  0.968
 
band     8 # energy   -5.51628097 # occ.  2.00000000
 
ion      s     py     pz     px    dxy    dyz    dz2    dxz  x2-y2    tot
    1  0.000  0.000  0.000  0.000  0.000  0.000  0.000  0.000  0.000  0.000
    2  0.000  0.000  0.000  0.000  0.004  0.000  0.000  0.000  0.001  0.005
    3  0.000  0.000  0.000  0.000  0.002  0.004  0.000  0.013  0.001  0.021
    4  0.000  0.000  0.000  0.000  0.699  0.002  0.000  0.005  0.233  0.940
    5  0.000  0.000  0.000  0.001  0.000  0.000  0.000  0.000  0.000  0.002
tot    0.000  0.000  0.000  0.001  0.705  0.006  0.000  0.019  0.235  0.968
 
band     9 # energy   -5.26618800 # occ.  2.00000000
 
ion      s     py     pz     px    dxy    dyz    dz2    dxz  x2-y2    tot
    1  0.001  0.000  0.005  0.000  0.000  0.000  0.253  0.000  0.000  0.259
    2  0.004  0.000  0.000  0.000  0.000  0.000  0.576  0.000  0.000  0.581
    3  0.001  0.000  0.011  0.000  0.000  0.000  0.077  0.000  0.000  0.089
    4  0.001  0.000  0.005  0.000  0.000  0.000  0.001  0.000  0.000  0.007
    5  0.002  0.000  0.000  0.000  0.000  0.000  0.000  0.000  0.000  0.002
tot    0.009  0.000  0.021  0.000  0.000  0.000  0.908  0.000  0.000  0.938
 
band    10 # energy   -5.21659026 # occ.  2.00000000
 
ion      s     py     pz     px    dxy    dyz    dz2    dxz  x2-y2    tot
    1  0.000  0.000  0.000  0.000  0.006  0.011  0.000  0.004  0.019  0.041
    2  0.000  0.000  0.000  0.000  0.156  0.005  0.000  0.002  0.467  0.630
    3  0.000  0.000  0.000  0.000  0.065  0.009  0.000  0.003  0.194  0.272
    4  0.000  0.000  0.000  0.000  0.002  0.010  0.000  0.003  0.006  0.022
    5  0.000  0.000  0.000  0.000  0.000  0.000  0.000  0.000  0.000  0.000
tot    0.000  0.000  0.000  0.000  0.230  0.035  0.000  0.012  0.687  0.965
 
band    11 # energy   -5.21627990 # occ.  2.00000000
 
ion      s     py     pz     px    dxy    dyz    dz2    dxz  x2-y2    tot
    1  0.000  0.000  0.000  0.000  0.019  0.004  0.000  0.011  0.006  0.041
    2  0.000  0.000  0.000  0.000  0.467  0.002  0.000  0.005  0.156  0.630
    3  0.000  0.000  0.000  0.000  0.194  0.003  0.000  0.009  0.065  0.272
    4  0.000  0.000  0.000  0.000  0.006  0.003  0.000  0.010  0.002  0.022
    5  0.000  0.000  0.000  0.000  0.000  0.000  0.000  0.000  0.000  0.000
tot    0.000  0.000  0.000  0.000  0.687  0.012  0.000  0.035  0.230  0.965
 
band    12 # energy   -5.18580349 # occ.  2.00000000
 
ion      s     py     pz     px    dxy    dyz    dz2    dxz  x2-y2    tot
    1  0.000  0.000  0.000  0.000  0.002  0.014  0.000  0.005  0.006  0.028
    2  0.000  0.000  0.000  0.000  0.058  0.062  0.000  0.021  0.176  0.317
    3  0.000  0.000  0.000  0.000  0.125  0.039  0.000  0.013  0.378  0.555
    4  0.000  0.000  0.000  0.000  0.001  0.049  0.000  0.016  0.002  0.069
    5  0.000  0.000  0.000  0.000  0.000  0.000  0.000  0.000  0.000  0.000
tot    0.000  0.000  0.000  0.000  0.186  0.165  0.000  0.055  0.562  0.968
 
band    13 # energy   -5.18553025 # occ.  2.00000000
 
ion      s     py     pz     px    dxy    dyz    dz2    dxz  x2-y2    tot
    1  0.000  0.000  0.000  0.000  0.006  0.005  0.000  0.014  0.002  0.028
    2  0.000  0.000  0.000  0.000  0.176  0.021  0.000  0.063  0.058  0.317
    3  0.000  0.000  0.000  0.000  0.377  0.013  0.000  0.039  0.125  0.555
    4  0.000  0.000  0.000  0.000  0.002  0.016  0.000  0.050  0.001  0.069
    5  0.000  0.000  0.000  0.000  0.000  0.000  0.000  0.000  0.000  0.000
tot    0.000  0.000  0.000  0.000  0.562  0.055  0.000  0.165  0.186  0.968
 
band    14 # energy   -4.94327427 # occ.  2.00000000
 
ion      s     py     pz     px    dxy    dyz    dz2    dxz  x2-y2    tot
    1  0.000  0.000  0.000  0.000  0.203  0.005  0.000  0.002  0.608  0.818
    2  0.000  0.000  0.000  0.000  0.000  0.058  0.000  0.019  0.000  0.078
    3  0.000  0.000  0.000  0.000  0.014  0.002  0.000  0.001  0.042  0.059
    4  0.000  0.000  0.000  0.000  0.000  0.010  0.000  0.003  0.000  0.013
    5  0.000  0.000  0.000  0.000  0.000  0.000  0.000  0.000  0.000  0.000
tot    0.000  0.000  0.000  0.000  0.218  0.074  0.000  0.025  0.651  0.968
 
band    15 # energy   -4.94297618 # occ.  2.00000000
 
ion      s     py     pz     px    dxy    dyz    dz2    dxz  x2-y2    tot
    1  0.000  0.000  0.000  0.000  0.608  0.002  0.000  0.005  0.203  0.818
    2  0.000  0.000  0.000  0.000  0.000  0.019  0.000  0.058  0.000  0.078
    3  0.000  0.000  0.000  0.000  0.042  0.001  0.000  0.002  0.014  0.059
    4  0.000  0.000  0.000  0.000  0.000  0.003  0.000  0.010  0.000  0.013
    5  0.000  0.000  0.000  0.000  0.000  0.000  0.000  0.000  0.000  0.000
tot    0.000  0.000  0.000  0.000  0.651  0.025  0.000  0.075  0.218  0.968
 
band    16 # energy   -4.85170960 # occ.  2.00000000
 
ion      s     py     pz     px    dxy    dyz    dz2    dxz  x2-y2    tot
    1  0.028  0.000  0.000  0.000  0.000  0.000  0.414  0.000  0.000  0.442
    2  0.013  0.000  0.047  0.000  0.000  0.000  0.054  0.000  0.000  0.113
    3  0.000  0.000  0.076  0.000  0.000  0.000  0.010  0.000  0.000  0.086
    4  0.012  0.000  0.041  0.000  0.000  0.000  0.013  0.000  0.000  0.066
    5  0.016  0.000  0.000  0.000  0.000  0.000  0.000  0.000  0.000  0.016
tot    0.069  0.000  0.165  0.000  0.000  0.000  0.490  0.000  0.000  0.724
 
band    17 # energy   -4.69391753 # occ.  2.00000000
 
ion      s     py     pz     px    dxy    dyz    dz2    dxz  x2-y2    tot
    1  0.000  0.000  0.000  0.000  0.000  0.002  0.000  0.001  0.002  0.005
    2  0.000  0.000  0.000  0.000  0.002  0.004  0.000  0.001  0.007  0.014
    3  0.000  0.000  0.000  0.000  0.020  0.036  0.000  0.010  0.072  0.139
    4  0.000  0.000  0.000  0.000  0.003  0.632  0.000  0.179  0.011  0.826
    5  0.000  0.000  0.000  0.000  0.000  0.000  0.000  0.000  0.000  0.000
tot    0.000  0.000  0.000  0.000  0.026  0.675  0.000  0.191  0.091  0.984
 
band    18 # energy   -4.69388095 # occ.  2.00000000
 
ion      s     py     pz     px    dxy    dyz    dz2    dxz  x2-y2    tot
    1  0.000  0.000  0.000  0.000  0.002  0.001  0.000  0.002  0.000  0.005
    2  0.000  0.000  0.000  0.000  0.007  0.001  0.000  0.004  0.002  0.014
    3  0.000  0.000  0.000  0.000  0.072  0.010  0.000  0.036  0.020  0.139
    4  0.000  0.000  0.000  0.000  0.011  0.179  0.000  0.632  0.003  0.826
    5  0.000  0.000  0.000  0.000  0.000  0.000  0.000  0.000  0.000  0.000
tot    0.000  0.000  0.000  0.000  0.092  0.191  0.000  0.675  0.026  0.984
 
band    19 # energy   -4.44649082 # occ.  2.00000000
 
ion      s     py     pz     px    dxy    dyz    dz2    dxz  x2-y2    tot
    1  0.000  0.000  0.000  0.000  0.028  0.034  0.000  0.013  0.074  0.149
    2  0.000  0.000  0.000  0.000  0.019  0.313  0.000  0.117  0.052  0.502
    3  0.000  0.000  0.000  0.000  0.011  0.194  0.000  0.072  0.030  0.308
    4  0.000  0.000  0.000  0.000  0.001  0.016  0.000  0.006  0.003  0.026
    5  0.000  0.000  0.000  0.000  0.000  0.000  0.000  0.000  0.000  0.000
tot    0.000  0.000  0.000  0.000  0.059  0.557  0.000  0.208  0.159  0.984
 
band    20 # energy   -4.44641195 # occ.  2.00000000
 
ion      s     py     pz     px    dxy    dyz    dz2    dxz  x2-y2    tot
    1  0.000  0.000  0.000  0.000  0.074  0.013  0.000  0.034  0.028  0.149
    2  0.000  0.000  0.000  0.000  0.052  0.117  0.000  0.313  0.019  0.502
    3  0.000  0.000  0.000  0.000  0.030  0.072  0.000  0.194  0.011  0.308
    4  0.000  0.000  0.000  0.000  0.003  0.006  0.000  0.016  0.001  0.026
    5  0.000  0.000  0.000  0.000  0.000  0.000  0.000  0.000  0.000  0.000
tot    0.000  0.000  0.000  0.000  0.159  0.208  0.000  0.557  0.060  0.984
 
band    21 # energy   -4.22733743 # occ.  2.00000000
 
ion      s     py     pz     px    dxy    dyz    dz2    dxz  x2-y2    tot
    1  0.000  0.000  0.000  0.000  0.003  0.264  0.000  0.081  0.008  0.356
    2  0.000  0.000  0.000  0.000  0.000  0.079  0.000  0.024  0.000  0.104
    3  0.000  0.000  0.000  0.000  0.002  0.360  0.000  0.110  0.005  0.477
    4  0.000  0.000  0.000  0.000  0.001  0.035  0.000  0.011  0.003  0.049
    5  0.000  0.000  0.000  0.000  0.000  0.000  0.000  0.000  0.000  0.000
tot    0.000  0.000  0.000  0.000  0.005  0.738  0.000  0.226  0.017  0.986
 
band    22 # energy   -4.22730179 # occ.  2.00000000
 
ion      s     py     pz     px    dxy    dyz    dz2    dxz  x2-y2    tot
    1  0.000  0.000  0.000  0.000  0.008  0.081  0.000  0.264  0.003  0.356
    2  0.000  0.000  0.000  0.000  0.000  0.024  0.000  0.079  0.000  0.104
    3  0.000  0.000  0.000  0.000  0.005  0.110  0.000  0.360  0.002  0.477
    4  0.000  0.000  0.000  0.000  0.003  0.011  0.000  0.035  0.001  0.049
    5  0.000  0.000  0.000  0.000  0.000  0.000  0.000  0.000  0.000  0.000
tot    0.000  0.000  0.000  0.000  0.017  0.226  0.000  0.738  0.005  0.986
 
band    23 # energy   -3.94588984 # occ.  2.00000000
 
ion      s     py     pz     px    dxy    dyz    dz2    dxz  x2-y2    tot
    1  0.000  0.000  0.000  0.000  0.002  0.414  0.000  0.135  0.006  0.557
    2  0.000  0.000  0.000  0.000  0.006  0.209  0.000  0.069  0.019  0.303
    3  0.000  0.000  0.000  0.000  0.002  0.087  0.000  0.029  0.005  0.123
    4  0.000  0.000  0.000  0.000  0.000  0.004  0.000  0.001  0.001  0.007
    5  0.000  0.000  0.000  0.000  0.000  0.000  0.000  0.000  0.000  0.000
tot    0.000  0.000  0.000  0.000  0.010  0.715  0.000  0.234  0.031  0.990
 
band    24 # energy   -3.94581877 # occ.  2.00000000
 
ion      s     py     pz     px    dxy    dyz    dz2    dxz  x2-y2    tot
    1  0.000  0.000  0.000  0.000  0.006  0.135  0.000  0.414  0.002  0.557
    2  0.000  0.000  0.000  0.000  0.019  0.069  0.000  0.209  0.006  0.303
    3  0.000  0.000  0.000  0.000  0.005  0.029  0.000  0.087  0.002  0.123
    4  0.000  0.000  0.000  0.000  0.001  0.001  0.000  0.004  0.000  0.007
    5  0.000  0.000  0.000  0.000  0.000  0.000  0.000  0.000  0.000  0.000
tot    0.000  0.000  0.000  0.000  0.031  0.234  0.000  0.715  0.010  0.990
 
band    25 # energy   -2.87921617 # occ.  2.00000000
 
ion      s     py     pz     px    dxy    dyz    dz2    dxz  x2-y2    tot
    1  0.020  0.000  0.153  0.000  0.000  0.000  0.029  0.000  0.000  0.202
    2  0.016  0.000  0.079  0.000  0.000  0.000  0.024  0.000  0.000  0.118
    3  0.013  0.000  0.033  0.000  0.000  0.000  0.023  0.000  0.000  0.069
    4  0.009  0.000  0.013  0.000  0.000  0.000  0.007  0.000  0.000  0.028
    5  0.004  0.000  0.000  0.000  0.000  0.000  0.000  0.000  0.000  0.004
tot    0.061  0.000  0.278  0.000  0.000  0.000  0.083  0.000  0.000  0.422
 
band    26 # energy    1.56487888 # occ.  0.00000000
 
ion      s     py     pz     px    dxy    dyz    dz2    dxz  x2-y2    tot
    1  0.015  0.000  0.003  0.000  0.000  0.000  0.015  0.000  0.000  0.033
    2  0.024  0.000  0.003  0.000  0.000  0.000  0.022  0.000  0.000  0.048
    3  0.036  0.000  0.003  0.000  0.000  0.000  0.032  0.000  0.000  0.071
    4  0.040  0.000  0.000  0.000  0.000  0.000  0.043  0.000  0.000  0.082
    5  0.000  0.000  0.003  0.000  0.000  0.000  0.000  0.000  0.000  0.003
tot    0.115  0.000  0.011  0.000  0.000  0.000  0.112  0.000  0.000  0.237
 
band    27 # energy    1.89896312 # occ.  0.00000000
 
ion      s     py     pz     px    dxy    dyz    dz2    dxz  x2-y2    tot
    1  0.006  0.000  0.003  0.000  0.000  0.000  0.006  0.000  0.000  0.015
    2  0.002  0.000  0.003  0.000  0.000  0.000  0.002  0.000  0.000  0.007
    3  0.000  0.000  0.003  0.000  0.000  0.000  0.000  0.000  0.000  0.003
    4  0.001  0.000  0.002  0.000  0.000  0.000  0.003  0.000  0.000  0.006
    5  0.001  0.000  0.000  0.000  0.000  0.000  0.000  0.000  0.000  0.002
tot    0.010  0.000  0.012  0.000  0.000  0.000  0.010  0.000  0.000  0.032
 
band    28 # energy    2.30482939 # occ.  0.00000000
 
ion      s     py     pz     px    dxy    dyz    dz2    dxz  x2-y2    tot
    1  0.004  0.000  0.003  0.000  0.000  0.000  0.004  0.000  0.000  0.011
    2  0.001  0.000  0.004  0.000  0.000  0.000  0.000  0.000  0.000  0.005
    3  0.000  0.000  0.004  0.000  0.000  0.000  0.000  0.000  0.000  0.004
    4  0.003  0.000  0.001  0.000  0.000  0.000  0.005  0.000  0.000  0.010
    5  0.001  0.000  0.001  0.000  0.000  0.000  0.000  0.000  0.000  0.001
tot    0.009  0.000  0.012  0.000  0.000  0.000  0.010  0.000  0.000  0.031
 

 k-point     2 :    0.10000000 0.00000000 0.00000000     weight = 0.06000000

band     1 # energy  -11.26418680 # occ.  2.00000000
 
ion      s     py     pz     px    dxy    dyz    dz2    dxz  x2-y2    tot
    1  0.006  0.000  0.001  0.000  0.000  0.000  0.000  0.000  0.000  0.007
    2  0.034  0.000  0.001  0.001  0.000  0.000  0.000  0.000  0.000  0.037
    3  0.101  0.001  0.002  0.002  0.000  0.000  0.000  0.000  0.000  0.107
    4  0.307  0.003  0.001  0.008  0.001  0.000  0.011  0.000  0.000  0.332
    5  0.108  0.000  0.001  0.000  0.000  0.000  0.000  0.000  0.000  0.109
tot    0.556  0.004  0.006  0.011  0.001  0.000  0.012  0.001  0.000  0.591
 
band     2 # energy  -10.33371757 # occ.  2.00000000
 
ion      s     py     pz     px    dxy    dyz    dz2    dxz  x2-y2    tot
    1  0.111  0.001  0.010  0.002  0.000  0.000  0.000  0.001  0.000  0.126
    2  0.264  0.002  0.000  0.006  0.000  0.000  0.001  0.000  0.000  0.274
    3  0.066  0.000  0.016  0.001  0.000  0.000  0.000  0.001  0.000  0.085
    4  0.052  0.001  0.008  0.002  0.000  0.000  0.011  0.001  0.000  0.074
    5  0.036  0.000  0.000  0.000  0.000  0.000  0.000  0.000  0.000  0.036
tot    0.529  0.004  0.034  0.011  0.001  0.001  0.012  0.003  0.000  0.596
 
band     3 # energy   -8.68957578 # occ.  2.00000000
 
ion      s     py     pz     px    dxy    dyz    dz2    dxz  x2-y2    tot
    1  0.186  0.002  0.003  0.005  0.000  0.000  0.018  0.000  0.000  0.214
    2  0.004  0.000  0.047  0.000  0.000  0.002  0.001  0.005  0.000  0.060
    3  0.202  0.002  0.000  0.005  0.000  0.000  0.033  0.000  0.000  0.243
    4  0.005  0.000  0.027  0.000  0.000  0.002  0.023  0.005  0.000  0.062
    5  0.026  0.000  0.000  0.000  0.000  0.000  0.000  0.000  0.000  0.027
tot    0.424  0.003  0.077  0.010  0.001  0.003  0.075  0.010  0.000  0.604
 
band     4 # energy   -7.26015954 # occ.  2.00000000
 
ion      s     py     pz     px    dxy    dyz    dz2    dxz  x2-y2    tot
    1  0.099  0.001  0.005  0.004  0.001  0.000  0.136  0.000  0.000  0.245
    2  0.088  0.001  0.003  0.004  0.001  0.000  0.241  0.001  0.000  0.339
    3  0.028  0.000  0.015  0.001  0.000  0.001  0.085  0.002  0.000  0.133
    4  0.000  0.000  0.010  0.000  0.000  0.001  0.014  0.003  0.000  0.028
    5  0.005  0.000  0.000  0.000  0.000  0.000  0.000  0.000  0.000  0.005
tot    0.221  0.003  0.032  0.009  0.002  0.002  0.476  0.007  0.001  0.751
 
band     5 # energy   -5.98669229 # occ.  2.00000000
 
ion      s     py     pz     px    dxy    dyz    dz2    dxz  x2-y2    tot
    1  0.000  0.000  0.000  0.000  0.000  0.000  0.006  0.000  0.000  0.006
    2  0.001  0.000  0.000  0.000  0.002  0.000  0.001  0.000  0.001  0.005
    3  0.000  0.000  0.005  0.000  0.005  0.000  0.139  0.000  0.002  0.152
    4  0.007  0.000  0.038  0.001  0.068  0.029  0.365  0.087  0.023  0.619
    5  0.038  0.000  0.001  0.000  0.000  0.000  0.000  0.000  0.000  0.039
tot    0.047  0.000  0.044  0.001  0.075  0.029  0.511  0.088  0.025  0.822
 
band     6 # energy   -5.67957567 # occ.  2.00000000
 
ion      s     py     pz     px    dxy    dyz    dz2    dxz  x2-y2    tot
    1  0.001  0.000  0.001  0.000  0.000  0.000  0.024  0.000  0.000  0.027
    2  0.002  0.000  0.000  0.000  0.018  0.001  0.041  0.003  0.006  0.071
    3  0.000  0.000  0.016  0.000  0.011  0.008  0.223  0.025  0.004  0.287
    4  0.005  0.000  0.007  0.000  0.077  0.006  0.398  0.017  0.026  0.534
    5  0.001  0.000  0.000  0.000  0.000  0.000  0.000  0.000  0.000  0.001
tot    0.008  0.000  0.024  0.001  0.106  0.015  0.685  0.045  0.035  0.920
 
band     7 # energy   -5.54304908 # occ.  2.00000000
 
ion      s     py     pz     px    dxy    dyz    dz2    dxz  x2-y2    tot
    1  0.000  0.000  0.000  0.000  0.001  0.000  0.012  0.000  0.000  0.014
    2  0.000  0.000  0.000  0.000  0.037  0.001  0.016  0.002  0.012  0.069
    3  0.000  0.000  0.003  0.000  0.008  0.014  0.045  0.041  0.003  0.115
    4  0.000  0.000  0.009  0.001  0.524  0.005  0.003  0.016  0.175  0.734
    5  0.003  0.000  0.000  0.001  0.000  0.000  0.000  0.000  0.000  0.004
tot    0.004  0.000  0.013  0.001  0.570  0.020  0.077  0.060  0.191  0.936
 
band     8 # energy   -5.41059217 # occ.  2.00000000
 
ion      s     py     pz     px    dxy    dyz    dz2    dxz  x2-y2    tot
    1  0.000  0.000  0.000  0.000  0.000  0.000  0.000  0.000  0.000  0.000
    2  0.000  0.000  0.000  0.000  0.002  0.001  0.000  0.000  0.005  0.007
    3  0.000  0.000  0.000  0.000  0.000  0.018  0.000  0.006  0.001  0.026
    4  0.000  0.001  0.000  0.000  0.231  0.009  0.000  0.003  0.691  0.935
    5  0.000  0.001  0.000  0.000  0.000  0.000  0.000  0.000  0.000  0.002
tot    0.000  0.002  0.000  0.001  0.233  0.028  0.000  0.009  0.697  0.969
 
band     9 # energy   -5.33723980 # occ.  2.00000000
 
ion      s     py     pz     px    dxy    dyz    dz2    dxz  x2-y2    tot
    1  0.005  0.000  0.001  0.000  0.047  0.007  0.026  0.020  0.016  0.122
    2  0.003  0.000  0.011  0.000  0.043  0.029  0.263  0.086  0.014  0.449
    3  0.000  0.000  0.023  0.000  0.078  0.007  0.128  0.020  0.026  0.282
    4  0.003  0.000  0.005  0.000  0.002  0.010  0.006  0.029  0.001  0.055
    5  0.002  0.000  0.000  0.000  0.000  0.000  0.000  0.000  0.000  0.002
tot    0.013  0.000  0.040  0.000  0.170  0.052  0.423  0.156  0.057  0.911
 
band    10 # energy   -5.29372845 # occ.  2.00000000
 
ion      s     py     pz     px    dxy    dyz    dz2    dxz  x2-y2    tot
    1  0.001  0.000  0.002  0.000  0.005  0.001  0.131  0.003  0.002  0.146
    2  0.001  0.000  0.004  0.000  0.033  0.024  0.133  0.071  0.011  0.278
    3  0.001  0.000  0.006  0.001  0.277  0.003  0.042  0.008  0.093  0.430
    4  0.001  0.000  0.002  0.000  0.000  0.011  0.039  0.034  0.000  0.088
    5  0.001  0.000  0.000  0.000  0.000  0.000  0.000  0.000  0.000  0.001
tot    0.005  0.000  0.014  0.001  0.315  0.039  0.344  0.117  0.105  0.942
 
band    11 # energy   -5.26031010 # occ.  2.00000000
 
ion      s     py     pz     px    dxy    dyz    dz2    dxz  x2-y2    tot
    1  0.001  0.000  0.000  0.000  0.028  0.005  0.019  0.015  0.009  0.077
    2  0.001  0.000  0.000  0.000  0.469  0.000  0.038  0.001  0.157  0.668
    3  0.000  0.000  0.001  0.000  0.027  0.004  0.089  0.011  0.009  0.141
    4  0.001  0.000  0.002  0.000  0.031  0.003  0.011  0.010  0.010  0.070
    5  0.001  0.000  0.000  0.000  0.000  0.000  0.000  0.000  0.000  0.001
tot    0.002  0.000  0.003  0.001  0.555  0.013  0.158  0.038  0.186  0.956
 
band    12 # energy   -5.11352458 # occ.  2.00000000
 
ion      s     py     pz     px    dxy    dyz    dz2    dxz  x2-y2    tot
    1  0.000  0.000  0.000  0.000  0.006  0.014  0.000  0.005  0.018  0.043
    2  0.000  0.000  0.000  0.000  0.057  0.058  0.000  0.019  0.171  0.306
    3  0.000  0.000  0.000  0.000  0.122  0.024  0.000  0.008  0.366  0.520
    4  0.000  0.000  0.000  0.000  0.001  0.070  0.000  0.023  0.004  0.098
    5  0.000  0.000  0.000  0.000  0.000  0.000  0.000  0.000  0.000  0.000
tot    0.000  0.000  0.000  0.000  0.187  0.166  0.000  0.055  0.560  0.968
 
band    13 # energy   -5.10734290 # occ.  2.00000000
 
ion      s     py     pz     px    dxy    dyz    dz2    dxz  x2-y2    tot
    1  0.000  0.000  0.000  0.000  0.003  0.017  0.000  0.006  0.009  0.035
    2  0.000  0.001  0.000  0.000  0.150  0.031  0.000  0.011  0.449  0.641
    3  0.000  0.001  0.000  0.000  0.050  0.041  0.000  0.014  0.151  0.256
    4  0.000  0.000  0.000  0.000  0.003  0.017  0.000  0.006  0.010  0.035
    5  0.000  0.000  0.000  0.000  0.000  0.000  0.000  0.000  0.000  0.000
tot    0.000  0.001  0.000  0.000  0.206  0.106  0.000  0.035  0.618  0.968
 
band    14 # energy   -5.06095506 # occ.  2.00000000
 
ion      s     py     pz     px    dxy    dyz    dz2    dxz  x2-y2    tot
    1  0.003  0.000  0.003  0.000  0.014  0.003  0.350  0.010  0.005  0.389
    2  0.000  0.000  0.018  0.000  0.027  0.006  0.071  0.016  0.009  0.147
    3  0.000  0.000  0.008  0.000  0.236  0.013  0.001  0.039  0.078  0.375
    4  0.001  0.000  0.006  0.000  0.002  0.001  0.001  0.001  0.001  0.012
    5  0.002  0.000  0.000  0.000  0.000  0.000  0.000  0.000  0.000  0.002
tot    0.008  0.000  0.035  0.000  0.278  0.022  0.423  0.067  0.092  0.925
 
band    15 # energy   -4.96452266 # occ.  2.00000000
 
ion      s     py     pz     px    dxy    dyz    dz2    dxz  x2-y2    tot
    1  0.001  0.000  0.000  0.001  0.547  0.001  0.034  0.004  0.183  0.772
    2  0.000  0.000  0.007  0.000  0.005  0.004  0.019  0.011  0.002  0.048
    3  0.001  0.000  0.004  0.000  0.016  0.014  0.036  0.042  0.005  0.118
    4  0.000  0.000  0.000  0.000  0.003  0.003  0.000  0.008  0.001  0.016
    5  0.000  0.000  0.000  0.000  0.000  0.000  0.000  0.000  0.000  0.000
tot    0.003  0.000  0.011  0.001  0.572  0.022  0.090  0.065  0.192  0.955
 
band    16 # energy   -4.85769868 # occ.  2.00000000
 
ion      s     py     pz     px    dxy    dyz    dz2    dxz  x2-y2    tot
    1  0.000  0.001  0.000  0.000  0.173  0.010  0.000  0.003  0.517  0.705
    2  0.000  0.000  0.000  0.000  0.000  0.090  0.000  0.030  0.001  0.122
    3  0.000  0.000  0.000  0.000  0.015  0.009  0.000  0.003  0.045  0.072
    4  0.000  0.000  0.000  0.000  0.000  0.053  0.000  0.018  0.001  0.071
    5  0.000  0.000  0.000  0.000  0.000  0.000  0.000  0.000  0.000  0.000
tot    0.000  0.001  0.000  0.000  0.189  0.162  0.000  0.054  0.564  0.970
 
band    17 # energy   -4.71236761 # occ.  2.00000000
 
ion      s     py     pz     px    dxy    dyz    dz2    dxz  x2-y2    tot
    1  0.000  0.000  0.000  0.000  0.017  0.004  0.000  0.001  0.051  0.074
    2  0.000  0.000  0.000  0.000  0.005  0.008  0.000  0.003  0.014  0.029
    3  0.000  0.000  0.000  0.000  0.035  0.044  0.000  0.015  0.104  0.197
    4  0.000  0.000  0.000  0.000  0.004  0.500  0.000  0.166  0.012  0.682
    5  0.000  0.000  0.000  0.000  0.000  0.000  0.000  0.000  0.000  0.000
tot    0.000  0.000  0.000  0.000  0.060  0.555  0.000  0.185  0.181  0.982
 
band    18 # energy   -4.63418417 # occ.  2.00000000
 
ion      s     py     pz     px    dxy    dyz    dz2    dxz  x2-y2    tot
    1  0.001  0.000  0.000  0.000  0.029  0.009  0.007  0.028  0.010  0.084
    2  0.000  0.000  0.000  0.000  0.029  0.014  0.004  0.043  0.010  0.100
    3  0.002  0.000  0.001  0.000  0.043  0.072  0.021  0.217  0.014  0.371
    4  0.000  0.000  0.006  0.000  0.006  0.095  0.008  0.285  0.002  0.402
    5  0.004  0.000  0.000  0.000  0.000  0.000  0.000  0.000  0.000  0.004
tot    0.007  0.000  0.007  0.000  0.107  0.191  0.040  0.573  0.036  0.962
 
band    19 # energy   -4.46047630 # occ.  2.00000000
 
ion      s     py     pz     px    dxy    dyz    dz2    dxz  x2-y2    tot
    1  0.000  0.000  0.000  0.000  0.038  0.050  0.000  0.017  0.113  0.217
    2  0.000  0.000  0.000  0.000  0.018  0.256  0.000  0.085  0.053  0.412
    3  0.000  0.000  0.000  0.000  0.017  0.161  0.000  0.053  0.051  0.282
    4  0.000  0.000  0.000  0.000  0.001  0.051  0.000  0.017  0.004  0.073
    5  0.000  0.000  0.000  0.000  0.000  0.000  0.000  0.000  0.000  0.000
tot    0.000  0.000  0.000  0.000  0.073  0.517  0.000  0.172  0.221  0.983
 
band    20 # energy   -4.42328889 # occ.  2.00000000
 
ion      s     py     pz     px    dxy    dyz    dz2    dxz  x2-y2    tot
    1  0.000  0.000  0.004  0.000  0.034  0.093  0.001  0.281  0.011  0.424
    2  0.000  0.000  0.004  0.000  0.045  0.052  0.000  0.158  0.015  0.275
    3  0.003  0.000  0.002  0.000  0.011  0.020  0.024  0.061  0.004  0.125
    4  0.000  0.000  0.003  0.000  0.001  0.032  0.001  0.096  0.000  0.134
    5  0.002  0.000  0.000  0.000  0.000  0.000  0.000  0.000  0.000  0.002
tot    0.005  0.000  0.013  0.000  0.091  0.198  0.026  0.595  0.030  0.959
 
band    21 # energy   -4.25468529 # occ.  2.00000000
 
ion      s     py     pz     px    dxy    dyz    dz2    dxz  x2-y2    tot
    1  0.011  0.000  0.014  0.000  0.014  0.084  0.081  0.253  0.005  0.462
    2  0.001  0.000  0.001  0.000  0.011  0.079  0.003  0.236  0.004  0.334
    3  0.001  0.000  0.004  0.000  0.005  0.002  0.008  0.005  0.002  0.027
    4  0.000  0.000  0.006  0.000  0.000  0.017  0.000  0.051  0.000  0.074
    5  0.003  0.000  0.000  0.000  0.000  0.000  0.000  0.000  0.000  0.003
tot    0.016  0.000  0.025  0.001  0.030  0.181  0.092  0.544  0.010  0.900
 
band    22 # energy   -4.22331176 # occ.  2.00000000
 
ion      s     py     pz     px    dxy    dyz    dz2    dxz  x2-y2    tot
    1  0.000  0.000  0.000  0.000  0.003  0.253  0.000  0.085  0.010  0.352
    2  0.000  0.000  0.000  0.000  0.005  0.067  0.000  0.022  0.016  0.110
    3  0.000  0.000  0.000  0.000  0.001  0.352  0.000  0.117  0.004  0.474
    4  0.000  0.000  0.000  0.000  0.001  0.034  0.000  0.011  0.004  0.050
    5  0.000  0.000  0.000  0.000  0.000  0.000  0.000  0.000  0.000  0.000
tot    0.000  0.000  0.000  0.000  0.011  0.706  0.000  0.235  0.033  0.986
 
band    23 # energy   -3.94080057 # occ.  2.00000000
 
ion      s     py     pz     px    dxy    dyz    dz2    dxz  x2-y2    tot
    1  0.000  0.000  0.000  0.000  0.003  0.389  0.000  0.130  0.008  0.529
    2  0.000  0.000  0.000  0.000  0.006  0.227  0.000  0.076  0.018  0.326
    3  0.000  0.000  0.000  0.000  0.002  0.090  0.000  0.030  0.006  0.128