Starting job 28337770 ("jobname") on c15-30 at Fri Oct 11 10:28:33 CEST 2019
 running on    4 total cores
 distrk:  each k-point on    4 cores,    1 groups
 distr:  one band on    2 cores,    2 groups
 using from now: INCAR     
 vasp.5.4.4.18Apr17-6-g9f103f2a35 (build Jun 30 2017 11:15:00) complex          
  
 POSCAR found type information on POSCAR  Cu H 
 POSCAR found :  2 types and       5 ions
 scaLAPACK will be used

 ----------------------------------------------------------------------------- 
|                                                                             |
|  ADVICE TO THIS USER RUNNING 'VASP/VAMP'   (HEAR YOUR MASTER'S VOICE ...):  |
|                                                                             |
|      You have a (more or less) 'small supercell' and for smaller cells      |
|      it is recommended  to use the reciprocal-space projection scheme!      |
|      The real space optimization is not  efficient for small cells and it   |
|      is also less accurate ...                                              |
|      Therefore set LREAL=.FALSE. in the  INCAR file                         |
|                                                                             |
 ----------------------------------------------------------------------------- 

 LDA part: xc-table for Pade appr. of Perdew
 POSCAR, INCAR and KPOINTS ok, starting setup
 FFT: planning ...
 WAVECAR not read
 entering main loop
       N       E                     dE             d eps       ncg     rms          rms(c)
DAV:   1     0.199288360865E+03    0.19929E+03   -0.13950E+04   808   0.926E+02
DAV:   2    -0.105564243379E+02   -0.20984E+03   -0.20335E+03   824   0.266E+02
DAV:   3    -0.208545475706E+02   -0.10298E+02   -0.10075E+02   860   0.778E+01
DAV:   4    -0.210016666990E+02   -0.14712E+00   -0.14639E+00   856   0.821E+00
DAV:   5    -0.210030326256E+02   -0.13659E-02   -0.13658E-02   904   0.576E-01    0.146E+01
RMM:   6    -0.189886907206E+02    0.20143E+01   -0.43364E+01   861   0.643E+01    0.747E+00
RMM:   7    -0.172037135371E+02    0.17850E+01   -0.71630E+00   843   0.270E+01    0.143E+00
RMM:   8    -0.172269921133E+02   -0.23279E-01   -0.11153E-01   869   0.257E+00    0.197E+00
RMM:   9    -0.171229197845E+02    0.10407E+00   -0.63134E-02   868   0.213E+00    0.740E-01
RMM:  10    -0.171138576384E+02    0.90621E-02   -0.19442E-02   872   0.120E+00    0.459E-01
RMM:  11    -0.171082958064E+02    0.55618E-02   -0.83705E-03   861   0.735E-01    0.144E-01
RMM:  12    -0.171075314624E+02    0.76434E-03   -0.15220E-03   863   0.316E-01    0.103E-01
RMM:  13    -0.171071012556E+02    0.43021E-03   -0.56530E-04   845   0.194E-01    0.543E-02
RMM:  14    -0.171071207207E+02   -0.19465E-04   -0.29297E-04   842   0.108E-01    0.633E-02
RMM:  15    -0.171071612483E+02   -0.40528E-04   -0.12255E-04   820   0.800E-02    0.158E-02
RMM:  16    -0.171074930578E+02   -0.33181E-03   -0.81974E-05   805   0.506E-02    0.206E-02
RMM:  17    -0.171075964088E+02   -0.10335E-03   -0.38114E-05   796   0.292E-02    0.904E-03
RMM:  18    -0.171076718122E+02   -0.75403E-04   -0.11247E-05   645   0.145E-02    0.686E-03
RMM:  19    -0.171077092284E+02   -0.37416E-04   -0.17715E-06   527   0.830E-03    0.585E-03
RMM:  20    -0.171077404244E+02   -0.31196E-04   -0.14739E-06   511   0.591E-03    0.595E-03
RMM:  21    -0.171077515884E+02   -0.11164E-04   -0.46975E-07   498   0.461E-03    0.561E-03
RMM:  22    -0.171077573311E+02   -0.57427E-05   -0.19587E-07   483   0.276E-03    0.543E-03
RMM:  23    -0.171077590506E+02   -0.17195E-05   -0.16079E-08   175   0.115E-03    0.540E-03
RMM:  24    -0.171077591049E+02   -0.54277E-07   -0.17104E-08   233   0.144E-03
   1 F= -.17107759E+02 E0= -.17096906E+02  d E =-.217064E-01

Currently Loaded Modulefiles:
  1) intel/2017.4         2) perf-reports/7.0.6

Job script resource usage:
       JobID  MaxVMSize     MaxRSS 
------------ ---------- ---------- 
28337770.ba+    216884K      2487K 

Job step resource usage:
       JobID    JobName  AllocCPUS  MaxVMSize     MaxRSS    Elapsed ExitCode 
------------ ---------- ---------- ---------- ---------- ---------- -------- 
28337770        jobname          4                         00:00:11      0:0 
28337770.0    pmi_proxy          1    279832K       519K   00:00:09      0:0 

Job 28337770 ("jobname") completed on c15-30 at Fri Oct 11 10:28:43 CEST 2019
