<?xml version="1.0" encoding="ISO-8859-1"?>
<modeling>
 <generator>
  <i name="program" type="string">vasp </i>
  <i name="version" type="string">5.4.4.18Apr17-6-g9f103f2a35  </i>
  <i name="subversion" type="string">(build Jun 30 2017 11:15:00) complex            parallel </i>
  <i name="platform" type="string">STALLO_VASP_5.4.4 </i>
  <i name="date" type="string">2019 10 11 </i>
  <i name="time" type="string">11:39:50 </i>
 </generator>
 <incar>
  <i type="string" name="PREC">normal    ! low/normal/accurate</i>
  <i type="string" name="ALGO"> Fast      ! Algorithm for electronic re</i>
  <i type="int" name="ISPIN">     1</i>
  <i type="int" name="NELMIN">     4</i>
  <i name="EDIFF">      0.00000100</i>
  <i type="int" name="NSW">     0</i>
  <i name="ENCUT">    250.00000000</i>
  <i type="int" name="NEDOS">  2401</i>
  <i type="string" name="LREAL"> Auto      ! Projection in reciprocal sp</i>
  <i name="EMIN">    -17.00000000</i>
  <i name="EMAX">      7.00000000</i>
  <i type="int" name="ISMEAR">     0</i>
  <i name="SIGMA">      0.10000000</i>
  <i type="logical" name="LWAVE"> F  </i>
  <i type="int" name="LORBIT">    11</i>
  <i type="logical" name="LELF"> T  </i>
  <v type="int" name="KPOINT_BSE">    -1     0     0     0</v>
 </incar>
 <structure name="primitive_cell" >
  <crystal>
   <varray name="basis" >
    <v>       2.57386868       0.00000000       0.00000000 </v>
    <v>       1.28693434       2.22903567       0.00000000 </v>
    <v>       0.00000000       0.00000000      30.30466494 </v>
   </varray>
   <i name="volume">    173.86529028 </i>
   <varray name="rec_basis" >
    <v>       0.38852021      -0.22431225       0.00000000 </v>
    <v>       0.00000000       0.44862450       0.00000000 </v>
    <v>       0.00000000       0.00000000       0.03299822 </v>
   </varray>
  </crystal>
  <varray name="positions" >
   <v>       0.00000000       0.00000000       0.39644028 </v>
   <v>       0.33333207       0.33333249       0.46515182 </v>
   <v>      -0.33333197      -0.33333503      -0.46608385 </v>
   <v>       0.00000000       0.00000000      -0.39325612 </v>
   <v>       0.33333207       0.33333249      -0.36193289 </v>
  </varray>
 </structure>
 <varray name="primitive_index" >
  <v type="int" >        1 </v>
  <v type="int" >        2 </v>
  <v type="int" >        3 </v>
  <v type="int" >        4 </v>
  <v type="int" >        5 </v>
 </varray>
 <kpoints>
  <generation param="Gamma">
   <v type="int" name="divisions">      10       10        1 </v>
   <v name="usershift">      0.00000000       0.00000000       0.00000000 </v>
   <v name="genvec1">      0.10000000       0.00000000       0.00000000 </v>
   <v name="genvec2">      0.00000000       0.10000000       0.00000000 </v>
   <v name="genvec3">      0.00000000       0.00000000       1.00000000 </v>
   <v name="shift">      0.00000000       0.00000000       0.00000000 </v>
  </generation>
  <varray name="kpointlist" >
   <v>       0.00000000       0.00000000       0.00000000 </v>
   <v>       0.10000000       0.00000000       0.00000000 </v>
   <v>       0.20000000      -0.00000000       0.00000000 </v>
   <v>       0.30000000      -0.00000000       0.00000000 </v>
   <v>       0.40000000      -0.00000000       0.00000000 </v>
   <v>       0.50000000      -0.00000000       0.00000000 </v>
   <v>       0.20000000       0.10000000       0.00000000 </v>
   <v>       0.30000000       0.10000000       0.00000000 </v>
   <v>       0.40000000       0.10000000       0.00000000 </v>
   <v>       0.50000000       0.10000000       0.00000000 </v>
   <v>       0.40000000       0.20000000       0.00000000 </v>
   <v>       0.50000000       0.20000000       0.00000000 </v>
   <v>      -0.40000000       0.20000000       0.00000000 </v>
   <v>      -0.40000000       0.30000000       0.00000000 </v>
  </varray>
  <varray name="weights" >
   <v>       0.01000000 </v>
   <v>       0.06000000 </v>
   <v>       0.06000000 </v>
   <v>       0.06000000 </v>
   <v>       0.06000000 </v>
   <v>       0.03000000 </v>
   <v>       0.06000000 </v>
   <v>       0.12000000 </v>
   <v>       0.12000000 </v>
   <v>       0.12000000 </v>
   <v>       0.06000000 </v>
   <v>       0.12000000 </v>
   <v>       0.06000000 </v>
   <v>       0.06000000 </v>
  </varray>
 </kpoints>
 <parameters>
  <separator name="general" >
   <i type="string" name="SYSTEM">unknown system</i>
   <i type="logical" name="LCOMPAT"> F  </i>
  </separator>
  <separator name="electronic" >
   <i type="string" name="PREC">normal</i>
   <i name="ENMAX">    250.00000000</i>
   <i name="ENAUG">    516.45600000</i>
   <i name="EDIFF">      0.00000100</i>
   <i type="int" name="IALGO">    68</i>
   <i type="int" name="IWAVPR">    10</i>
   <i type="int" name="NBANDS">    28</i>
   <i name="NELECT">     45.00000000</i>
   <i type="int" name="TURBO">     0</i>
   <i type="int" name="IRESTART">     0</i>
   <i type="int" name="NREBOOT">     0</i>
   <i type="int" name="NMIN">     0</i>
   <i name="EREF">      0.00000000</i>
   <separator name="electronic smearing" >
    <i type="int" name="ISMEAR">     0</i>
    <i name="SIGMA">      0.10000000</i>
    <i name="KSPACING">      0.50000000</i>
    <i type="logical" name="KGAMMA"> T  </i>
   </separator>
   <separator name="electronic projectors" >
    <i type="logical" name="LREAL"> T  </i>
    <v name="ROPT">     -0.00050000     -0.00050000</v>
    <i type="int" name="LMAXPAW">  -100</i>
    <i type="int" name="LMAXMIX">     2</i>
    <i type="logical" name="NLSPLINE"> F  </i>
   </separator>
   <separator name="electronic startup" >
    <i type="int" name="ISTART">     0</i>
    <i type="int" name="ICHARG">     2</i>
    <i type="int" name="INIWAV">     1</i>
   </separator>
   <separator name="electronic spin" >
    <i type="int" name="ISPIN">     1</i>
    <i type="logical" name="LNONCOLLINEAR"> F  </i>
    <v name="MAGMOM">      1.00000000      1.00000000      1.00000000      1.00000000      1.00000000</v>
    <i name="NUPDOWN">     -1.00000000</i>
    <i type="logical" name="LSORBIT"> F  </i>
    <v name="SAXIS">      0.00000000      0.00000000      1.00000000</v>
    <i type="logical" name="LSPIRAL"> F  </i>
    <v name="QSPIRAL">      0.00000000      0.00000000      0.00000000</v>
    <i type="logical" name="LZEROZ"> F  </i>
   </separator>
   <separator name="electronic exchange-correlation" >
    <i type="logical" name="LASPH"> F  </i>
    <i type="logical" name="LMETAGGA"> F  </i>
   </separator>
   <separator name="electronic convergence" >
    <i type="int" name="NELM">    60</i>
    <i type="int" name="NELMDL">     0</i>
    <i type="int" name="NELMIN">     4</i>
    <i name="ENINI">    250.00000000</i>
    <separator name="electronic convergence detail" >
     <i type="logical" name="LDIAG"> T  </i>
     <i type="logical" name="LSUBROT"> F  </i>
     <i name="WEIMIN">      0.00000000</i>
     <i name="EBREAK">      0.00000001</i>
     <i name="DEPER">      0.30000000</i>
     <i type="int" name="NRMM">     4</i>
     <i name="TIME">      0.40000000</i>
    </separator>
   </separator>
   <separator name="electronic mixer" >
    <i name="AMIX">      0.40000000</i>
    <i name="BMIX">      1.00000000</i>
    <i name="AMIN">      0.10000000</i>
    <i name="AMIX_MAG">      1.60000000</i>
    <i name="BMIX_MAG">      1.00000000</i>
    <separator name="electronic mixer details" >
     <i type="int" name="IMIX">     4</i>
     <i type="logical" name="MIXFIRST"> F  </i>
     <i type="int" name="MAXMIX">   -45</i>
     <i name="WC">    100.00000000</i>
     <i type="int" name="INIMIX">     1</i>
     <i type="int" name="MIXPRE">     1</i>
     <i type="int" name="MREMOVE">     5</i>
    </separator>
   </separator>
   <separator name="electronic dipolcorrection" >
    <i type="logical" name="LDIPOL"> F  </i>
    <i type="logical" name="LMONO"> F  </i>
    <i type="int" name="IDIPOL">     0</i>
    <i name="EPSILON">      1.00000000</i>
    <v name="DIPOL">   -100.00000000   -100.00000000   -100.00000000</v>
    <i name="EFIELD">      0.00000000</i>
   </separator>
  </separator>
  <separator name="grids" >
   <i type="int" name="NGX">    10</i>
   <i type="int" name="NGY">    10</i>
   <i type="int" name="NGZ">   120</i>
   <i type="int" name="NGXF">    20</i>
   <i type="int" name="NGYF">    20</i>
   <i type="int" name="NGZF">   240</i>
   <i type="logical" name="ADDGRID"> F  </i>
  </separator>
  <separator name="ionic" >
   <i type="int" name="NSW">     0</i>
   <i type="int" name="IBRION">    -1</i>
   <i type="int" name="MDALGO">     0</i>
   <i type="int" name="ISIF">     2</i>
   <i name="PSTRESS">      0.00000000</i>
   <i name="EDIFFG">      0.00001000</i>
   <i type="int" name="NFREE">     0</i>
   <i name="POTIM">      0.50000000</i>
   <i name="SMASS">     -3.00000000</i>
   <i name="SCALEE">      1.00000000</i>
  </separator>
  <separator name="ionic md" >
   <i name="TEBEG">      0.00010000</i>
   <i name="TEEND">      0.00010000</i>
   <i type="int" name="NBLOCK">     1</i>
   <i type="int" name="KBLOCK">     1</i>
   <i type="int" name="NPACO">   256</i>
   <i name="APACO">     16.00000000</i>
  </separator>
  <separator name="symmetry" >
   <i type="int" name="ISYM">     2</i>
   <i name="SYMPREC">      0.00001000</i>
  </separator>
  <separator name="dos" >
   <i type="int" name="LORBIT">    11</i>
   <v name="RWIGS">     -1.00000000     -1.00000000</v>
   <i type="int" name="NEDOS">  2401</i>
   <i name="EMIN">    -17.00000000</i>
   <i name="EMAX">      7.00000000</i>
   <i name="EFERMI">      0.00000000</i>
  </separator>
  <separator name="writing" >
   <i type="int" name="NWRITE">     2</i>
   <i type="logical" name="LWAVE"> F  </i>
   <i type="logical" name="LDOWNSAMPLE"> F  </i>
   <i type="logical" name="LCHARG"> T  </i>
   <i type="logical" name="LPARD"> F  </i>
   <i type="logical" name="LVTOT"> F  </i>
   <i type="logical" name="LVHAR"> F  </i>
   <i type="logical" name="LELF"> T  </i>
   <i type="logical" name="LOPTICS"> F  </i>
   <v name="STM">      0.00000000      0.00000000      0.00000000      0.00000000      0.00000000      0.00000000      0.00000000</v>
  </separator>
  <separator name="performance" >
   <i type="int" name="NPAR">     2</i>
   <i type="int" name="NSIM">     4</i>
   <i type="int" name="NBLK">    -1</i>
   <i type="logical" name="LPLANE"> T  </i>
   <i type="logical" name="LSCALAPACK"> T  </i>
   <i type="logical" name="LSCAAWARE"> F  </i>
   <i type="logical" name="LSCALU"> F  </i>
   <i type="logical" name="LASYNC"> F  </i>
   <i type="logical" name="LORBITALREAL"> F  </i>
  </separator>
  <separator name="miscellaneous" >
   <i type="int" name="IDIOT">     3</i>
   <i type="int" name="ISPECIAL">     0</i>
   <i type="logical" name="LMUSIC"> F  </i>
   <v name="POMASS">     63.54600000      1.00000000</v>
   <v name="DARWINR">      0.00000000      0.00000000</v>
   <v name="DARWINV">      1.00000000      1.00000000</v>
   <i type="logical" name="LCORR"> T  </i>
  </separator>
  <i type="logical" name="GGA_COMPAT"> T  </i>
  <i type="logical" name="LBERRY"> F  </i>
  <i type="int" name="ICORELEVEL">     0</i>
  <i type="logical" name="LDAU"> F  </i>
  <i type="int" name="I_CONSTRAINED_M">     0</i>
  <separator name="electronic exchange-correlation" >
   <i type="string" name="GGA">--</i>
   <i type="int" name="VOSKOWN">     0</i>
   <i type="logical" name="LHFCALC"> F  </i>
   <i type="string" name="PRECFOCK"></i>
   <i type="logical" name="LSYMGRAD"> F  </i>
   <i type="logical" name="LHFONE"> F  </i>
   <i type="logical" name="LRHFCALC"> F  </i>
   <i type="logical" name="LTHOMAS"> F  </i>
   <i type="logical" name="LMODELHF"> F  </i>
   <i name="ENCUT4O">     -1.00000000</i>
   <i type="int" name="EXXOEP">     0</i>
   <i type="int" name="FOURORBIT">     0</i>
   <i name="AEXX">      0.00000000</i>
   <i name="HFALPHA">      0.00000000</i>
   <i name="MCALPHA">      0.00000000</i>
   <i name="ALDAX">      1.00000000</i>
   <i name="AGGAX">      1.00000000</i>
   <i name="ALDAC">      1.00000000</i>
   <i name="AGGAC">      1.00000000</i>
   <i type="int" name="NKREDX">     1</i>
   <i type="int" name="NKREDY">     1</i>
   <i type="int" name="NKREDZ">     1</i>
   <i type="logical" name="SHIFTRED"> F  </i>
   <i type="logical" name="ODDONLY"> F  </i>
   <i type="logical" name="EVENONLY"> F  </i>
   <i type="int" name="LMAXFOCK">     0</i>
   <i type="int" name="NMAXFOCKAE">     0</i>
   <i type="logical" name="LFOCKAEDFT"> F  </i>
   <i name="HFSCREEN">      0.00000000</i>
   <i name="HFSCREENC">      0.00000000</i>
   <i type="int" name="NBANDSGWLOW">     0</i>
  </separator>
  <separator name="vdW DFT" >
   <i type="logical" name="LUSE_VDW"> F  </i>
   <i name="Zab_VDW">     -0.84910000</i>
   <i name="PARAM1">      0.12340000</i>
   <i name="PARAM2">      1.00000000</i>
   <i name="PARAM3">      0.00000000</i>
  </separator>
  <separator name="model GW" >
   <i type="int" name="MODEL_GW">     0</i>
   <i name="MODEL_EPS0">     20.86383483</i>
   <i name="MODEL_ALPHA">      1.00000000</i>
  </separator>
  <separator name="linear response parameters" >
   <i type="logical" name="LEPSILON"> F  </i>
   <i type="logical" name="LRPA"> F  </i>
   <i type="logical" name="LNABLA"> F  </i>
   <i type="logical" name="LVEL"> F  </i>
   <i type="int" name="KINTER">     0</i>
   <i name="CSHIFT">      0.10000000</i>
   <i name="OMEGAMAX">     -1.00000000</i>
   <i name="DEG_THRESHOLD">      0.00200000</i>
   <i name="RTIME">     -0.10000000</i>
   <i name="WPLASMAI">      0.00000000</i>
   <v name="DFIELD">      0.00000000      0.00000000      0.00000000</v>
   <v name="WPLASMA">      0.00000000      0.00000000      0.00000000      0.00000000      0.00000000      0.00000000      0.00000000      0.00000000      0.00000000</v>
  </separator>
  <separator name="orbital magnetization" >
   <i type="logical" name="NUCIND"> F  </i>
   <v name="MAGPOS">      0.00000000      0.00000000      0.00000000</v>
   <i type="logical" name="LNICSALL"> T  </i>
   <i type="logical" name="ORBITALMAG"> F  </i>
   <i type="logical" name="LMAGBLOCH"> F  </i>
   <i type="logical" name="LCHIMAG"> F  </i>
   <i type="logical" name="LGAUGE"> T  </i>
   <i type="int" name="MAGATOM">     0</i>
   <v name="MAGDIPOL">      0.00000000      0.00000000      0.00000000</v>
   <v name="AVECCONST">      0.00000000      0.00000000      0.00000000</v>
  </separator>
  <separator name="response functions" >
   <i type="logical" name="LADDER"> F  </i>
   <i type="logical" name="LRPAFORCE"> F  </i>
   <i type="logical" name="LFXC"> F  </i>
   <i type="logical" name="LHARTREE"> T  </i>
   <i type="int" name="IBSE">     0</i>
   <v type="int" name="KPOINT">    -1     0     0     0</v>
   <i type="logical" name="LTCTE"> F  </i>
   <i type="logical" name="LTETE"> F  </i>
   <i type="logical" name="LTRIPLET"> F  </i>
   <i type="logical" name="LFXCEPS"> F  </i>
   <i type="logical" name="LFXHEG"> F  </i>
   <i type="int" name="NATURALO">     2</i>
   <i type="logical" name="L2ORDER"> F  </i>
   <i type="logical" name="LMP2LT"> F  </i>
   <i type="logical" name="LUSEW"> F  </i>
   <i name="ENCUTGW">     -2.00000000</i>
   <i name="ENCUTGWSOFT">     -2.00000000</i>
   <i name="ENCUTLF">     -1.00000000</i>
   <i type="int" name="LMAXMP2">    -1</i>
   <i name="SCISSOR">      0.00000000</i>
   <i type="int" name="NOMEGA">     0</i>
   <i type="int" name="NOMEGAR">     0</i>
   <i type="int" name="NBANDSGW">    -1</i>
   <i type="int" name="NBANDSO">    -1</i>
   <i type="int" name="NBANDSV">    -1</i>
   <i type="int" name="NELM">     1</i>
   <i type="int" name="NELMHF">     1</i>
   <i type="int" name="DIM">     3</i>
   <i type="int" name="ANTIRES">     0</i>
   <i name="OMEGAMAX">    -30.00000000</i>
   <i name="OMEGAMIN">    -30.00000000</i>
   <i name="OMEGATL">   -200.00000000</i>
   <i type="int" name="OMEGAGRID">   140</i>
   <i name="CSHIFT">     -0.10000000</i>
   <i type="logical" name="SELFENERGY"> F  </i>
   <i type="logical" name="LSPECTRAL"> F  </i>
   <i type="logical" name="LSPECTRALGW"> F  </i>
   <i type="logical" name="LSINGLES"> F  </i>
   <i type="logical" name="LFERMIGW"> F  </i>
   <i type="logical" name="ODDONLYGW"> F  </i>
   <i type="logical" name="EVENONLYGW"> F  </i>
   <i type="int" name="NKREDLFX">     1</i>
   <i type="int" name="NKREDLFY">     1</i>
   <i type="int" name="NKREDLFZ">     1</i>
   <i type="int" name="MAXMEM">  2800</i>
   <i type="int" name="TELESCOPE">     0</i>
   <i type="int" name="TAUPAR">     1</i>
   <i type="int" name="OMEGAPAR">    -1</i>
   <i name="LAMBDA">      1.00000000</i>
  </separator>
  <separator name="External order field" >
   <i name="OFIELD_KAPPA">      0.00000000</i>
   <v name="OFIELD_K">      0.00000000      0.00000000      0.00000000</v>
   <i name="OFIELD_Q6_NEAR">      0.00000000</i>
   <i name="OFIELD_Q6_FAR">      0.00000000</i>
   <i name="OFIELD_A">      0.00000000</i>
  </separator>
 </parameters>
 <atominfo>
  <atoms>       5 </atoms>
  <types>       2 </types>
  <array name="atoms" >
   <dimension dim="1">ion</dimension>
   <field type="string">element</field>
   <field type="int">atomtype</field>
   <set>
    <rc><c>Cu</c><c>   1</c></rc>
    <rc><c>Cu</c><c>   1</c></rc>
    <rc><c>Cu</c><c>   1</c></rc>
    <rc><c>Cu</c><c>   1</c></rc>
    <rc><c>H </c><c>   2</c></rc>
   </set>
  </array>
  <array name="atomtypes" >
   <dimension dim="1">type</dimension>
   <field type="int">atomspertype</field>
   <field type="string">element</field>
   <field>mass</field>
   <field>valence</field>
   <field type="string">pseudopotential</field>
   <set>
    <rc><c>   4</c><c>Cu</c><c>     63.54600000</c><c>     11.00000000</c><c> PAW_PBE Cu 05Jan2001                   </c></rc>
    <rc><c>   1</c><c>H </c><c>      1.00000000</c><c>      1.00000000</c><c> PAW_PBE H 15Jun2001                    </c></rc>
   </set>
  </array>
 </atominfo>
 <structure name="initialpos" >
  <crystal>
   <varray name="basis" >
    <v>       2.57386868       0.00000000       0.00000000 </v>
    <v>       1.28693434       2.22903567       0.00000000 </v>
    <v>       0.00000000       0.00000000      30.30466494 </v>
   </varray>
   <i name="volume">    173.86529028 </i>
   <varray name="rec_basis" >
    <v>       0.38852021      -0.22431225       0.00000000 </v>
    <v>       0.00000000       0.44862450       0.00000000 </v>
    <v>       0.00000000       0.00000000       0.03299822 </v>
   </varray>
  </crystal>
  <varray name="positions" >
   <v>       0.00000000       0.00000000       0.39644028 </v>
   <v>       0.33333207       0.33333249       0.46515182 </v>
   <v>       0.66666803       0.66666497       0.53391615 </v>
   <v>       0.00000000       0.00000000       0.60674388 </v>
   <v>       0.33333207       0.33333249       0.63806711 </v>
  </varray>
 </structure>
 <calculation>
  <scstep>
   <time name="dav">    0.28    0.28</time>
   <time name="total">    0.30    0.31</time>
   <energy>
    <i name="alphaZ">    120.87645803 </i>
    <i name="ewald">  37741.72404508 </i>
    <i name="hartreedc"> -42863.96149086 </i>
    <i name="XCdc">    177.35379479 </i>
    <i name="pawpsdc">   4328.99049516 </i>
    <i name="pawaedc">  -4905.09836044 </i>
    <i name="eentropy">     -0.01048316 </i>
    <i name="bandstr">     23.16831157 </i>
    <i name="atom">   5575.94961827 </i>
    <i name="e_fr_energy">    198.99238844 </i>
    <i name="e_wo_entrp">    199.00287161 </i>
    <i name="e_0_energy">    198.99763002 </i>
   </energy>
  </scstep>
  <scstep>
   <time name="dav">    0.27    0.27</time>
   <time name="total">    0.28    0.28</time>
   <energy>
    <i name="e_fr_energy">    -10.70746316 </i>
    <i name="e_wo_entrp">    -10.69940531 </i>
    <i name="e_0_energy">    -10.70343423 </i>
   </energy>
  </scstep>
  <scstep>
   <time name="dav">    0.28    0.29</time>
   <time name="total">    0.29    0.29</time>
   <energy>
    <i name="e_fr_energy">    -21.01437169 </i>
    <i name="e_wo_entrp">    -21.00403750 </i>
    <i name="e_0_energy">    -21.00920459 </i>
   </energy>
  </scstep>
  <scstep>
   <time name="dav">    0.28    0.29</time>
   <time name="total">    0.29    0.29</time>
   <energy>
    <i name="e_fr_energy">    -21.13800013 </i>
    <i name="e_wo_entrp">    -21.12788120 </i>
    <i name="e_0_energy">    -21.13294066 </i>
   </energy>
  </scstep>
  <scstep>
   <time name="dav">    0.29    0.29</time>
   <time name="total">    0.31    0.31</time>
   <energy>
    <i name="e_fr_energy">    -21.13938407 </i>
    <i name="e_wo_entrp">    -21.12926364 </i>
    <i name="e_0_energy">    -21.13432385 </i>
   </energy>
  </scstep>
  <scstep>
   <time name="diag">    0.05    0.06</time>
   <time name="diis">    0.16    0.16</time>
   <time name="orth">    0.01    0.01</time>
   <time name="total">    0.25    0.26</time>
   <energy>
    <i name="e_fr_energy">    -19.14812072 </i>
    <i name="e_wo_entrp">    -19.13692297 </i>
    <i name="e_0_energy">    -19.14252185 </i>
   </energy>
  </scstep>
  <scstep>
   <time name="diag">    0.05    0.06</time>
   <time name="diis">    0.16    0.16</time>
   <time name="orth">    0.01    0.01</time>
   <time name="total">    0.26    0.26</time>
   <energy>
    <i name="e_fr_energy">    -17.52950849 </i>
    <i name="e_wo_entrp">    -17.51516211 </i>
    <i name="e_0_energy">    -17.52233530 </i>
   </energy>
  </scstep>
  <scstep>
   <time name="diag">    0.05    0.06</time>
   <time name="diis">    0.16    0.16</time>
   <time name="orth">    0.01    0.01</time>
   <time name="total">    0.26    0.26</time>
   <energy>
    <i name="e_fr_energy">    -17.30805707 </i>
    <i name="e_wo_entrp">    -17.29200838 </i>
    <i name="e_0_energy">    -17.30003273 </i>
   </energy>
  </scstep>
  <scstep>
   <time name="diag">    0.06    0.06</time>
   <time name="diis">    0.16    0.16</time>
   <time name="orth">    0.01    0.01</time>
   <time name="total">    0.25    0.25</time>
   <energy>
    <i name="e_fr_energy">    -17.24600142 </i>
    <i name="e_wo_entrp">    -17.22972022 </i>
    <i name="e_0_energy">    -17.23786082 </i>
   </energy>
  </scstep>
  <scstep>
   <time name="diag">    0.05    0.06</time>
   <time name="diis">    0.16    0.16</time>
   <time name="orth">    0.01    0.01</time>
   <time name="total">    0.26    0.26</time>
   <energy>
    <i name="e_fr_energy">    -17.23172229 </i>
    <i name="e_wo_entrp">    -17.21333996 </i>
    <i name="e_0_energy">    -17.22253112 </i>
   </energy>
  </scstep>
  <scstep>
   <time name="diag">    0.05    0.06</time>
   <time name="diis">    0.16    0.16</time>
   <time name="orth">    0.01    0.01</time>
   <time name="total">    0.26    0.26</time>
   <energy>
    <i name="e_fr_energy">    -17.22746716 </i>
    <i name="e_wo_entrp">    -17.20855037 </i>
    <i name="e_0_energy">    -17.21800877 </i>
   </energy>
  </scstep>
  <scstep>
   <time name="diag">    0.05    0.06</time>
   <time name="diis">    0.16    0.16</time>
   <time name="orth">    0.01    0.01</time>
   <time name="total">    0.26    0.26</time>
   <energy>
    <i name="e_fr_energy">    -17.22582827 </i>
    <i name="e_wo_entrp">    -17.20797453 </i>
    <i name="e_0_energy">    -17.21690140 </i>
   </energy>
  </scstep>
  <scstep>
   <time name="diag">    0.05    0.06</time>
   <time name="diis">    0.15    0.15</time>
   <time name="orth">    0.01    0.01</time>
   <time name="total">    0.25    0.25</time>
   <energy>
    <i name="e_fr_energy">    -17.22509161 </i>
    <i name="e_wo_entrp">    -17.20660748 </i>
    <i name="e_0_energy">    -17.21584954 </i>
   </energy>
  </scstep>
  <scstep>
   <time name="diag">    0.05    0.06</time>
   <time name="diis">    0.15    0.15</time>
   <time name="orth">    0.01    0.01</time>
   <time name="total">    0.25    0.25</time>
   <energy>
    <i name="e_fr_energy">    -17.22510834 </i>
    <i name="e_wo_entrp">    -17.20630755 </i>
    <i name="e_0_energy">    -17.21570794 </i>
   </energy>
  </scstep>
  <scstep>
   <time name="diag">    0.05    0.06</time>
   <time name="diis">    0.15    0.16</time>
   <time name="orth">    0.01    0.01</time>
   <time name="total">    0.25    0.25</time>
   <energy>
    <i name="e_fr_energy">    -17.22527619 </i>
    <i name="e_wo_entrp">    -17.20662006 </i>
    <i name="e_0_energy">    -17.21594812 </i>
   </energy>
  </scstep>
  <scstep>
   <time name="diag">    0.05    0.06</time>
   <time name="diis">    0.15    0.15</time>
   <time name="orth">    0.01    0.01</time>
   <time name="total">    0.25    0.25</time>
   <energy>
    <i name="e_fr_energy">    -17.22536790 </i>
    <i name="e_wo_entrp">    -17.20666141 </i>
    <i name="e_0_energy">    -17.21601466 </i>
   </energy>
  </scstep>
  <scstep>
   <time name="diag">    0.05    0.06</time>
   <time name="diis">    0.15    0.15</time>
   <time name="orth">    0.01    0.01</time>
   <time name="total">    0.24    0.25</time>
   <energy>
    <i name="e_fr_energy">    -17.22567594 </i>
    <i name="e_wo_entrp">    -17.20686237 </i>
    <i name="e_0_energy">    -17.21626915 </i>
   </energy>
  </scstep>
  <scstep>
   <time name="diag">    0.05    0.06</time>
   <time name="diis">    0.13    0.13</time>
   <time name="orth">    0.01    0.01</time>
   <time name="total">    0.23    0.23</time>
   <energy>
    <i name="e_fr_energy">    -17.22574745 </i>
    <i name="e_wo_entrp">    -17.20695147 </i>
    <i name="e_0_energy">    -17.21634946 </i>
   </energy>
  </scstep>
  <scstep>
   <time name="diag">    0.05    0.06</time>
   <time name="diis">    0.11    0.11</time>
   <time name="orth">    0.01    0.01</time>
   <time name="total">    0.21    0.21</time>
   <energy>
    <i name="e_fr_energy">    -17.22579136 </i>
    <i name="e_wo_entrp">    -17.20699361 </i>
    <i name="e_0_energy">    -17.21639248 </i>
   </energy>
  </scstep>
  <scstep>
   <time name="diag">    0.05    0.06</time>
   <time name="diis">    0.11    0.11</time>
   <time name="orth">    0.01    0.01</time>
   <time name="total">    0.20    0.20</time>
   <energy>
    <i name="e_fr_energy">    -17.22581092 </i>
    <i name="e_wo_entrp">    -17.20699933 </i>
    <i name="e_0_energy">    -17.21640512 </i>
   </energy>
  </scstep>
  <scstep>
   <time name="diag">    0.05    0.06</time>
   <time name="diis">    0.10    0.10</time>
   <time name="orth">    0.01    0.01</time>
   <time name="total">    0.20    0.20</time>
   <energy>
    <i name="e_fr_energy">    -17.22582722 </i>
    <i name="e_wo_entrp">    -17.20701694 </i>
    <i name="e_0_energy">    -17.21642208 </i>
   </energy>
  </scstep>
  <scstep>
   <time name="diag">    0.05    0.06</time>
   <time name="diis">    0.10    0.10</time>
   <time name="orth">    0.01    0.01</time>
   <time name="total">    0.20    0.20</time>
   <energy>
    <i name="e_fr_energy">    -17.22583249 </i>
    <i name="e_wo_entrp">    -17.20701913 </i>
    <i name="e_0_energy">    -17.21642581 </i>
   </energy>
  </scstep>
  <scstep>
   <time name="diag">    0.05    0.06</time>
   <time name="diis">    0.10    0.10</time>
   <time name="orth">    0.01    0.01</time>
   <time name="total">    0.20    0.20</time>
   <energy>
    <i name="e_fr_energy">    -17.22583401 </i>
    <i name="e_wo_entrp">    -17.20702427 </i>
    <i name="e_0_energy">    -17.21642914 </i>
   </energy>
  </scstep>
  <scstep>
   <time name="diag">    0.05    0.06</time>
   <time name="diis">    0.08    0.08</time>
   <time name="orth">    0.01    0.01</time>
   <time name="total">    0.16    0.16</time>
   <energy>
    <i name="alphaZ">    120.87645803 </i>
    <i name="ewald">  37741.72404508 </i>
    <i name="hartreedc"> -42813.97518491 </i>
    <i name="XCdc">    173.33914728 </i>
    <i name="pawpsdc">   4388.65584392 </i>
    <i name="pawaedc">  -4964.34540359 </i>
    <i name="eentropy">     -0.01881157 </i>
    <i name="bandstr">   -239.43154671 </i>
    <i name="atom">   5575.94961827 </i>
    <i name="e_fr_energy">    -17.22583419 </i>
    <i name="e_wo_entrp">    -17.20702262 </i>
    <i name="e_0_energy">    -17.21642841 </i>
   </energy>
  </scstep>
  <structure>
   <crystal>
    <varray name="basis" >
     <v>       2.57386868       0.00000000       0.00000000 </v>
     <v>       1.28693434       2.22903567       0.00000000 </v>
     <v>       0.00000000       0.00000000      30.30466494 </v>
    </varray>
    <i name="volume">    173.86529028 </i>
    <varray name="rec_basis" >
     <v>       0.38852021      -0.22431225       0.00000000 </v>
     <v>       0.00000000       0.44862450       0.00000000 </v>
     <v>       0.00000000       0.00000000       0.03299822 </v>
    </varray>
   </crystal>
   <varray name="positions" >
    <v>       0.00000000       0.00000000       0.39644028 </v>
    <v>       0.33333207       0.33333249       0.46515182 </v>
    <v>       0.66666803       0.66666497       0.53391615 </v>
    <v>       0.00000000       0.00000000       0.60674388 </v>
    <v>       0.33333207       0.33333249       0.63806711 </v>
   </varray>
  </structure>
  <varray name="forces" >
   <v>      -0.00000000       0.00000000       0.06967415 </v>
   <v>       0.00000000      -0.00000000      -0.00963989 </v>
   <v>      -0.00000000      -0.00000000       0.07133590 </v>
   <v>      -0.00000000      -0.00000000       0.35624401 </v>
   <v>       0.00000000       0.00000000      -0.48761416 </v>
  </varray>
  <varray name="stress" >
   <v>     -48.63942541       0.00000000       0.00000000 </v>
   <v>       0.00000000     -48.63942541       0.00000000 </v>
   <v>       0.00000000      -0.00000000     -53.69441345 </v>
  </varray>
  <energy>
   <i name="e_fr_energy">    -17.22583419 </i>
   <i name="e_wo_entrp">    -17.21642841 </i>
   <i name="e_0_energy">     -0.01881157 </i>
  </energy>
  <time name="totalsc">    6.39    6.43</time>
  <eigenvalues>
   <array>
    <dimension dim="1">band</dimension>
    <dimension dim="2">kpoint</dimension>
    <dimension dim="3">spin</dimension>
    <field>eigene</field>
    <field>occ</field>
    <set>
     <set comment="spin 1">
      <set comment="kpoint 1">
       <r>  -11.5649    1.0000 </r>
       <r>  -10.6324    1.0000 </r>
       <r>   -8.9579    1.0000 </r>
       <r>   -7.4826    1.0000 </r>
       <r>   -5.9333    1.0000 </r>
       <r>   -5.5595    1.0000 </r>
       <r>   -5.5166    1.0000 </r>
       <r>   -5.5163    1.0000 </r>
       <r>   -5.2662    1.0000 </r>
       <r>   -5.2166    1.0000 </r>
       <r>   -5.2163    1.0000 </r>
       <r>   -5.1858    1.0000 </r>
       <r>   -5.1855    1.0000 </r>
       <r>   -4.9433    1.0000 </r>
       <r>   -4.9430    1.0000 </r>
       <r>   -4.8517    1.0000 </r>
       <r>   -4.6939    1.0000 </r>
       <r>   -4.6939    1.0000 </r>
       <r>   -4.4465    1.0000 </r>
       <r>   -4.4464    1.0000 </r>
       <r>   -4.2273    1.0000 </r>
       <r>   -4.2273    1.0000 </r>
       <r>   -3.9459    1.0000 </r>
       <r>   -3.9458    1.0000 </r>
       <r>   -2.8792    1.0000 </r>
       <r>    1.5649    0.0000 </r>
       <r>    1.8990    0.0000 </r>
       <r>    2.3048    0.0000 </r>
      </set>
      <set comment="kpoint 2">
       <r>  -11.2642    1.0000 </r>
       <r>  -10.3337    1.0000 </r>
       <r>   -8.6896    1.0000 </r>
       <r>   -7.2602    1.0000 </r>
       <r>   -5.9867    1.0000 </r>
       <r>   -5.6796    1.0000 </r>
       <r>   -5.5430    1.0000 </r>
       <r>   -5.4106    1.0000 </r>
       <r>   -5.3372    1.0000 </r>
       <r>   -5.2937    1.0000 </r>
       <r>   -5.2603    1.0000 </r>
       <r>   -5.1135    1.0000 </r>
       <r>   -5.1073    1.0000 </r>
       <r>   -5.0610    1.0000 </r>
       <r>   -4.9645    1.0000 </r>
       <r>   -4.8577    1.0000 </r>
       <r>   -4.7124    1.0000 </r>
       <r>   -4.6342    1.0000 </r>
       <r>   -4.4605    1.0000 </r>
       <r>   -4.4233    1.0000 </r>
       <r>   -4.2547    1.0000 </r>
       <r>   -4.2233    1.0000 </r>
       <r>   -3.9408    1.0000 </r>
       <r>   -3.7383    1.0000 </r>
       <r>   -2.1977    0.0927 </r>
       <r>    1.8089    0.0000 </r>
       <r>    2.2016    0.0000 </r>
       <r>    2.6074    0.0000 </r>
      </set>
      <set comment="kpoint 3">
       <r>  -10.4078    1.0000 </r>
       <r>   -9.4864    1.0000 </r>
       <r>   -7.9861    1.0000 </r>
       <r>   -6.7312    1.0000 </r>
       <r>   -6.1932    1.0000 </r>
       <r>   -5.8369    1.0000 </r>
       <r>   -5.6795    1.0000 </r>
       <r>   -5.6246    1.0000 </r>
       <r>   -5.4445    1.0000 </r>
       <r>   -5.2391    1.0000 </r>
       <r>   -5.1607    1.0000 </r>
       <r>   -5.1459    1.0000 </r>
       <r>   -4.9800    1.0000 </r>
       <r>   -4.9650    1.0000 </r>
       <r>   -4.8510    1.0000 </r>
       <r>   -4.7929    1.0000 </r>
       <r>   -4.7475    1.0000 </r>
       <r>   -4.5669    1.0000 </r>
       <r>   -4.5214    1.0000 </r>
       <r>   -4.4077    1.0000 </r>
       <r>   -4.2240    1.0000 </r>
       <r>   -4.0447    1.0000 </r>
       <r>   -3.9342    1.0000 </r>
       <r>   -2.8754    1.0000 </r>
       <r>   -0.8865    0.0000 </r>
       <r>    2.5361    0.0000 </r>
       <r>    3.1083    0.0000 </r>
       <r>    3.5175    0.0000 </r>
      </set>
      <set comment="kpoint 4">
       <r>   -9.2013    1.0000 </r>
       <r>   -8.3019    1.0000 </r>
       <r>   -7.2688    1.0000 </r>
       <r>   -6.4988    1.0000 </r>
       <r>   -6.2965    1.0000 </r>
       <r>   -6.0826    1.0000 </r>
       <r>   -5.7915    1.0000 </r>
       <r>   -5.5918    1.0000 </r>
       <r>   -5.4944    1.0000 </r>
       <r>   -5.2400    1.0000 </r>
       <r>   -5.0862    1.0000 </r>
       <r>   -5.0102    1.0000 </r>
       <r>   -4.8580    1.0000 </r>
       <r>   -4.7913    1.0000 </r>
       <r>   -4.7018    1.0000 </r>
       <r>   -4.6138    1.0000 </r>
       <r>   -4.4920    1.0000 </r>
       <r>   -4.3306    1.0000 </r>
       <r>   -4.2868    1.0000 </r>
       <r>   -4.2130    1.0000 </r>
       <r>   -4.0937    1.0000 </r>
       <r>   -3.9193    1.0000 </r>
       <r>   -3.5806    1.0000 </r>
       <r>   -1.7103    0.0000 </r>
       <r>    0.7473    0.0000 </r>
       <r>    3.7063    0.0000 </r>
       <r>    4.5733    0.0000 </r>
       <r>    4.9300    0.0000 </r>
      </set>
      <set comment="kpoint 5">
       <r>   -8.2914    1.0000 </r>
       <r>   -7.2886    1.0000 </r>
       <r>   -6.9557    1.0000 </r>
       <r>   -6.5613    1.0000 </r>
       <r>   -6.4251    1.0000 </r>
       <r>   -6.2267    1.0000 </r>
       <r>   -5.8670    1.0000 </r>
       <r>   -5.4273    1.0000 </r>
       <r>   -5.2521    1.0000 </r>
       <r>   -5.2179    1.0000 </r>
       <r>   -5.1666    1.0000 </r>
       <r>   -4.9050    1.0000 </r>
       <r>   -4.7076    1.0000 </r>
       <r>   -4.4371    1.0000 </r>
       <r>   -4.3540    1.0000 </r>
       <r>   -4.3372    1.0000 </r>
       <r>   -4.0615    1.0000 </r>
       <r>   -4.0487    1.0000 </r>
       <r>   -3.9972    1.0000 </r>
       <r>   -3.9211    1.0000 </r>
       <r>   -3.7768    1.0000 </r>
       <r>   -3.5309    1.0000 </r>
       <r>   -2.5248    0.9995 </r>
       <r>   -0.3303    0.0000 </r>
       <r>    1.6077    0.0000 </r>
       <r>    2.8586    0.0000 </r>
       <r>    3.6470    0.0000 </r>
       <r>    4.6689    0.0000 </r>
      </set>
      <set comment="kpoint 6">
       <r>   -8.0715    1.0000 </r>
       <r>   -6.9702    1.0000 </r>
       <r>   -6.9125    1.0000 </r>
       <r>   -6.5317    1.0000 </r>
       <r>   -6.4967    1.0000 </r>
       <r>   -6.2916    1.0000 </r>
       <r>   -5.8592    1.0000 </r>
       <r>   -5.3623    1.0000 </r>
       <r>   -5.2002    1.0000 </r>
       <r>   -5.1724    1.0000 </r>
       <r>   -5.1137    1.0000 </r>
       <r>   -4.9253    1.0000 </r>
       <r>   -4.4162    1.0000 </r>
       <r>   -4.4038    1.0000 </r>
       <r>   -4.2443    1.0000 </r>
       <r>   -4.2161    1.0000 </r>
       <r>   -4.0026    1.0000 </r>
       <r>   -3.9015    1.0000 </r>
       <r>   -3.8433    1.0000 </r>
       <r>   -3.6613    1.0000 </r>
       <r>   -3.5489    1.0000 </r>
       <r>   -2.2111    0.1283 </r>
       <r>   -1.3065    0.0000 </r>
       <r>   -0.7668    0.0000 </r>
       <r>    0.4136    0.0000 </r>
       <r>    2.1620    0.0000 </r>
       <r>    3.3163    0.0000 </r>
       <r>    4.1037    0.0000 </r>
      </set>
      <set comment="kpoint 7">
       <r>  -10.6838    1.0000 </r>
       <r>   -9.7585    1.0000 </r>
       <r>   -8.1980    1.0000 </r>
       <r>   -6.8717    1.0000 </r>
       <r>   -6.1224    1.0000 </r>
       <r>   -5.7622    1.0000 </r>
       <r>   -5.6742    1.0000 </r>
       <r>   -5.5667    1.0000 </r>
       <r>   -5.4136    1.0000 </r>
       <r>   -5.2972    1.0000 </r>
       <r>   -5.2055    1.0000 </r>
       <r>   -5.1203    1.0000 </r>
       <r>   -5.0596    1.0000 </r>
       <r>   -4.9974    1.0000 </r>
       <r>   -4.9041    1.0000 </r>
       <r>   -4.8077    1.0000 </r>
       <r>   -4.6613    1.0000 </r>
       <r>   -4.5700    1.0000 </r>
       <r>   -4.5494    1.0000 </r>
       <r>   -4.4219    1.0000 </r>
       <r>   -4.3079    1.0000 </r>
       <r>   -4.0409    1.0000 </r>
       <r>   -3.9823    1.0000 </r>
       <r>   -3.1231    1.0000 </r>
       <r>   -1.2699    0.0000 </r>
       <r>    2.2956    0.0000 </r>
       <r>    2.8067    0.0000 </r>
       <r>    3.2124    0.0000 </r>
      </set>
      <set comment="kpoint 8">
       <r>   -9.6327    1.0000 </r>
       <r>   -8.7220    1.0000 </r>
       <r>   -7.4535    1.0000 </r>
       <r>   -6.4382    1.0000 </r>
       <r>   -6.2197    1.0000 </r>
       <r>   -5.9628    1.0000 </r>
       <r>   -5.7908    1.0000 </r>
       <r>   -5.7282    1.0000 </r>
       <r>   -5.5537    1.0000 </r>
       <r>   -5.2628    1.0000 </r>
       <r>   -5.2329    1.0000 </r>
       <r>   -5.1008    1.0000 </r>
       <r>   -5.0102    1.0000 </r>
       <r>   -4.8833    1.0000 </r>
       <r>   -4.7764    1.0000 </r>
       <r>   -4.7212    1.0000 </r>
       <r>   -4.5700    1.0000 </r>
       <r>   -4.4446    1.0000 </r>
       <r>   -4.3197    1.0000 </r>
       <r>   -4.2513    1.0000 </r>
       <r>   -4.1040    1.0000 </r>
       <r>   -3.9999    1.0000 </r>
       <r>   -3.6888    1.0000 </r>
       <r>   -2.1321    0.0122 </r>
       <r>    0.1569    0.0000 </r>
       <r>    3.2742    0.0000 </r>
       <r>    4.0099    0.0000 </r>
       <r>    4.4458    0.0000 </r>
      </set>
      <set comment="kpoint 9">
       <r>   -8.5156    1.0000 </r>
       <r>   -7.5719    1.0000 </r>
       <r>   -6.9529    1.0000 </r>
       <r>   -6.4778    1.0000 </r>
       <r>   -6.2734    1.0000 </r>
       <r>   -6.1019    1.0000 </r>
       <r>   -5.8507    1.0000 </r>
       <r>   -5.5905    1.0000 </r>
       <r>   -5.5128    1.0000 </r>
       <r>   -5.2495    1.0000 </r>
       <r>   -5.1829    1.0000 </r>
       <r>   -5.0449    1.0000 </r>
       <r>   -4.8821    1.0000 </r>
       <r>   -4.7042    1.0000 </r>
       <r>   -4.5924    1.0000 </r>
       <r>   -4.4588    1.0000 </r>
       <r>   -4.3449    1.0000 </r>
       <r>   -4.2137    1.0000 </r>
       <r>   -4.1276    1.0000 </r>
       <r>   -3.9364    1.0000 </r>
       <r>   -3.8967    1.0000 </r>
       <r>   -3.5889    1.0000 </r>
       <r>   -2.8181    1.0000 </r>
       <r>   -0.7436    0.0000 </r>
       <r>    1.8111    0.0000 </r>
       <r>    3.8648    0.0000 </r>
       <r>    4.7122    0.0000 </r>
       <r>    5.2033    0.0000 </r>
      </set>
      <set comment="kpoint 10">
       <r>   -8.0221    1.0000 </r>
       <r>   -6.9045    1.0000 </r>
       <r>   -6.8104    1.0000 </r>
       <r>   -6.4607    1.0000 </r>
       <r>   -6.3970    1.0000 </r>
       <r>   -6.1851    1.0000 </r>
       <r>   -5.8561    1.0000 </r>
       <r>   -5.4817    1.0000 </r>
       <r>   -5.3390    1.0000 </r>
       <r>   -5.2631    1.0000 </r>
       <r>   -5.1634    1.0000 </r>
       <r>   -4.9035    1.0000 </r>
       <r>   -4.7912    1.0000 </r>
       <r>   -4.4867    1.0000 </r>
       <r>   -4.3592    1.0000 </r>
       <r>   -4.2061    1.0000 </r>
       <r>   -4.0967    1.0000 </r>
       <r>   -4.0481    1.0000 </r>
       <r>   -3.9781    1.0000 </r>
       <r>   -3.8250    1.0000 </r>
       <r>   -3.3359    1.0000 </r>
       <r>   -2.3084    0.5955 </r>
       <r>   -1.3046    0.0000 </r>
       <r>    0.1530    0.0000 </r>
       <r>    0.8778    0.0000 </r>
       <r>    2.4901    0.0000 </r>
       <r>    3.5362    0.0000 </r>
       <r>    4.5882    0.0000 </r>
      </set>
      <set comment="kpoint 11">
       <r>   -8.6086    1.0000 </r>
       <r>   -7.6715    1.0000 </r>
       <r>   -6.9096    1.0000 </r>
       <r>   -6.3697    1.0000 </r>
       <r>   -6.0872    1.0000 </r>
       <r>   -5.9739    1.0000 </r>
       <r>   -5.9026    1.0000 </r>
       <r>   -5.7898    1.0000 </r>
       <r>   -5.5302    1.0000 </r>
       <r>   -5.3968    1.0000 </r>
       <r>   -5.2789    1.0000 </r>
       <r>   -5.2289    1.0000 </r>
       <r>   -4.9652    1.0000 </r>
       <r>   -4.8934    1.0000 </r>
       <r>   -4.7206    1.0000 </r>
       <r>   -4.5729    1.0000 </r>
       <r>   -4.3906    1.0000 </r>
       <r>   -4.2303    1.0000 </r>
       <r>   -4.1549    1.0000 </r>
       <r>   -3.9396    1.0000 </r>
       <r>   -3.8849    1.0000 </r>
       <r>   -3.5326    1.0000 </r>
       <r>   -2.8151    1.0000 </r>
       <r>   -0.8727    0.0000 </r>
       <r>    1.6703    0.0000 </r>
       <r>    4.4963    0.0000 </r>
       <r>    5.2726    0.0000 </r>
       <r>    5.6520    0.0000 </r>
      </set>
      <set comment="kpoint 12">
       <r>   -7.9306    1.0000 </r>
       <r>   -6.7769    1.0000 </r>
       <r>   -6.5818    1.0000 </r>
       <r>   -6.3517    1.0000 </r>
       <r>   -6.1608    1.0000 </r>
       <r>   -6.0295    1.0000 </r>
       <r>   -5.8372    1.0000 </r>
       <r>   -5.7436    1.0000 </r>
       <r>   -5.5147    1.0000 </r>
       <r>   -5.4187    1.0000 </r>
       <r>   -5.3576    1.0000 </r>
       <r>   -5.0229    1.0000 </r>
       <r>   -4.9340    1.0000 </r>
       <r>   -4.7945    1.0000 </r>
       <r>   -4.6076    1.0000 </r>
       <r>   -4.4974    1.0000 </r>
       <r>   -4.3380    1.0000 </r>
       <r>   -4.1547    1.0000 </r>
       <r>   -3.9916    1.0000 </r>
       <r>   -3.8450    1.0000 </r>
       <r>   -3.1466    1.0000 </r>
       <r>   -2.3182    0.6483 </r>
       <r>   -1.1965    0.0000 </r>
       <r>    0.7668    0.0000 </r>
       <r>    2.4348    0.0000 </r>
       <r>    3.5644    0.0000 </r>
       <r>    4.3878    0.0000 </r>
       <r>    5.0391    0.0000 </r>
      </set>
      <set comment="kpoint 13">
       <r>   -7.7725    1.0000 </r>
       <r>   -6.5427    1.0000 </r>
       <r>   -6.5225    1.0000 </r>
       <r>   -6.2410    1.0000 </r>
       <r>   -6.2224    1.0000 </r>
       <r>   -5.9919    1.0000 </r>
       <r>   -5.8455    1.0000 </r>
       <r>   -5.7713    1.0000 </r>
       <r>   -5.4839    1.0000 </r>
       <r>   -5.3932    1.0000 </r>
       <r>   -5.3021    1.0000 </r>
       <r>   -5.0516    1.0000 </r>
       <r>   -4.8725    1.0000 </r>
       <r>   -4.6620    1.0000 </r>
       <r>   -4.5236    1.0000 </r>
       <r>   -4.4336    1.0000 </r>
       <r>   -4.2338    1.0000 </r>
       <r>   -4.0808    1.0000 </r>
       <r>   -4.0154    1.0000 </r>
       <r>   -3.9124    1.0000 </r>
       <r>   -2.3214    0.6649 </r>
       <r>   -0.6272    0.0000 </r>
       <r>   -0.0413    0.0000 </r>
       <r>    0.7225    0.0000 </r>
       <r>    0.9235    0.0000 </r>
       <r>    2.7560    0.0000 </r>
       <r>    4.1008    0.0000 </r>
       <r>    4.4631    0.0000 </r>
      </set>
      <set comment="kpoint 14">
       <r>   -7.6550    1.0000 </r>
       <r>   -6.3163    1.0000 </r>
       <r>   -6.2665    1.0000 </r>
       <r>   -6.2025    1.0000 </r>
       <r>   -6.0715    1.0000 </r>
       <r>   -5.9565    1.0000 </r>
       <r>   -5.9225    1.0000 </r>
       <r>   -5.7879    1.0000 </r>
       <r>   -5.6222    1.0000 </r>
       <r>   -5.5512    1.0000 </r>
       <r>   -5.3880    1.0000 </r>
       <r>   -5.0066    1.0000 </r>
       <r>   -4.9571    1.0000 </r>
       <r>   -4.8137    1.0000 </r>
       <r>   -4.6214    1.0000 </r>
       <r>   -4.4698    1.0000 </r>
       <r>   -4.4035    1.0000 </r>
       <r>   -4.1137    1.0000 </r>
       <r>   -4.0303    1.0000 </r>
       <r>   -3.9369    1.0000 </r>
       <r>   -1.8869    0.0000 </r>
       <r>   -0.3190    0.0000 </r>
       <r>    0.8418    0.0000 </r>
       <r>    1.8283    0.0000 </r>
       <r>    2.4006    0.0000 </r>
       <r>    2.4380    0.0000 </r>
       <r>    3.3094    0.0000 </r>
       <r>    4.0952    0.0000 </r>
      </set>
     </set>
    </set>
   </array>
  </eigenvalues>
  <separator name="orbital magnetization" >
   <v name="MAGDIPOLOUT">      0.00000000      0.00000000      0.00000000</v>
  </separator>
  <dos>
   <i name="efermi">     -2.29132178 </i>
   <total>
    <array>
     <dimension dim="1">gridpoints</dimension>
     <dimension dim="2">spin</dimension>
     <field>energy</field>
     <field>total</field>
     <field>integrated</field>
     <set>
      <set comment="spin 1">
       <r>   -17.0000     0.0000     0.0000 </r>
       <r>   -16.9900     0.0000     0.0000 </r>
       <r>   -16.9800     0.0000     0.0000 </r>
       <r>   -16.9700     0.0000     0.0000 </r>
       <r>   -16.9600     0.0000     0.0000 </r>
       <r>   -16.9500     0.0000     0.0000 </r>
       <r>   -16.9400     0.0000     0.0000 </r>
       <r>   -16.9300     0.0000     0.0000 </r>
       <r>   -16.9200     0.0000     0.0000 </r>
       <r>   -16.9100     0.0000     0.0000 </r>
       <r>   -16.9000     0.0000     0.0000 </r>
       <r>   -16.8900     0.0000     0.0000 </r>
       <r>   -16.8800     0.0000     0.0000 </r>
       <r>   -16.8700     0.0000     0.0000 </r>
       <r>   -16.8600     0.0000     0.0000 </r>
       <r>   -16.8500     0.0000     0.0000 </r>
       <r>   -16.8400     0.0000     0.0000 </r>
       <r>   -16.8300     0.0000     0.0000 </r>
       <r>   -16.8200     0.0000     0.0000 </r>
       <r>   -16.8100     0.0000     0.0000 </r>
       <r>   -16.8000     0.0000     0.0000 </r>
       <r>   -16.7900     0.0000     0.0000 </r>
       <r>   -16.7800     0.0000     0.0000 </r>
       <r>   -16.7700     0.0000     0.0000 </r>
       <r>   -16.7600     0.0000     0.0000 </r>
       <r>   -16.7500     0.0000     0.0000 </r>
       <r>   -16.7400     0.0000     0.0000 </r>
       <r>   -16.7300     0.0000     0.0000 </r>
       <r>   -16.7200     0.0000     0.0000 </r>
       <r>   -16.7100     0.0000     0.0000 </r>
       <r>   -16.7000     0.0000     0.0000 </r>
       <r>   -16.6900     0.0000     0.0000 </r>
       <r>   -16.6800     0.0000     0.0000 </r>
       <r>   -16.6700     0.0000     0.0000 </r>
       <r>   -16.6600     0.0000     0.0000 </r>
       <r>   -16.6500     0.0000     0.0000 </r>
       <r>   -16.6400     0.0000     0.0000 </r>
       <r>   -16.6300     0.0000     0.0000 </r>
       <r>   -16.6200     0.0000     0.0000 </r>
       <r>   -16.6100     0.0000     0.0000 </r>
       <r>   -16.6000     0.0000     0.0000 </r>
       <r>   -16.5900     0.0000     0.0000 </r>
       <r>   -16.5800     0.0000     0.0000 </r>
       <r>   -16.5700     0.0000     0.0000 </r>
       <r>   -16.5600     0.0000     0.0000 </r>
       <r>   -16.5500     0.0000     0.0000 </r>
       <r>   -16.5400     0.0000     0.0000 </r>
       <r>   -16.5300     0.0000     0.0000 </r>
       <r>   -16.5200     0.0000     0.0000 </r>
       <r>   -16.5100     0.0000     0.0000 </r>
       <r>   -16.5000     0.0000     0.0000 </r>
       <r>   -16.4900     0.0000     0.0000 </r>
       <r>   -16.4800     0.0000     0.0000 </r>
       <r>   -16.4700     0.0000     0.0000 </r>
       <r>   -16.4600     0.0000     0.0000 </r>
       <r>   -16.4500     0.0000     0.0000 </r>
       <r>   -16.4400     0.0000     0.0000 </r>
       <r>   -16.4300     0.0000     0.0000 </r>
       <r>   -16.4200     0.0000     0.0000 </r>
       <r>   -16.4100     0.0000     0.0000 </r>
       <r>   -16.4000     0.0000     0.0000 </r>
       <r>   -16.3900     0.0000     0.0000 </r>
       <r>   -16.3800     0.0000     0.0000 </r>
       <r>   -16.3700     0.0000     0.0000 </r>
       <r>   -16.3600     0.0000     0.0000 </r>
       <r>   -16.3500     0.0000     0.0000 </r>
       <r>   -16.3400     0.0000     0.0000 </r>
       <r>   -16.3300     0.0000     0.0000 </r>
       <r>   -16.3200     0.0000     0.0000 </r>
       <r>   -16.3100     0.0000     0.0000 </r>
       <r>   -16.3000     0.0000     0.0000 </r>
       <r>   -16.2900     0.0000     0.0000 </r>
       <r>   -16.2800     0.0000     0.0000 </r>
       <r>   -16.2700     0.0000     0.0000 </r>
       <r>   -16.2600     0.0000     0.0000 </r>
       <r>   -16.2500     0.0000     0.0000 </r>
       <r>   -16.2400     0.0000     0.0000 </r>
       <r>   -16.2300     0.0000     0.0000 </r>
       <r>   -16.2200     0.0000     0.0000 </r>
       <r>   -16.2100     0.0000     0.0000 </r>
       <r>   -16.2000     0.0000     0.0000 </r>
       <r>   -16.1900     0.0000     0.0000 </r>
       <r>   -16.1800     0.0000     0.0000 </r>
       <r>   -16.1700     0.0000     0.0000 </r>
       <r>   -16.1600     0.0000     0.0000 </r>
       <r>   -16.1500     0.0000     0.0000 </r>
       <r>   -16.1400     0.0000     0.0000 </r>
       <r>   -16.1300     0.0000     0.0000 </r>
       <r>   -16.1200     0.0000     0.0000 </r>
       <r>   -16.1100     0.0000     0.0000 </r>
       <r>   -16.1000     0.0000     0.0000 </r>
       <r>   -16.0900     0.0000     0.0000 </r>
       <r>   -16.0800     0.0000     0.0000 </r>
       <r>   -16.0700     0.0000     0.0000 </r>
       <r>   -16.0600     0.0000     0.0000 </r>
       <r>   -16.0500     0.0000     0.0000 </r>
       <r>   -16.0400     0.0000     0.0000 </r>
       <r>   -16.0300     0.0000     0.0000 </r>
       <r>   -16.0200     0.0000     0.0000 </r>
       <r>   -16.0100     0.0000     0.0000 </r>
       <r>   -16.0000     0.0000     0.0000 </r>
       <r>   -15.9900     0.0000     0.0000 </r>
       <r>   -15.9800     0.0000     0.0000 </r>
       <r>   -15.9700     0.0000     0.0000 </r>
       <r>   -15.9600     0.0000     0.0000 </r>
       <r>   -15.9500     0.0000     0.0000 </r>
       <r>   -15.9400     0.0000     0.0000 </r>
       <r>   -15.9300     0.0000     0.0000 </r>
       <r>   -15.9200     0.0000     0.0000 </r>
       <r>   -15.9100     0.0000     0.0000 </r>
       <r>   -15.9000     0.0000     0.0000 </r>
       <r>   -15.8900     0.0000     0.0000 </r>
       <r>   -15.8800     0.0000     0.0000 </r>
       <r>   -15.8700     0.0000     0.0000 </r>
       <r>   -15.8600     0.0000     0.0000 </r>
       <r>   -15.8500     0.0000     0.0000 </r>
       <r>   -15.8400     0.0000     0.0000 </r>
       <r>   -15.8300     0.0000     0.0000 </r>
       <r>   -15.8200     0.0000     0.0000 </r>
       <r>   -15.8100     0.0000     0.0000 </r>
       <r>   -15.8000     0.0000     0.0000 </r>
       <r>   -15.7900     0.0000     0.0000 </r>
       <r>   -15.7800     0.0000     0.0000 </r>
       <r>   -15.7700     0.0000     0.0000 </r>
       <r>   -15.7600     0.0000     0.0000 </r>
       <r>   -15.7500     0.0000     0.0000 </r>
       <r>   -15.7400     0.0000     0.0000 </r>
       <r>   -15.7300     0.0000     0.0000 </r>
       <r>   -15.7200     0.0000     0.0000 </r>
       <r>   -15.7100     0.0000     0.0000 </r>
       <r>   -15.7000     0.0000     0.0000 </r>
       <r>   -15.6900     0.0000     0.0000 </r>
       <r>   -15.6800     0.0000     0.0000 </r>
       <r>   -15.6700     0.0000     0.0000 </r>
       <r>   -15.6600     0.0000     0.0000 </r>
       <r>   -15.6500     0.0000     0.0000 </r>
       <r>   -15.6400     0.0000     0.0000 </r>
       <r>   -15.6300     0.0000     0.0000 </r>
       <r>   -15.6200     0.0000     0.0000 </r>
       <r>   -15.6100     0.0000     0.0000 </r>
       <r>   -15.6000     0.0000     0.0000 </r>
       <r>   -15.5900     0.0000     0.0000 </r>
       <r>   -15.5800     0.0000     0.0000 </r>
       <r>   -15.5700     0.0000     0.0000 </r>
       <r>   -15.5600     0.0000     0.0000 </r>
       <r>   -15.5500     0.0000     0.0000 </r>
       <r>   -15.5400     0.0000     0.0000 </r>
       <r>   -15.5300     0.0000     0.0000 </r>
       <r>   -15.5200     0.0000     0.0000 </r>
       <r>   -15.5100     0.0000     0.0000 </r>
       <r>   -15.5000     0.0000     0.0000 </r>
       <r>   -15.4900     0.0000     0.0000 </r>
       <r>   -15.4800     0.0000     0.0000 </r>
       <r>   -15.4700     0.0000     0.0000 </r>
       <r>   -15.4600     0.0000     0.0000 </r>
       <r>   -15.4500     0.0000     0.0000 </r>
       <r>   -15.4400     0.0000     0.0000 </r>
       <r>   -15.4300     0.0000     0.0000 </r>
       <r>   -15.4200     0.0000     0.0000 </r>
       <r>   -15.4100     0.0000     0.0000 </r>
       <r>   -15.4000     0.0000     0.0000 </r>
       <r>   -15.3900     0.0000     0.0000 </r>
       <r>   -15.3800     0.0000     0.0000 </r>
       <r>   -15.3700     0.0000     0.0000 </r>
       <r>   -15.3600     0.0000     0.0000 </r>
       <r>   -15.3500     0.0000     0.0000 </r>
       <r>   -15.3400     0.0000     0.0000 </r>
       <r>   -15.3300     0.0000     0.0000 </r>
       <r>   -15.3200     0.0000     0.0000 </r>
       <r>   -15.3100     0.0000     0.0000 </r>
       <r>   -15.3000     0.0000     0.0000 </r>
       <r>   -15.2900     0.0000     0.0000 </r>
       <r>   -15.2800     0.0000     0.0000 </r>
       <r>   -15.2700     0.0000     0.0000 </r>
       <r>   -15.2600     0.0000     0.0000 </r>
       <r>   -15.2500     0.0000     0.0000 </r>
       <r>   -15.2400     0.0000     0.0000 </r>
       <r>   -15.2300     0.0000     0.0000 </r>
       <r>   -15.2200     0.0000     0.0000 </r>
       <r>   -15.2100     0.0000     0.0000 </r>
       <r>   -15.2000     0.0000     0.0000 </r>
       <r>   -15.1900     0.0000     0.0000 </r>
       <r>   -15.1800     0.0000     0.0000 </r>
       <r>   -15.1700     0.0000     0.0000 </r>
       <r>   -15.1600     0.0000     0.0000 </r>
       <r>   -15.1500     0.0000     0.0000 </r>
       <r>   -15.1400     0.0000     0.0000 </r>
       <r>   -15.1300     0.0000     0.0000 </r>
       <r>   -15.1200     0.0000     0.0000 </r>
       <r>   -15.1100     0.0000     0.0000 </r>
       <r>   -15.1000     0.0000     0.0000 </r>
       <r>   -15.0900     0.0000     0.0000 </r>
       <r>   -15.0800     0.0000     0.0000 </r>
       <r>   -15.0700     0.0000     0.0000 </r>
       <r>   -15.0600     0.0000     0.0000 </r>
       <r>   -15.0500     0.0000     0.0000 </r>
       <r>   -15.0400     0.0000     0.0000 </r>
       <r>   -15.0300     0.0000     0.0000 </r>
       <r>   -15.0200     0.0000     0.0000 </r>
       <r>   -15.0100     0.0000     0.0000 </r>
       <r>   -15.0000     0.0000     0.0000 </r>
       <r>   -14.9900     0.0000     0.0000 </r>
       <r>   -14.9800     0.0000     0.0000 </r>
       <r>   -14.9700     0.0000     0.0000 </r>
       <r>   -14.9600     0.0000     0.0000 </r>
       <r>   -14.9500     0.0000     0.0000 </r>
       <r>   -14.9400     0.0000     0.0000 </r>
       <r>   -14.9300     0.0000     0.0000 </r>
       <r>   -14.9200     0.0000     0.0000 </r>
       <r>   -14.9100     0.0000     0.0000 </r>
       <r>   -14.9000     0.0000     0.0000 </r>
       <r>   -14.8900     0.0000     0.0000 </r>
       <r>   -14.8800     0.0000     0.0000 </r>
       <r>   -14.8700     0.0000     0.0000 </r>
       <r>   -14.8600     0.0000     0.0000 </r>
       <r>   -14.8500     0.0000     0.0000 </r>
       <r>   -14.8400     0.0000     0.0000 </r>
       <r>   -14.8300     0.0000     0.0000 </r>
       <r>   -14.8200     0.0000     0.0000 </r>
       <r>   -14.8100     0.0000     0.0000 </r>
       <r>   -14.8000     0.0000     0.0000 </r>
       <r>   -14.7900     0.0000     0.0000 </r>
       <r>   -14.7800     0.0000     0.0000 </r>
       <r>   -14.7700     0.0000     0.0000 </r>
       <r>   -14.7600     0.0000     0.0000 </r>
       <r>   -14.7500     0.0000     0.0000 </r>
       <r>   -14.7400     0.0000     0.0000 </r>
       <r>   -14.7300     0.0000     0.0000 </r>
       <r>   -14.7200     0.0000     0.0000 </r>
       <r>   -14.7100     0.0000     0.0000 </r>
       <r>   -14.7000     0.0000     0.0000 </r>
       <r>   -14.6900     0.0000     0.0000 </r>
       <r>   -14.6800     0.0000     0.0000 </r>
       <r>   -14.6700     0.0000     0.0000 </r>
       <r>   -14.6600     0.0000     0.0000 </r>
       <r>   -14.6500     0.0000     0.0000 </r>
       <r>   -14.6400     0.0000     0.0000 </r>
       <r>   -14.6300     0.0000     0.0000 </r>
       <r>   -14.6200     0.0000     0.0000 </r>
       <r>   -14.6100     0.0000     0.0000 </r>
       <r>   -14.6000     0.0000     0.0000 </r>
       <r>   -14.5900     0.0000     0.0000 </r>
       <r>   -14.5800     0.0000     0.0000 </r>
       <r>   -14.5700     0.0000     0.0000 </r>
       <r>   -14.5600     0.0000     0.0000 </r>
       <r>   -14.5500     0.0000     0.0000 </r>
       <r>   -14.5400     0.0000     0.0000 </r>
       <r>   -14.5300     0.0000     0.0000 </r>
       <r>   -14.5200     0.0000     0.0000 </r>
       <r>   -14.5100     0.0000     0.0000 </r>
       <r>   -14.5000     0.0000     0.0000 </r>
       <r>   -14.4900     0.0000     0.0000 </r>
       <r>   -14.4800     0.0000     0.0000 </r>
       <r>   -14.4700     0.0000     0.0000 </r>
       <r>   -14.4600     0.0000     0.0000 </r>
       <r>   -14.4500     0.0000     0.0000 </r>
       <r>   -14.4400     0.0000     0.0000 </r>
       <r>   -14.4300     0.0000     0.0000 </r>
       <r>   -14.4200     0.0000     0.0000 </r>
       <r>   -14.4100     0.0000     0.0000 </r>
       <r>   -14.4000     0.0000     0.0000 </r>
       <r>   -14.3900     0.0000     0.0000 </r>
       <r>   -14.3800     0.0000     0.0000 </r>
       <r>   -14.3700     0.0000     0.0000 </r>
       <r>   -14.3600     0.0000     0.0000 </r>
       <r>   -14.3500     0.0000     0.0000 </r>
       <r>   -14.3400     0.0000     0.0000 </r>
       <r>   -14.3300     0.0000     0.0000 </r>
       <r>   -14.3200     0.0000     0.0000 </r>
       <r>   -14.3100     0.0000     0.0000 </r>
       <r>   -14.3000     0.0000     0.0000 </r>
       <r>   -14.2900     0.0000     0.0000 </r>
       <r>   -14.2800     0.0000     0.0000 </r>
       <r>   -14.2700     0.0000     0.0000 </r>
       <r>   -14.2600     0.0000     0.0000 </r>
       <r>   -14.2500     0.0000     0.0000 </r>
       <r>   -14.2400     0.0000     0.0000 </r>
       <r>   -14.2300     0.0000     0.0000 </r>
       <r>   -14.2200     0.0000     0.0000 </r>
       <r>   -14.2100     0.0000     0.0000 </r>
       <r>   -14.2000     0.0000     0.0000 </r>
       <r>   -14.1900     0.0000     0.0000 </r>
       <r>   -14.1800     0.0000     0.0000 </r>
       <r>   -14.1700     0.0000     0.0000 </r>
       <r>   -14.1600     0.0000     0.0000 </r>
       <r>   -14.1500     0.0000     0.0000 </r>
       <r>   -14.1400     0.0000     0.0000 </r>
       <r>   -14.1300     0.0000     0.0000 </r>
       <r>   -14.1200     0.0000     0.0000 </r>
       <r>   -14.1100     0.0000     0.0000 </r>
       <r>   -14.1000     0.0000     0.0000 </r>
       <r>   -14.0900     0.0000     0.0000 </r>
       <r>   -14.0800     0.0000     0.0000 </r>
       <r>   -14.0700     0.0000     0.0000 </r>
       <r>   -14.0600     0.0000     0.0000 </r>
       <r>   -14.0500     0.0000     0.0000 </r>
       <r>   -14.0400     0.0000     0.0000 </r>
       <r>   -14.0300     0.0000     0.0000 </r>
       <r>   -14.0200     0.0000     0.0000 </r>
       <r>   -14.0100     0.0000     0.0000 </r>
       <r>   -14.0000     0.0000     0.0000 </r>
       <r>   -13.9900     0.0000     0.0000 </r>
       <r>   -13.9800     0.0000     0.0000 </r>
       <r>   -13.9700     0.0000     0.0000 </r>
       <r>   -13.9600     0.0000     0.0000 </r>
       <r>   -13.9500     0.0000     0.0000 </r>
       <r>   -13.9400     0.0000     0.0000 </r>
       <r>   -13.9300     0.0000     0.0000 </r>
       <r>   -13.9200     0.0000     0.0000 </r>
       <r>   -13.9100     0.0000     0.0000 </r>
       <r>   -13.9000     0.0000     0.0000 </r>
       <r>   -13.8900     0.0000     0.0000 </r>
       <r>   -13.8800     0.0000     0.0000 </r>
       <r>   -13.8700     0.0000     0.0000 </r>
       <r>   -13.8600     0.0000     0.0000 </r>
       <r>   -13.8500     0.0000     0.0000 </r>
       <r>   -13.8400     0.0000     0.0000 </r>
       <r>   -13.8300     0.0000     0.0000 </r>
       <r>   -13.8200     0.0000     0.0000 </r>
       <r>   -13.8100     0.0000     0.0000 </r>
       <r>   -13.8000     0.0000     0.0000 </r>
       <r>   -13.7900     0.0000     0.0000 </r>
       <r>   -13.7800     0.0000     0.0000 </r>
       <r>   -13.7700     0.0000     0.0000 </r>
       <r>   -13.7600     0.0000     0.0000 </r>
       <r>   -13.7500     0.0000     0.0000 </r>
       <r>   -13.7400     0.0000     0.0000 </r>
       <r>   -13.7300     0.0000     0.0000 </r>
       <r>   -13.7200     0.0000     0.0000 </r>
       <r>   -13.7100     0.0000     0.0000 </r>
       <r>   -13.7000     0.0000     0.0000 </r>
       <r>   -13.6900     0.0000     0.0000 </r>
       <r>   -13.6800     0.0000     0.0000 </r>
       <r>   -13.6700     0.0000     0.0000 </r>
       <r>   -13.6600     0.0000     0.0000 </r>
       <r>   -13.6500     0.0000     0.0000 </r>
       <r>   -13.6400     0.0000     0.0000 </r>
       <r>   -13.6300     0.0000     0.0000 </r>
       <r>   -13.6200     0.0000     0.0000 </r>
       <r>   -13.6100     0.0000     0.0000 </r>
       <r>   -13.6000     0.0000     0.0000 </r>
       <r>   -13.5900     0.0000     0.0000 </r>
       <r>   -13.5800     0.0000     0.0000 </r>
       <r>   -13.5700     0.0000     0.0000 </r>
       <r>   -13.5600     0.0000     0.0000 </r>
       <r>   -13.5500     0.0000     0.0000 </r>
       <r>   -13.5400     0.0000     0.0000 </r>
       <r>   -13.5300     0.0000     0.0000 </r>
       <r>   -13.5200     0.0000     0.0000 </r>
       <r>   -13.5100     0.0000     0.0000 </r>
       <r>   -13.5000     0.0000     0.0000 </r>
       <r>   -13.4900     0.0000     0.0000 </r>
       <r>   -13.4800     0.0000     0.0000 </r>
       <r>   -13.4700     0.0000     0.0000 </r>
       <r>   -13.4600     0.0000     0.0000 </r>
       <r>   -13.4500     0.0000     0.0000 </r>
       <r>   -13.4400     0.0000     0.0000 </r>
       <r>   -13.4300     0.0000     0.0000 </r>
       <r>   -13.4200     0.0000     0.0000 </r>
       <r>   -13.4100     0.0000     0.0000 </r>
       <r>   -13.4000     0.0000     0.0000 </r>
       <r>   -13.3900     0.0000     0.0000 </r>
       <r>   -13.3800     0.0000     0.0000 </r>
       <r>   -13.3700     0.0000     0.0000 </r>
       <r>   -13.3600     0.0000     0.0000 </r>
       <r>   -13.3500     0.0000     0.0000 </r>
       <r>   -13.3400     0.0000     0.0000 </r>
       <r>   -13.3300     0.0000     0.0000 </r>
       <r>   -13.3200     0.0000     0.0000 </r>
       <r>   -13.3100     0.0000     0.0000 </r>
       <r>   -13.3000     0.0000     0.0000 </r>
       <r>   -13.2900     0.0000     0.0000 </r>
       <r>   -13.2800     0.0000     0.0000 </r>
       <r>   -13.2700     0.0000     0.0000 </r>
       <r>   -13.2600     0.0000     0.0000 </r>
       <r>   -13.2500     0.0000     0.0000 </r>
       <r>   -13.2400     0.0000     0.0000 </r>
       <r>   -13.2300     0.0000     0.0000 </r>
       <r>   -13.2200     0.0000     0.0000 </r>
       <r>   -13.2100     0.0000     0.0000 </r>
       <r>   -13.2000     0.0000     0.0000 </r>
       <r>   -13.1900     0.0000     0.0000 </r>
       <r>   -13.1800     0.0000     0.0000 </r>
       <r>   -13.1700     0.0000     0.0000 </r>
       <r>   -13.1600     0.0000     0.0000 </r>
       <r>   -13.1500     0.0000     0.0000 </r>
       <r>   -13.1400     0.0000     0.0000 </r>
       <r>   -13.1300     0.0000     0.0000 </r>
       <r>   -13.1200     0.0000     0.0000 </r>
       <r>   -13.1100     0.0000     0.0000 </r>
       <r>   -13.1000     0.0000     0.0000 </r>
       <r>   -13.0900     0.0000     0.0000 </r>
       <r>   -13.0800     0.0000     0.0000 </r>
       <r>   -13.0700     0.0000     0.0000 </r>
       <r>   -13.0600     0.0000     0.0000 </r>
       <r>   -13.0500     0.0000     0.0000 </r>
       <r>   -13.0400     0.0000     0.0000 </r>
       <r>   -13.0300     0.0000     0.0000 </r>
       <r>   -13.0200     0.0000     0.0000 </r>
       <r>   -13.0100     0.0000     0.0000 </r>
       <r>   -13.0000     0.0000     0.0000 </r>
       <r>   -12.9900     0.0000     0.0000 </r>
       <r>   -12.9800     0.0000     0.0000 </r>
       <r>   -12.9700     0.0000     0.0000 </r>
       <r>   -12.9600     0.0000     0.0000 </r>
       <r>   -12.9500     0.0000     0.0000 </r>
       <r>   -12.9400     0.0000     0.0000 </r>
       <r>   -12.9300     0.0000     0.0000 </r>
       <r>   -12.9200     0.0000     0.0000 </r>
       <r>   -12.9100     0.0000     0.0000 </r>
       <r>   -12.9000     0.0000     0.0000 </r>
       <r>   -12.8900     0.0000     0.0000 </r>
       <r>   -12.8800     0.0000     0.0000 </r>
       <r>   -12.8700     0.0000     0.0000 </r>
       <r>   -12.8600     0.0000     0.0000 </r>
       <r>   -12.8500     0.0000     0.0000 </r>
       <r>   -12.8400     0.0000     0.0000 </r>
       <r>   -12.8300     0.0000     0.0000 </r>
       <r>   -12.8200     0.0000     0.0000 </r>
       <r>   -12.8100     0.0000     0.0000 </r>
       <r>   -12.8000     0.0000     0.0000 </r>
       <r>   -12.7900     0.0000     0.0000 </r>
       <r>   -12.7800     0.0000     0.0000 </r>
       <r>   -12.7700     0.0000     0.0000 </r>
       <r>   -12.7600     0.0000     0.0000 </r>
       <r>   -12.7500     0.0000     0.0000 </r>
       <r>   -12.7400     0.0000     0.0000 </r>
       <r>   -12.7300     0.0000     0.0000 </r>
       <r>   -12.7200     0.0000     0.0000 </r>
       <r>   -12.7100     0.0000     0.0000 </r>
       <r>   -12.7000     0.0000     0.0000 </r>
       <r>   -12.6900     0.0000     0.0000 </r>
       <r>   -12.6800     0.0000     0.0000 </r>
       <r>   -12.6700     0.0000     0.0000 </r>
       <r>   -12.6600     0.0000     0.0000 </r>
       <r>   -12.6500     0.0000     0.0000 </r>
       <r>   -12.6400     0.0000     0.0000 </r>
       <r>   -12.6300     0.0000     0.0000 </r>
       <r>   -12.6200     0.0000     0.0000 </r>
       <r>   -12.6100     0.0000     0.0000 </r>
       <r>   -12.6000     0.0000     0.0000 </r>
       <r>   -12.5900     0.0000     0.0000 </r>
       <r>   -12.5800     0.0000     0.0000 </r>
       <r>   -12.5700     0.0000     0.0000 </r>
       <r>   -12.5600     0.0000     0.0000 </r>
       <r>   -12.5500     0.0000     0.0000 </r>
       <r>   -12.5400     0.0000     0.0000 </r>
       <r>   -12.5300     0.0000     0.0000 </r>
       <r>   -12.5200     0.0000     0.0000 </r>
       <r>   -12.5100     0.0000     0.0000 </r>
       <r>   -12.5000     0.0000     0.0000 </r>
       <r>   -12.4900     0.0000     0.0000 </r>
       <r>   -12.4800     0.0000     0.0000 </r>
       <r>   -12.4700     0.0000     0.0000 </r>
       <r>   -12.4600     0.0000     0.0000 </r>
       <r>   -12.4500     0.0000     0.0000 </r>
       <r>   -12.4400     0.0000     0.0000 </r>
       <r>   -12.4300     0.0000     0.0000 </r>
       <r>   -12.4200     0.0000     0.0000 </r>
       <r>   -12.4100     0.0000     0.0000 </r>
       <r>   -12.4000     0.0000     0.0000 </r>
       <r>   -12.3900     0.0000     0.0000 </r>
       <r>   -12.3800     0.0000     0.0000 </r>
       <r>   -12.3700     0.0000     0.0000 </r>
       <r>   -12.3600     0.0000     0.0000 </r>
       <r>   -12.3500     0.0000     0.0000 </r>
       <r>   -12.3400     0.0000     0.0000 </r>
       <r>   -12.3300     0.0000     0.0000 </r>
       <r>   -12.3200     0.0000     0.0000 </r>
       <r>   -12.3100     0.0000     0.0000 </r>
       <r>   -12.3000     0.0000     0.0000 </r>
       <r>   -12.2900     0.0000     0.0000 </r>
       <r>   -12.2800     0.0000     0.0000 </r>
       <r>   -12.2700     0.0000     0.0000 </r>
       <r>   -12.2600     0.0000     0.0000 </r>
       <r>   -12.2500     0.0000     0.0000 </r>
       <r>   -12.2400     0.0000     0.0000 </r>
       <r>   -12.2300     0.0000     0.0000 </r>
       <r>   -12.2200     0.0000     0.0000 </r>
       <r>   -12.2100     0.0000     0.0000 </r>
       <r>   -12.2000     0.0000     0.0000 </r>
       <r>   -12.1900     0.0000     0.0000 </r>
       <r>   -12.1800     0.0000     0.0000 </r>
       <r>   -12.1700     0.0000     0.0000 </r>
       <r>   -12.1600     0.0000     0.0000 </r>
       <r>   -12.1500     0.0000     0.0000 </r>
       <r>   -12.1400     0.0000     0.0000 </r>
       <r>   -12.1300     0.0000     0.0000 </r>
       <r>   -12.1200     0.0000     0.0000 </r>
       <r>   -12.1100     0.0000     0.0000 </r>
       <r>   -12.1000     0.0000     0.0000 </r>
       <r>   -12.0900     0.0000     0.0000 </r>
       <r>   -12.0800     0.0000     0.0000 </r>
       <r>   -12.0700     0.0000     0.0000 </r>
       <r>   -12.0600     0.0000     0.0000 </r>
       <r>   -12.0500     0.0000     0.0000 </r>
       <r>   -12.0400     0.0000     0.0000 </r>
       <r>   -12.0300     0.0000     0.0000 </r>
       <r>   -12.0200     0.0000     0.0000 </r>
       <r>   -12.0100     0.0000     0.0000 </r>
       <r>   -12.0000     0.0000     0.0000 </r>
       <r>   -11.9900     0.0000     0.0000 </r>
       <r>   -11.9800     0.0000     0.0000 </r>
       <r>   -11.9700     0.0000     0.0000 </r>
       <r>   -11.9600     0.0000     0.0000 </r>
       <r>   -11.9500     0.0000     0.0000 </r>
       <r>   -11.9400     0.0000     0.0000 </r>
       <r>   -11.9300     0.0000     0.0000 </r>
       <r>   -11.9200     0.0000     0.0000 </r>
       <r>   -11.9100     0.0000     0.0000 </r>
       <r>   -11.9000     0.0000     0.0000 </r>
       <r>   -11.8900     0.0000     0.0000 </r>
       <r>   -11.8800     0.0000     0.0000 </r>
       <r>   -11.8700     0.0000     0.0000 </r>
       <r>   -11.8600     0.0000     0.0000 </r>
       <r>   -11.8500     0.0000     0.0000 </r>
       <r>   -11.8400     0.0000     0.0000 </r>
       <r>   -11.8300     0.0001     0.0000 </r>
       <r>   -11.8200     0.0001     0.0000 </r>
       <r>   -11.8100     0.0002     0.0000 </r>
       <r>   -11.8000     0.0004     0.0000 </r>
       <r>   -11.7900     0.0006     0.0000 </r>
       <r>   -11.7800     0.0009     0.0000 </r>
       <r>   -11.7700     0.0014     0.0000 </r>
       <r>   -11.7600     0.0021     0.0001 </r>
       <r>   -11.7500     0.0031     0.0001 </r>
       <r>   -11.7400     0.0044     0.0001 </r>
       <r>   -11.7300     0.0063     0.0002 </r>
       <r>   -11.7200     0.0087     0.0003 </r>
       <r>   -11.7100     0.0119     0.0004 </r>
       <r>   -11.7000     0.0159     0.0006 </r>
       <r>   -11.6900     0.0208     0.0008 </r>
       <r>   -11.6800     0.0267     0.0010 </r>
       <r>   -11.6700     0.0336     0.0014 </r>
       <r>   -11.6600     0.0415     0.0018 </r>
       <r>   -11.6500     0.0501     0.0023 </r>
       <r>   -11.6400     0.0594     0.0029 </r>
       <r>   -11.6300     0.0690     0.0036 </r>
       <r>   -11.6200     0.0786     0.0044 </r>
       <r>   -11.6100     0.0878     0.0052 </r>
       <r>   -11.6000     0.0960     0.0062 </r>
       <r>   -11.5900     0.1030     0.0072 </r>
       <r>   -11.5800     0.1083     0.0083 </r>
       <r>   -11.5700     0.1116     0.0094 </r>
       <r>   -11.5600     0.1128     0.0106 </r>
       <r>   -11.5500     0.1118     0.0117 </r>
       <r>   -11.5400     0.1086     0.0128 </r>
       <r>   -11.5300     0.1036     0.0138 </r>
       <r>   -11.5200     0.0969     0.0148 </r>
       <r>   -11.5100     0.0892     0.0157 </r>
       <r>   -11.5000     0.0809     0.0165 </r>
       <r>   -11.4900     0.0725     0.0172 </r>
       <r>   -11.4800     0.0648     0.0178 </r>
       <r>   -11.4700     0.0583     0.0184 </r>
       <r>   -11.4600     0.0537     0.0190 </r>
       <r>   -11.4500     0.0516     0.0195 </r>
       <r>   -11.4400     0.0527     0.0200 </r>
       <r>   -11.4300     0.0577     0.0206 </r>
       <r>   -11.4200     0.0671     0.0212 </r>
       <r>   -11.4100     0.0818     0.0221 </r>
       <r>   -11.4000     0.1022     0.0231 </r>
       <r>   -11.3900     0.1289     0.0244 </r>
       <r>   -11.3800     0.1620     0.0260 </r>
       <r>   -11.3700     0.2016     0.0280 </r>
       <r>   -11.3600     0.2473     0.0305 </r>
       <r>   -11.3500     0.2983     0.0335 </r>
       <r>   -11.3400     0.3533     0.0370 </r>
       <r>   -11.3300     0.4106     0.0411 </r>
       <r>   -11.3200     0.4680     0.0458 </r>
       <r>   -11.3100     0.5230     0.0510 </r>
       <r>   -11.3000     0.5730     0.0567 </r>
       <r>   -11.2900     0.6154     0.0629 </r>
       <r>   -11.2800     0.6479     0.0694 </r>
       <r>   -11.2700     0.6686     0.0761 </r>
       <r>   -11.2600     0.6764     0.0828 </r>
       <r>   -11.2500     0.6708     0.0895 </r>
       <r>   -11.2400     0.6521     0.0961 </r>
       <r>   -11.2300     0.6213     0.1023 </r>
       <r>   -11.2200     0.5803     0.1081 </r>
       <r>   -11.2100     0.5313     0.1134 </r>
       <r>   -11.2000     0.4768     0.1182 </r>
       <r>   -11.1900     0.4195     0.1224 </r>
       <r>   -11.1800     0.3617     0.1260 </r>
       <r>   -11.1700     0.3058     0.1290 </r>
       <r>   -11.1600     0.2533     0.1316 </r>
       <r>   -11.1500     0.2058     0.1336 </r>
       <r>   -11.1400     0.1638     0.1353 </r>
       <r>   -11.1300     0.1278     0.1365 </r>
       <r>   -11.1200     0.0978     0.1375 </r>
       <r>   -11.1100     0.0733     0.1382 </r>
       <r>   -11.1000     0.0539     0.1388 </r>
       <r>   -11.0900     0.0388     0.1392 </r>
       <r>   -11.0800     0.0274     0.1394 </r>
       <r>   -11.0700     0.0190     0.1396 </r>
       <r>   -11.0600     0.0129     0.1398 </r>
       <r>   -11.0500     0.0086     0.1399 </r>
       <r>   -11.0400     0.0056     0.1399 </r>
       <r>   -11.0300     0.0036     0.1399 </r>
       <r>   -11.0200     0.0022     0.1400 </r>
       <r>   -11.0100     0.0014     0.1400 </r>
       <r>   -11.0000     0.0008     0.1400 </r>
       <r>   -10.9900     0.0005     0.1400 </r>
       <r>   -10.9800     0.0004     0.1400 </r>
       <r>   -10.9700     0.0003     0.1400 </r>
       <r>   -10.9600     0.0003     0.1400 </r>
       <r>   -10.9500     0.0005     0.1400 </r>
       <r>   -10.9400     0.0008     0.1400 </r>
       <r>   -10.9300     0.0013     0.1400 </r>
       <r>   -10.9200     0.0021     0.1401 </r>
       <r>   -10.9100     0.0033     0.1401 </r>
       <r>   -10.9000     0.0052     0.1401 </r>
       <r>   -10.8900     0.0080     0.1402 </r>
       <r>   -10.8800     0.0121     0.1403 </r>
       <r>   -10.8700     0.0179     0.1405 </r>
       <r>   -10.8600     0.0260     0.1408 </r>
       <r>   -10.8500     0.0370     0.1411 </r>
       <r>   -10.8400     0.0517     0.1417 </r>
       <r>   -10.8300     0.0708     0.1424 </r>
       <r>   -10.8200     0.0951     0.1433 </r>
       <r>   -10.8100     0.1253     0.1446 </r>
       <r>   -10.8000     0.1617     0.1462 </r>
       <r>   -10.7900     0.2048     0.1482 </r>
       <r>   -10.7800     0.2542     0.1508 </r>
       <r>   -10.7700     0.3095     0.1539 </r>
       <r>   -10.7600     0.3696     0.1576 </r>
       <r>   -10.7500     0.4328     0.1619 </r>
       <r>   -10.7400     0.4971     0.1669 </r>
       <r>   -10.7300     0.5600     0.1725 </r>
       <r>   -10.7200     0.6188     0.1787 </r>
       <r>   -10.7100     0.6708     0.1854 </r>
       <r>   -10.7000     0.7134     0.1925 </r>
       <r>   -10.6900     0.7444     0.1999 </r>
       <r>   -10.6800     0.7622     0.2076 </r>
       <r>   -10.6700     0.7659     0.2152 </r>
       <r>   -10.6600     0.7554     0.2228 </r>
       <r>   -10.6500     0.7315     0.2301 </r>
       <r>   -10.6400     0.6957     0.2371 </r>
       <r>   -10.6300     0.6501     0.2436 </r>
       <r>   -10.6200     0.5975     0.2495 </r>
       <r>   -10.6100     0.5408     0.2549 </r>
       <r>   -10.6000     0.4831     0.2598 </r>
       <r>   -10.5900     0.4273     0.2640 </r>
       <r>   -10.5800     0.3762     0.2678 </r>
       <r>   -10.5700     0.3323     0.2711 </r>
       <r>   -10.5600     0.2977     0.2741 </r>
       <r>   -10.5500     0.2741     0.2768 </r>
       <r>   -10.5400     0.2627     0.2795 </r>
       <r>   -10.5300     0.2644     0.2821 </r>
       <r>   -10.5200     0.2795     0.2849 </r>
       <r>   -10.5100     0.3082     0.2880 </r>
       <r>   -10.5000     0.3498     0.2915 </r>
       <r>   -10.4900     0.4036     0.2955 </r>
       <r>   -10.4800     0.4681     0.3002 </r>
       <r>   -10.4700     0.5415     0.3056 </r>
       <r>   -10.4600     0.6217     0.3118 </r>
       <r>   -10.4500     0.7059     0.3189 </r>
       <r>   -10.4400     0.7914     0.3268 </r>
       <r>   -10.4300     0.8750     0.3356 </r>
       <r>   -10.4200     0.9536     0.3451 </r>
       <r>   -10.4100     1.0243     0.3553 </r>
       <r>   -10.4000     1.0842     0.3662 </r>
       <r>   -10.3900     1.1310     0.3775 </r>
       <r>   -10.3800     1.1628     0.3891 </r>
       <r>   -10.3700     1.1783     0.4009 </r>
       <r>   -10.3600     1.1769     0.4127 </r>
       <r>   -10.3500     1.1586     0.4243 </r>
       <r>   -10.3400     1.1242     0.4355 </r>
       <r>   -10.3300     1.0748     0.4462 </r>
       <r>   -10.3200     1.0125     0.4564 </r>
       <r>   -10.3100     0.9394     0.4658 </r>
       <r>   -10.3000     0.8585     0.4744 </r>
       <r>   -10.2900     0.7723     0.4821 </r>
       <r>   -10.2800     0.6838     0.4889 </r>
       <r>   -10.2700     0.5957     0.4949 </r>
       <r>   -10.2600     0.5105     0.5000 </r>
       <r>   -10.2500     0.4301     0.5043 </r>
       <r>   -10.2400     0.3563     0.5078 </r>
       <r>   -10.2300     0.2900     0.5107 </r>
       <r>   -10.2200     0.2319     0.5131 </r>
       <r>   -10.2100     0.1822     0.5149 </r>
       <r>   -10.2000     0.1405     0.5163 </r>
       <r>   -10.1900     0.1064     0.5173 </r>
       <r>   -10.1800     0.0791     0.5181 </r>
       <r>   -10.1700     0.0577     0.5187 </r>
       <r>   -10.1600     0.0413     0.5191 </r>
       <r>   -10.1500     0.0290     0.5194 </r>
       <r>   -10.1400     0.0200     0.5196 </r>
       <r>   -10.1300     0.0135     0.5198 </r>
       <r>   -10.1200     0.0090     0.5198 </r>
       <r>   -10.1100     0.0058     0.5199 </r>
       <r>   -10.1000     0.0037     0.5199 </r>
       <r>   -10.0900     0.0023     0.5200 </r>
       <r>   -10.0800     0.0014     0.5200 </r>
       <r>   -10.0700     0.0009     0.5200 </r>
       <r>   -10.0600     0.0006     0.5200 </r>
       <r>   -10.0500     0.0004     0.5200 </r>
       <r>   -10.0400     0.0004     0.5200 </r>
       <r>   -10.0300     0.0004     0.5200 </r>
       <r>   -10.0200     0.0006     0.5200 </r>
       <r>   -10.0100     0.0010     0.5200 </r>
       <r>   -10.0000     0.0016     0.5200 </r>
       <r>    -9.9900     0.0026     0.5201 </r>
       <r>    -9.9800     0.0041     0.5201 </r>
       <r>    -9.9700     0.0063     0.5202 </r>
       <r>    -9.9600     0.0096     0.5203 </r>
       <r>    -9.9500     0.0144     0.5204 </r>
       <r>    -9.9400     0.0211     0.5206 </r>
       <r>    -9.9300     0.0304     0.5209 </r>
[...]
        <r>  0.0001  0.0004  0.0008  0.0002  0.0185  0.0071  0.3984  0.0038  0.0171 </r>
        <r>  0.0000  0.0002  0.0004  0.0005  0.0255  0.0107  0.0106  0.0129  0.0669 </r>
        <r>  0.0009  0.0001  0.0000  0.0000  0.0000  0.0000  0.0000  0.0000  0.0000 </r>
       </set>
       <set comment="band 19">
        <r>  0.0011  0.0004  0.0013  0.0007  0.0314  0.0069  0.4733  0.0184  0.0663 </r>
        <r>  0.0000  0.0000  0.0000  0.0001  0.0236  0.0488  0.0649  0.0892  0.0703 </r>
        <r>  0.0000  0.0000  0.0000  0.0000  0.0076  0.0136  0.0095  0.0225  0.0225 </r>
        <r>  0.0000  0.0000  0.0001  0.0000  0.0006  0.0003  0.0050  0.0006  0.0016 </r>
        <r>  0.0000  0.0000  0.0000  0.0000  0.0000  0.0000  0.0000  0.0000  0.0000 </r>
       </set>
       <set comment="band 20">
        <r>  0.0003  0.0002  0.0005  0.0004  0.0494  0.0300  0.1157  0.0304  0.0881 </r>
        <r>  0.0001  0.0002  0.0001  0.0001  0.0464  0.0040  0.3874  0.0093  0.0162 </r>
        <r>  0.0000  0.0000  0.0002  0.0000  0.0341  0.0280  0.0534  0.0267  0.0532 </r>
        <r>  0.0000  0.0001  0.0000  0.0000  0.0029  0.0053  0.0017  0.0022  0.0026 </r>
        <r>  0.0000  0.0000  0.0000  0.0000  0.0000  0.0000  0.0000  0.0000  0.0000 </r>
       </set>
       <set comment="band 21">
        <r>  0.0000  0.0000  0.0000  0.0001  0.0001  0.0001  0.0003  0.0002  0.0003 </r>
        <r>  0.0006  0.0002  0.0004  0.0006  0.0008  0.0003  0.0028  0.0008  0.0020 </r>
        <r>  0.0050  0.0019  0.0040  0.0045  0.0129  0.0089  0.0269  0.0082  0.0123 </r>
        <r>  0.0048  0.0318  0.0013  0.0896  0.1312  0.0423  0.0041  0.0659  0.2234 </r>
        <r>  0.1241  0.0004  0.0000  0.0002  0.0000  0.0000  0.0000  0.0000  0.0000 </r>
       </set>
       <set comment="band 22">
        <r>  0.0210  0.0084  0.0083  0.0226  0.0173  0.0038  0.0212  0.0054  0.0212 </r>
        <r>  0.0022  0.0402  0.0045  0.1202  0.0287  0.0007  0.0016  0.0007  0.0821 </r>
        <r>  0.0310  0.0244  0.0032  0.0678  0.0338  0.0012  0.0251  0.0030  0.0529 </r>
        <r>  0.0145  0.0009  0.0067  0.0016  0.0038  0.0033  0.0105  0.0039  0.0022 </r>
        <r>  0.0025  0.0000  0.0000  0.0001  0.0000  0.0000  0.0000  0.0000  0.0000 </r>
       </set>
       <set comment="band 23">
        <r>  0.0000  0.0279  0.0000  0.0837  0.0157  0.0020  0.0000  0.0061  0.0471 </r>
        <r>  0.1039  0.0138  0.0002  0.0199  0.0545  0.0017  0.0484  0.0043  0.0263 </r>
        <r>  0.0062  0.0264  0.0109  0.0785  0.0161  0.0035  0.0031  0.0012  0.0419 </r>
        <r>  0.0181  0.0015  0.0067  0.0021  0.0049  0.0050  0.0081  0.0067  0.0027 </r>
        <r>  0.0036  0.0000  0.0000  0.0001  0.0000  0.0000  0.0000  0.0000  0.0000 </r>
       </set>
       <set comment="band 24">
        <r>  0.0545  0.0392  0.0090  0.1022  0.0415  0.0037  0.0155  0.0015  0.0521 </r>
        <r>  0.0124  0.0177  0.0495  0.0507  0.0111  0.0110  0.0033  0.0037  0.0215 </r>
        <r>  0.0078  0.0148  0.0129  0.0412  0.0098  0.0055  0.0018  0.0047  0.0182 </r>
        <r>  0.0251  0.0029  0.0028  0.0032  0.0078  0.0020  0.0051  0.0029  0.0035 </r>
        <r>  0.0009  0.0001  0.0000  0.0004  0.0000  0.0000  0.0000  0.0000  0.0000 </r>
       </set>
       <set comment="band 25">
        <r>  0.0008  0.0023  0.0002  0.0069  0.0011  0.0000  0.0003  0.0000  0.0028 </r>
        <r>  0.0072  0.0008  0.0069  0.0013  0.0024  0.0013  0.0017  0.0021  0.0012 </r>
        <r>  0.0803  0.0093  0.0123  0.0135  0.0297  0.0024  0.0184  0.0056  0.0138 </r>
        <r>  0.1373  0.0393  0.0066  0.0498  0.0885  0.0135  0.0096  0.0282  0.0380 </r>
        <r>  0.0354  0.0022  0.0003  0.0065  0.0000  0.0000  0.0000  0.0000  0.0000 </r>
       </set>
       <set comment="band 26">
        <r>  0.1411  0.0230  0.0000  0.0354  0.0389  0.0015  0.0082  0.0045  0.0194 </r>
        <r>  0.0568  0.0076  0.0012  0.0038  0.0186  0.0166  0.0018  0.0495  0.0065 </r>
        <r>  0.0725  0.0143  0.0145  0.0136  0.0256  0.0029  0.0025  0.0074  0.0106 </r>
        <r>  0.0055  0.0081  0.0244  0.0150  0.0057  0.0024  0.0001  0.0009  0.0040 </r>
        <r>  0.0031  0.0008  0.0001  0.0023  0.0000  0.0000  0.0000  0.0000  0.0000 </r>
       </set>
       <set comment="band 27">
        <r>  0.1312  0.0211  0.0551  0.0070  0.0368  0.0024  0.0008  0.0008  0.0123 </r>
        <r>  0.0320  0.0189  0.0086  0.0384  0.0130  0.0000  0.0000  0.0001  0.0101 </r>
        <r>  0.0209  0.0099  0.0008  0.0068  0.0117  0.0108  0.0000  0.0307  0.0045 </r>
        <r>  0.0035  0.0046  0.0433  0.0113  0.0007  0.0038  0.0010  0.0014  0.0015 </r>
        <r>  0.0042  0.0005  0.0003  0.0016  0.0000  0.0000  0.0000  0.0000  0.0000 </r>
       </set>
       <set comment="band 28">
        <r>  0.0000  0.0040  0.0005  0.0110  0.0008  0.0023  0.0000  0.0069  0.0019 </r>
        <r>  0.0435  0.0138  0.0018  0.0102  0.0166  0.0002  0.0000  0.0002  0.0065 </r>
        <r>  0.0658  0.0039  0.0431  0.0013  0.0099  0.0056  0.0006  0.0153  0.0033 </r>
        <r>  0.1367  0.0052  0.0294  0.0072  0.0002  0.0223  0.0058  0.0668  0.0005 </r>
        <r>  0.0343  0.0043  0.0010  0.0072  0.0000  0.0000  0.0000  0.0000  0.0000 </r>
       </set>
      </set>
      <set comment="kpoint 14">
       <set comment="band 1">
        <r>  0.0000  0.0000  0.0000  0.0000  0.0000  0.0000  0.0000  0.0000  0.0000 </r>
        <r>  0.0000  0.0000  0.0000  0.0000  0.0000  0.0000  0.0000  0.0000  0.0000 </r>
        <r>  0.0000  0.0000  0.0000  0.0002  0.0002  0.0001  0.0002  0.0006  0.0005 </r>
        <r>  0.0054  0.0331  0.0004  0.0504  0.1893  0.0667  0.0002  0.1510  0.1190 </r>
        <r>  0.1898  0.0000  0.0022  0.0000  0.0000  0.0000  0.0000  0.0000  0.0000 </r>
       </set>
       <set comment="band 2">
        <r>  0.0002  0.0019  0.0001  0.0007  0.0113  0.0137  0.0022  0.0039  0.0032 </r>
        <r>  0.0131  0.0011  0.0007  0.0114  0.0141  0.0014  0.0421  0.1957  0.0443 </r>
        <r>  0.0333  0.0001  0.0003  0.0141  0.0020  0.0036  0.1374  0.0529  0.0531 </r>
        <r>  0.0012  0.0018  0.0001  0.0110  0.0223  0.0377  0.0001  0.0742  0.0620 </r>
        <r>  0.0005  0.0001  0.0000  0.0000  0.0000  0.0000  0.0000  0.0000  0.0000 </r>
       </set>
       <set comment="band 3">
        <r>  0.0012  0.0011  0.0004  0.0037  0.0105  0.0027  0.0020  0.0317  0.0110 </r>
        <r>  0.0153  0.0046  0.0001  0.0023  0.0397  0.0373  0.0764  0.0013  0.0082 </r>
        <r>  0.0037  0.0001  0.0008  0.0001  0.0000  0.0127  0.0283  0.3400  0.0003 </r>
        <r>  0.0052  0.0012  0.0012  0.0094  0.0087  0.0089  0.0102  0.1524  0.0478 </r>
        <r>  0.0000  0.0001  0.0001  0.0000  0.0000  0.0000  0.0000  0.0000  0.0000 </r>
       </set>
       <set comment="band 4">
        <r>  0.0057  0.0001  0.0016  0.0138  0.0001  0.0035  0.0057  0.1194  0.0457 </r>
        <r>  0.0138  0.0063  0.0004  0.0024  0.0476  0.0008  0.0812  0.2416  0.0109 </r>
        <r>  0.0001  0.0166  0.0003  0.0011  0.1426  0.0353  0.0002  0.0141  0.0057 </r>
        <r>  0.0001  0.0005  0.0000  0.0009  0.0066  0.0045  0.0002  0.0348  0.0057 </r>
        <r>  0.0001  0.0000  0.0000  0.0000  0.0000  0.0000  0.0000  0.0000  0.0000 </r>
       </set>
       <set comment="band 5">
        <r>  0.0000  0.0042  0.0000  0.0003  0.0380  0.0203  0.0003  0.0038  0.0008 </r>
        <r>  0.0012  0.0122  0.0001  0.0018  0.1247  0.0024  0.0289  0.0231  0.0096 </r>
        <r>  0.0010  0.0044  0.0000  0.0132  0.0455  0.0584  0.0542  0.0002  0.0506 </r>
        <r>  0.0004  0.0124  0.0000  0.0002  0.1861  0.1037  0.0013  0.0712  0.0035 </r>
        <r>  0.0009  0.0000  0.0000  0.0000  0.0000  0.0000  0.0000  0.0000  0.0000 </r>
       </set>
       <set comment="band 6">
        <r>  0.0072  0.0032  0.0029  0.0014  0.0280  0.0211  0.0482  0.0202  0.0041 </r>
        <r>  0.0003  0.0075  0.0005  0.0297  0.1055  0.0284  0.0213  0.0449  0.1445 </r>
        <r>  0.0006  0.0138  0.0006  0.0101  0.1801  0.0157  0.0004  0.0055  0.0480 </r>
        <r>  0.0041  0.0001  0.0011  0.0006  0.0007  0.0000  0.0447  0.0167  0.0042 </r>
        <r>  0.0000  0.0000  0.0000  0.0000  0.0000  0.0000  0.0000  0.0000  0.0000 </r>
       </set>
       <set comment="band 7">
        <r>  0.0046  0.0078  0.0020  0.0008  0.0726  0.0456  0.0409  0.0275  0.0012 </r>
        <r>  0.0012  0.0092  0.0000  0.0016  0.1290  0.2370  0.0213  0.0146  0.0027 </r>
        <r>  0.0005  0.0000  0.0006  0.0005  0.0011  0.1328  0.0003  0.0289  0.0078 </r>
        <r>  0.0041  0.0026  0.0008  0.0004  0.0452  0.0109  0.0363  0.0051  0.0051 </r>
        <r>  0.0000  0.0000  0.0000  0.0000  0.0000  0.0000  0.0000  0.0000  0.0000 </r>
       </set>
       <set comment="band 8">
        <r>  0.0032  0.0013  0.0016  0.0016  0.0148  0.0051  0.0457  0.0237  0.0077 </r>
        <r>  0.0013  0.0074  0.0003  0.0019  0.0955  0.0147  0.0296  0.0428  0.0088 </r>
        <r>  0.0001  0.0066  0.0017  0.0110  0.0887  0.0666  0.0092  0.0436  0.0627 </r>
        <r>  0.0059  0.0007  0.0023  0.0044  0.0178  0.0240  0.1817  0.0273  0.0439 </r>
        <r>  0.0003  0.0000  0.0000  0.0001  0.0000  0.0000  0.0000  0.0000  0.0000 </r>
       </set>
       <set comment="band 9">
        <r>  0.0015  0.0002  0.0005  0.0001  0.0054  0.0014  0.0160  0.0096  0.0000 </r>
        <r>  0.0004  0.0007  0.0002  0.0075  0.0146  0.1139  0.0058  0.0024  0.0644 </r>
        <r>  0.0008  0.0000  0.0043  0.0024  0.0009  0.0117  0.0169  0.0086  0.0103 </r>
        <r>  0.0035  0.0079  0.0000  0.0211  0.2228  0.0919  0.0004  0.0242  0.2316 </r>
        <r>  0.0003  0.0003  0.0000  0.0008  0.0000  0.0000  0.0000  0.0000  0.0000 </r>
       </set>
       <set comment="band 10">
        <r>  0.0021  0.0001  0.0006  0.0001  0.0046  0.0043  0.0192  0.0024  0.0015 </r>
        <r>  0.0012  0.0007  0.0000  0.0161  0.0174  0.0992  0.0042  0.0193  0.1377 </r>
        <r>  0.0003  0.0007  0.0103  0.0000  0.0077  0.0143  0.0083  0.0018  0.0000 </r>
        <r>  0.0001  0.0001  0.0002  0.0003  0.0008  0.3657  0.0069  0.1730  0.0004 </r>
        <r>  0.0001  0.0009  0.0000  0.0008  0.0000  0.0000  0.0000  0.0000  0.0000 </r>
       </set>
       <set comment="band 11">
        <r>  0.0009  0.0158  0.0002  0.0046  0.2960  0.0158  0.0001  0.0967  0.0361 </r>
        <r>  0.0001  0.0000  0.0183  0.0002  0.0003  0.0011  0.0007  0.0003  0.0009 </r>
        <r>  0.0009  0.0035  0.0000  0.0150  0.0893  0.0879  0.0082  0.0313  0.1522 </r>
        <r>  0.0009  0.0001  0.0001  0.0000  0.0018  0.0001  0.0277  0.0015  0.0000 </r>
        <r>  0.0001  0.0000  0.0000  0.0000  0.0000  0.0000  0.0000  0.0000  0.0000 </r>
       </set>
       <set comment="band 12">
        <r>  0.0002  0.0092  0.0000  0.0032  0.3138  0.4032  0.0039  0.0324  0.0476 </r>
        <r>  0.0003  0.0006  0.0027  0.0019  0.0131  0.0069  0.0190  0.0047  0.0187 </r>
        <r>  0.0003  0.0004  0.0001  0.0011  0.0165  0.0020  0.0008  0.0043  0.0190 </r>
        <r>  0.0000  0.0000  0.0000  0.0000  0.0000  0.0001  0.0040  0.0019  0.0017 </r>
        <r>  0.0000  0.0000  0.0000  0.0000  0.0000  0.0000  0.0000  0.0000  0.0000 </r>
       </set>
       <set comment="band 13">
        <r>  0.0034  0.0000  0.0001  0.0323  0.0010  0.0091  0.0164  0.3481  0.4699 </r>
        <r>  0.0001  0.0000  0.0000  0.0000  0.0024  0.0004  0.0020  0.0059  0.0001 </r>
        <r>  0.0000  0.0002  0.0001  0.0000  0.0096  0.0008  0.0022  0.0030  0.0004 </r>
        <r>  0.0000  0.0000  0.0000  0.0000  0.0000  0.0002  0.0016  0.0016  0.0024 </r>
        <r>  0.0000  0.0000  0.0000  0.0000  0.0000  0.0000  0.0000  0.0000  0.0000 </r>
       </set>
       <set comment="band 14">
        <r>  0.0001  0.0000  0.0000  0.0017  0.0000  0.0017  0.0010  0.0017  0.0298 </r>
        <r>  0.0001  0.0003  0.0012  0.0007  0.0180  0.0101  0.0052  0.0159  0.0129 </r>
        <r>  0.0001  0.0022  0.0000  0.0002  0.1994  0.1431  0.0001  0.1309  0.0069 </r>
        <r>  0.0000  0.0001  0.0001  0.0006  0.0494  0.1112  0.0696  0.0559  0.0938 </r>
        <r>  0.0010  0.0000  0.0001  0.0000  0.0000  0.0000  0.0000  0.0000  0.0000 </r>
       </set>
       <set comment="band 15">
        <r>  0.0002  0.0000  0.0001  0.0004  0.0006  0.0081  0.0103  0.0002  0.0080 </r>
        <r>  0.0002  0.0006  0.0001  0.0002  0.0852  0.0476  0.0007  0.0326  0.0165 </r>
        <r>  0.0005  0.0003  0.0000  0.0048  0.0447  0.0863  0.0541  0.0045  0.2985 </r>
        <r>  0.0012  0.0000  0.0002  0.0001  0.0153  0.0360  0.1926  0.0057  0.0132 </r>
        <r>  0.0000  0.0000  0.0000  0.0001  0.0000  0.0000  0.0000  0.0000  0.0000 </r>
       </set>
       <set comment="band 16">
        <r>  0.0005  0.0000  0.0000  0.0004  0.0042  0.0653  0.0584  0.0275  0.0189 </r>
        <r>  0.0000  0.0000  0.0000  0.0000  0.1005  0.0005  0.0016  0.0688  0.0104 </r>
        <r>  0.0002  0.0000  0.0002  0.0001  0.0000  0.1484  0.0022  0.1223  0.0110 </r>
        <r>  0.0001  0.0000  0.0019  0.0002  0.0005  0.0006  0.3190  0.0020  0.0089 </r>
        <r>  0.0002  0.0000  0.0000  0.0001  0.0000  0.0000  0.0000  0.0000  0.0000 </r>
       </set>
       <set comment="band 17">
        <r>  0.0006  0.0002  0.0001  0.0003  0.0345  0.2358  0.0013  0.0614  0.0270 </r>
        <r>  0.0006  0.0000  0.0000  0.0005  0.0235  0.1471  0.0301  0.0051  0.2159 </r>
        <r>  0.0008  0.0000  0.0002  0.0000  0.0064  0.0584  0.0674  0.0176  0.0013 </r>
        <r>  0.0000  0.0000  0.0002  0.0000  0.0014  0.0043  0.0218  0.0049  0.0056 </r>
        <r>  0.0001  0.0000  0.0000  0.0000  0.0000  0.0000  0.0000  0.0000  0.0000 </r>
       </set>
       <set comment="band 18">
        <r>  0.0001  0.0001  0.0003  0.0000  0.0012  0.0058  0.1184  0.0640  0.0205 </r>
        <r>  0.0001  0.0000  0.0000  0.0000  0.0003  0.1580  0.1194  0.0123  0.0204 </r>
        <r>  0.0000  0.0001  0.0004  0.0003  0.0050  0.0001  0.3228  0.0402  0.0001 </r>
        <r>  0.0000  0.0000  0.0003  0.0001  0.0042  0.0052  0.0234  0.0181  0.0434 </r>
        <r>  0.0001  0.0001  0.0000  0.0000  0.0000  0.0000  0.0000  0.0000  0.0000 </r>
       </set>
       <set comment="band 19">
        <r>  0.0005  0.0000  0.0010  0.0001  0.0099  0.0412  0.3896  0.0000  0.0051 </r>
        <r>  0.0000  0.0000  0.0000  0.0000  0.0248  0.0034  0.0581  0.1561  0.0003 </r>
        <r>  0.0000  0.0001  0.0004  0.0000  0.0000  0.0049  0.1887  0.0227  0.0454 </r>
        <r>  0.0000  0.0000  0.0000  0.0001  0.0046  0.0081  0.0007  0.0065  0.0112 </r>
        <r>  0.0000  0.0000  0.0000  0.0000  0.0000  0.0000  0.0000  0.0000  0.0000 </r>
       </set>
       <set comment="band 20">
        <r>  0.0005  0.0000  0.0005  0.0005  0.0158  0.0308  0.1608  0.0340  0.0877 </r>
        <r>  0.0002  0.0000  0.0001  0.0002  0.0014  0.0162  0.3859  0.0076  0.0955 </r>
        <r>  0.0000  0.0000  0.0001  0.0001  0.0168  0.0391  0.0250  0.0183  0.0434 </r>
        <r>  0.0000  0.0001  0.0000  0.0000  0.0030  0.0036  0.0006  0.0002  0.0001 </r>
        <r>  0.0001  0.0000  0.0000  0.0000  0.0000  0.0000  0.0000  0.0000  0.0000 </r>
       </set>
       <set comment="band 21">
        <r>  0.0000  0.0000  0.0000  0.0000  0.0000  0.0000  0.0001  0.0000  0.0000 </r>
        <r>  0.0013  0.0000  0.0006  0.0001  0.0003  0.0002  0.0028  0.0001  0.0008 </r>
        <r>  0.0053  0.0009  0.0015  0.0074  0.0027  0.0047  0.0095  0.0095  0.0223 </r>
        <r>  0.0190  0.0110  0.0006  0.0913  0.0882  0.0427  0.0035  0.0661  0.2719 </r>
        <r>  0.1440  0.0000  0.0000  0.0007  0.0000  0.0000  0.0000  0.0000  0.0000 </r>
       </set>
       <set comment="band 22">
        <r>  0.0335  0.0002  0.0058  0.0383  0.0003  0.0005  0.0148  0.0102  0.0540 </r>
        <r>  0.0634  0.0000  0.0001  0.1125  0.0001  0.0000  0.0169  0.0003  0.1350 </r>
        <r>  0.0419  0.0013  0.0050  0.0581  0.0019  0.0001  0.0136  0.0078  0.0731 </r>
        <r>  0.0048  0.0014  0.0049  0.0004  0.0040  0.0042  0.0047  0.0128  0.0004 </r>
        <r>  0.0105  0.0000  0.0000  0.0000  0.0000  0.0000  0.0000  0.0000  0.0000 </r>
       </set>
       <set comment="band 23">
        <r>  0.0321  0.0003  0.0001  0.1030  0.0005  0.0002  0.0014  0.0034  0.0801 </r>
        <r>  0.0048  0.0042  0.0269  0.0085  0.0043  0.0004  0.0004  0.0243  0.0069 </r>
        <r>  0.0306  0.0006  0.0086  0.0898  0.0006  0.0039  0.0012  0.0017  0.0674 </r>
        <r>  0.0337  0.0185  0.0102  0.0067  0.0264  0.0068  0.0084  0.0292  0.0041 </r>
        <r>  0.0272  0.0001  0.0001  0.0008  0.0000  0.0000  0.0000  0.0000  0.0000 </r>
       </set>
       <set comment="band 24">
        <r>  0.0028  0.0006  0.0024  0.0454  0.0007  0.0002  0.0006  0.0000  0.0233 </r>
        <r>  0.0043  0.0051  0.0186  0.0100  0.0040  0.0001  0.0000  0.0040  0.0060 </r>
        <r>  0.0264  0.0031  0.0306  0.0390  0.0029  0.0005  0.0159  0.0070  0.0122 </r>
        <r>  0.0246  0.1203  0.0011  0.0636  0.1036  0.0002  0.0001  0.0028  0.0254 </r>
        <r>  0.0145  0.0016  0.0000  0.0062  0.0000  0.0000  0.0000  0.0000  0.0000 </r>
       </set>
       <set comment="band 25">
        <r>  0.0067  0.0281  0.0113  0.0432  0.0225  0.0054  0.0070  0.0000  0.0149 </r>
        <r>  0.0998  0.0039  0.0007  0.1086  0.0030  0.0011  0.0410  0.0000  0.0281 </r>
        <r>  0.0028  0.0776  0.0035  0.0363  0.0598  0.0056  0.0043  0.0001  0.0128 </r>
        <r>  0.0078  0.0037  0.0008  0.0005  0.0017  0.0059  0.0009  0.0122  0.0000 </r>
        <r>  0.0043  0.0001  0.0001  0.0004  0.0000  0.0000  0.0000  0.0000  0.0000 </r>
       </set>
       <set comment="band 26">
        <r>  0.0444  0.0328  0.0017  0.0046  0.0260  0.0059  0.0054  0.0027  0.0051 </r>
        <r>  0.0000  0.1219  0.0162  0.0143  0.0938  0.0024  0.0008  0.0040  0.0056 </r>
        <r>  0.0846  0.0478  0.0145  0.0111  0.0373  0.0000  0.0202  0.0019  0.0009 </r>
        <r>  0.0604  0.0006  0.0023  0.0045  0.0004  0.0000  0.0098  0.0013  0.0001 </r>
        <r>  0.0000  0.0008  0.0000  0.0004  0.0000  0.0000  0.0000  0.0000  0.0000 </r>
       </set>
       <set comment="band 27">
        <r>  0.0346  0.0249  0.0162  0.0391  0.0168  0.0015  0.0113  0.0003  0.0087 </r>
        <r>  0.0183  0.0690  0.0001  0.0097  0.0467  0.0134  0.0004  0.0024  0.0052 </r>
        <r>  0.0009  0.0264  0.0073  0.0105  0.0184  0.0085  0.0011  0.0219  0.0033 </r>
        <r>  0.1518  0.0164  0.0010  0.0353  0.0096  0.0001  0.0197  0.0002  0.0036 </r>
        <r>  0.0000  0.0053  0.0000  0.0004  0.0000  0.0000  0.0000  0.0000  0.0000 </r>
       </set>
       <set comment="band 28">
        <r>  0.0697  0.1130  0.0072  0.0104  0.0692  0.0007  0.0025  0.0163  0.0063 </r>
        <r>  0.0850  0.0075  0.0088  0.0063  0.0047  0.0050  0.0030  0.0149  0.0052 </r>
        <r>  0.0041  0.0014  0.0157  0.0185  0.0008  0.0046  0.0021  0.0049  0.0045 </r>
        <r>  0.0509  0.0025  0.0243  0.0121  0.0012  0.0009  0.0034  0.0079  0.0012 </r>
        <r>  0.0012  0.0022  0.0003  0.0031  0.0000  0.0000  0.0000  0.0000  0.0000 </r>
       </set>
      </set>
     </set>
    </set>
   </array>
  </projected>
 </calculation>
 <structure name="finalpos" >
  <crystal>
   <varray name="basis" >
    <v>       2.57386868       0.00000000       0.00000000 </v>
    <v>       1.28693434       2.22903567       0.00000000 </v>
    <v>       0.00000000       0.00000000      30.30466494 </v>
   </varray>
   <i name="volume">    173.86529028 </i>
   <varray name="rec_basis" >
    <v>       0.38852021      -0.22431225       0.00000000 </v>
    <v>       0.00000000       0.44862450       0.00000000 </v>
    <v>       0.00000000       0.00000000       0.03299822 </v>
   </varray>
  </crystal>
  <varray name="positions" >
   <v>       0.00000000       0.00000000       0.39644028 </v>
   <v>       0.33333207       0.33333249       0.46515182 </v>
   <v>       0.66666803       0.66666497       0.53391615 </v>
   <v>       0.00000000       0.00000000       0.60674388 </v>
   <v>       0.33333207       0.33333249       0.63806711 </v>
  </varray>
 </structure>
</modeling>
