unknown system                          
           1
     2.573869    0.000000    0.000000
     1.286934    2.229036    0.000000
     0.000000    0.000000   30.304665
   Cu   H 
   4   1
Direct configuration=     1
   0.00000000  0.00000000  0.39644028
   0.33333207  0.33333249  0.46515182
   0.66666803  0.66666497  0.53391615
   0.00000000  0.00000000  0.60674388
   0.33333207  0.33333249  0.63806711
