unknown system                          
   1.00000000000000     
     2.573869    0.000000    0.000000
     1.286934    2.229036    0.000000
     0.000000    0.000000   30.304665
   Cu   H 
     4     1
Direct
  0.000000  0.000000  0.395979
  0.333333  0.333333  0.465326
  0.666667  0.666667  0.534674
  0.000000  0.000000  0.604021
  0.038852  0.000000  0.663418
 
   20   20  240
 -.59793E-02 -.52689E-02 -.37876E-02 -.18891E-02 -.47252E-04 0.12194E-02 0.14914E-02 0.66777E-03 -.86772E-03 -.23309E-02
 -.29301E-02 -.23456E-02 -.94220E-03 0.45878E-03 0.10732E-02 0.55601E-03 -.91600E-03 -.28308E-02 -.45994E-02 -.57415E-02
 -.53844E-02 -.42804E-02 -.25801E-02 -.73361E-03 0.68221E-03 0.10958E-02 0.19148E-03 -.18188E-02 -.41325E-02 -.56741E-02
 -.56810E-02 -.41725E-02 -.19459E-02 -.96582E-04 0.58457E-03 -.58999E-04 -.16227E-02 -.34481E-02 -.49183E-02 -.56194E-02
 -.39783E-02 -.26580E-02 -.10335E-02 0.25350E-03 0.39284E-03 -.12716E-02 -.47671E-02 -.91887E-02 -.12916E-01 -.14376E-01
 -.12929E-01 -.92496E-02 -.49354E-02 -.16133E-02 -.15972E-03 -.48148E-03 -.18382E-02 -.33554E-02 -.43852E-02 -.46085E-02
 -.21026E-02 -.84329E-03 0.21580E-03 0.81361E-04 -.23298E-02 -.75221E-02 -.14751E-01 -.21931E-01 -.26435E-01 -.26437E-01
 -.21951E-01 -.14829E-01 -.77131E-02 -.26843E-02 -.44783E-03 -.43200E-03 -.14848E-02 -.25784E-02 -.31306E-02 -.29545E-02
 -.23982E-03 0.57746E-03 0.34806E-03 -.23425E-02 -.86145E-02 -.18284E-01 -.29271E-01 -.38106E-01 -.41501E-01 -.38111E-01
 -.29299E-01 -.18369E-01 -.88026E-02 -.26669E-02 -.10143E-03 0.74376E-04 -.68006E-03 -.13533E-02 -.15146E-02 -.10955E-02
 0.10721E-02 0.10156E-02 -.13075E-02 -.75350E-02 -.18287E-01 -.32088E-01 -.45285E-01 -.53416E-01 -.53416E-01 -.45290E-01
 -.32115E-01 -.18366E-01 -.76980E-02 -.15691E-02 0.68163E-03 0.73410E-03 0.12902E-03 -.26883E-03 -.17488E-03 0.38211E-03
 0.13953E-02 0.14094E-03 -.47894E-02 -.14760E-01 -.29275E-01 -.45287E-01 -.57956E-01 -.62789E-01 -.57952E-01 -.45285E-01
 -.29293E-01 -.14820E-01 -.49124E-02 -.43983E-04 0.11793E-02 0.68735E-03 -.56001E-04 -.32555E-03 0.58457E-04 0.88074E-03
 0.61666E-03 -.18433E-02 -.91987E-02 -.21936E-01 -.38110E-01 -.53420E-01 -.62791E-01 -.62788E-01 -.53411E-01 -.38102E-01
 -.21943E-01 -.92385E-02 -.19249E-02 0.50331E-03 -.61627E-04 -.15918E-02 -.26692E-02 -.26369E-02 -.15041E-02 0.55670E-04
 -.88633E-03 -.41387E-02 -.12918E-01 -.26437E-01 -.41506E-01 -.53421E-01 -.57957E-01 -.53413E-01 -.41495E-01 -.26431E-01
 -.12925E-01 -.41642E-02 -.92953E-03 -.19512E-02 -.49680E-02 -.77735E-02 -.88709E-02 -.77448E-02 -.49200E-02 -.18986E-02
 -.23317E-02 -.56716E-02 -.14375E-01 -.26438E-01 -.38115E-01 -.45293E-01 -.45288E-01 -.38103E-01 -.26431E-01 -.14378E-01
 -.56817E-02 -.23445E-02 -.41944E-02 -.93116E-02 -.14941E-01 -.18516E-01 -.18511E-01 -.14929E-01 -.92971E-02 -.41808E-02
 -.29254E-02 -.56763E-02 -.12926E-01 -.21948E-01 -.29294E-01 -.32107E-01 -.29284E-01 -.21936E-01 -.12920E-01 -.56798E-02
 -.29340E-02 -.57142E-02 -.13009E-01 -.22099E-01 -.29512E-01 -.32358E-01 -.29515E-01 -.22101E-01 -.13008E-01 -.57070E-02
 -.23390E-02 -.41618E-02 -.92327E-02 -.14803E-01 -.18335E-01 -.18328E-01 -.14784E-01 -.92108E-02 -.41473E-02 -.23367E-02
 -.57119E-02 -.14467E-01 -.26607E-01 -.38374E-01 -.45620E-01 -.45626E-01 -.38384E-01 -.26613E-01 -.14464E-01 -.57062E-02
 -.92385E-03 -.19102E-02 -.48784E-02 -.76350E-02 -.87099E-02 -.76027E-02 -.48282E-02 -.18621E-02 -.89113E-03 -.41761E-02
 -.13003E-01 -.26606E-01 -.41785E-01 -.53803E-01 -.58385E-01 -.53810E-01 -.41796E-01 -.26614E-01 -.13011E-01 -.41925E-02
 0.51080E-03 -.51689E-05 -.14796E-02 -.25162E-02 -.24821E-02 -.13910E-02 0.10572E-03 0.61151E-03 -.18855E-02 -.92792E-02
 -.22086E-01 -.38370E-01 -.53801E-01 -.63256E-01 -.63259E-01 -.53810E-01 -.38385E-01 -.22112E-01 -.93240E-02 -.19585E-02
 0.11837E-02 0.76156E-03 0.80630E-04 -.16434E-03 0.19282E-03 0.95145E-03 0.13969E-02 0.91012E-04 -.48766E-02 -.14896E-01
 -.29492E-01 -.45613E-01 -.58382E-01 -.63257E-01 -.58387E-01 -.45627E-01 -.29526E-01 -.14968E-01 -.50053E-02 -.94218E-04
 0.73792E-03 0.21481E-03 -.12923E-03 -.36537E-04 0.46645E-03 0.10788E-02 0.95529E-03 -.14096E-02 -.76666E-02 -.18463E-01
 -.32335E-01 -.45615E-01 -.53805E-01 -.53807E-01 -.45626E-01 -.32370E-01 -.18553E-01 -.78438E-02 -.16851E-02 0.61182E-03
 -.67464E-03 -.12720E-02 -.14034E-02 -.10149E-02 -.23163E-03 0.50889E-03 0.22900E-03 -.24816E-02 -.87642E-02 -.18459E-01
 -.29492E-01 -.38374E-01 -.41790E-01 -.38381E-01 -.29524E-01 -.18554E-01 -.89690E-02 -.28263E-02 -.23809E-03 -.44546E-05
 -.25706E-02 -.30709E-02 -.28965E-02 -.20957E-02 -.90681E-03 0.96942E-04 -.60471E-04 -.24688E-02 -.76536E-02 -.14887E-01
 -.22086E-01 -.26606E-01 -.26610E-01 -.22110E-01 -.14971E-01 -.78561E-02 -.28421E-02 -.61229E-03 -.56919E-03 -.15561E-02
 -.43793E-02 -.45805E-02 -.39710E-02 -.27003E-02 -.11257E-02 0.13455E-03 0.27509E-03 -.13728E-02 -.48539E-02 -.92714E-02
 -.13001E-01 -.14462E-01 -.13011E-01 -.93295E-02 -.50261E-02 -.17277E-02 -.29699E-03 -.61970E-03 -.19437E-02 -.34036E-02
 -.56170E-02 -.53788E-02 -.42942E-02 -.26242E-02 -.80029E-03 0.61151E-03 0.10358E-02 0.14451E-03 -.18589E-02 -.41702E-02
 -.57080E-02 -.57091E-02 -.41990E-02 -.19812E-02 -.15012E-03 0.51197E-03 -.14091E-03 -.16975E-02 -.34997E-02 -.49394E-02
 0.15667E-02 0.15491E-02 0.13848E-02 0.11165E-02 0.81946E-03 0.56222E-03 0.37799E-03 0.26329E-03 0.19671E-03 0.15953E-03
 0.14577E-03 0.16088E-03 0.21407E-03 0.30998E-03 0.44506E-03 0.61144E-03 0.80401E-03 0.10201E-02 0.12473E-02 0.14488E-02
 0.15164E-02 0.14476E-02 0.12628E-02 0.99492E-03 0.69204E-03 0.39585E-03 0.13163E-03 -.87820E-04 -.25177E-03 -.34460E-03
 -.34779E-03 -.25020E-03 -.60026E-04 0.19177E-03 0.46265E-03 0.71872E-03 0.94796E-03 0.11541E-02 0.13354E-02 0.14690E-02
 0.13248E-02 0.12352E-02 0.10496E-02 0.77849E-03 0.44192E-03 0.65759E-04 -.31495E-03 -.65235E-03 -.89062E-03 -.98012E-03
 -.89460E-03 -.64426E-03 -.27827E-03 0.12807E-03 0.50017E-03 0.79287E-03 0.10022E-02 0.11511E-02 0.12598E-02 0.13253E-02
 0.10514E-02 0.95945E-03 0.76715E-03 0.45909E-03 0.37864E-04 -.46612E-03 -.98577E-03 -.14233E-02 -.16774E-02 -.16804E-02
 -.14259E-02 -.97297E-03 -.42652E-03 0.98149E-04 0.51331E-03 0.78482E-03 0.93302E-03 0.10072E-02 0.10495E-02 0.10707E-02
 0.77228E-03 0.66701E-03 0.43308E-03 0.36237E-04 -.52098E-03 -.11793E-02 -.18198E-02 -.22927E-02 -.24702E-02 -.22988E-02
 -.18223E-02 -.11639E-02 -.47963E-03 0.95709E-04 0.48791E-03 0.69573E-03 0.77283E-03 0.78966E-03 0.79548E-03 0.79905E-03
 0.54240E-03 0.38735E-03 0.63702E-04 -.46652E-03 -.11798E-02 -.19689E-02 -.26585E-02 -.30640E-02 -.30666E-02 -.26636E-02
 -.19685E-02 -.11627E-02 -.42629E-03 0.11992E-03 0.44113E-03 0.57762E-03 0.60731E-03 0.60222E-03 0.59921E-03 0.59265E-03
 0.37881E-03 0.13404E-03 -.31336E-03 -.98618E-03 -.18217E-02 -.26601E-02 -.32876E-02 -.35211E-02 -.32889E-02 -.26616E-02
 -.18185E-02 -.97000E-03 -.28004E-03 0.17823E-03 0.42030E-03 0.51407E-03 0.53457E-03 0.53217E-03 0.52191E-03 0.48603E-03
 0.27088E-03 -.83455E-04 -.65114E-03 -.14247E-02 -.22956E-02 -.30667E-02 -.35223E-02 -.35222E-02 -.30670E-02 -.22960E-02
 -.14221E-02 -.64107E-03 -.64039E-04 0.29615E-03 0.49042E-03 0.58277E-03 0.61690E-03 0.61110E-03 0.56618E-03 0.46632E-03
 0.20087E-03 -.25023E-03 -.89053E-03 -.16786E-02 -.24723E-02 -.30684E-02 -.32891E-02 -.30660E-02 -.24715E-02 -.16816E-02
 -.89373E-03 -.24747E-03 0.21140E-03 0.51109E-03 0.70196E-03 0.81413E-03 0.85085E-03 0.80843E-03 0.69065E-03 0.49715E-03
 0.15835E-03 -.34502E-03 -.97926E-03 -.16796E-02 -.22989E-02 -.26634E-02 -.26596E-02 -.22926E-02 -.16791E-02 -.98480E-03
 -.34835E-03 0.16345E-03 0.55117E-03 0.84316E-03 0.10540E-02 0.11709E-02 0.11717E-02 0.10533E-02 0.83646E-03 0.54117E-03
 0.14269E-03 -.34770E-03 -.89257E-03 -.14246E-02 -.18227E-02 -.19689E-02 -.18170E-02 -.14189E-02 -.89067E-03 -.34690E-03
 0.14722E-03 0.57841E-03 0.95365E-03 0.12659E-02 0.14828E-02 0.15633E-02 0.14859E-02 0.12665E-02 0.94836E-03 0.57064E-03
 0.15840E-03 -.25083E-03 -.64584E-03 -.97812E-03 -.11722E-02 -.11712E-02 -.97603E-03 -.64415E-03 -.24854E-03 0.16360E-03
 0.57912E-03 0.99458E-03 0.13869E-02 0.17050E-02 0.18871E-02 0.18892E-02 0.17084E-02 0.13863E-02 0.98858E-03 0.57142E-03
 0.20945E-03 -.68210E-04 -.29282E-03 -.44786E-03 -.50471E-03 -.45060E-03 -.30029E-03 -.78859E-04 0.20249E-03 0.54812E-03
 0.95493E-03 0.13892E-02 0.17854E-02 0.20668E-02 0.21709E-02 0.20706E-02 0.17862E-02 0.13827E-02 0.94611E-03 0.54578E-03
 0.29630E-03 0.16768E-03 0.93279E-04 0.56049E-04 0.51860E-04 0.79235E-04 0.14367E-03 0.26964E-03 0.49446E-03 0.83699E-03
 0.12677E-02 0.17097E-02 0.20697E-02 0.22713E-02 0.22719E-02 0.20687E-02 0.17037E-02 0.12609E-02 0.83950E-03 0.51195E-03
 0.41753E-03 0.42128E-03 0.44920E-03 0.45942E-03 0.43660E-03 0.39487E-03 0.38004E-03 0.45820E-03 0.68097E-03 0.10457E-02
 0.14843E-02 0.18924E-02 0.21747E-02 0.22730E-02 0.21695E-02 0.18853E-02 0.14827E-02 0.10577E-02 0.70955E-03 0.49718E-03
 0.57440E-03 0.67191E-03 0.74478E-03 0.74195E-03 0.65889E-03 0.54347E-03 0.48051E-03 0.55243E-03 0.79251E-03 0.11612E-02
 0.15633E-02 0.18931E-02 0.20731E-02 0.20686E-02 0.18842E-02 0.15621E-02 0.11795E-02 0.83336E-03 0.60571E-03 0.52893E-03
 0.77158E-03 0.91739E-03 0.98303E-03 0.92637E-03 0.77055E-03 0.59880E-03 0.51573E-03 0.59285E-03 0.83087E-03 0.11616E-02
 0.14847E-02 0.17109E-02 0.17874E-02 0.17023E-02 0.14803E-02 0.11784E-02 0.87666E-03 0.65696E-03 0.57327E-03 0.62853E-03
 0.10074E-02 0.11575E-02 0.11771E-02 0.10478E-02 0.82673E-03 0.61988E-03 0.52729E-03 0.59334E-03 0.79133E-03 0.10449E-02
 0.12663E-02 0.13892E-02 0.13840E-02 0.12597E-02 0.10563E-02 0.83437E-03 0.65983E-03 0.58744E-03 0.64228E-03 0.80455E-03
 0.12571E-02 0.13722E-02 0.13247E-02 0.11256E-02 0.85784E-03 0.63109E-03 0.52398E-03 0.55271E-03 0.67757E-03 0.83180E-03
 0.95094E-03 0.99296E-03 0.94855E-03 0.84070E-03 0.71333E-03 0.61471E-03 0.58511E-03 0.65034E-03 0.81321E-03 0.10402E-02
 0.14659E-02 0.15179E-02 0.14026E-02 0.11545E-02 0.86312E-03 0.62327E-03 0.48803E-03 0.45582E-03 0.48881E-03 0.54053E-03
 0.57499E-03 0.57590E-03 0.54913E-03 0.51791E-03 0.51101E-03 0.55135E-03 0.65261E-03 0.81988E-03 0.10429E-02 0.12820E-02
 0.63734E-02 0.56646E-02 0.41896E-02 0.22990E-02 0.46190E-03 -.80689E-03 -.10894E-02 -.28226E-03 0.12358E-02 0.26866E-02
 0.32822E-02 0.27033E-02 0.13123E-02 -.73565E-04 -.67390E-03 -.14662E-03 0.13295E-02 0.32422E-02 0.50044E-02 0.61395E-02
 0.57804E-02 0.46777E-02 0.29862E-02 0.11484E-02 -.26715E-03 -.69059E-03 0.19955E-03 0.21975E-02 0.45019E-02 0.60367E-02
 0.60410E-02 0.45379E-02 0.23250E-02 0.49211E-03 -.17703E-03 0.47179E-03 0.20365E-02 0.38607E-02 0.53269E-02 0.60211E-02
 0.43805E-02 0.30639E-02 0.14443E-02 0.15812E-03 0.12730E-04 0.16665E-02 0.51517E-02 0.95665E-02 0.13290E-01 0.14749E-01
 0.13303E-01 0.96271E-02 0.53211E-02 0.20091E-02 0.56458E-03 0.89214E-03 0.22509E-02 0.37665E-02 0.47922E-02 0.50115E-02
 0.25124E-02 0.12575E-02 0.19517E-03 0.32141E-03 0.27252E-02 0.79131E-02 0.15138E-01 0.22312E-01 0.26811E-01 0.26814E-01
 0.22333E-01 0.15214E-01 0.81010E-02 0.30767E-02 0.84933E-03 0.84293E-03 0.18984E-02 0.29867E-02 0.35331E-02 0.33578E-02
 0.65430E-03 -.16343E-03 0.56129E-04 0.27370E-02 0.90062E-02 0.18675E-01 0.29657E-01 0.38482E-01 0.41872E-01 0.38487E-01
 0.29683E-01 0.18757E-01 0.91919E-02 0.30607E-02 0.50630E-03 0.34018E-03 0.10940E-02 0.17589E-02 0.19157E-02 0.15020E-02
 -.65990E-03 -.61163E-03 0.17006E-02 0.79241E-02 0.18678E-01 0.32474E-01 0.45657E-01 0.53775E-01 0.53775E-01 0.45661E-01
 0.32499E-01 0.18755E-01 0.80888E-02 0.19667E-02 -.27316E-03 -.32045E-03 0.27984E-03 0.67089E-03 0.57794E-03 0.28003E-04
 -.99367E-03 0.24902E-03 0.51724E-02 0.15145E-01 0.29660E-01 0.45658E-01 0.58308E-01 0.63130E-01 0.58304E-01 0.45658E-01
 0.29679E-01 0.15208E-01 0.53001E-02 0.43752E-03 -.77781E-03 -.28477E-03 0.45342E-03 0.72103E-03 0.34266E-03 -.47442E-03
 -.23140E-03 0.22213E-02 0.95757E-02 0.22316E-01 0.38485E-01 0.53778E-01 0.63132E-01 0.63128E-01 0.53767E-01 0.38478E-01
 0.22328E-01 0.96199E-02 0.23022E-02 -.12333E-03 0.44702E-03 0.19787E-02 0.30545E-02 0.30231E-02 0.18945E-02 0.33559E-03
 0.12545E-02 0.45081E-02 0.13292E-01 0.26814E-01 0.41876E-01 0.53780E-01 0.58309E-01 0.53770E-01 0.41862E-01 0.26807E-01
 0.13299E-01 0.45335E-02 0.12959E-02 0.23201E-02 0.53417E-02 0.81507E-02 0.92494E-02 0.81230E-02 0.52959E-02 0.22702E-02
 0.26877E-02 0.60344E-02 0.14748E-01 0.26816E-01 0.38490E-01 0.45666E-01 0.45661E-01 0.38481E-01 0.26807E-01 0.14747E-01
 0.60427E-02 0.27041E-02 0.45588E-02 0.96818E-02 0.15315E-01 0.18892E-01 0.18889E-01 0.15304E-01 0.96648E-02 0.45394E-02
 0.32774E-02 0.60363E-02 0.13299E-01 0.22329E-01 0.29677E-01 0.32492E-01 0.29672E-01 0.22322E-01 0.13295E-01 0.60406E-02
 0.32883E-02 0.60744E-02 0.13381E-01 0.22476E-01 0.29888E-01 0.32734E-01 0.29892E-01 0.22479E-01 0.13376E-01 0.60635E-02
 0.26960E-02 0.45267E-02 0.96096E-02 0.15188E-01 0.18723E-01 0.18717E-01 0.15173E-01 0.95928E-02 0.45162E-02 0.26954E-02
 0.60716E-02 0.14836E-01 0.26984E-01 0.38748E-01 0.45989E-01 0.45995E-01 0.38760E-01 0.26992E-01 0.14836E-01 0.60669E-02
 0.12930E-02 0.22886E-02 0.52633E-02 0.80218E-02 0.90982E-02 0.79932E-02 0.52161E-02 0.22393E-02 0.12564E-02 0.45391E-02
 0.13374E-01 0.26982E-01 0.42155E-01 0.54159E-01 0.58736E-01 0.54171E-01 0.42169E-01 0.26992E-01 0.13382E-01 0.45580E-02
 -.12608E-03 0.40024E-03 0.18749E-02 0.29080E-02 0.28757E-02 0.17890E-02 0.28838E-03 -.23170E-03 0.22534E-02 0.96484E-02
 0.22463E-01 0.38745E-01 0.54159E-01 0.63596E-01 0.63601E-01 0.54169E-01 0.38759E-01 0.22486E-01 0.96932E-02 0.23305E-02
 -.78399E-03 -.35416E-03 0.32382E-03 0.56576E-03 0.21292E-03 -.54125E-03 -.99381E-03 0.29500E-03 0.52499E-02 0.15269E-01
 0.29869E-01 0.45983E-01 0.58734E-01 0.63599E-01 0.58737E-01 0.45994E-01 0.29902E-01 0.15342E-01 0.53793E-02 0.47831E-03
 -.32771E-03 0.19768E-03 0.53908E-03 0.44725E-03 -.50676E-04 -.66276E-03 -.55029E-03 0.17977E-02 0.80437E-02 0.18838E-01
 0.32711E-01 0.45985E-01 0.54166E-01 0.54166E-01 0.45992E-01 0.32746E-01 0.18932E-01 0.82246E-02 0.20721E-02 -.21237E-03
 0.10885E-02 0.16847E-02 0.18145E-02 0.14275E-02 0.64615E-03 -.98126E-04 0.17051E-03 0.28680E-02 0.91424E-02 0.18836E-01
 0.29870E-01 0.38750E-01 0.42163E-01 0.38754E-01 0.29900E-01 0.18933E-01 0.93518E-02 0.32159E-02 0.63790E-03 0.41396E-03
 0.29816E-02 0.34818E-02 0.33055E-02 0.25023E-02 0.13119E-02 0.30577E-03 0.45696E-03 0.28553E-02 0.80310E-02 0.15261E-01
 0.22462E-01 0.26985E-01 0.26987E-01 0.22483E-01 0.15345E-01 0.82350E-02 0.32305E-02 0.10100E-02 0.97358E-03 0.19647E-02
 0.47835E-02 0.49876E-02 0.43761E-02 0.31011E-02 0.15258E-02 0.26819E-03 0.12609E-03 0.17630E-02 0.52289E-02 0.96379E-02
 0.13369E-01 0.14834E-01 0.13382E-01 0.96985E-02 0.53986E-02 0.21124E-02 0.69490E-03 0.10233E-02 0.23459E-02 0.38048E-02
 0.60144E-02 0.57795E-02 0.46960E-02 0.30265E-02 0.12060E-02 -.20177E-03 -.62962E-03 0.24661E-03 0.22300E-02 0.45281E-02
 0.60643E-02 0.60704E-02 0.45656E-02 0.23536E-02 0.53326E-03 -.11436E-03 0.54882E-03 0.21055E-02 0.39010E-02 0.53357E-02
 -.12998E-02 -.12671E-02 -.10600E-02 -.75193E-03 -.43926E-03 -.18630E-03 -.62578E-05 0.11847E-03 0.20654E-03 0.26350E-03
 0.28434E-03 0.26128E-03 0.19079E-03 0.78604E-04 -.61964E-04 -.22206E-03 -.40928E-03 -.63974E-03 -.90713E-03 -.11568E-02
 -.12325E-02 -.11382E-02 -.91258E-03 -.61712E-03 -.30955E-03 -.14523E-04 0.26663E-03 0.52669E-03 0.73709E-03 0.85779E-03
 0.85831E-03 0.73301E-03 0.50548E-03 0.22240E-03 -.64392E-04 -.32321E-03 -.55618E-03 -.78305E-03 -.10036E-02 -.11750E-02
 -.99748E-03 -.88478E-03 -.67833E-03 -.39730E-03 -.47082E-04 0.37244E-03 0.83723E-03 0.12803E-02 0.16059E-02 0.17280E-02
 0.16080E-02 0.12729E-02 0.80744E-03 0.32198E-03 -.91906E-04 -.39741E-03 -.61432E-03 -.78313E-03 -.92044E-03 -.10040E-02
 -.68450E-03 -.58209E-03 -.38719E-03 -.62827E-04 0.42474E-03 0.10640E-02 0.17673E-02 0.23821E-02 0.27452E-02 0.27483E-02
 0.23843E-02 0.17534E-02 0.10252E-02 0.37091E-03 -.10425E-03 -.39000E-03 -.54439E-03 -.63487E-03 -.69388E-03 -.71644E-03
 -.38958E-03 -.28506E-03 -.40459E-04 0.42464E-03 0.11456E-02 0.20550E-02 0.29733E-02 0.36632E-02 0.39232E-02 0.36702E-02
 0.29754E-02 0.20382E-02 0.11054E-02 0.37307E-03 -.82017E-04 -.30124E-03 -.38305E-03 -.41169E-03 -.42470E-03 -.42320E-03
 -.16319E-03 -.55801E-05 0.37270E-03 0.10621E-02 0.20543E-02 0.31940E-02 0.42095E-02 0.48123E-02 0.48167E-02 0.42182E-02
 0.31959E-02 0.20390E-02 0.10279E-02 0.32852E-03 -.45298E-04 -.18842E-03 -.21970E-03 -.21918E-03 -.21682E-03 -.20900E-03
 -.36098E-05 0.26561E-03 0.83502E-03 0.17661E-02 0.29737E-02 0.42104E-02 0.51446E-02 0.54943E-02 0.51486E-02 0.42153E-02
 0.29735E-02 0.17550E-02 0.81075E-03 0.23217E-03 -.37844E-04 -.12432E-03 -.13610E-03 -.13018E-03 -.12190E-03 -.97622E-04
 0.11310E-03 0.52338E-03 0.12790E-02 0.23827E-02 0.36652E-02 0.48146E-02 0.54954E-02 0.54941E-02 0.48128E-02 0.36656E-02
 0.23833E-02 0.12734E-02 0.50674E-03 0.87585E-04 -.89057E-04 -.14434E-03 -.15459E-03 -.14783E-03 -.12538E-03 -.62669E-04
 0.20266E-03 0.73525E-03 0.16051E-02 0.27455E-02 0.39247E-02 0.48185E-02 0.51493E-02 0.48122E-02 0.39203E-02 0.27484E-02
 0.16098E-02 0.73183E-03 0.18853E-03 -.79520E-04 -.18665E-03 -.22441E-03 -.23325E-03 -.21964E-03 -.17462E-03 -.62129E-04
 0.26388E-03 0.85704E-03 0.17257E-02 0.27460E-02 0.36692E-02 0.42179E-02 0.42141E-02 0.36631E-02 0.27463E-02 0.17326E-02
 0.86165E-03 0.25965E-03 -.75445E-04 -.22602E-03 -.28419E-03 -.30574E-03 -.30718E-03 -.28478E-03 -.22052E-03 -.66257E-04
 0.28686E-03 0.85746E-03 0.16047E-02 0.23813E-02 0.29742E-02 0.31957E-02 0.29726E-02 0.23810E-02 0.16073E-02 0.86018E-03
 0.28622E-03 -.69392E-04 -.24545E-03 -.31455E-03 -.33705E-03 -.34303E-03 -.33857E-03 -.31449E-03 -.24220E-03 -.65552E-04
 0.26364E-03 0.73354E-03 0.12739E-02 0.17568E-02 0.20441E-02 0.20457E-02 0.17603E-02 0.12765E-02 0.73275E-03 0.25910E-03
 -.70362E-04 -.24999E-03 -.32112E-03 -.33670E-03 -.33549E-03 -.33513E-03 -.33509E-03 -.31734E-03 -.24402E-03 -.63834E-04
 0.19466E-03 0.51280E-03 0.82063E-03 0.10441E-02 0.11271E-02 0.10488E-02 0.82847E-03 0.51992E-03 0.19633E-03 -.73119E-04
 -.24689E-03 -.32314E-03 -.33250E-03 -.31683E-03 -.30783E-03 -.31558E-03 -.32753E-03 -.31359E-03 -.23631E-03 -.67214E-04
 0.89894E-04 0.24309E-03 0.35270E-03 0.40838E-03 0.41185E-03 0.36418E-03 0.26238E-03 0.11082E-03 -.64970E-04 -.22076E-03
 -.31621E-03 -.34058E-03 -.31908E-03 -.29359E-03 -.29313E-03 -.31577E-03 -.33263E-03 -.30784E-03 -.22068E-03 -.77790E-04
 -.38387E-04 -.29487E-04 -.48580E-04 -.57903E-04 -.37591E-04 -.52027E-05 -.29432E-05 -.61069E-04 -.16845E-03 -.27716E-03
 -.33856E-03 -.33999E-03 -.31072E-03 -.29359E-03 -.30793E-03 -.33515E-03 -.33645E-03 -.28617E-03 -.19359E-03 -.97498E-04
 -.18976E-03 -.28497E-03 -.35964E-03 -.35687E-03 -.27242E-03 -.16073E-03 -.96116E-04 -.11834E-03 -.20595E-03 -.29801E-03
 -.34403E-03 -.33922E-03 -.31791E-03 -.31530E-03 -.33393E-03 -.34347E-03 -.31176E-03 -.23879E-03 -.16409E-03 -.13990E-03
 -.38191E-03 -.53485E-03 -.60629E-03 -.54815E-03 -.38902E-03 -.21743E-03 -.12215E-03 -.13449E-03 -.21638E-03 -.29957E-03
 -.33942E-03 -.33903E-03 -.32960E-03 -.33164E-03 -.33456E-03 -.31123E-03 -.25187E-03 -.18528E-03 -.16636E-03 -.23588E-03
 -.63212E-03 -.79527E-03 -.81955E-03 -.68523E-03 -.45665E-03 -.24294E-03 -.13000E-03 -.13363E-03 -.20519E-03 -.27853E-03
 -.31638E-03 -.32204E-03 -.31620E-03 -.30763E-03 -.28601E-03 -.24138E-03 -.18929E-03 -.17509E-03 -.24752E-03 -.41718E-03
 -.92138E-03 -.10478E-02 -.99386E-03 -.77805E-03 -.49411E-03 -.25473E-03 -.12883E-03 -.11523E-03 -.16342E-03 -.21702E-03
 -.24587E-03 -.24942E-03 -.23938E-03 -.22234E-03 -.19829E-03 -.17461E-03 -.17954E-03 -.25598E-03 -.43099E-03 -.68052E-03
 -.11765E-02 -.12288E-02 -.10871E-02 -.80575E-03 -.49260E-03 -.24494E-03 -.10430E-03 -.55138E-04 -.54812E-04 -.65601E-04
 -.69892E-04 -.68446E-04 -.70260E-04 -.82834E-04 -.11029E-03 -.16158E-03 -.25915E-03 -.43111E-03 -.68174E-03 -.96239E-03
 -.60054E-02 -.52869E-02 -.37910E-02 -.18877E-02 -.54132E-04 0.12047E-02 0.14813E-02 0.66955E-03 -.86139E-03 -.23318E-02
 -.29387E-02 -.23521E-02 -.94079E-03 0.46181E-03 0.10688E-02 0.54540E-03 -.92386E-03 -.28334E-02 -.46060E-02 -.57606E-02
 -.54029E-02 -.42891E-02 -.25821E-02 -.73945E-03 0.66872E-03 0.10827E-02 0.18713E-03 -.18173E-02 -.41353E-02 -.56843E-02
 -.56904E-02 -.41728E-02 -.19406E-02 -.97171E-04 0.57370E-03 -.72613E-04 -.16307E-02 -.34529E-02 -.49291E-02 -.56386E-02
 -.39827E-02 -.26609E-02 -.10413E-02 0.23734E-03 0.37472E-03 -.12816E-02 -.47676E-02 -.91891E-02 -.12925E-01 -.14391E-01
 -.12940E-01 -.92513E-02 -.49356E-02 -.16213E-02 -.17546E-03 -.49632E-03 -.18463E-02 -.33594E-02 -.43906E-02 -.46153E-02
 -.21020E-02 -.85061E-03 0.19836E-03 0.58725E-04 -.23482E-02 -.75308E-02 -.14753E-01 -.21935E-01 -.26443E-01 -.26448E-01
 -.21960E-01 -.14836E-01 -.77241E-02 -.27006E-02 -.46583E-03 -.44611E-03 -.14923E-02 -.25803E-02 -.31289E-02 -.29515E-02
 -.24616E-03 0.56329E-03 0.32837E-03 -.23620E-02 -.86294E-02 -.18294E-01 -.29278E-01 -.38111E-01 -.41505E-01 -.38115E-01
 -.29305E-01 -.18380E-01 -.88191E-02 -.26857E-02 -.11841E-03 0.61806E-04 -.68765E-03 -.13564E-02 -.15149E-02 -.10965E-02
 0.10597E-02 0.10037E-02 -.13178E-02 -.75445E-02 -.18297E-01 -.32098E-01 -.45292E-01 -.53419E-01 -.53416E-01 -.45291E-01
 -.32120E-01 -.18374E-01 -.77091E-02 -.15812E-02 0.66954E-03 0.72301E-03 0.11963E-03 -.27701E-03 -.18365E-03 0.37127E-03
 0.13879E-02 0.13876E-03 -.47888E-02 -.14762E-01 -.29282E-01 -.45294E-01 -.57960E-01 -.62788E-01 -.57952E-01 -.45289E-01
 -.29299E-01 -.14824E-01 -.49127E-02 -.44125E-04 0.11749E-02 0.67827E-03 -.67175E-04 -.33685E-03 0.47091E-04 0.87000E-03
 0.61957E-03 -.18407E-02 -.91984E-02 -.21939E-01 -.38115E-01 -.53423E-01 -.62791E-01 -.62786E-01 -.53413E-01 -.38110E-01
 -.21952E-01 -.92414E-02 -.19197E-02 0.51125E-03 -.58915E-04 -.15974E-02 -.26792E-02 -.26451E-02 -.15073E-02 0.56726E-04
 -.88100E-03 -.41428E-02 -.12928E-01 -.26447E-01 -.41510E-01 -.53422E-01 -.57957E-01 -.53416E-01 -.41500E-01 -.26439E-01
 -.12933E-01 -.41696E-02 -.92850E-03 -.19450E-02 -.49629E-02 -.77747E-02 -.88766E-02 -.77475E-02 -.49148E-02 -.18890E-02
 -.23341E-02 -.56842E-02 -.14393E-01 -.26451E-01 -.38120E-01 -.45295E-01 -.45293E-01 -.38112E-01 -.26440E-01 -.14384E-01
 -.56885E-02 -.23532E-02 -.42021E-02 -.93140E-02 -.14939E-01 -.18515E-01 -.18513E-01 -.14931E-01 -.92953E-02 -.41772E-02
 -.29341E-02 -.56867E-02 -.12938E-01 -.21959E-01 -.29301E-01 -.32112E-01 -.29291E-01 -.21945E-01 -.12929E-01 -.56866E-02
 -.29413E-02 -.57250E-02 -.13022E-01 -.22108E-01 -.29514E-01 -.32357E-01 -.29517E-01 -.22109E-01 -.13018E-01 -.57167E-02
 -.23439E-02 -.41610E-02 -.92340E-02 -.14811E-01 -.18346E-01 -.18337E-01 -.14788E-01 -.92129E-02 -.41516E-02 -.23446E-02
 -.57223E-02 -.14479E-01 -.26619E-01 -.38383E-01 -.45625E-01 -.45628E-01 -.38389E-01 -.26626E-01 -.14481E-01 -.57200E-02
 -.92094E-03 -.19034E-02 -.48769E-02 -.76446E-02 -.87258E-02 -.76139E-02 -.48283E-02 -.18554E-02 -.88776E-03 -.41818E-02
 -.13015E-01 -.26618E-01 -.41793E-01 -.53807E-01 -.58389E-01 -.53815E-01 -.41803E-01 -.26624E-01 -.13021E-01 -.41975E-02
 0.51374E-03 -.58370E-05 -.14870E-02 -.25314E-02 -.25008E-02 -.14042E-02 0.10447E-03 0.61995E-03 -.18772E-02 -.92795E-02
 -.22095E-01 -.38379E-01 -.53807E-01 -.63258E-01 -.63262E-01 -.53815E-01 -.38390E-01 -.22114E-01 -.93221E-02 -.19547E-02
 0.11780E-02 0.74885E-03 0.63817E-04 -.18258E-03 0.17506E-03 0.93715E-03 0.13900E-02 0.92567E-04 -.48707E-02 -.14892E-01
 -.29495E-01 -.45619E-01 -.58387E-01 -.63260E-01 -.58390E-01 -.45631E-01 -.29528E-01 -.14966E-01 -.50014E-02 -.92988E-04
 0.72628E-03 0.19931E-03 -.14559E-03 -.51365E-04 0.45296E-03 0.10656E-02 0.94328E-03 -.14171E-02 -.76680E-02 -.18461E-01
 -.32334E-01 -.45619E-01 -.53811E-01 -.53812E-01 -.45629E-01 -.32372E-01 -.18555E-01 -.78469E-02 -.16894E-02 0.60473E-03
 -.68224E-03 -.12803E-02 -.14118E-02 -.10223E-02 -.23931E-03 0.49836E-03 0.21587E-03 -.24931E-02 -.87701E-02 -.18461E-01
 -.29495E-01 -.38380E-01 -.41798E-01 -.38386E-01 -.29526E-01 -.18556E-01 -.89752E-02 -.28361E-02 -.24808E-03 -.12667E-04
 -.25721E-02 -.30747E-02 -.28996E-02 -.20966E-02 -.90942E-03 0.88329E-04 -.72792E-04 -.24776E-02 -.76559E-02 -.14889E-01
 -.22094E-01 -.26620E-01 -.26621E-01 -.22112E-01 -.14969E-01 -.78589E-02 -.28520E-02 -.62311E-03 -.57464E-03 -.15570E-02
 -.43849E-02 -.45902E-02 -.39751E-02 -.26976E-02 -.11259E-02 0.12479E-03 0.26251E-03 -.13764E-02 -.48479E-02 -.92688E-02
 -.13012E-01 -.14481E-01 -.13022E-01 -.93284E-02 -.50224E-02 -.17323E-02 -.30760E-03 -.62569E-03 -.19415E-02 -.34014E-02
 -.56356E-02 -.53972E-02 -.42998E-02 -.26205E-02 -.80201E-03 0.59856E-03 0.10229E-02 0.14478E-03 -.18485E-02 -.41656E-02
 -.57180E-02 -.57245E-02 -.42056E-02 -.19780E-02 -.14875E-03 0.50475E-03 -.14996E-03 -.16995E-02 -.34981E-02 -.49463E-02
 0.17766E-02 0.17472E-02 0.15351E-02 0.12096E-02 0.87477E-03 0.60734E-03 0.41874E-03 0.27228E-03 0.13680E-03 0.24120E-04
 -.23413E-04 0.22475E-04 0.14701E-03 0.30625E-03 0.46652E-03 0.63011E-03 0.82603E-03 0.10763E-02 0.13642E-02 0.16267E-02
 0.17093E-02 0.16110E-02 0.13731E-02 0.10586E-02 0.73214E-03 0.41942E-03 0.10891E-03 -.20636E-03 -.48920E-03 -.66359E-03
 -.66395E-03 -.48432E-03 -.18429E-03 0.15061E-03 0.45913E-03 0.72784E-03 0.97742E-03 0.12279E-02 0.14682E-02 0.16496E-02
 0.14674E-02 0.13426E-02 0.11155E-02 0.80979E-03 0.42977E-03 -.39127E-04 -.59059E-03 -.11526E-02 -.15883E-02 -.17562E-02
 -.15920E-02 -.11485E-02 -.56590E-03 0.36340E-05 0.46366E-03 0.79640E-03 0.10377E-02 0.12297E-02 0.13841E-02 0.14757E-02
 0.11377E-02 0.10202E-02 0.79765E-03 0.43030E-03 -.13056E-03 -.89526E-03 -.17780E-02 -.25838E-02 -.30740E-02 -.30798E-02
 -.25938E-02 -.17749E-02 -.86709E-03 -.84806E-04 0.46510E-03 0.79158E-03 0.96975E-03 0.10755E-02 0.11448E-02 0.11727E-02
 0.82313E-03 0.70538E-03 0.42044E-03 -.13240E-03 -.10135E-02 -.21636E-02 -.33640E-02 -.42891E-02 -.46418E-02 -.42979E-02
 -.33705E-02 -.21536E-02 -.98124E-03 -.88378E-04 0.45425E-03 0.71236E-03 0.80678E-03 0.83778E-03 0.85306E-03 0.85602E-03
 0.58422E-03 0.40978E-03 -.41435E-04 -.89594E-03 -.21645E-02 -.36629E-02 -.50277E-02 -.58481E-02 -.58504E-02 -.50319E-02
 -.36618E-02 -.21506E-02 -.86725E-03 -.47320E-05 0.44236E-03 0.60390E-03 0.62977E-03 0.62155E-03 0.62039E-03 0.62258E-03
 0.41591E-03 0.10959E-03 -.58943E-03 -.17785E-02 -.33663E-02 -.50300E-02 -.63060E-02 -.67851E-02 -.63059E-02 -.50312E-02
 -.33663E-02 -.17699E-02 -.56675E-03 0.14238E-03 0.44721E-03 0.51912E-03 0.50735E-03 0.49353E-03 0.49879E-03 0.49871E-03
 0.27615E-03 -.20441E-03 -.11522E-02 -.25850E-02 -.42920E-02 -.58518E-02 -.67875E-02 -.67861E-02 -.58509E-02 -.42958E-02
 -.25896E-02 -.11474E-02 -.18556E-03 0.30161E-03 0.46073E-03 0.46590E-03 0.44070E-03 0.43876E-03 0.45686E-03 0.44092E-03
 0.13879E-03 -.48975E-03 -.15891E-02 -.30746E-02 -.46431E-02 -.58526E-02 -.63078E-02 -.58515E-02 -.46433E-02 -.30770E-02
 -.15908E-02 -.48685E-03 0.14685E-03 0.39756E-03 0.42812E-03 0.38638E-03 0.36212E-03 0.38317E-03 0.42105E-03 0.38797E-03
 0.23129E-04 -.66498E-03 -.17564E-02 -.30787E-02 -.42964E-02 -.50306E-02 -.50298E-02 -.42943E-02 -.30760E-02 -.17542E-02
 -.66451E-03 0.22314E-04 0.31758E-03 0.34865E-03 0.26956E-03 0.19904E-03 0.19797E-03 0.26743E-03 0.34744E-03 0.31800E-03
 -.24930E-04 -.66379E-03 -.15908E-02 -.25924E-02 -.33690E-02 -.36595E-02 -.33631E-02 -.25863E-02 -.15887E-02 -.66376E-03
 -.22507E-04 0.26549E-03 0.26253E-03 0.10681E-03 -.54940E-04 -.11926E-03 -.51926E-04 0.10817E-03 0.25933E-03 0.26047E-03
 0.21627E-04 -.48399E-03 -.11497E-02 -.17789E-02 -.21589E-02 -.21548E-02 -.17716E-02 -.11474E-02 -.48650E-03 0.22625E-04
 0.26589E-03 0.22896E-03 -.65783E-05 -.29494E-03 -.48422E-03 -.48147E-03 -.29176E-03 -.11024E-04 0.21752E-03 0.25669E-03
 0.14433E-03 -.18985E-03 -.57706E-03 -.88397E-03 -.10008E-02 -.88524E-03 -.58055E-03 -.19460E-03 0.14210E-03 0.31644E-03
 0.26375E-03 -.50432E-05 -.38971E-03 -.72618E-03 -.85939E-03 -.72679E-03 -.39344E-03 -.12645E-04 0.25578E-03 0.31294E-03
 0.29650E-03 0.13235E-03 -.23237E-04 -.11748E-03 -.12250E-03 -.36379E-04 0.11597E-03 0.28246E-03 0.38691E-03 0.34600E-03
 0.10928E-03 -.29138E-03 -.72431E-03 -.10076E-02 -.10091E-02 -.72833E-03 -.29650E-03 0.10571E-03 0.34715E-03 0.39483E-03
 0.44617E-03 0.42783E-03 0.42552E-03 0.42566E-03 0.41703E-03 0.40813E-03 0.41659E-03 0.43644E-03 0.41368E-03 0.26578E-03
 -.51654E-04 -.47943E-03 -.85675E-03 -.10087E-02 -.86006E-03 -.48558E-03 -.56269E-04 0.27080E-03 0.43347E-03 0.46677E-03
 0.60308E-03 0.69495E-03 0.76507E-03 0.76667E-03 0.69252E-03 0.58390E-03 0.49619E-03 0.44343E-03 0.37099E-03 0.19424E-03
 -.11615E-03 -.47653E-03 -.72439E-03 -.72875E-03 -.48666E-03 -.12317E-03 0.20220E-03 0.40007E-03 0.48595E-03 0.53400E-03
 0.80497E-03 0.96304E-03 0.10374E-02 0.98236E-03 0.82209E-03 0.63574E-03 0.49917E-03 0.42393E-03 0.34734E-03 0.19221E-03
 -.49442E-04 -.28686E-03 -.39118E-03 -.29768E-03 -.58424E-04 0.20140E-03 0.38134E-03 0.47125E-03 0.53589E-03 0.64373E-03
 0.10746E-02 0.12478E-02 0.12747E-02 0.11345E-02 0.89077E-03 0.65208E-03 0.49824E-03 0.42728E-03 0.36977E-03 0.26157E-03
 0.11053E-03 -.58047E-05 -.10007E-04 0.10463E-03 0.26907E-03 0.40102E-03 0.47417E-03 0.53323E-03 0.64679E-03 0.84234E-03
 0.13832E-02 0.15197E-02 0.14659E-02 0.12364E-02 0.92798E-03 0.66219E-03 0.50867E-03 0.44865E-03 0.41034E-03 0.34321E-03
 0.26208E-03 0.22258E-03 0.25860E-03 0.34743E-03 0.43520E-03 0.49279E-03 0.54603E-03 0.65361E-03 0.85429E-03 0.11257E-02
 0.16492E-02 0.17093E-02 0.15659E-02 0.12679E-02 0.92849E-03 0.65966E-03 0.50646E-03 0.43493E-03 0.38154E-03 0.31664E-03
 0.26316E-03 0.26007E-03 0.31534E-03 0.39846E-03 0.47612E-03 0.55063E-03 0.66195E-03 0.85250E-03 0.11249E-02 0.14230E-02
 0.63587E-02 0.56550E-02 0.41836E-02 0.22917E-02 0.45162E-03 -.81690E-03 -.10947E-02 -.28203E-03 0.12391E-02 0.26908E-02
 0.32872E-02 0.27089E-02 0.13156E-02 -.75740E-04 -.68150E-03 -.15618E-03 0.13205E-02 0.32323E-02 0.49909E-02 0.61231E-02
 0.57684E-02 0.46724E-02 0.29810E-02 0.11388E-02 -.27816E-03 -.69665E-03 0.20011E-03 0.22004E-02 0.45038E-02 0.60391E-02
 0.60472E-02 0.45458E-02 0.23280E-02 0.48677E-03 -.18727E-03 0.46214E-03 0.20276E-02 0.38480E-02 0.53085E-02 0.60024E-02