unknown system                          
   1.00000000000000     
     2.573869    0.000000    0.000000
     1.286934    2.229036    0.000000
     0.000000    0.000000   30.304665
   Cu   H 
     4     1
Direct
  0.000000  0.000000  0.395979
  0.333333  0.333333  0.465326
  0.666667  0.666667  0.534674
  0.000000  0.000000  0.604021
  0.038852  0.000000  0.663418
 
   20   20  240
 -.59792868619E-02 -.52688915265E-02 -.37876354669E-02 -.18891328684E-02 -.47251690773E-04
 0.12194013713E-02 0.14914381537E-02 0.66777092414E-03 -.86772000883E-03 -.23309183201E-02
 -.29300744486E-02 -.23455781155E-02 -.94219623833E-03 0.45877905848E-03 0.10732253414E-02
 0.55600861677E-03 -.91600102394E-03 -.28308264073E-02 -.45994094030E-02 -.57415243807E-02
 -.53844396045E-02 -.42803966953E-02 -.25801165498E-02 -.73361181501E-03 0.68220720439E-03
 0.10958121367E-02 0.19148392611E-03 -.18188365774E-02 -.41325352561E-02 -.56740876012E-02
 -.56810403228E-02 -.41725400683E-02 -.19458576698E-02 -.96582271716E-04 0.58456809879E-03
 -.58999097291E-04 -.16227372492E-02 -.34481081437E-02 -.49182577276E-02 -.56193750172E-02
 -.39782590934E-02 -.26580293001E-02 -.10335316719E-02 0.25349930991E-03 0.39283644529E-03
 -.12715702119E-02 -.47670562194E-02 -.91886694370E-02 -.12915711262E-01 -.14376483829E-01
 -.12929242745E-01 -.92495560764E-02 -.49353589058E-02 -.16132647407E-02 -.15971693369E-03
 -.48147790176E-03 -.18382301998E-02 -.33553749354E-02 -.43851754457E-02 -.46085189105E-02
 -.21025540913E-02 -.84329192282E-03 0.21580199851E-03 0.81361021017E-04 -.23297504226E-02
 -.75221399177E-02 -.14751062596E-01 -.21931083578E-01 -.26434579712E-01 -.26436678205E-01
 -.21951141635E-01 -.14828573489E-01 -.77131455906E-02 -.26843426308E-02 -.44783333584E-03
 -.43199590451E-03 -.14847848047E-02 -.25783619450E-02 -.31305790535E-02 -.29545226710E-02
 -.23981586844E-03 0.57746135076E-03 0.34806488954E-03 -.23424778604E-02 -.86145461403E-02
 -.18283929840E-01 -.29271137082E-01 -.38105634289E-01 -.41500946369E-01 -.38111322013E-01
 -.29298871405E-01 -.18368698737E-01 -.88026055480E-02 -.26669161728E-02 -.10143203627E-03
 0.74376359606E-04 -.68005837892E-03 -.13532656293E-02 -.15145966707E-02 -.10955377779E-02
 0.10720960892E-02 0.10156408116E-02 -.13074552456E-02 -.75349675100E-02 -.18287428911E-01
 -.32088054284E-01 -.45284619902E-01 -.53415625875E-01 -.53415782212E-01 -.45289746456E-01
 -.32114725860E-01 -.18365664372E-01 -.76979565692E-02 -.15690642760E-02 0.68162933228E-03
 0.73409680405E-03 0.12901746169E-03 -.26882993654E-03 -.17488246462E-03 0.38210681174E-03
 0.13953257198E-02 0.14094088463E-03 -.47893846935E-02 -.14759991274E-01 -.29275322102E-01
 -.45286835271E-01 -.57956444287E-01 -.62788620994E-01 -.57952289752E-01 -.45285218386E-01
 -.29292545244E-01 -.14820121165E-01 -.49123574741E-02 -.43982759273E-04 0.11792726891E-02
 0.68734807182E-03 -.56000923180E-04 -.32554899980E-03 0.58457004656E-04 0.88074082940E-03
 0.61666089473E-03 -.18432659442E-02 -.91987079368E-02 -.21936081234E-01 -.38110079335E-01
 -.53419887033E-01 -.62791280434E-01 -.62788046742E-01 -.53411262932E-01 -.38102108215E-01
 -.21943063410E-01 -.92385272911E-02 -.19249018315E-02 0.50330808232E-03 -.61627163873E-04
 -.15918360403E-02 -.26692379857E-02 -.26368680800E-02 -.15041422456E-02 0.55670117995E-04
 -.88632891592E-03 -.41387310434E-02 -.12917651888E-01 -.26437272814E-01 -.41505670801E-01
 -.53421302087E-01 -.57956719591E-01 -.53413415079E-01 -.41494630689E-01 -.26431040767E-01
 -.12924626395E-01 -.41642467969E-02 -.92952648509E-03 -.19511968508E-02 -.49680239847E-02
 -.77734983278E-02 -.88709136257E-02 -.77447997685E-02 -.49200486584E-02 -.18986374987E-02
 -.23317464486E-02 -.56715681197E-02 -.14375311222E-01 -.26438371528E-01 -.38114881777E-01
 -.45293386755E-01 -.45287756038E-01 -.38103281797E-01 -.26431180500E-01 -.14378045331E-01
 -.56817389704E-02 -.23444560052E-02 -.41943865268E-02 -.93115858579E-02 -.14941353854E-01
 -.18516277488E-01 -.18511025632E-01 -.14928634822E-01 -.92970608009E-02 -.41808340665E-02
 -.29253779447E-02 -.56762844849E-02 -.12925725875E-01 -.21947700270E-01 -.29293671648E-01
 -.32107249017E-01 -.29284161412E-01 -.21935935878E-01 -.12920115841E-01 -.56797885793E-02
 -.29340453568E-02 -.57141538594E-02 -.13009358419E-01 -.22098578774E-01 -.29511637332E-01
 -.32358471944E-01 -.29514752370E-01 -.22101375368E-01 -.13007706247E-01 -.57070142717E-02
 -.23389602440E-02 -.41618166560E-02 -.92326920546E-02 -.14803405129E-01 -.18335365250E-01
 -.18327957874E-01 -.14784430751E-01 -.92108487684E-02 -.41472648487E-02 -.23367326448E-02
 -.57119028596E-02 -.14467082289E-01 -.26607365304E-01 -.38373686471E-01 -.45620338903E-01
 -.45625638271E-01 -.38384242761E-01 -.26613004763E-01 -.14463833841E-01 -.57062239515E-02
 -.92385466649E-03 -.19102323103E-02 -.48783580549E-02 -.76350490305E-02 -.87099414057E-02
 -.76027109856E-02 -.48282237346E-02 -.18621237502E-02 -.89113073841E-03 -.41760779244E-02
 -.13003061660E-01 -.26605932265E-01 -.41785263855E-01 -.53802528019E-01 -.58385011829E-01
 -.53810354525E-01 -.41795736684E-01 -.26614378110E-01 -.13011272071E-01 -.41924677779E-02
 0.51079940020E-03 -.51689026890E-05 -.14796124389E-02 -.25162030916E-02 -.24821265337E-02
 -.13909687169E-02 0.10572165470E-03 0.61150669190E-03 -.18855344424E-02 -.92792215475E-02
 -.22086031910E-01 -.38369693978E-01 -.53801222887E-01 -.63255967080E-01 -.63259035589E-01
 -.53810126004E-01 -.38384898770E-01 -.22111656985E-01 -.93240249492E-02 -.19584668504E-02
 0.11837071404E-02 0.76156468579E-03 0.80630002159E-04 -.16433500480E-03 0.19282446898E-03
 0.95145071708E-03 0.13969264825E-02 0.91011676368E-04 -.48766315800E-02 -.14895520260E-01
 -.29492333253E-01 -.45612795706E-01 -.58381573841E-01 -.63257396233E-01 -.58387346918E-01
 -.45627084021E-01 -.29525746944E-01 -.14967519666E-01 -.50052970693E-02 -.94217700493E-04
 0.73791723818E-03 0.21480897186E-03 -.12922774559E-03 -.36536989796E-04 0.46644910393E-03
 0.10788240803E-02 0.95528685917E-03 -.14095809482E-02 -.76665729596E-02 -.18462741952E-01
 -.32335064555E-01 -.45615477481E-01 -.53804940870E-01 -.53806800799E-01 -.45625573399E-01
 -.32369914285E-01 -.18552546597E-01 -.78437843855E-02 -.16851152446E-02 0.61181561919E-03
 -.67464067001E-03 -.12719598951E-02 -.14034236713E-02 -.10148882748E-02 -.23162867973E-03
 0.50888607825E-03 0.22900133209E-03 -.24816482407E-02 -.87641767159E-02 -.18459086663E-01
 -.29492491142E-01 -.38374318402E-01 -.41789795868E-01 -.38380840263E-01 -.29524253469E-01
 -.18553944661E-01 -.89690122463E-02 -.28262534373E-02 -.23808722958E-03 -.44546016795E-05
 -.25706364185E-02 -.30708605178E-02 -.28965087370E-02 -.20956669041E-02 -.90680870056E-03
 0.96942155324E-04 -.60470562062E-04 -.24688128779E-02 -.76535721108E-02 -.14887344753E-01
 -.22085587987E-01 -.26606419893E-01 -.26609964342E-01 -.22109502760E-01 -.14971303965E-01
 -.78561067521E-02 -.28420777692E-02 -.61229346511E-03 -.56918808949E-03 -.15560529143E-02
 -.43793228050E-02 -.45805452099E-02 -.39709919548E-02 -.27002936104E-02 -.11257058815E-02
 0.13454831861E-03 0.27509451424E-03 -.13728358029E-02 -.48538560862E-02 -.92714346342E-02
 -.13000958451E-01 -.14462147509E-01 -.13010739354E-01 -.93294797398E-02 -.50260674823E-02
 -.17277267431E-02 -.29699152248E-03 -.61970438404E-03 -.19436922752E-02 -.34036119839E-02
 -.56169907797E-02 -.53787878726E-02 -.42941784541E-02 -.26241585173E-02 -.80029281401E-03
 0.61150528052E-03 0.10358459989E-02 0.14450960136E-03 -.18589240680E-02 -.41701846709E-02
 -.57079525902E-02 -.57091137667E-02 -.41990343978E-02 -.19811804274E-02 -.15012317630E-03
 0.51197196322E-03 -.14090980983E-03 -.16975041796E-02 -.34997436479E-02 -.49393611509E-02
 0.15666952652E-02 0.15490761382E-02 0.13848083769E-02 0.11165046777E-02 0.81946140165E-03
 0.56221783262E-03 0.37798854075E-03 0.26328616027E-03 0.19670771113E-03 0.15952754071E-03
 0.14576721478E-03 0.16087878000E-03 0.21407130904E-03 0.30998157400E-03 0.44505622270E-03
 0.61144302506E-03 0.80400808650E-03 0.10201406879E-02 0.12473234187E-02 0.14488311300E-02
 0.15164404886E-02 0.14475581983E-02 0.12627513474E-02 0.99491779343E-03 0.69204454502E-03
 0.39585439519E-03 0.13162958695E-03 -.87820252787E-04 -.25177103752E-03 -.34460444358E-03
 -.34779108420E-03 -.25020004301E-03 -.60025663146E-04 0.19177009727E-03 0.46265242452E-03
 0.71871549022E-03 0.94795704877E-03 0.11540671348E-02 0.13354031080E-02 0.14690323940E-02
 0.13247906456E-02 0.12352155351E-02 0.10496365146E-02 0.77849229311E-03 0.44192387223E-03
 0.65759186484E-04 -.31495445452E-03 -.65234945759E-03 -.89062040283E-03 -.98011934863E-03
 -.89459760833E-03 -.64425848145E-03 -.27826662517E-03 0.12806540999E-03 0.50016574554E-03
 0.79287011485E-03 0.10022413757E-02 0.11511480820E-02 0.12598186682E-02 0.13253143964E-02
 0.10513509899E-02 0.95944516261E-03 0.76714907325E-03 0.45909259859E-03 0.37864140147E-04
 -.46612415607E-03 -.98576527745E-03 -.14233002103E-02 -.16773979068E-02 -.16803967050E-02
 -.14258856405E-02 -.97297156503E-03 -.42651553858E-03 0.98148618285E-04 0.51330671360E-03
 0.78481566345E-03 0.93301781783E-03 0.10072465827E-02 0.10495146339E-02 0.10706830151E-02
 0.77228352723E-03 0.66700541379E-03 0.43308494972E-03 0.36237323862E-04 -.52098016560E-03
 -.11792684506E-02 -.18198494788E-02 -.22927400388E-02 -.24701636513E-02 -.22987706745E-02
 -.18222903764E-02 -.11639349226E-02 -.47963267222E-03 0.95709326324E-04 0.48790870193E-03
 0.69572909825E-03 0.77283141138E-03 0.78966283456E-03 0.79548465328E-03 0.79904698907E-03
 0.54239664246E-03 0.38734748071E-03 0.63701641245E-04 -.46651583011E-03 -.11798039271E-02
 -.19688760839E-02 -.26584915486E-02 -.30640260677E-02 -.30665535618E-02 -.26635558806E-02
 -.19684922609E-02 -.11626749851E-02 -.42629371137E-03 0.11992037310E-03 0.44112502212E-03
 0.57761847157E-03 0.60730800874E-03 0.60221756186E-03 0.59921059702E-03 0.59265186263E-03
 0.37881293981E-03 0.13404417674E-03 -.31335634771E-03 -.98618477398E-03 -.18216783814E-02
 -.26600580906E-02 -.32876020462E-02 -.35211363853E-02 -.32888871202E-02 -.26616116606E-02
 -.18184692974E-02 -.96999582001E-03 -.28004277476E-03 0.17822989957E-03 0.42029944515E-03
 0.51406907751E-03 0.53457270458E-03 0.53217304296E-03 0.52190561465E-03 0.48602526984E-03
 0.27087517069E-03 -.83455359800E-04 -.65114325460E-03 -.14247101708E-02 -.22956459407E-02
 -.30667317711E-02 -.35222801855E-02 -.35222458114E-02 -.30670291573E-02 -.22959956389E-02
 -.14221086361E-02 -.64106828388E-03 -.64038619175E-04 0.29614718395E-03 0.49042095490E-03
 0.58276690700E-03 0.61690277160E-03 0.61109981154E-03 0.56617534706E-03 0.46632158465E-03
 0.20086728809E-03 -.25023148230E-03 -.89053328357E-03 -.16785679825E-02 -.24723352127E-02
 -.30684412007E-02 -.32891054811E-02 -.30659984129E-02 -.24715361909E-02 -.16816060889E-02
 -.89372841293E-03 -.24747382962E-03 0.21139950036E-03 0.51108915176E-03 0.70195720576E-03
 0.81413258487E-03 0.85084840605E-03 0.80843341107E-03 0.69065376275E-03 0.49715143091E-03
 0.15834963814E-03 -.34502449354E-03 -.97926319222E-03 -.16796117334E-02 -.22988549101E-02
 -.26633778184E-02 -.26596243223E-02 -.22925984759E-02 -.16791011334E-02 -.98480293354E-03
 -.34834639816E-03 0.16345076380E-03 0.55116787811E-03 0.84315519258E-03 0.10540352425E-02
 0.11708520690E-02 0.11716984378E-02 0.10533099633E-02 0.83645858078E-03 0.54116728720E-03
 0.14268828710E-03 -.34770114492E-03 -.89256607176E-03 -.14246079261E-02 -.18227097364E-02
 -.19689402434E-02 -.18169920250E-02 -.14188765189E-02 -.89066970812E-03 -.34689768748E-03
 0.14721595746E-03 0.57840629428E-03 0.95364858007E-03 0.12658792983E-02 0.14828056837E-02
 0.15632603726E-02 0.14858692263E-02 0.12664864265E-02 0.94836310485E-03 0.57064442706E-03
 0.15839821424E-03 -.25082585229E-03 -.64584343960E-03 -.97812181573E-03 -.11722407289E-02
 -.11711666987E-02 -.97602559343E-03 -.64415450595E-03 -.24853703851E-03 0.16359688311E-03
 0.57912103119E-03 0.99458350413E-03 0.13868960993E-02 0.17050402893E-02 0.18871132985E-02
 0.18892194128E-02 0.17084270299E-02 0.13862989545E-02 0.98857827917E-03 0.57141698073E-03
 0.20944685279E-03 -.68210114318E-04 -.29282197301E-03 -.44785781841E-03 -.50471300286E-03
 -.45059956326E-03 -.30029258364E-03 -.78859013961E-04 0.20248911826E-03 0.54812073867E-03
 0.95492754122E-03 0.13891632052E-02 0.17854174659E-02 0.20667903642E-02 0.21708679598E-02
 0.20705612634E-02 0.17861516252E-02 0.13826906337E-02 0.94611111466E-03 0.54578442285E-03
 0.29630046903E-03 0.16767515414E-03 0.93279109088E-04 0.56048938376E-04 0.51859949352E-04
 0.79234671333E-04 0.14366505166E-03 0.26964168387E-03 0.49445925759E-03 0.83698717402E-03
 0.12677035705E-02 0.17097363489E-02 0.20697396493E-02 0.22713229932E-02 0.22719244864E-02
 0.20686981348E-02 0.17037116563E-02 0.12608509888E-02 0.83949876384E-03 0.51194587584E-03
 0.41753172098E-03 0.42127620100E-03 0.44919555971E-03 0.45942000332E-03 0.43660370073E-03
 0.39486725159E-03 0.38003942250E-03 0.45819676208E-03 0.68096979602E-03 0.10457194362E-02
 0.14843039498E-02 0.18924008827E-02 0.21747347466E-02 0.22729506602E-02 0.21694598405E-02
 0.18853497886E-02 0.14827108466E-02 0.10577372618E-02 0.70955203838E-03 0.49718337388E-03
 0.57439522533E-03 0.67191469262E-03 0.74477637645E-03 0.74194893841E-03 0.65888552280E-03
 0.54347065785E-03 0.48050643542E-03 0.55242624082E-03 0.79251456467E-03 0.11611550669E-02
 0.15632726487E-02 0.18930712229E-02 0.20731473207E-02 0.20685774864E-02 0.18842146721E-02
 0.15621061540E-02 0.11795384587E-02 0.83336318827E-03 0.60571095982E-03 0.52892853597E-03
 0.77158445447E-03 0.91738577891E-03 0.98303050578E-03 0.92636602625E-03 0.77054706225E-03
 0.59880491037E-03 0.51572870248E-03 0.59285301045E-03 0.83086735133E-03 0.11616216318E-02
 0.14847171035E-02 0.17108820394E-02 0.17873643240E-02 0.17022555668E-02 0.14802745260E-02
 0.11783892949E-02 0.87666088628E-03 0.65695619016E-03 0.57327324059E-03 0.62853370727E-03
 0.10073901487E-02 0.11574693954E-02 0.11770996701E-02 0.10478430582E-02 0.82673442580E-03
 0.61987836412E-03 0.52729093176E-03 0.59334481760E-03 0.79133081347E-03 0.10448692315E-02
 0.12663192428E-02 0.13892031880E-02 0.13840317740E-02 0.12596573269E-02 0.10563274404E-02
 0.83437110091E-03 0.65982526373E-03 0.58743810803E-03 0.64227514088E-03 0.80455026074E-03
 0.12570537941E-02 0.13721909659E-02 0.13246589210E-02 0.11255626305E-02 0.85784062765E-03
 0.63108542409E-03 0.52397880306E-03 0.55270730454E-03 0.67757177352E-03 0.83180240859E-03
 0.95094006846E-03 0.99296239689E-03 0.94854600034E-03 0.84070071519E-03 0.71333390152E-03
 0.61470591321E-03 0.58510626229E-03 0.65033894353E-03 0.81320676424E-03 0.10401802126E-02
 0.14658577874E-02 0.15179470914E-02 0.14026298204E-02 0.11544726757E-02 0.86311708958E-03
 0.62326549656E-03 0.48803432072E-03 0.45581599178E-03 0.48881387625E-03 0.54053354194E-03
 0.57499366678E-03 0.57590039410E-03 0.54913066471E-03 0.51791240509E-03 0.51100897711E-03
 0.55134712929E-03 0.65261433690E-03 0.81987522015E-03 0.10428669706E-02 0.12819975638E-02
 0.63734067780E-02 0.56645548592E-02 0.41896175377E-02 0.22989653459E-02 0.46190308581E-03
 -.80688937493E-03 -.10893848962E-02 -.28225581913E-03 0.12358149633E-02 0.26865836045E-02
 0.32821583680E-02 0.27033267843E-02 0.13122873173E-02 -.73565031879E-04 -.67390267792E-03
 -.14662389279E-03 0.13294862692E-02 0.32422143563E-02 0.50044100822E-02 0.61394859950E-02
 0.57803956857E-02 0.46777125883E-02 0.29861895266E-02 0.11484412714E-02 -.26714534738E-03
 -.69059405953E-03 0.19955482929E-03 0.21974591056E-02 0.45019498049E-02 0.60366967110E-02
 0.60410289808E-02 0.45379129776E-02 0.23249659953E-02 0.49211109113E-03 -.17702636696E-03
 0.47178573658E-03 0.20364888044E-02 0.38607286111E-02 0.53269079725E-02 0.60210558509E-02
 0.43804570727E-02 0.30638910261E-02 0.14443170552E-02 0.15812411371E-03 0.12730332259E-04
 0.16664637100E-02 0.51516513783E-02 0.95665356632E-02 0.13290132187E-01 0.14749324602E-01
 0.13302596642E-01 0.96270873611E-02 0.53210960745E-02 0.20091413520E-02 0.56457789643E-03
 0.89214365340E-03 0.22509417555E-02 0.37665367320E-02 0.47922144504E-02 0.50114666309E-02
 0.25123914304E-02 0.12574707121E-02 0.19517248819E-03 0.32140817174E-03 0.27252201324E-02
 0.79130730487E-02 0.15137547315E-01 0.22311854739E-01 0.26811361307E-01 0.26814391628E-01
 0.22333246333E-01 0.15214327123E-01 0.81010275546E-02 0.30766987179E-02 0.84932531048E-03
 0.84292795941E-03 0.18983534418E-02 0.29867197597E-02 0.35330624198E-02 0.33578358730E-02
 0.65429577168E-03 -.16343419773E-03 0.56128584220E-04 0.27369650149E-02 0.90062166306E-02
 0.18675399569E-01 0.29657173864E-01 0.38481759994E-01 0.41871758974E-01 0.38486628332E-01
 0.29682900070E-01 0.18757287062E-01 0.91918883344E-02 0.30607131425E-02 0.50629962082E-03
 0.34018196581E-03 0.10940372869E-02 0.17588901527E-02 0.19156948596E-02 0.15020029617E-02
 -.65990476706E-03 -.61163191180E-03 0.17005629726E-02 0.79241383892E-02 0.18677822885E-01
 0.32474142670E-01 0.45656960781E-01 0.53774857144E-01 0.53774982840E-01 0.45661467786E-01
 0.32499250594E-01 0.18754999084E-01 0.80888047321E-02 0.19666817393E-02 -.27316369373E-03
 -.32044989565E-03 0.27984250627E-03 0.67088791184E-03 0.57793754200E-03 0.28003474682E-04
 -.99367271830E-03 0.24902086914E-03 0.51723663584E-02 0.15144630758E-01 0.29659761167E-01
 0.45658333181E-01 0.58307645134E-01 0.63130061543E-01 0.58304198764E-01 0.45657878638E-01
 0.29678931473E-01 0.15208281265E-01 0.53000807366E-02 0.43751951846E-03 -.77781450471E-03
 -.28476536666E-03 0.45341818040E-03 0.72103392212E-03 0.34265766901E-03 -.47442207048E-03
 -.23140031918E-03 0.22212702924E-02 0.95756658776E-02 0.22315663389E-01 0.38484935194E-01
 0.53778225521E-01 0.63132466105E-01 0.63127576606E-01 0.53767236844E-01 0.38478255561E-01
 0.22327842191E-01 0.96199368828E-02 0.23022485927E-02 -.12332787670E-03 0.44702308420E-03
 0.19787187541E-02 0.30544615880E-02 0.30230584018E-02 0.18944846422E-02 0.33558626796E-03
 0.12545211112E-02 0.45081036302E-02 0.13291950754E-01 0.26813706599E-01 0.41875985280E-01
 0.53780274532E-01 0.58308934076E-01 0.53769869641E-01 0.41862248267E-01 0.26806602882E-01
 0.13299446213E-01 0.45335179164E-02 0.12958799760E-02 0.23200514111E-02 0.53417292499E-02
 0.81506607664E-02 0.92493664779E-02 0.81229686580E-02 0.52959408202E-02 0.22702461902E-02
 0.26876995634E-02 0.60344260861E-02 0.14748346750E-01 0.26816045759E-01 0.38490106363E-01
 0.45665514822E-01 0.45661496899E-01 0.38480632608E-01 0.26807347474E-01 0.14746707384E-01
 0.60427031439E-02 0.27040513953E-02 0.45587663695E-02 0.96817657034E-02 0.15315126930E-01
 0.18892308112E-01 0.18888516355E-01 0.15304022128E-01 0.96647624010E-02 0.45393982495E-02
 0.32774241430E-02 0.60362968461E-02 0.13298973910E-01 0.22329352044E-01 0.29677290837E-01
 0.32492128008E-01 0.29671776354E-01 0.22322017293E-01 0.13295469100E-01 0.60406072166E-02
 0.32882616521E-02 0.60744495163E-02 0.13380783191E-01 0.22475811215E-01 0.29888080480E-01
 0.32734091221E-01 0.29892488995E-01 0.22478612980E-01 0.13376363871E-01 0.60635461926E-02
 0.26960192162E-02 0.45267243455E-02 0.96096138343E-02 0.15188113162E-01 0.18722944801E-01
 0.18717101298E-01 0.15173240451E-01 0.95928353049E-02 0.45162490286E-02 0.26954482534E-02
 0.60716201814E-02 0.14836438225E-01 0.26983624395E-01 0.38747665822E-01 0.45988738104E-01
 0.45994710285E-01 0.38760171475E-01 0.26992069196E-01 0.14835796345E-01 0.60669119392E-02
 0.12929572358E-02 0.22886464350E-02 0.52633164645E-02 0.80218122163E-02 0.90981973196E-02
 0.79932123042E-02 0.52161080846E-02 0.22392669863E-02 0.12564311341E-02 0.45391402948E-02
 0.13373852704E-01 0.26982326563E-01 0.42155148808E-01 0.54159111977E-01 0.58736332957E-01
 0.54170652017E-01 0.42169312822E-01 0.26991936308E-01 0.13382437108E-01 0.45579895360E-02
 -.12608488587E-03 0.40024059071E-03 0.18749365984E-02 0.29079732953E-02 0.28757429458E-02
 0.17890394106E-02 0.28837674363E-03 -.23169958160E-03 0.22533619879E-02 0.96484270581E-02
 0.22463309612E-01 0.38744645155E-01 0.54158670133E-01 0.63596366214E-01 0.63600509533E-01
 0.54168877382E-01 0.38758636816E-01 0.22486253723E-01 0.96931945096E-02 0.23305307463E-02
 -.78399220665E-03 -.35416445859E-03 0.32381740759E-03 0.56575690371E-03 0.21292251762E-03
 -.54124794848E-03 -.99381245591E-03 0.29499666643E-03 0.52499387950E-02 0.15268927581E-01
 0.29869394909E-01 0.45982665345E-01 0.58734236526E-01 0.63599391632E-01 0.58736707569E-01
 0.45993635771E-01 0.29902262071E-01 0.15342460895E-01 0.53792602723E-02 0.47831301572E-03
 -.32770591760E-03 0.19767649806E-03 0.53907680356E-03 0.44725276260E-03 -.50676488172E-04
 -.66275961154E-03 -.55028754053E-03 0.17977224893E-02 0.80437414325E-02 0.18838457535E-01
 0.32710978209E-01 0.45985479633E-01 0.54166068613E-01 0.54165701726E-01 0.45991810583E-01
 0.32745550106E-01 0.18932206405E-01 0.82245578974E-02 0.20720559899E-02 -.21237094646E-03
 0.10885205747E-02 0.16847239480E-02 0.18145143834E-02 0.14274689043E-02 0.64615317692E-03
 -.98126364691E-04 0.17051478852E-03 0.28679578780E-02 0.91423805330E-02 0.18835677983E-01
 0.29869594801E-01 0.38750163070E-01 0.42163358109E-01 0.38754040341E-01 0.29899700308E-01
 0.18932673030E-01 0.93518092371E-02 0.32159057242E-02 0.63789734978E-03 0.41395874905E-03
 0.29815958756E-02 0.34818473216E-02 0.33054918756E-02 0.25023193647E-02 0.13119286478E-02
 0.30576782098E-03 0.45695666368E-03 0.28553494037E-02 0.80309917657E-02 0.15261334157E-01
 0.22461659825E-01 0.26985012784E-01 0.26987355315E-01 0.22483427092E-01 0.15344713056E-01
 0.82350225519E-02 0.32305276113E-02 0.10100228240E-02 0.97357779515E-03 0.19646951107E-02
 0.47834851815E-02 0.49875503915E-02 0.43760529920E-02 0.31010542604E-02 0.15257506392E-02
 0.26819371348E-03 0.12608550659E-03 0.17629875146E-02 0.52288950259E-02 0.96378950580E-02
 0.13368767480E-01 0.14834137908E-01 0.13382366017E-01 0.96984881216E-02 0.53986080179E-02
 0.21124386076E-02 0.69490109050E-03 0.10232706685E-02 0.23458839574E-02 0.38047796627E-02
 0.60143970616E-02 0.57794528273E-02 0.46959987199E-02 0.30264805941E-02 0.12060318541E-02
 -.20176959171E-03 -.62962041345E-03 0.24660954141E-03 0.22300452601E-02 0.45280801188E-02
 0.60642652415E-02 0.60704395315E-02 0.45655933898E-02 0.23536134504E-02 0.53326237688E-03
 -.11436321773E-03 0.54881918251E-03 0.21055099434E-02 0.39009808232E-02 0.53357202985E-02
 -.12998290771E-02 -.12671028412E-02 -.10600219558E-02 -.75192635489E-03 -.43925763356E-03
 -.18629566192E-03 -.62577600914E-05 0.11847150000E-03 0.20653911126E-03 0.26349773362E-03
 0.28433672058E-03 0.26128154839E-03 0.19079195744E-03 0.78603615471E-04 -.61964304223E-04
 -.22206260698E-03 -.40928278352E-03 -.63974127158E-03 -.90713112490E-03 -.11568025113E-02
 -.12324677242E-02 -.11382430732E-02 -.91258110319E-03 -.61712419873E-03 -.30954978348E-03
 -.14522864284E-04 0.26662823922E-03 0.52668819928E-03 0.73709223886E-03 0.85778787288E-03
 0.85830553980E-03 0.73301105362E-03 0.50547559045E-03 0.22239943775E-03 -.64391502349E-04
 -.32320683698E-03 -.55617910539E-03 -.78305015688E-03 -.10035899571E-02 -.11749970015E-02
 -.99748112467E-03 -.88477708243E-03 -.67833360359E-03 -.39730346873E-03 -.47082428068E-04
 0.37244358731E-03 0.83722690287E-03 0.12803295221E-02 0.16059487427E-02 0.17279884482E-02
 0.16079627330E-02 0.12729221968E-02 0.80743645580E-03 0.32198021033E-03 -.91906167469E-04
 -.39741348590E-03 -.61431565106E-03 -.78312916867E-03 -.92044386997E-03 -.10040287694E-02
 -.68449908053E-03 -.58208655727E-03 -.38718710499E-03 -.62826938162E-04 0.42474098787E-03
 0.10640255288E-02 0.17672778673E-02 0.23821369514E-02 0.27451926820E-02 0.27482530022E-02
 0.23842801531E-02 0.17533685970E-02 0.10251891463E-02 0.37091485000E-03 -.10424821437E-03
 -.39000354766E-03 -.54438555350E-03 -.63486864093E-03 -.69388451857E-03 -.71643688057E-03
 -.38958445847E-03 -.28506040789E-03 -.40459271503E-04 0.42463628937E-03 0.11455768005E-02
 0.20550401659E-02 0.29732544558E-02 0.36631601853E-02 0.39231565857E-02 0.36701518439E-02
 0.29754320331E-02 0.20381563598E-02 0.11054123526E-02 0.37306718232E-03 -.82017175814E-04
 -.30124189826E-03 -.38304954407E-03 -.41168704800E-03 -.42469830541E-03 -.42319920001E-03
 -.16318546109E-03 -.55800946370E-05 0.37269691915E-03 0.10621056712E-02 0.20542729732E-02
 0.31940444776E-02 0.42094701418E-02 0.48122647881E-02 0.48167157885E-02 0.42181838864E-02
 0.31959344895E-02 0.20390397340E-02 0.10278786370E-02 0.32851840184E-03 -.45297947963E-04
 -.18842268261E-03 -.21969938663E-03 -.21918412023E-03 -.21682105148E-03 -.20900495940E-03
 -.36098293563E-05 0.26560712740E-03 0.83501747992E-03 0.17661045096E-02 0.29737039506E-02
 0.42104496197E-02 0.51445547288E-02 0.54942509220E-02 0.51486317899E-02 0.42153346016E-02
 0.29735479372E-02 0.17549697740E-02 0.81074901299E-03 0.23216505782E-03 -.37844240055E-04
 -.12432418460E-03 -.13609612392E-03 -.13017760614E-03 -.12189710523E-03 -.97622220935E-04
 0.11309570276E-03 0.52337536790E-03 0.12790123197E-02 0.23827433533E-02 0.36652319505E-02
 0.48145544476E-02 0.54953871817E-02 0.54941480830E-02 0.48127846748E-02 0.36655765161E-02
 0.23832996833E-02 0.12733771401E-02 0.50673558141E-03 0.87585322383E-04 -.89057248836E-04
 -.14433935339E-03 -.15458772436E-03 -.14783146850E-03 -.12538175025E-03 -.62669037575E-04
 0.20265696062E-03 0.73524591332E-03 0.16051310417E-02 0.27454729459E-02 0.39246792307E-02
 0.48185133910E-02 0.51492543550E-02 0.48121916207E-02 0.39203313752E-02 0.27483573778E-02
 0.16098362561E-02 0.73182587005E-03 0.18853107575E-03 -.79519828837E-04 -.18664587813E-03
 -.22440913369E-03 -.23324642915E-03 -.21964464014E-03 -.17462356134E-03 -.62129089759E-04
 0.26387848198E-03 0.85703642331E-03 0.17257187757E-02 0.27459835107E-02 0.36691748674E-02
 0.42178785056E-02 0.42140948556E-02 0.36631173812E-02 0.27463260333E-02 0.17326359024E-02
 0.86164724292E-03 0.25965305119E-03 -.75445055803E-04 -.22602245780E-03 -.28419227596E-03
 -.30574405552E-03 -.30718188064E-03 -.28477592717E-03 -.22051615172E-03 -.66257441414E-04
 0.28686016618E-03 0.85745593769E-03 0.16047479242E-02 0.23812743954E-02 0.29741837429E-02
 0.31956871730E-02 0.29725567377E-02 0.23809779554E-02 0.16072558008E-02 0.86017536428E-03
 0.28622139533E-03 -.69392370490E-04 -.24544876517E-03 -.31454655691E-03 -.33704808185E-03
 -.34302727581E-03 -.33857044019E-03 -.31449141348E-03 -.24219747077E-03 -.65552200146E-04
 0.26364097803E-03 0.73353656698E-03 0.12738761230E-02 0.17568248431E-02 0.20441479094E-02
 0.20457276932E-02 0.17603223047E-02 0.12764514030E-02 0.73275164030E-03 0.25910103568E-03
 -.70361870794E-04 -.24998774530E-03 -.32112423977E-03 -.33669549869E-03 -.33548895595E-03
 -.33512907732E-03 -.33509058720E-03 -.31734409619E-03 -.24402190028E-03 -.63833722608E-04
 0.19466195608E-03 0.51279985599E-03 0.82063363769E-03 0.10440891216E-02 0.11271174039E-02
 0.10488145148E-02 0.82846690064E-03 0.51992266336E-03 0.19632515931E-03 -.73118989569E-04
 -.24688903576E-03 -.32314427515E-03 -.33250338325E-03 -.31683491355E-03 -.30782978405E-03
 -.31557879187E-03 -.32752656250E-03 -.31358589413E-03 -.23630714532E-03 -.67214144714E-04
 0.89894108335E-04 0.24308525830E-03 0.35270480125E-03 0.40838268269E-03 0.41185049846E-03
 0.36417904882E-03 0.26237694354E-03 0.11082095331E-03 -.64970420894E-04 -.22075984636E-03
 -.31620676248E-03 -.34057759772E-03 -.31907738041E-03 -.29359481005E-03 -.29312777849E-03
 -.31576671633E-03 -.33262743088E-03 -.30784027626E-03 -.22067782917E-03 -.77789947220E-04
 -.38386537334E-04 -.29487003786E-04 -.48579732294E-04 -.57903479643E-04 -.37591089139E-04
 -.52026627415E-05 -.29432401476E-05 -.61069111712E-04 -.16845048951E-03 -.27716283396E-03
 -.33856298436E-03 -.33998660234E-03 -.31072392507E-03 -.29358607760E-03 -.30792997549E-03
 -.33514996592E-03 -.33645498113E-03 -.28616844419E-03 -.19359108985E-03 -.97497862829E-04
 -.18976116004E-03 -.28497004574E-03 -.35963812510E-03 -.35687381313E-03 -.27242057358E-03
 -.16072858463E-03 -.96116478147E-04 -.11834031613E-03 -.20594871255E-03 -.29801313414E-03
 -.34402661353E-03 -.33922199260E-03 -.31791052898E-03 -.31529712404E-03 -.33392648554E-03
 -.34346971680E-03 -.31176033193E-03 -.23879241844E-03 -.16409360416E-03 -.13989546835E-03
 -.38190559960E-03 -.53485226513E-03 -.60629330852E-03 -.54815252341E-03 -.38901554458E-03
 -.21742845021E-03 -.12215137085E-03 -.13448776603E-03 -.21638348585E-03 -.29957184312E-03
 -.33941625427E-03 -.33902920065E-03 -.32960173092E-03 -.33164217697E-03 -.33455747102E-03
 -.31123023033E-03 -.25187291535E-03 -.18528454108E-03 -.16636087155E-03 -.23587955602E-03
 -.63211962350E-03 -.79526825800E-03 -.81954924985E-03 -.68522818771E-03 -.45664829821E-03
 -.24293520838E-03 -.13000359937E-03 -.13363311873E-03 -.20519489432E-03 -.27853169274E-03
 -.31638079014E-03 -.32203593841E-03 -.31620151990E-03 -.30762669339E-03 -.28600510867E-03
 -.24138236954E-03 -.18929043117E-03 -.17509291462E-03 -.24751601916E-03 -.41717515279E-03
 -.92138289358E-03 -.10477687235E-02 -.99386192511E-03 -.77805247815E-03 -.49411391902E-03
 -.25473375786E-03 -.12882854864E-03 -.11523108487E-03 -.16341709847E-03 -.21701945719E-03
 -.24586936155E-03 -.24942269555E-03 -.23938250728E-03 -.22233875531E-03 -.19828614808E-03
 -.17460774875E-03 -.17954103815E-03 -.25597676273E-03 -.43099147302E-03 -.68052344949E-03
 -.11764766584E-02 -.12288250759E-02 -.10870730691E-02 -.80574796669E-03 -.49260001720E-03
 -.24493512512E-03 -.10430429484E-03 -.55137918086E-04 -.54811539133E-04 -.65601297017E-04
 -.69891632307E-04 -.68445696913E-04 -.70259687671E-04 -.82833671200E-04 -.11029370846E-03
 -.16158096583E-03 -.25915403779E-03 -.43110677106E-03 -.68173923586E-03 -.96238939329E-03
 -.60053693998E-02 -.52868617560E-02 -.37910049614E-02 -.18877271407E-02 -.54131613922E-04
 0.12046813210E-02 0.14813171892E-02 0.66955245609E-03 -.86139463565E-03 -.23317544885E-02
 -.29387363559E-02 -.23521186952E-02 -.94078529263E-03 0.46180882129E-03 0.10688496300E-02
 0.54539924693E-03 -.92386080122E-03 -.28334156417E-02 -.46059672461E-02 -.57606476111E-02
 -.54029311879E-02 -.42891411384E-02 -.25820888288E-02 -.73945351176E-03 0.66872483923E-03