    5    5    1    1
  0.3477306E+02  0.2573869E-09  0.2573869E-09  0.3030466E-08  0.5000000E-15
  1.000000000000000E-004
  CAR 
 unknown system                          
     45     52     28
 
  0.0000000E+00  0.0000000E+00  0.0000000E+00  0.1000000E-01
    1      -11.284083   1.000000
    2      -10.142243   1.000000
    3       -8.667407   1.000000
    4       -7.687337   1.000000
    5       -6.998583   1.000000
    6       -5.652055   1.000000
    7       -5.567881   1.000000
    8       -5.522064   1.000000
    9       -5.521034   1.000000
   10       -5.481652   1.000000
   11       -5.480945   1.000000
   12       -5.351558   1.000000
   13       -5.350807   1.000000
   14       -5.252654   1.000000
   15       -5.252384   1.000000
   16       -5.075936   1.000000
   17       -4.771416   1.000000
   18       -4.769611   1.000000
   19       -4.671215   1.000000
   20       -4.671060   1.000000
   21       -4.437192   1.000000
   22       -4.435138   1.000000
   23       -4.240061   1.000000
   24       -4.239239   1.000000
   25       -3.216011   1.000000
   26        0.145598   0.000000
   27        1.770939   0.000000
   28        2.404840   0.000000
 
  0.1000000E+00  0.6938894E-17  0.0000000E+00  0.2000000E-01
    1      -10.970728   1.000000
    2       -9.842197   1.000000
    3       -8.389929   1.000000
    4       -7.462730   1.000000
    5       -6.869864   1.000000
    6       -5.753108   1.000000
    7       -5.666181   1.000000
    8       -5.610004   1.000000
    9       -5.467151   1.000000
   10       -5.414742   1.000000
   11       -5.405531   1.000000
   12       -5.404862   1.000000
   13       -5.348442   1.000000
   14       -5.252415   1.000000
   15       -5.249705   1.000000
   16       -5.157296   1.000000
   17       -4.840293   1.000000
   18       -4.818102   1.000000
   19       -4.662556   1.000000
   20       -4.660647   1.000000
   21       -4.524957   1.000000
   22       -4.433493   1.000000
   23       -4.234734   1.000000
   24       -4.035536   1.000000
   25       -2.586771   0.185131
   26        0.419699   0.000000
   27        2.067173   0.000000
   28        2.720503   0.000000
 
  0.2000000E+00 -0.1387779E-16  0.0000000E+00  0.2000000E-01
    1      -10.068806   1.000000
    2       -9.001045   1.000000
    3       -7.658177   1.000000
    4       -6.921169   1.000000
    5       -6.575335   1.000000
    6       -6.050825   1.000000
    7       -5.868907   1.000000
    8       -5.783317   1.000000
    9       -5.593706   1.000000
   10       -5.499536   1.000000
   11       -5.464190   1.000000
   12       -5.283467   1.000000
   13       -5.244927   1.000000
   14       -5.137754   1.000000
   15       -5.038133   1.000000
   16       -5.031083   1.000000
   17       -4.926527   1.000000
   18       -4.811641   1.000000
   19       -4.780924   1.000000
   20       -4.636451   1.000000
   21       -4.436902   1.000000
   22       -4.358406   1.000000
   23       -4.226518   1.000000
   24       -3.370085   1.000000
   25       -1.441392   0.000000
   26        1.236489   0.000000
   27        2.958936   0.000000
   28        3.654489   0.000000
 
  0.3000000E+00 -0.2775558E-16  0.0000000E+00  0.2000000E-01
    1       -8.754055   1.000000
    2       -7.916022   1.000000
    3       -7.021080   1.000000
    4       -6.614264   1.000000
    5       -6.381297   1.000000
    6       -6.270053   1.000000
    7       -5.997490   1.000000
    8       -5.801952   1.000000
    9       -5.612639   1.000000
   10       -5.417703   1.000000
   11       -5.316220   1.000000
   12       -5.251618   1.000000
   13       -5.104479   1.000000
   14       -4.991914   1.000000
   15       -4.936417   1.000000
   16       -4.752324   1.000000
   17       -4.624649   1.000000
   18       -4.588256   1.000000
   19       -4.520570   1.000000
   20       -4.442706   1.000000
   21       -4.392703   1.000000
   22       -4.212860   1.000000
   23       -3.988436   1.000000
   24       -2.452322   0.002576
   25       -0.099648   0.000000
   26        2.543544   0.000000
   27        4.420738   0.000000
   28        5.049141   0.000000
 
  0.4000000E+00 -0.2775558E-16  0.0000000E+00  0.2000000E-01
    1       -7.619465   1.000000
    2       -7.290144   1.000000
    3       -6.933440   1.000000
    4       -6.723183   1.000000
    5       -6.571126   1.000000
    6       -6.316503   1.000000
    7       -5.917043   1.000000
    8       -5.718550   1.000000
    9       -5.542950   1.000000
   10       -5.402039   1.000000
   11       -5.240483   1.000000
   12       -5.018300   1.000000
   13       -4.772074   1.000000
   14       -4.588755   1.000000
   15       -4.538488   1.000000
   16       -4.339309   1.000000
   17       -4.314873   1.000000
   18       -4.237212   1.000000
   19       -4.197010   1.000000
   20       -4.098684   1.000000
   21       -4.095478   1.000000
   22       -3.642722   1.000000
   23       -3.048256   1.000000
   24       -1.320317   0.000000
   25        0.763385   0.000000
   26        2.452272   0.000000
   27        3.399328   0.000000
   28        4.838407   0.000000
 
  0.5000000E+00 -0.2775558E-16  0.0000000E+00  0.1000000E-01
    1       -7.320196   1.000000
    2       -7.181372   1.000000
    3       -6.854021   1.000000
    4       -6.770215   1.000000
    5       -6.713366   1.000000
    6       -6.380362   1.000000
    7       -5.875299   1.000000
    8       -5.662504   1.000000
    9       -5.549759   1.000000
   10       -5.436534   1.000000
   11       -5.102712   1.000000
   12       -5.034785   1.000000
   13       -4.645354   1.000000
   14       -4.574681   1.000000
   15       -4.327540   1.000000
   16       -4.287316   1.000000
   17       -4.204808   1.000000
   18       -4.152898   1.000000
   19       -4.099077   1.000000
   20       -3.984519   1.000000
   21       -2.776189   0.962690
   22       -2.318567   0.000001
   23       -1.797112   0.000000
   24       -1.225425   0.000000
   25       -0.984934   0.000000
   26        1.692842   0.000000
   27        2.806392   0.000000
   28        4.326201   0.000000
 
  0.0000000E+00  0.1000000E+00  0.0000000E+00  0.2000000E-01
    1      -10.970730   1.000000
    2       -9.842218   1.000000
    3       -8.389906   1.000000
    4       -7.462675   1.000000
    5       -6.869788   1.000000
    6       -5.752708   1.000000
    7       -5.666793   1.000000
    8       -5.609614   1.000000
    9       -5.466887   1.000000
   10       -5.414922   1.000000
   11       -5.405907   1.000000
   12       -5.404247   1.000000
   13       -5.348987   1.000000
   14       -5.252059   1.000000
   15       -5.249504   1.000000
   16       -5.157089   1.000000
   17       -4.840566   1.000000
   18       -4.818468   1.000000
   19       -4.664178   1.000000
   20       -4.660729   1.000000
   21       -4.525061   1.000000
   22       -4.432530   1.000000
   23       -4.234398   1.000000
   24       -4.035377   1.000000
   25       -2.586693   0.184834
   26        0.419692   0.000000
   27        2.067176   0.000000
   28        2.720207   0.000000
 
  0.1000000E+00  0.1000000E+00  0.0000000E+00  0.2000000E-01
    1      -10.970723   1.000000
    2       -9.842213   1.000000
    3       -8.389994   1.000000
    4       -7.462730   1.000000
    5       -6.869860   1.000000
    6       -5.752110   1.000000
    7       -5.667564   1.000000
    8       -5.608824   1.000000
    9       -5.466199   1.000000
   10       -5.415559   1.000000
   11       -5.405863   1.000000
   12       -5.404240   1.000000
   13       -5.349323   1.000000
   14       -5.251906   1.000000
   15       -5.249200   1.000000
   16       -5.157262   1.000000
   17       -4.840023   1.000000
   18       -4.819390   1.000000
   19       -4.664399   1.000000
   20       -4.662143   1.000000
   21       -4.524928   1.000000
   22       -4.431777   1.000000
   23       -4.234015   1.000000
   24       -4.035034   1.000000
   25       -2.586643   0.184649
   26        0.419450   0.000000
   27        2.067174   0.000000
   28        2.721838   0.000000
 
  0.2000000E+00  0.1000000E+00  0.0000000E+00  0.2000000E-01
    1      -10.361404   1.000000
    2       -9.268224   1.000000
    3       -7.876633   1.000000
    4       -7.066310   1.000000
    5       -6.656909   1.000000
    6       -5.896636   1.000000
    7       -5.877125   1.000000
    8       -5.748818   1.000000
    9       -5.572694   1.000000
   10       -5.526287   1.000000
   11       -5.443206   1.000000
   12       -5.339057   1.000000
   13       -5.271612   1.000000
   14       -5.204623   1.000000
   15       -5.049568   1.000000
   16       -5.011345   1.000000
   17       -4.924449   1.000000
   18       -4.857036   1.000000
   19       -4.764861   1.000000
   20       -4.599676   1.000000
   21       -4.564975   1.000000
   22       -4.304208   1.000000
   23       -4.282496   1.000000
   24       -3.556944   1.000000
   25       -1.767340   0.000000
   26        0.967504   0.000000
   27        2.661841   0.000000
   28        3.350649   0.000000
 
  0.3000000E+00  0.1000000E+00  0.0000000E+00  0.2000000E-01
    1       -9.233195   1.000000
    2       -8.267085   1.000000
    3       -7.116367   1.000000
    4       -6.565920   1.000000
    5       -6.388340   1.000000
    6       -6.177412   1.000000
    7       -5.984882   1.000000
    8       -5.899627   1.000000
    9       -5.679078   1.000000
   10       -5.590448   1.000000
   11       -5.527348   1.000000
   12       -5.366543   1.000000
   13       -5.232324   1.000000
   14       -5.119045   1.000000
   15       -4.961199   1.000000
   16       -4.850573   1.000000
   17       -4.759572   1.000000
   18       -4.633400   1.000000
   19       -4.527216   1.000000
   20       -4.502056   1.000000
   21       -4.410470   1.000000
   22       -4.293492   1.000000
   23       -4.053410   1.000000
   24       -2.779457   0.966300
   25       -0.569899   0.000000
   26        2.055745   0.000000
   27        3.853329   0.000000
   28        4.531602   0.000000
 
  0.4000000E+00  0.1000000E+00  0.0000000E+00  0.2000000E-01
    1       -7.924186   1.000000
    2       -7.368653   1.000000
    3       -6.847590   1.000000
    4       -6.577236   1.000000
    5       -6.369836   1.000000
    6       -6.230894   1.000000
    7       -5.987522   1.000000
    8       -5.821862   1.000000
    9       -5.575779   1.000000
   10       -5.469901   1.000000
   11       -5.314029   1.000000
   12       -5.216838   1.000000
   13       -5.094167   1.000000
   14       -4.972546   1.000000
   15       -4.860355   1.000000
   16       -4.657347   1.000000
   17       -4.581228   1.000000
   18       -4.410434   1.000000
   19       -4.310245   1.000000
   20       -4.221263   1.000000
   21       -3.969627   1.000000
   22       -3.867941   1.000000
   23       -3.300820   1.000000
   24       -1.630843   0.000000
   25        0.796292   0.000000
   26        3.331437   0.000000
   27        4.338370   0.000000
   28        5.379253   0.000000
 
  0.5000000E+00  0.1000000E+00  0.0000000E+00  0.2000000E-01
    1       -7.239982   1.000000
    2       -7.087739   1.000000
    3       -6.776711   1.000000
    4       -6.690432   1.000000
    5       -6.553360   1.000000
    6       -6.311644   1.000000
    7       -5.914244   1.000000
    8       -5.671823   1.000000
    9       -5.577205   1.000000
   10       -5.441961   1.000000
   11       -5.310335   1.000000
   12       -4.978977   1.000000
   13       -4.807276   1.000000
   14       -4.698767   1.000000
   15       -4.567373   1.000000
   16       -4.464504   1.000000
   17       -4.356159   1.000000
   18       -4.297508   1.000000
   19       -4.211183   1.000000
   20       -4.129711   1.000000
   21       -2.785107   0.971863
   22       -2.558378   0.097226
   23       -1.944885   0.000000
   24       -0.661473   0.000000
   25        0.203262   0.000000
   26        2.000673   0.000000
   27        3.174897   0.000000
   28        4.505399   0.000000
 
 -0.4000000E+00  0.1000000E+00  0.0000000E+00  0.2000000E-01
    1       -7.239873   1.000000
    2       -7.087729   1.000000
    3       -6.776567   1.000000
    4       -6.690282   1.000000
    5       -6.553186   1.000000
    6       -6.312363   1.000000
    7       -5.912829   1.000000
    8       -5.674272   1.000000
    9       -5.575487   1.000000
   10       -5.441001   1.000000
   11       -5.313271   1.000000
   12       -4.972549   1.000000
   13       -4.811136   1.000000
   14       -4.704092   1.000000
   15       -4.563057   1.000000
   16       -4.467284   1.000000
   17       -4.354780   1.000000
   18       -4.297800   1.000000
   19       -4.210975   1.000000
   20       -4.129467   1.000000
   21       -2.786694   0.973281
   22       -2.553531   0.085958
   23       -1.945047   0.000000
   24       -0.663283   0.000000
   25        0.201958   0.000000
   26        2.001014   0.000000
   27        3.175247   0.000000
   28        4.505523   0.000000
 
 -0.3000000E+00  0.1000000E+00  0.0000000E+00  0.2000000E-01
    1       -7.924230   1.000000
    2       -7.368504   1.000000
    3       -6.847143   1.000000
    4       -6.577002   1.000000
    5       -6.368865   1.000000
    6       -6.233597   1.000000
    7       -5.985653   1.000000
    8       -5.819554   1.000000
    9       -5.576529   1.000000
   10       -5.468312   1.000000
   11       -5.320558   1.000000
   12       -5.217640   1.000000
   13       -5.089256   1.000000
   14       -4.967969   1.000000
   15       -4.871914   1.000000
   16       -4.660446   1.000000
   17       -4.579250   1.000000
   18       -4.406765   1.000000
   19       -4.309496   1.000000
   20       -4.222433   1.000000
   21       -3.969370   1.000000
   22       -3.863603   1.000000
   23       -3.300048   1.000000
   24       -1.633162   0.000000
   25        0.795659   0.000000
   26        3.331811   0.000000
   27        4.338233   0.000000
   28        5.378678   0.000000
 
 -0.2000000E+00  0.1000000E+00  0.0000000E+00  0.2000000E-01
    1       -9.233263   1.000000
    2       -8.267079   1.000000
    3       -7.115439   1.000000
    4       -6.564122   1.000000
    5       -6.391847   1.000000
    6       -6.175684   1.000000
    7       -5.985967   1.000000
    8       -5.897852   1.000000
    9       -5.680167   1.000000
   10       -5.589963   1.000000
   11       -5.527211   1.000000
   12       -5.366568   1.000000
   13       -5.231927   1.000000
   14       -5.123363   1.000000
   15       -4.960934   1.000000
   16       -4.853002   1.000000
   17       -4.760723   1.000000
   18       -4.631199   1.000000
   19       -4.523787   1.000000
   20       -4.501149   1.000000
   21       -4.409696   1.000000
   22       -4.295343   1.000000
   23       -4.050729   1.000000
   24       -2.781680   0.968589
   25       -0.570288   0.000000
   26        2.056425   0.000000
   27        3.853301   0.000000
   28        4.531505   0.000000
 
 -0.1000000E+00  0.1000000E+00  0.0000000E+00  0.2000000E-01
    1      -10.361436   1.000000
    2       -9.268247   1.000000
    3       -7.876298   1.000000
    4       -7.066164   1.000000
    5       -6.657003   1.000000
    6       -5.896454   1.000000
    7       -5.877605   1.000000
    8       -5.749276   1.000000
    9       -5.571379   1.000000
   10       -5.527304   1.000000
   11       -5.443560   1.000000
   12       -5.339665   1.000000
   13       -5.271533   1.000000
   14       -5.204034   1.000000
   15       -5.048904   1.000000
   16       -5.012898   1.000000
   17       -4.925266   1.000000
   18       -4.857816   1.000000
   19       -4.760723   1.000000
   20       -4.599676   1.000000
   21       -4.566986   1.000000
   22       -4.301395   1.000000
   23       -4.283063   1.000000
   24       -3.558601   1.000000
   25       -1.767554   0.000000
   26        0.968141   0.000000
   27        2.661826   0.000000
   28        3.348551   0.000000
 
  0.0000000E+00  0.2000000E+00  0.0000000E+00  0.2000000E-01
    1      -10.068820   1.000000
    2       -9.001224   1.000000
    3       -7.658085   1.000000
    4       -6.919938   1.000000
    5       -6.577474   1.000000
    6       -6.047695   1.000000
    7       -5.868941   1.000000
    8       -5.780620   1.000000
    9       -5.595839   1.000000
   10       -5.499397   1.000000
   11       -5.464553   1.000000
   12       -5.282623   1.000000
   13       -5.246270   1.000000
   14       -5.138058   1.000000
   15       -5.039247   1.000000
   16       -5.030600   1.000000
   17       -4.926013   1.000000
   18       -4.813839   1.000000
   19       -4.781191   1.000000
   20       -4.636808   1.000000
   21       -4.436439   1.000000
   22       -4.359465   1.000000
   23       -4.226082   1.000000
   24       -3.369430   1.000000
   25       -1.441106   0.000000
   26        1.236758   0.000000
   27        2.958962   0.000000
   28        3.654424   0.000000
 
  0.1000000E+00  0.2000000E+00  0.0000000E+00  0.2000000E-01
    1      -10.361410   1.000000
    2       -9.268317   1.000000
    3       -7.876610   1.000000
    4       -7.066054   1.000000
    5       -6.656418   1.000000
    6       -5.896656   1.000000
    7       -5.876687   1.000000
    8       -5.748811   1.000000
    9       -5.574521   1.000000
   10       -5.525749   1.000000
   11       -5.443073   1.000000
   12       -5.338687   1.000000
   13       -5.271562   1.000000
   14       -5.204518   1.000000
   15       -5.049442   1.000000
   16       -5.009724   1.000000
   17       -4.923759   1.000000
   18       -4.856433   1.000000
   19       -4.769837   1.000000
   20       -4.600235   1.000000
   21       -4.562142   1.000000
   22       -4.307418   1.000000
   23       -4.281635   1.000000
   24       -3.555937   1.000000
   25       -1.767119   0.000000
   26        0.967748   0.000000
   27        2.661857   0.000000
   28        3.350123   0.000000
 
  0.2000000E+00  0.2000000E+00  0.0000000E+00  0.2000000E-01
    1      -10.068767   1.000000
    2       -9.001160   1.000000
    3       -7.658266   1.000000
    4       -6.919233   1.000000
    5       -6.581365   1.000000
    6       -6.044494   1.000000
    7       -5.869243   1.000000
    8       -5.778330   1.000000
    9       -5.597200   1.000000
   10       -5.498277   1.000000
   11       -5.464819   1.000000
   12       -5.281899   1.000000
   13       -5.246834   1.000000
   14       -5.138886   1.000000
   15       -5.039029   1.000000
   16       -5.030734   1.000000
   17       -4.925826   1.000000
   18       -4.814561   1.000000
   19       -4.782672   1.000000
   20       -4.637530   1.000000
   21       -4.435388   1.000000
   22       -4.360305   1.000000
   23       -4.225735   1.000000
   24       -3.367656   1.000000
   25       -1.440810   0.000000
   26        1.235944   0.000000
   27        2.958978   0.000000
   28        3.654957   0.000000
 
  0.3000000E+00  0.2000000E+00  0.0000000E+00  0.2000000E-01
    1       -9.233155   1.000000
    2       -8.267272   1.000000
    3       -7.116246   1.000000
    4       -6.556250   1.000000
    5       -6.410550   1.000000
    6       -6.166037   1.000000
    7       -5.989720   1.000000
    8       -5.884792   1.000000
    9       -5.689725   1.000000
   10       -5.585684   1.000000
   11       -5.524304   1.000000
   12       -5.365133   1.000000
   13       -5.237671   1.000000
   14       -5.120069   1.000000
   15       -4.961746   1.000000
   16       -4.854003   1.000000
   17       -4.762126   1.000000
   18       -4.629597   1.000000
   19       -4.524924   1.000000
   20       -4.504185   1.000000
   21       -4.410480   1.000000
   22       -4.293716   1.000000
   23       -4.052679   1.000000
   24       -2.778534   0.965311
   25       -0.569400   0.000000
   26        2.055189   0.000000
   27        3.853337   0.000000
   28        4.531483   0.000000
 
  0.4000000E+00  0.2000000E+00  0.0000000E+00  0.2000000E-01
    1       -8.043203   1.000000
    2       -7.368933   1.000000
    3       -6.723026   1.000000
    4       -6.369844   1.000000
    5       -6.273789   1.000000
    6       -6.112558   1.000000
    7       -5.989079   1.000000
    8       -5.869968   1.000000
    9       -5.768366   1.000000
   10       -5.627169   1.000000
   11       -5.575445   1.000000
   12       -5.392360   1.000000
   13       -5.259468   1.000000
   14       -5.198884   1.000000
   15       -4.939903   1.000000
   16       -4.734694   1.000000
   17       -4.659165   1.000000
   18       -4.515956   1.000000
   19       -4.297441   1.000000
   20       -4.227802   1.000000
   21       -3.904900   1.000000
   22       -3.846116   1.000000
   23       -3.290299   1.000000
   24       -1.709075   0.000000
   25        0.710162   0.000000
   26        3.383000   0.000000
   27        5.308066   0.000000
   28        5.858477   0.000000
 
  0.5000000E+00  0.2000000E+00  0.0000000E+00  0.2000000E-01
    1       -7.066389   1.000000
    2       -6.873130   1.000000
    3       -6.642494   1.000000
    4       -6.475884   1.000000
    5       -6.277520   1.000000
    6       -6.138231   1.000000
    7       -6.020676   1.000000
    8       -5.808035   1.000000
    9       -5.712994   1.000000
   10       -5.453392   1.000000
   11       -5.321480   1.000000
   12       -5.300147   1.000000
   13       -5.185527   1.000000
   14       -5.061975   1.000000
   15       -4.885289   1.000000
   16       -4.730164   1.000000
   17       -4.613698   1.000000
   18       -4.443244   1.000000
   19       -4.234556   1.000000
   20       -4.138107   1.000000
   21       -2.848118   0.997445
   22       -2.667699   0.598127
   23       -1.848237   0.000000
   24       -0.192298   0.000000
   25        1.903851   0.000000
   26        3.075222   0.000000
   27        4.137652   0.000000
   28        5.339818   0.000000
 
 -0.4000000E+00  0.2000000E+00  0.0000000E+00  0.2000000E-01
    1       -6.846269   1.000000
    2       -6.811263   1.000000
    3       -6.539470   1.000000
    4       -6.456569   1.000000
    5       -6.371252   1.000000
    6       -6.168997   1.000000
    7       -6.050691   1.000000
    8       -5.748847   1.000000
    9       -5.662492   1.000000
   10       -5.487270   1.000000
   11       -5.370405   1.000000
   12       -5.073571   1.000000
   13       -5.045344   1.000000
   14       -4.953381   1.000000
   15       -4.859592   1.000000
   16       -4.653345   1.000000
   17       -4.530621   1.000000
   18       -4.325476   1.000000
   19       -4.300091   1.000000
   20       -4.200449   1.000000
   21       -1.969508   0.000000
   22       -0.979163   0.000000
   23       -0.525964   0.000000
   24        0.019107   0.000000
   25        0.557092   0.000000
   26        2.233448   0.000000
   27        3.441750   0.000000
   28        4.914419   0.000000
 
 -0.3000000E+00  0.2000000E+00  0.0000000E+00  0.2000000E-01
    1       -7.065982   1.000000
    2       -6.872697   1.000000
    3       -6.642216   1.000000
    4       -6.475867   1.000000
    5       -6.277888   1.000000
    6       -6.139992   1.000000
    7       -6.019781   1.000000
    8       -5.809135   1.000000
    9       -5.709064   1.000000
   10       -5.444802   1.000000
   11       -5.327819   1.000000
   12       -5.305070   1.000000
   13       -5.185448   1.000000
   14       -5.063547   1.000000
   15       -4.890466   1.000000
   16       -4.726276   1.000000
   17       -4.615738   1.000000
   18       -4.440400   1.000000
   19       -4.234203   1.000000
   20       -4.137799   1.000000
   21       -2.847322   0.997355
   22       -2.663634   0.575743
   23       -1.849130   0.000000
   24       -0.196231   0.000000
   25        1.901102   0.000000
   26        3.075676   0.000000
   27        4.138592   0.000000
   28        5.338416   0.000000
 
 -0.2000000E+00  0.2000000E+00  0.0000000E+00  0.2000000E-01
    1       -8.043381   1.000000
    2       -7.368615   1.000000
    3       -6.722026   1.000000
    4       -6.369265   1.000000
    5       -6.274092   1.000000
    6       -6.112285   1.000000
    7       -5.988611   1.000000
    8       -5.869531   1.000000
    9       -5.767825   1.000000
   10       -5.627952   1.000000
   11       -5.575314   1.000000
   12       -5.384717   1.000000
   13       -5.272976   1.000000
   14       -5.201469   1.000000
   15       -4.934909   1.000000
   16       -4.742012   1.000000
   17       -4.658290   1.000000
   18       -4.510946   1.000000
   19       -4.296976   1.000000
   20       -4.227974   1.000000
   21       -3.903017   1.000000
   22       -3.843283   1.000000
   23       -3.289818   1.000000
   24       -1.712941   0.000000
   25        0.708895   0.000000
   26        3.384619   0.000000
   27        5.308265   0.000000
   28        5.855976   0.000000
 
 -0.1000000E+00  0.2000000E+00  0.0000000E+00  0.2000000E-01
    1       -9.233284   1.000000
    2       -8.267323   1.000000
    3       -7.115467   1.000000
    4       -6.559035   1.000000
    5       -6.402188   1.000000
    6       -6.170059   1.000000
    7       -5.988245   1.000000
    8       -5.889516   1.000000
    9       -5.685007   1.000000
   10       -5.588183   1.000000
   11       -5.525843   1.000000
   12       -5.365897   1.000000
   13       -5.235544   1.000000
   14       -5.124169   1.000000
   15       -4.961076   1.000000
   16       -4.854823   1.000000
   17       -4.761858   1.000000
   18       -4.629335   1.000000
   19       -4.522904   1.000000
   20       -4.502073   1.000000
   21       -4.409676   1.000000
   22       -4.295422   1.000000
   23       -4.050666   1.000000
   24       -2.781692   0.968600
   25       -0.570085   0.000000
   26        2.056480   0.000000
   27        3.853321   0.000000
   28        4.531474   0.000000
 
  0.0000000E+00  0.3000000E+00  0.0000000E+00  0.2000000E-01
    1       -8.754070   1.000000
    2       -7.916843   1.000000
    3       -7.021734   1.000000
    4       -6.611364   1.000000
    5       -6.388291   1.000000
    6       -6.268794   1.000000
    7       -5.987936   1.000000
    8       -5.792364   1.000000
    9       -5.615819   1.000000
   10       -5.421507   1.000000
   11       -5.315636   1.000000
   12       -5.259378   1.000000
   13       -5.106525   1.000000
   14       -4.992237   1.000000
   15       -4.934401   1.000000
   16       -4.752286   1.000000
   17       -4.624652   1.000000
   18       -4.587977   1.000000
   19       -4.521058   1.000000
   20       -4.442358   1.000000
   21       -4.392426   1.000000
   22       -4.212476   1.000000
   23       -3.990963   1.000000
   24       -2.452582   0.002605
   25       -0.099059   0.000000
   26        2.543017   0.000000
   27        4.420619   0.000000
   28        5.049475   0.000000
 
  0.1000000E+00  0.3000000E+00  0.0000000E+00  0.2000000E-01
    1       -9.233232   1.000000
    2       -8.267560   1.000000
    3       -7.116680   1.000000
    4       -6.562103   1.000000
    5       -6.392888   1.000000
    6       -6.173165   1.000000
    7       -5.986232   1.000000
    8       -5.893597   1.000000
    9       -5.684000   1.000000
   10       -5.590074   1.000000
   11       -5.526627   1.000000
   12       -5.366793   1.000000
   13       -5.235876   1.000000
   14       -5.115825   1.000000
   15       -4.961681   1.000000
   16       -4.849282   1.000000
   17       -4.760615   1.000000
   18       -4.633450   1.000000
   19       -4.529041   1.000000
   20       -4.503478   1.000000
   21       -4.410411   1.000000
   22       -4.291762   1.000000
   23       -4.057034   1.000000
   24       -2.778474   0.965246
   25       -0.569386   0.000000
   26        2.055980   0.000000
   27        3.853409   0.000000
   28        4.531565   0.000000
 
  0.2000000E+00  0.3000000E+00  0.0000000E+00  0.2000000E-01
    1       -9.233171   1.000000
    2       -8.267502   1.000000
    3       -7.116536   1.000000
    4       -6.557546   1.000000
    5       -6.404812   1.000000
    6       -6.167365   1.000000
    7       -5.988820   1.000000
    8       -5.886980   1.000000
    9       -5.689896   1.000000
   10       -5.587009   1.000000
   11       -5.524978   1.000000
   12       -5.366080   1.000000
   13       -5.237663   1.000000
   14       -5.115994   1.000000
   15       -4.962092   1.000000
   16       -4.850901   1.000000
   17       -4.761980   1.000000
   18       -4.631510   1.000000
   19       -4.527685   1.000000
   20       -4.504646   1.000000
   21       -4.410442   1.000000
   22       -4.291907   1.000000
   23       -4.056363   1.000000
   24       -2.777539   0.964217
   25       -0.569093   0.000000
   26        2.055357   0.000000
   27        3.853397   0.000000
   28        4.531517   0.000000
 
  0.3000000E+00  0.3000000E+00  0.0000000E+00  0.2000000E-01
    1       -8.753847   1.000000
    2       -7.916798   1.000000
    3       -7.021839   1.000000
    4       -6.609106   1.000000
    5       -6.397541   1.000000
    6       -6.270739   1.000000
    7       -5.980046   1.000000
    8       -5.782053   1.000000
    9       -5.620100   1.000000
   10       -5.427066   1.000000
   11       -5.315091   1.000000
   12       -5.265936   1.000000
   13       -5.106763   1.000000
   14       -4.991079   1.000000
   15       -4.929167   1.000000
   16       -4.752991   1.000000
   17       -4.624308   1.000000
   18       -4.588372   1.000000
   19       -4.522391   1.000000
   20       -4.442348   1.000000
   21       -4.392577   1.000000
   22       -4.211990   1.000000
   23       -3.990640   1.000000
   24       -2.449475   0.002272
   25       -0.097906   0.000000
   26        2.541191   0.000000
   27        4.420322   0.000000
   28        5.050618   0.000000
 
  0.4000000E+00  0.3000000E+00  0.0000000E+00  0.2000000E-01
    1       -7.923476   1.000000
    2       -7.369758   1.000000
    3       -6.850099   1.000000
    4       -6.577809   1.000000