unknown system                          
   1.00000000000000     
     2.573869    0.000000    0.000000
     1.286934    2.229036    0.000000
     0.000000    0.000000   30.304665
   Cu   H 
     4     1
Direct
  0.000000  0.000000  0.395979
  0.333333  0.333333  0.465326
  0.666667  0.666667  0.534674
  0.000000  0.000000  0.604021
  0.038852  0.000000  0.663418
 
   10   10  120
 0.14790E-11 0.41307E-12 0.75329E-13 0.24727E-09 0.43354E-13 0.28123E-11 0.27298E-13 0.23335E-06 0.51945E-12 0.14969E-11
 0.13580E-12 0.56416E-11 0.18970E-12 0.99099E-12 0.14932E-13 0.30089E-11 0.54637E-13 0.17103E-11 0.76425E-13 0.53695E-12
 0.69188E-13 0.39366E-12 0.10429E-12 0.98116E-13 0.55372E-14 0.70888E-13 0.56066E-13 0.40865E-12 0.29178E-13 0.12736E-12
 0.67554E-11 0.31316E-11 0.53457E-13 0.52805E-13 0.13184E-13 0.60249E-12 0.36984E-13 0.29929E-11 0.80466E-12 0.70581E-11
 0.58842E-13 0.18555E-13 0.44270E-14 0.13350E-13 0.17805E-13 0.29865E-13 0.37331E-14 0.36873E-13 0.53652E-13 0.45616E-13
 0.84970E-12 0.26913E-10 0.42424E-13 0.59716E-12 0.29643E-13 0.22560E-11 0.29976E-13 0.53636E-12 0.88263E-13 0.31562E-10
 0.15765E-13 0.47976E-13 0.48378E-13 0.36554E-13 0.35250E-14 0.29740E-13 0.17514E-13 0.12379E-13 0.63421E-14 0.22982E-13
 0.39118E-11 0.69367E-11 0.16458E-12 0.27562E-11 0.34889E-13 0.53246E-12 0.12740E-13 0.50723E-13 0.12262E-12 0.30112E-11
 0.51245E-12 0.99892E-13 0.17895E-13 0.75433E-12 0.51459E-13 0.84002E-13 0.60923E-14 0.11841E-12 0.18524E-12 0.58598E-12
 0.55310E-12 0.35502E-12 0.35468E-13 0.15633E-11 0.53610E-13 0.23071E-11 0.15196E-13 0.89252E-12 0.63373E-12 0.47669E-11
 0.75947E-12 0.46378E-12 0.24230E-12 0.20863E-11 0.98949E-14 0.45022E-12 0.23638E-12 0.16391E-11 0.83725E-13 0.24613E-12
 0.82042E-12 0.33612E-11 0.26497E-12 0.93464E-12 0.89234E-14 0.12838E-11 0.17880E-12 0.19064E-11 0.10209E-12 0.85973E-12
 0.45318E-12 0.55569E-12 0.11730E-12 0.74427E-13 0.30809E-14 0.55789E-13 0.12507E-12 0.48342E-12 0.35874E-13 0.15512E-12
 0.18696E-08 0.21360E-11 0.47254E-13 0.12199E-13 0.40939E-14 0.19115E-12 0.13031E-12 0.29634E-11 0.67515E-12 0.10619E-10
 0.14780E-13 0.10492E-13 0.26923E-14 0.42605E-14 0.74107E-14 0.15113E-13 0.48850E-14 0.21982E-13 0.35263E-13 0.25119E-13
 0.19602E-11 0.33380E-11 0.37484E-13 0.18818E-12 0.14849E-13 0.21397E-11 0.70985E-13 0.53474E-10 0.20864E-12 0.13456E-10
 0.19883E-12 0.15887E-12 0.97228E-13 0.12824E-12 0.47878E-14 0.71596E-13 0.86695E-13 0.72636E-13 0.17916E-13 0.52458E-13
 0.69500E-10 0.65624E-11 0.20058E-12 0.27359E-11 0.20955E-13 0.44249E-10 0.76827E-13 0.10073E-11 0.34150E-12 0.17326E-10
 0.16567E-12 0.12818E-12 0.23051E-13 0.64019E-12 0.34944E-13 0.19047E-12 0.17000E-13 0.32684E-12 0.27188E-12 0.40404E-12
 0.28430E-12 0.55502E-12 0.45547E-13 0.21861E-11 0.30004E-13 0.39471E-10 0.31225E-13 0.26101E-11 0.45149E-12 0.63092E-10
 0.35152E-13 0.44055E-13 0.66613E-13 0.44006E-13 0.20817E-14 0.31433E-13 0.82961E-13 0.42785E-13 0.12317E-13 0.21635E-13
 0.10693E-12 0.13766E-11 0.30476E-12 0.54591E-12 0.48017E-14 0.42424E-12 0.39466E-12 0.18049E-11 0.80158E-13 0.64454E-12
 0.14556E-12 0.69705E-12 0.81823E-13 0.25174E-13 0.15127E-14 0.19970E-13 0.14433E-12 0.44399E-12 0.31322E-13 0.15359E-12
 0.11734E-12 0.98435E-12 0.18596E-13 0.33723E-14 0.14433E-14 0.39441E-13 0.32026E-12 0.29719E-11 0.53695E-12 0.16106E-10
 0.28449E-14 0.54262E-14 0.14572E-14 0.14572E-14 0.29282E-14 0.70499E-14 0.38719E-14 0.99920E-14 0.17819E-13 0.11546E-13
 0.70763E-13 0.66049E-12 0.15501E-13 0.39649E-13 0.69250E-14 0.23133E-11 0.18407E-12 0.71505E-10 0.17562E-12 0.46593E-11
 0.18364E-12 0.36404E-12 0.10197E-12 0.31961E-12 0.38719E-14 0.18435E-12 0.31421E-12 0.24344E-12 0.31919E-13 0.11886E-12
 0.11201E-12 0.54510E-11 0.18760E-12 0.27633E-11 0.97145E-14 0.86458E-10 0.25825E-12 0.44754E-11 0.24922E-12 0.18617E-08
 0.20282E-13 0.99178E-13 0.20414E-13 0.49910E-12 0.17403E-13 0.16387E-12 0.29685E-13 0.23963E-12 0.27732E-12 0.27328E-12
 0.27513E-13 0.43746E-12 0.47969E-13 0.28793E-11 0.13295E-13 0.19876E-09 0.64990E-13 0.69697E-11 0.31489E-12 0.57419E-10
 0.80214E-14 0.10131E-13 0.13850E-13 0.91038E-14 0.76328E-15 0.60368E-14 0.13253E-13 0.85071E-14 0.33723E-14 0.59536E-14
 0.18235E-13 0.95617E-12 0.47599E-12 0.49541E-12 0.36637E-14 0.27851E-12 0.20311E-11 0.19768E-11 0.97075E-13 0.87605E-12
 0.22621E-13 0.11985E-11 0.83974E-13 0.23398E-13 0.97145E-15 0.17958E-13 0.21136E-12 0.52612E-12 0.31281E-13 0.15880E-12
 0.15543E-13 0.74972E-12 0.18818E-13 0.17764E-14 0.81879E-15 0.27173E-13 0.33086E-11 0.29210E-11 0.38632E-12 0.26854E-10
 0.97145E-15 0.39274E-14 0.10825E-14 0.86042E-15 0.17208E-14 0.49682E-14 0.39552E-14 0.70083E-14 0.10575E-13 0.79381E-14
 0.99087E-14 0.36725E-12 0.15210E-13 0.27645E-13 0.48572E-14 0.22665E-11 0.80007E-12 0.23899E-10 0.20343E-12 0.19704E-11
 0.23218E-13 0.19779E-11 0.13725E-12 0.32481E-11 0.39135E-14 0.79635E-12 0.11253E-11 0.20819E-12 0.60243E-13 0.39649E-12
 0.14821E-13 0.51236E-11 0.22776E-12 0.27257E-11 0.68417E-14 0.25491E-10 0.21683E-12 0.44102E-12 0.27596E-12 0.14539E-10
 0.47462E-14 0.11774E-12 0.21053E-13 0.36655E-12 0.10325E-13 0.19429E-12 0.56746E-13 0.26833E-12 0.31959E-12 0.18330E-12
 0.72581E-14 0.60109E-12 0.52860E-13 0.38632E-11 0.89928E-14 0.59548E-11 0.19368E-12 0.51053E-08 0.21502E-12 0.62047E-11
 0.21233E-14 0.27062E-14 0.36221E-14 0.25396E-14 0.27756E-15 0.19568E-14 0.27478E-14 0.24564E-14 0.12490E-14 0.18319E-14
 0.40939E-14 0.59246E-12 0.74439E-12 0.31986E-12 0.22760E-14 0.13804E-12 0.37859E-11 0.19763E-11 0.90178E-13 0.83504E-12
 0.50793E-14 0.21154E-11 0.62367E-13 0.82157E-14 0.52042E-15 0.70638E-14 0.13453E-12 0.55153E-12 0.29574E-13 0.18294E-12
 0.37054E-14 0.43708E-12 0.70915E-14 0.63838E-15 0.34694E-15 0.93398E-14 0.37709E-10 0.29209E-11 0.40688E-12 0.63968E-10
 0.33307E-15 0.25119E-14 0.53429E-15 0.29143E-15 0.79103E-15 0.28588E-14 0.32058E-14 0.37470E-14 0.57038E-14 0.41078E-14
 0.27200E-14 0.16517E-12 0.63005E-14 0.91871E-14 0.28727E-14 0.25276E-11 0.17667E-11 0.25444E-11 0.79783E-13 0.21694E-11
 0.38858E-14 0.49420E-11 0.89373E-13 0.35401E-10 0.30115E-14 0.17635E-11 0.20495E-12 0.31586E-13 0.43091E-13 0.69067E-12
 0.36221E-14 0.45277E-11 0.25438E-12 0.27520E-11 0.37470E-14 0.24903E-11 0.31863E-13 0.35277E-13 0.94036E-13 0.49784E-11
 0.15682E-14 0.10403E-12 0.20567E-13 0.38793E-12 0.55511E-14 0.75648E-13 0.40731E-13 0.91413E-13 0.28076E-12 0.16021E-12
 0.21511E-14 0.56802E-12 0.64546E-13 0.70904E-11 0.46491E-14 0.64852E-11 0.34150E-12 0.26184E-10 0.18650E-12 0.20237E-11
 0.61062E-15 0.99920E-15 0.14710E-14 0.90206E-15 0.18041E-15 0.68695E-15 0.88818E-15 0.80491E-15 0.66613E-15 0.72164E-15
 0.13878E-14 0.45017E-12 0.12995E-11 0.25664E-12 0.15543E-14 0.83919E-13 0.35406E-11 0.20293E-11 0.10342E-12 0.73311E-12
 0.18319E-14 0.52362E-11 0.54734E-13 0.59119E-14 0.32613E-15 0.50654E-14 0.92398E-13 0.64465E-12 0.32946E-13 0.16773E-12
 0.12629E-14 0.32381E-12 0.52736E-14 0.41633E-15 0.20123E-15 0.61201E-14 0.55218E-07 0.28067E-11 0.30723E-12 0.20236E-09
 0.83267E-16 0.16515E-14 0.40939E-15 0.13878E-15 0.60368E-15 0.18457E-14 0.26507E-14 0.24147E-14 0.38858E-14 0.26507E-14
 0.92981E-15 0.95930E-13 0.46768E-14 0.60507E-14 0.18180E-14 0.25663E-11 0.21429E-11 0.45340E-12 0.48767E-13 0.18945E-11
 0.11380E-14 0.57314E-11 0.64546E-13 0.24055E-07 0.25119E-14 0.21313E-11 0.64143E-13 0.85765E-14 0.29379E-13 0.83331E-12
 0.11657E-14 0.40741E-11 0.29676E-12 0.26469E-11 0.24147E-14 0.45401E-12 0.85626E-14 0.91593E-14 0.53235E-13 0.21478E-11
 0.72164E-15 0.12018E-12 0.23481E-13 0.28991E-12 0.38303E-14 0.47531E-13 0.28352E-13 0.52500E-13 0.31369E-12 0.11477E-12
 0.86042E-15 0.52011E-12 0.64893E-13 0.10850E-10 0.29698E-14 0.37817E-11 0.53207E-12 0.45714E-11 0.13545E-12 0.11702E-11
 0.33307E-15 0.49960E-15 0.52736E-15 0.38858E-15 0.11102E-15 0.36082E-15 0.36082E-15 0.43021E-15 0.27756E-15 0.55511E-15
 0.77716E-15 0.30664E-12 0.34606E-11 0.19185E-12 0.12074E-14 0.49946E-13 0.10337E-11 0.20710E-11 0.85015E-13 0.77183E-12
 0.72164E-15 0.38986E-10 0.47323E-13 0.33168E-14 0.24286E-15 0.29560E-14 0.53499E-13 0.72961E-12 0.26756E-13 0.16726E-12
 0.61062E-15 0.22782E-12 0.31086E-14 0.15959E-15 0.12490E-15 0.32890E-14 0.10980E-10 0.27828E-11 0.31361E-12 0.27028E-06
 0.55511E-16 0.11519E-14 0.27062E-15 0.69389E-16 0.37123E-15 0.12282E-14 0.20539E-14 0.16653E-14 0.26645E-14 0.17764E-14
 0.46491E-15 0.54332E-13 0.28311E-14 0.32682E-14 0.12768E-14 0.30056E-11 0.56288E-12 0.80352E-13 0.20539E-13 0.48055E-11
 0.34694E-15 0.14795E-11 0.40454E-13 0.11694E-10 0.20262E-14 0.56470E-12 0.14128E-13 0.25396E-14 0.10457E-13 0.32945E-12
 0.52736E-15 0.36949E-11 0.35222E-12 0.26429E-11 0.17486E-14 0.81504E-13 0.25535E-14 0.27062E-14 0.21275E-13 0.13953E-11
 0.22204E-15 0.95618E-13 0.19651E-13 0.30204E-12 0.25535E-14 0.20262E-13 0.10075E-13 0.20789E-13 0.27267E-12 0.10278E-12
 0.49960E-15 0.53796E-12 0.68223E-13 0.31127E-10 0.20123E-14 0.14499E-10 0.28586E-12 0.21962E-11 0.11921E-12 0.70993E-12
 0.11102E-15 0.33307E-15 0.27756E-15 0.24980E-15 0.55511E-16 0.18041E-15 0.97145E-16 0.22204E-15 0.24980E-15 0.30531E-15
 0.41633E-15 0.23642E-12 0.16783E-10 0.15418E-12 0.86042E-15 0.32040E-13 0.34622E-12 0.20550E-11 0.92037E-13 0.64476E-12
 0.41633E-15 0.14188E-09 0.36859E-13 0.20678E-14 0.98879E-16 0.17555E-14 0.27242E-13 0.88871E-12 0.28283E-13 0.16820E-12
 0.30531E-15 0.17540E-12 0.18596E-14 0.17694E-15 0.62450E-16 0.19568E-14 0.11705E-11 0.26709E-11 0.26823E-12 0.31930E-09
 0.27756E-16 0.77716E-15 0.20817E-15 0.72858E-16 0.23939E-15 0.79103E-15 0.16376E-14 0.11935E-14 0.16931E-14 0.11935E-14
 0.20123E-15 0.33629E-13 0.17625E-14 0.19776E-14 0.83267E-15 0.31635E-11 0.19382E-12 0.31905E-13 0.11380E-13 0.11862E-10
 0.16653E-15 0.44539E-12 0.22010E-13 0.12227E-11 0.16653E-14 0.19543E-12 0.53707E-14 0.11380E-14 0.47740E-14 0.13804E-12
 0.24980E-15 0.32731E-11 0.43629E-12 0.25299E-11 0.12768E-14 0.32141E-13 0.11102E-14 0.12768E-14 0.11602E-13 0.91027E-12
 0.83267E-16 0.10059E-12 0.21261E-13 0.25452E-12 0.16653E-14 0.11199E-13 0.46352E-14 0.11477E-13 0.22890E-12 0.82767E-13
 0.22204E-15 0.45808E-12 0.74551E-13 0.10275E-09 0.13878E-14 0.52743E-10 0.13953E-12 0.12221E-11 0.95340E-13 0.48483E-12
  0.0000     0.83267E-16 0.16653E-15 0.83267E-16 0.83267E-16 0.90206E-16 0.12490E-15 0.13878E-15 0.19429E-15 0.19429E-15
 0.19429E-15 0.17922E-12 0.38892E-09 0.11939E-12 0.66613E-15 0.22329E-13 0.12948E-12 0.19349E-11 0.77993E-13 0.50848E-12
 0.24980E-15 0.13727E-10 0.31614E-13 0.14988E-14 0.10408E-15 0.13670E-14 0.17125E-13 0.84699E-12 0.23814E-13 0.16420E-12
 0.22204E-15 0.13169E-12 0.15266E-14 0.13357E-15 -.17347E-16 0.13635E-14 0.26279E-12 0.26003E-11 0.18247E-12 0.86665E-10
 0.55511E-16 0.70777E-15 0.15786E-15 0.17347E-16 0.19602E-15 0.56552E-15 0.14155E-14 0.69389E-15 0.11935E-14 0.88818E-15
 0.13184E-15 0.23145E-13 0.13878E-14 0.13739E-14 0.59674E-15 0.40061E-11 0.64768E-13 0.14697E-13 0.66475E-14 0.28882E-10
 0.97145E-16 0.15399E-12 0.14516E-13 0.26940E-12 0.13461E-14 0.65295E-13 0.23592E-14 0.49960E-15 0.22621E-14 0.51674E-13
 0.22204E-15 0.28419E-11 0.42719E-12 0.24693E-11 0.91593E-15 0.15002E-13 0.45797E-15 0.55511E-15 0.66822E-14 0.73422E-12
 0.19429E-15 0.85765E-13 0.18485E-13 0.17100E-12 0.11935E-14 0.66613E-14 0.21788E-14 0.64879E-14 0.18052E-12 0.59813E-13
 0.83267E-16 0.36648E-12 0.79325E-13 0.63014E-09 0.88818E-15 0.10509E-10 0.55018E-13 0.91568E-12 0.69333E-13 0.35344E-12
 0.11102E-15 0.13878E-15 0.83267E-16 0.55511E-16 0.11102E-15 0.83267E-16 0.97145E-16 0.13878E-15 0.16653E-15 0.19429E-15
 0.22204E-15 0.14941E-12 0.81043E-11 0.95673E-13 0.61062E-15 0.17840E-13 0.54345E-13 0.18901E-11 0.10186E-12 0.49322E-12
 0.27756E-15 0.27761E-11 0.28186E-13 0.11241E-14 0.62450E-16 0.90900E-15 0.10963E-13 0.12111E-11 0.27339E-13 0.20342E-12
 0.83267E-16 0.10203E-12 0.97145E-15 0.12663E-15 -.12143E-16 0.97838E-15 0.87569E-13 0.25348E-11 0.20733E-12 0.31238E-10
 0.41633E-16 0.49960E-15 0.86736E-16 0.13878E-16 0.20817E-15 0.50654E-15 0.12351E-14 0.65226E-15 0.94369E-15 0.70777E-15
 0.76328E-16 0.18218E-13 0.90900E-15 0.99920E-15 0.44409E-15 0.40073E-11 0.33279E-13 0.77993E-14 0.41356E-14 0.56592E-11
 -.13878E-16 0.61062E-13 0.97006E-14 0.90677E-13 0.11657E-14 0.33251E-13 0.14710E-14 0.33307E-15 0.14433E-14 0.27554E-13
 0.19429E-15 0.25261E-11 0.62550E-12 0.24081E-11 0.74940E-15 0.78271E-14 0.20817E-15 0.37470E-15 0.40939E-14 0.54615E-12
 0.16653E-15 0.10630E-12 0.21483E-13 0.19890E-12 0.88818E-15 0.41078E-14 0.14572E-14 0.40662E-14 0.16681E-12 0.58509E-13
 0.30531E-15 0.36809E-12 0.10381E-12 0.19104E-09 0.86042E-15 0.38562E-11 0.29615E-13 0.62589E-12 0.65503E-13 0.25219E-12
  0.0000     -.13878E-15  0.0000     0.27756E-16 0.13878E-15 0.20817E-16 0.10408E-15  0.0000      0.0000     0.83267E-16
 0.55511E-16 0.10980E-12 0.39106E-11 0.76619E-13 0.33307E-15 0.11137E-13 0.28672E-13 0.17342E-11 0.65087E-13 0.35583E-12
  0.0000     0.17822E-11 0.18985E-13 0.73552E-15 0.13878E-16 0.63838E-15 0.56760E-14 0.11227E-11 0.21261E-13 0.14902E-12
 0.83267E-16 0.80838E-13 0.66613E-15 0.62450E-16 0.62450E-16 0.62450E-15 0.38802E-13 0.24611E-11 0.14602E-12 0.18265E-10
 0.69389E-16 0.33307E-15 0.10408E-16 0.24286E-16 0.11449E-15 0.30531E-15 0.83267E-15 0.44409E-15 0.55511E-15 0.48572E-15
 0.97145E-16 0.11373E-13 0.67307E-15 0.59674E-15 0.32613E-15 0.64378E-11 0.14391E-13 0.39274E-14 0.22898E-14 0.69475E-12
 0.41633E-16 0.31392E-13 0.50793E-14 0.39496E-13 0.80491E-15 0.14412E-13 0.66613E-15 0.97145E-16 0.73552E-15 0.12566E-13
 -.27756E-16 0.21882E-11 0.60363E-12 0.23414E-11 0.51348E-15 0.40523E-14 0.18041E-15 0.18041E-15 0.23315E-14 0.48089E-12
  0.0000     0.67363E-13 0.17042E-13 0.13786E-12 0.66613E-15 0.23870E-14 0.61062E-15 0.22898E-14 0.10292E-12 0.43396E-13
 -.55511E-16 0.26884E-12 0.80463E-13 0.51983E-10 0.44409E-15 0.61576E-12 0.13378E-13 0.53174E-12 0.48780E-13 0.21305E-12
 0.19429E-15 0.55511E-16 0.83267E-16 0.27756E-15 0.27756E-16 0.11102E-15 0.83267E-16 0.97145E-16 0.55511E-16 0.22204E-15
 0.16653E-15 0.91885E-13 0.14157E-11 0.63088E-13 0.43021E-15 0.99989E-14 0.16043E-13 0.16178E-11 0.73636E-13 0.31061E-12
 0.11102E-15 0.94624E-12 0.17840E-13 0.61062E-15 0.69389E-17 0.52736E-15 0.43993E-14 0.14426E-11 0.23481E-13 0.16337E-12
 0.13878E-15 0.65108E-13 0.66613E-15 0.15959E-15 0.13878E-15 0.58981E-15 0.19901E-13 0.23409E-11 0.14611E-12 0.11289E-10
 0.11102E-15 0.33307E-15 0.27756E-16 0.69389E-16 0.20817E-15 0.29837E-15 0.72164E-15 0.45797E-15 0.52736E-15 0.52736E-15
 0.69389E-17 0.10214E-13 0.54123E-15 0.58981E-15 0.25674E-15 0.62884E-11 0.94438E-14 0.32058E-14 0.20886E-14 0.44437E-12
 -.20817E-16 0.16931E-13 0.38580E-14 0.20178E-13 0.70777E-15 0.93536E-14 0.55511E-15 0.24980E-15 0.55511E-15 0.81046E-14
 0.11102E-15 0.19113E-11 0.81360E-12 0.22190E-11 0.47184E-15 0.33029E-14 0.15959E-15 0.16653E-15 0.20400E-14 0.38894E-12
 0.13878E-15 0.73691E-13 0.19373E-13 0.14072E-12 0.66613E-15 0.20400E-14 0.61062E-15 0.20262E-14 0.97547E-13 0.39649E-13
 0.19429E-15 0.23437E-12 0.94758E-13 0.19501E-10 0.48572E-15 0.42594E-12 0.87153E-14 0.41325E-12 0.43632E-13 0.16845E-12
 0.55511E-16  0.0000     -.97145E-16  0.0000     -.55511E-16 0.27756E-16 0.13878E-16 -.13878E-16 0.55511E-16  0.0000    
 0.83267E-16 0.75495E-13 0.87774E-12 0.51757E-13 0.21511E-15 0.69805E-14 0.10152E-13 0.14607E-11 0.67696E-13 0.25582E-12
 -.27756E-16 0.64657E-12 0.13697E-13 0.47184E-15 0.69389E-16 0.37470E-15 0.28658E-14 0.14741E-11 0.22649E-13 0.15704E-12
 0.27756E-16 0.53055E-13 0.45797E-15 0.34694E-16 -.27756E-16 0.41633E-15 0.11643E-13 0.23100E-11 0.11309E-12 0.78251E-11
 -.83267E-16 0.24286E-15  0.0000     -.41633E-16 0.97145E-16 0.17347E-15 0.66613E-15 0.27756E-15 0.44409E-15 0.38858E-15
 0.41633E-16 0.70152E-14 0.38858E-15 0.41633E-15 0.26368E-15 0.11817E-10 0.53013E-14 0.18874E-14 0.13045E-14 0.19820E-12
 0.13878E-16 0.10388E-13 0.24425E-14 0.11630E-13 0.63144E-15 0.53499E-14 0.28449E-15 0.90206E-16 0.31919E-15 0.48780E-14
 0.12490E-15 0.16604E-11 0.86950E-12 0.21965E-11 0.31919E-15 0.19013E-14 0.10408E-15 0.97145E-16 0.12768E-14 0.34605E-12
 0.55511E-16 0.67307E-13 0.19068E-13 0.10951E-12 0.33307E-15 0.12768E-14 0.33307E-15 0.12282E-14 0.74149E-13 0.31572E-13
 0.27756E-16 0.19956E-12 0.97145E-13 0.11353E-10 0.34001E-15 0.19368E-12 0.51140E-14 0.36066E-12 0.34653E-13 0.13976E-12
 0.11796E-15  0.0000     0.27756E-16 0.27756E-16 0.62450E-16 0.62450E-16 -.27756E-16 0.20817E-16  0.0000     0.76328E-16
 0.90206E-16 0.61590E-13 0.53652E-12 0.42577E-13 0.18735E-15 0.56899E-14 0.60993E-14 0.13265E-11 0.64004E-13 0.16125E-12
 -.13878E-16 0.43825E-12 0.12393E-13 0.40246E-15 -.69389E-17 0.31919E-15 0.22135E-14 0.17262E-11 0.19318E-13 0.16492E-12
 0.55511E-16 0.43250E-13 0.36082E-15 0.27756E-16 0.69389E-17 0.41633E-15 0.66891E-14 0.20742E-11 0.95118E-13 0.57735E-11
 -.34694E-16 0.18735E-15 0.13878E-16 0.13878E-16 0.13878E-15 0.97145E-16 0.52736E-15 0.22898E-15 0.36776E-15 0.31919E-15
 0.83267E-16 0.58772E-14 0.26368E-15 0.33307E-15 0.13878E-15 0.12626E-10 0.35180E-14 0.13670E-14 0.10339E-14 0.11274E-12
 0.27756E-16 0.61617E-14 0.19915E-14 0.67724E-14 0.49960E-15 0.34139E-14 0.26368E-15 0.90206E-16 0.25674E-15 0.31294E-14
 0.83267E-16 0.14433E-11 0.10580E-11 0.19577E-11 0.24980E-15 0.13808E-14 0.13184E-15 0.34694E-16 0.87430E-15 0.30981E-12
 0.97145E-16 0.62575E-13 0.16487E-13 0.92523E-13 0.38858E-15 0.97145E-15 0.27062E-15 0.91593E-15 0.68036E-13 0.26909E-13
 0.10408E-15 0.12178E-12 0.10754E-12 0.74762E-11 0.32613E-15 0.11328E-12 0.32613E-14 0.31905E-12 0.29088E-13 0.11637E-12
 0.27756E-16 -.13878E-16 0.20817E-16  0.0000      0.0000     -.41633E-16 0.20817E-16 -.11102E-15 0.69389E-17 0.27756E-16
  0.0000     0.51778E-13 0.35170E-12 0.35270E-13 0.20123E-15 0.47393E-14 0.40731E-14 0.11944E-11 0.59112E-13 0.13650E-12
 -.48572E-16 0.30935E-12 0.99712E-14 0.24980E-15 -.20817E-16 0.26368E-15 0.14919E-14 0.23846E-11 0.20761E-13 0.16326E-12
 0.20817E-16 0.35694E-13 0.28449E-15 -.27756E-16 -.41633E-16 0.19429E-15 0.43646E-14 0.20498E-11 0.90032E-13 0.43231E-11
 -.13878E-16 0.17347E-15 -.69389E-16 -.55511E-16 0.97145E-16 0.13878E-15 0.37470E-15 0.20123E-15 0.26368E-15 0.25674E-15
 0.55511E-16 0.47462E-14 0.31919E-15 0.22204E-15 0.13878E-15 0.24277E-10 0.23176E-14 0.10131E-14 0.82226E-15 0.75703E-13
 0.62450E-16 0.41078E-14 0.13184E-14 0.43784E-14 0.44409E-15 0.23592E-14 0.27062E-15 0.41633E-16 0.28449E-15 0.22551E-14
 -.27756E-16 0.12623E-11 0.14954E-11 0.19382E-11 0.31225E-15 0.10443E-14 0.20817E-16 -.24286E-16 0.80144E-15 0.28409E-12
 -.69389E-16 0.57364E-13 0.18277E-13 0.86924E-13 0.28449E-15 0.70777E-15 0.22204E-15 0.67307E-15 0.43923E-13 0.23932E-13
 0.48572E-16 0.10683E-12 0.11416E-12 0.51222E-11 0.19429E-15 0.75662E-13 0.22551E-14 0.29012E-12 0.25521E-13 0.98421E-13
 0.27756E-16  0.0000     -.76328E-16 -.83267E-16 0.41633E-16 -.90206E-16 -.55511E-16 -.20817E-16 -.69389E-17 -.55511E-16
 0.69389E-17 0.40183E-13 0.23959E-12 0.30372E-13 0.12490E-15 0.32474E-14 0.29837E-14 0.10740E-11 0.44187E-13 0.85626E-13
 0.27756E-16 0.22117E-12 0.82781E-14 0.17347E-15 -.48572E-16 0.83267E-16 0.10755E-14 0.38300E-11 0.16105E-13 0.13038E-12
 0.69389E-17 0.30503E-13 0.20123E-15  0.0000     -.13878E-16 0.15266E-15 0.30115E-14 0.18766E-11 0.77501E-13 0.33865E-11
 -.34694E-16 0.10408E-15 0.13878E-16 -.69389E-16 -.27756E-16 0.55511E-16 0.27756E-15 0.13878E-15 0.11796E-15 0.18735E-15
 0.20817E-16 0.31988E-14 0.16653E-15 0.13184E-15 0.62450E-16 0.38682E-10 0.14988E-14 0.65226E-15 0.54817E-15 0.43351E-13
 0.13878E-16 0.29352E-14 0.95757E-15 0.30115E-14 0.36082E-15 0.14780E-14 0.16133E-15 0.10408E-16 0.95410E-16 0.14572E-14
 -.69389E-17 0.11021E-11 0.24259E-11 0.17611E-11 0.12490E-15 0.63664E-15 0.72858E-16 -.26021E-17 0.40766E-15 0.25425E-12
 -.83267E-16 0.41696E-13 0.14037E-13 0.74968E-13 0.12837E-15 0.45797E-15 0.11796E-15 0.47878E-15 0.35361E-13 0.20713E-13
 0.10408E-15 0.66711E-13 0.93495E-13 0.38278E-11 0.16653E-15 0.43503E-13 0.14606E-14 0.25604E-12 0.21698E-13 0.90913E-13
 0.11102E-15 0.55511E-16 0.13878E-16  0.0000     0.11102E-15  0.0000     0.48572E-16 0.83267E-16 0.11102E-15 0.69389E-17
 0.15266E-15 0.34792E-13 0.20497E-12 0.22926E-13 0.69389E-16 0.28796E-14 0.17417E-14 0.94268E-12 0.44215E-13 0.66572E-13
 0.55511E-16 0.19100E-12 0.64532E-14 0.11796E-15 0.13878E-16 0.13878E-15 0.80491E-15 0.33573E-11 0.17250E-13 0.12899E-12
 0.13878E-15 0.22926E-13 0.25674E-15  0.0000     -.48572E-16 0.13878E-15 0.17972E-14 0.17872E-11 0.65156E-13 0.26980E-11
 0.27756E-16 0.11796E-15 0.27756E-16 -.69389E-17 0.69389E-16 0.69389E-16 0.31919E-15 0.15266E-15 0.23592E-15 0.12490E-15
 0.13878E-15 0.28519E-14 0.24980E-15 0.19429E-15 0.13878E-15 0.30253E-09 0.12212E-14 0.60802E-15 0.48572E-15 0.35225E-13
 -.41633E-16 0.17278E-14 0.74940E-15 0.18041E-14 0.36776E-15 0.13045E-14 0.14658E-15 0.13878E-15 0.12013E-15 0.11484E-14
 0.83267E-16 0.95446E-12 0.22660E-11 0.16767E-11 0.24980E-15 0.60021E-15 0.11102E-15 -.69389E-17 0.45450E-15 0.23494E-12
  0.0000     0.41647E-13 0.15446E-13 0.63470E-13 0.16653E-15 0.49960E-15 0.13401E-15 0.37123E-15 0.25077E-13 0.17389E-13
 0.76328E-16 0.52930E-13 0.97533E-13 0.29688E-11 0.18041E-15 0.35666E-13 0.11813E-14 0.23699E-12 0.18104E-13 0.78687E-13
 -.41633E-16 -.69389E-17 0.27756E-16 -.97145E-16 0.69389E-16 0.27756E-16 -.27756E-16 -.41633E-16 0.20817E-16 -.27756E-16
 0.34694E-16 0.29310E-13 0.14387E-12 0.21344E-13 0.55511E-16 0.24425E-14 0.14641E-14 0.83847E-12 0.42751E-13 0.44936E-13
 -.69389E-16 0.13833E-12 0.69944E-14 0.14572E-15 0.27756E-16 0.41633E-16 0.77716E-15 0.62990E-11 0.15571E-13 0.12662E-12
 -.69389E-17 0.21261E-13 0.16653E-15 0.27756E-16  0.0000     0.16653E-15 0.15196E-14 0.17247E-11 0.61590E-13 0.21642E-11
 0.27756E-16 0.69389E-16 0.41633E-16 -.41633E-16 0.55511E-16 0.83267E-16 0.30531E-15 0.11796E-15 0.15959E-15 0.97145E-16
 0.69389E-16 0.24147E-14 0.15266E-15 0.19429E-15 0.83267E-16 0.23062E-09 0.86042E-15 0.39205E-15 0.38858E-15 0.21653E-13
 0.13878E-16 0.14780E-14 0.72164E-15 0.14988E-14 0.33307E-15 0.84655E-15 0.14225E-15 0.83267E-16 0.83267E-16 0.78410E-15
 0.83267E-16 0.83669E-12 0.44461E-11 0.16170E-11 0.15266E-15 0.36256E-15 0.83267E-16  0.0000     0.31919E-15 0.21284E-12
 -.62450E-16 0.39288E-13 0.13919E-13 0.60243E-13 0.13878E-15 0.33307E-15 0.74593E-16 0.29143E-15 0.27561E-13 0.15862E-13
 0.13878E-15 0.36235E-13 0.98685E-13 0.23356E-11 0.11102E-15 0.21906E-13 0.82920E-15 0.21317E-12 0.16182E-13 0.68910E-13
 0.83267E-16  0.0000     0.55511E-16 0.97145E-16 0.11102E-15 -.55511E-16 0.41633E-16 0.13878E-16 0.16653E-15 0.13878E-15
 0.15266E-15 0.24536E-13 0.11963E-12 0.17680E-13 0.11102E-15 0.18874E-14 0.11727E-14 0.73572E-12 0.35860E-13 0.32960E-13
 0.27756E-16 0.11702E-12 0.47184E-14 0.83267E-16 -.83267E-16 0.11102E-15 0.49960E-15 0.86429E-11 0.16251E-13 0.11631E-12
 0.18041E-15 0.17403E-13 0.23592E-15 0.83267E-16 -.41633E-16 0.27756E-16 0.10825E-14 0.16515E-11 0.53638E-13 0.17766E-11
 0.97145E-16 0.19429E-15 -.27756E-16 -.27756E-16 -.13878E-16 0.55511E-16 0.16653E-15 0.55511E-16 0.23592E-15 0.83267E-16
 0.41633E-16 0.18874E-14 0.27756E-15 0.69389E-16 0.41633E-16 0.22764E-09 0.70777E-15 0.39552E-15 0.31919E-15 0.18353E-13
 0.55511E-16 0.11310E-14 0.44409E-15 0.10825E-14 0.29143E-15 0.63838E-15 0.31225E-16 -.41633E-16 0.14572E-15 0.47184E-15
 0.13878E-15 0.72883E-12 0.64408E-11 0.15463E-11 0.15266E-15 0.36082E-15  0.0000     -.27756E-16 0.27756E-15 0.20457E-12
 0.83267E-16 0.32543E-13 0.15099E-13 0.52264E-13 0.28449E-15 0.29143E-15 0.62450E-16 0.24980E-15 0.19922E-13 0.13906E-13
 0.16653E-15 0.27020E-13 0.93897E-13 0.19004E-11 0.13878E-15 0.18756E-13 0.61062E-15 0.20525E-12 0.14100E-13 0.61687E-13
 -.12490E-15 -.83267E-16 -.15266E-15 -.12490E-15 0.27756E-16 -.13878E-16  0.0000     -.41633E-16 0.55511E-16 -.18041E-15
 -.41633E-16 0.20109E-13 0.92981E-13 0.15266E-13 0.27756E-16 0.16098E-14 0.80491E-15 0.64407E-12 0.31627E-13 0.29296E-13
  0.0000     0.92121E-13 0.47184E-14 0.27756E-16 -.27756E-16 0.41633E-16 0.45797E-15 0.18496E-10 0.13170E-13 0.97533E-13
 -.41633E-16 0.15266E-13 0.15266E-15 0.27756E-16 0.69389E-16 0.11102E-15 0.79103E-15 0.15349E-11 0.46255E-13 0.14781E-11
 0.13878E-16 0.97145E-16 0.55511E-16  0.0000     0.15266E-15 0.69389E-16 0.15266E-15 0.12490E-15  0.0000      0.0000    
 0.83267E-16 0.15821E-14 0.13878E-15 0.83267E-16 0.41633E-16 0.10877E-09 0.48572E-15 0.27756E-15 0.20817E-15 0.12726E-13
 0.27756E-16 0.83267E-15 0.38858E-15 0.65226E-15 0.20817E-15 0.43021E-15 0.97145E-16 0.69389E-16 0.27756E-16 0.47184E-15
  0.0000     0.63385E-12 0.15069E-10 0.14314E-11 -.41633E-16 0.22204E-15 0.11102E-15 -.13878E-16 0.18041E-15 0.18664E-12
 -.69389E-16 0.28130E-13 0.12240E-13 0.45769E-13 0.13878E-16 0.27756E-15 0.83267E-16 0.12490E-15 0.16112E-13 0.11907E-13
 0.97145E-16 0.23787E-13 0.79534E-13 0.15794E-11 0.16653E-15 0.12768E-13 0.47184E-15 0.18660E-12 0.11977E-13 0.58002E-13
 -.55511E-16 -.97145E-16 -.27756E-16 -.69389E-16  0.0000     0.41633E-16 0.41633E-16 -.83267E-16 0.97145E-16 -.83267E-16
 0.11102E-15 0.17028E-13 0.75551E-13 0.13878E-13 0.13878E-15 0.14988E-14 0.76328E-15 0.56320E-12 0.27922E-13 0.20386E-13
 -.55511E-16 0.75426E-13 0.38997E-14 -.13878E-16 0.13878E-16 -.27756E-16 0.44409E-15 0.91933E-10 0.15099E-13 0.86042E-13
 0.69389E-16 0.13767E-13 0.97145E-16 0.27756E-16 -.27756E-16 0.97145E-16 0.70777E-15 0.14952E-11 0.43673E-13 0.12282E-11
 -.27756E-16 0.41633E-16 0.13878E-16 -.13878E-16 0.16653E-15 0.83267E-16 0.19429E-15 0.69389E-16 0.27756E-16 0.55511E-16
 0.11102E-15 0.14710E-14 0.12490E-15 0.83267E-16 0.55511E-16 0.28701E-10 0.36082E-15 0.24980E-15 0.24980E-15 0.12226E-13
 0.55511E-16 0.81879E-15 0.24980E-15 0.65226E-15 0.20817E-15 0.45797E-15 0.69389E-16 0.13878E-16 0.41633E-16 0.41633E-15
 0.55511E-16 0.55374E-12 0.81737E-10 0.14027E-11 0.41633E-16 0.20817E-15 0.69389E-16 -.13878E-16 0.13878E-15 0.17665E-12
 -.55511E-16 0.24689E-13 0.14364E-13 0.43188E-13 0.11102E-15 0.13878E-15 0.13878E-16 0.11102E-15 0.14808E-13 0.10894E-13
 0.69389E-16 0.16848E-13 0.71360E-13 0.13096E-11 0.69389E-16 0.12240E-13 0.47184E-15 0.17768E-12 0.10880E-13 0.52985E-13
 0.11102E-15 0.83267E-16 0.12490E-15 -.97145E-16 0.27756E-16 -.69389E-16 0.27756E-16  0.0000     0.13878E-15 0.69389E-17
 0.18041E-15 0.14488E-13 0.63852E-13 0.11435E-13 0.69389E-16 0.12212E-14 0.56899E-15 0.48730E-12 0.24619E-13 0.15245E-13
 0.83267E-16 0.63699E-13 0.37192E-14 0.69389E-16 -.27756E-16 -.13878E-16 0.36082E-15 0.40348E-09 0.12434E-13 0.75842E-13
 0.15266E-15 0.11394E-13 0.16653E-15 0.55511E-16 -.13878E-16  0.0000     0.51348E-15 0.13562E-11 0.34306E-13 0.10487E-11
 0.27756E-16 0.55511E-16 0.27756E-16 0.13878E-16 0.11102E-15  0.0000     0.41633E-16 0.83267E-16 0.19429E-15 -.13878E-16
 0.27756E-16 0.11380E-14 0.83267E-16 0.13878E-16 0.41633E-16 0.19868E-10 0.29143E-15 0.22204E-15 0.11102E-15 0.88402E-14
 0.13878E-16 0.54123E-15 0.33307E-15 0.51348E-15 0.22204E-15 0.27756E-15 0.97145E-16 -.55511E-16 0.41633E-16 0.19429E-15
 0.18041E-15 0.47698E-12 0.43260E-09 0.12576E-11 0.97145E-16 0.20817E-15 0.41633E-16  0.0000     0.69389E-16 0.15692E-12
 0.13878E-16 0.21996E-13 0.11907E-13 0.33570E-13 0.22204E-15 0.20817E-15 0.12490E-15 0.83267E-16 0.12046E-13 0.90761E-14
 0.20817E-15 0.12997E-13 0.64032E-13 0.11316E-11 0.83267E-16 0.89928E-14 0.30531E-15 0.15848E-12 0.89928E-14 0.49780E-13
 -.24286E-16 -.48572E-16 -.34694E-16 -.11102E-15 -.55511E-16 -.55511E-16  0.0000     -.69389E-16 0.41633E-16 0.34694E-16
 0.10408E-15 0.12053E-13 0.53263E-13 0.10644E-13 0.55511E-16 0.11102E-14 0.43021E-15 0.42354E-12 0.19970E-13 0.10082E-13
 0.20817E-16 0.53485E-13 0.34417E-14 -.13878E-16 0.27756E-16 0.41633E-16 0.34694E-15 0.58578E-09 0.10235E-13 0.61381E-13
 0.69389E-16 0.10492E-13 0.83267E-16 -.13878E-16 -.27756E-16  0.0000     0.47184E-15 0.12752E-11 0.28630E-13 0.88492E-12
 -.55511E-16  0.0000      0.0000     -.55511E-16 0.11102E-15 0.27756E-16 0.55511E-16 -.55511E-16 0.55511E-16 0.13878E-16
 0.55511E-16 0.11102E-14 0.13878E-15 0.83267E-16 0.27756E-16 0.79072E-11 0.30531E-15 0.19429E-15 0.83267E-16 0.82712E-14
 -.27756E-16 0.51348E-15 0.24980E-15 0.48572E-15 0.83267E-16 0.22204E-15 0.27756E-16 -.55511E-16 0.69389E-16 0.27756E-15
 0.97145E-16 0.41510E-12 0.31972E-09 0.11857E-11 -.13878E-16 0.16653E-15  0.0000      0.0000     0.83267E-16 0.15085E-12
 0.62450E-16 0.17757E-13 0.98463E-14 0.28297E-13 0.16653E-15 0.69389E-16 0.41633E-16 0.83267E-16 0.11574E-13 0.77993E-14
 -.34694E-17 0.86667E-14 0.51924E-13 0.95983E-12 0.41633E-16 0.82434E-14 0.33307E-15 0.15347E-12 0.76605E-14 0.48121E-13
 0.38164E-16 0.13878E-16 -.34694E-17 -.16653E-15 0.69389E-16 0.13878E-16 -.27756E-16 -.55511E-16 0.11102E-15 0.15613E-16
 0.12143E-15 0.10318E-13 0.44589E-13 0.98671E-14 0.69389E-16 0.10686E-14 0.62450E-15 0.36915E-12 0.19602E-13 0.69042E-14
 -.20817E-16 0.44638E-13 0.33029E-14 -.83267E-16 -.27756E-16 -.13878E-16 0.29143E-15 0.33499E-10 0.13021E-13 0.58037E-13
 0.13878E-15 0.97561E-14 0.69389E-16 0.41633E-16  0.0000     0.41633E-16 0.49960E-15 0.12594E-11 0.32599E-13 0.73951E-12
 -.41633E-16 0.55511E-16 0.69389E-16 0.55511E-16 0.83267E-16 0.27756E-16 0.11102E-15 0.13878E-16 -.69389E-16 -.55511E-16
  0.0000     0.10825E-14 0.55511E-16 0.83267E-16 0.27756E-16 0.49649E-10 0.27756E-15 0.16653E-15 0.55511E-16 0.81324E-14
 -.41633E-16 0.47184E-15 0.20817E-15 0.49960E-15 0.20817E-15 0.26368E-15 0.41633E-16 0.55511E-16 0.55511E-16 0.19429E-15
 0.83267E-16 0.36211E-12 0.27031E-10 0.11732E-11  0.0000     0.13878E-15 0.27756E-16 0.27756E-16 0.27756E-16 0.11731E-12
 0.13184E-15 0.17573E-13 0.12643E-13 0.32002E-13 0.27756E-16 0.97145E-16 -.13878E-16 0.27756E-16 0.10922E-13 0.76467E-14
 0.43368E-16 0.60802E-14 0.49679E-13 0.79971E-12 0.13878E-15 0.80352E-14 0.16653E-15 0.12006E-12 0.75218E-14 0.42633E-13
 -.41688E-16 0.10129E-16 0.25696E-16 -.42067E-16 0.47705E-16 -.77195E-16 0.32960E-16 0.28840E-16 0.43070E-16 -.27566E-16
 0.55643E-16 0.85874E-14 0.37697E-13 0.94005E-14 0.85001E-16 0.11371E-14 0.51174E-15 0.31944E-12 0.15800E-13 0.51181E-14
 -.15829E-16 0.37658E-13 0.32398E-14 -.43368E-16 -.52042E-17 0.26021E-16 0.22747E-15 0.12617E-10 0.11107E-13 0.43169E-13
 0.66570E-16 0.93731E-14 0.13119E-15 -.10408E-16 -.70256E-16 0.48572E-16 0.41753E-15 0.11915E-11 0.28989E-13 0.62799E-12