PROCAR lm decomposed
# of k-points:   52         # of bands:   28         # of ions:    5

 k-point     1 :    0.00000000 0.00000000 0.00000000     weight = 0.01000000

band     1 # energy  -11.28408339 # occ.  2.00000000
 
ion      s     py     pz     px    dxy    dyz    dz2    dxz  x2-y2    tot
    1  0.059  0.000  0.006  0.000  0.000  0.000  0.000  0.000  0.000  0.066
    2  0.212  0.000  0.001  0.000  0.000  0.000  0.000  0.000  0.000  0.213
    3  0.220  0.000  0.001  0.000  0.000  0.000  0.000  0.000  0.000  0.221
    4  0.076  0.000  0.005  0.000  0.000  0.000  0.000  0.000  0.000  0.081
    5  0.003  0.000  0.000  0.000  0.000  0.000  0.000  0.000  0.000  0.003
tot    0.569  0.000  0.014  0.000  0.000  0.000  0.001  0.000  0.000  0.584
 
band     2 # energy  -10.14224335 # occ.  2.00000000
 
ion      s     py     pz     px    dxy    dyz    dz2    dxz  x2-y2    tot
    1  0.147  0.000  0.007  0.000  0.000  0.000  0.004  0.000  0.000  0.158
    2  0.102  0.000  0.015  0.000  0.000  0.000  0.004  0.000  0.000  0.122
    3  0.058  0.000  0.022  0.000  0.000  0.000  0.002  0.000  0.000  0.082
    4  0.188  0.000  0.002  0.000  0.000  0.000  0.002  0.000  0.000  0.192
    5  0.016  0.000  0.000  0.000  0.000  0.000  0.000  0.000  0.000  0.016
tot    0.512  0.000  0.045  0.000  0.000  0.000  0.012  0.000  0.000  0.569
 
band     3 # energy   -8.66740726 # occ.  2.00000000
 
ion      s     py     pz     px    dxy    dyz    dz2    dxz  x2-y2    tot
    1  0.147  0.000  0.000  0.000  0.000  0.000  0.040  0.000  0.000  0.186
    2  0.014  0.000  0.035  0.000  0.000  0.000  0.006  0.000  0.000  0.055
    3  0.086  0.000  0.016  0.000  0.000  0.000  0.034  0.000  0.000  0.136
    4  0.114  0.000  0.013  0.000  0.000  0.000  0.019  0.000  0.000  0.147
    5  0.043  0.000  0.000  0.000  0.000  0.000  0.000  0.000  0.000  0.043
tot    0.404  0.000  0.065  0.000  0.000  0.000  0.098  0.000  0.000  0.567
 
band     4 # energy   -7.68733708 # occ.  2.00000000
 
ion      s     py     pz     px    dxy    dyz    dz2    dxz  x2-y2    tot
    1  0.070  0.000  0.005  0.000  0.000  0.000  0.110  0.000  0.000  0.185
    2  0.082  0.000  0.000  0.000  0.000  0.000  0.227  0.000  0.000  0.309
    3  0.049  0.000  0.005  0.000  0.000  0.000  0.137  0.000  0.000  0.191
    4  0.008  0.000  0.015  0.000  0.000  0.000  0.008  0.000  0.000  0.031
    5  0.019  0.000  0.000  0.000  0.000  0.000  0.000  0.000  0.000  0.019
tot    0.228  0.000  0.026  0.000  0.000  0.000  0.482  0.000  0.000  0.736
 
band     5 # energy   -6.99858331 # occ.  2.00000000
 
ion      s     py     pz     px    dxy    dyz    dz2    dxz  x2-y2    tot
    1  0.000  0.000  0.000  0.000  0.000  0.000  0.000  0.000  0.000  0.000
    2  0.000  0.000  0.000  0.000  0.000  0.000  0.001  0.000  0.000  0.002
    3  0.000  0.000  0.004  0.000  0.000  0.000  0.058  0.000  0.000  0.062
    4  0.018  0.000  0.031  0.000  0.000  0.000  0.470  0.000  0.000  0.519
    5  0.116  0.000  0.001  0.000  0.000  0.000  0.000  0.000  0.000  0.116
tot    0.134  0.000  0.035  0.000  0.000  0.000  0.530  0.000  0.000  0.700
 
band     6 # energy   -5.65205529 # occ.  2.00000000
 
ion      s     py     pz     px    dxy    dyz    dz2    dxz  x2-y2    tot
    1  0.002  0.000  0.000  0.000  0.000  0.000  0.027  0.000  0.000  0.029
    2  0.000  0.000  0.012  0.000  0.000  0.000  0.135  0.000  0.000  0.147
    3  0.003  0.000  0.000  0.000  0.000  0.000  0.631  0.000  0.000  0.635
    4  0.001  0.000  0.007  0.000  0.000  0.000  0.118  0.000  0.000  0.125
    5  0.001  0.000  0.000  0.000  0.000  0.000  0.000  0.000  0.000  0.001
tot    0.007  0.000  0.019  0.000  0.000  0.000  0.911  0.000  0.000  0.937
 
band     7 # energy   -5.56788118 # occ.  2.00000000
 
ion      s     py     pz     px    dxy    dyz    dz2    dxz  x2-y2    tot
    1  0.000  0.000  0.007  0.000  0.000  0.000  0.391  0.000  0.000  0.397
    2  0.004  0.000  0.003  0.000  0.000  0.000  0.451  0.000  0.000  0.458
    3  0.002  0.000  0.010  0.000  0.000  0.000  0.002  0.000  0.000  0.014
    4  0.000  0.000  0.008  0.000  0.000  0.000  0.045  0.000  0.000  0.053
    5  0.003  0.000  0.000  0.000  0.000  0.000  0.000  0.000  0.000  0.003
tot    0.010  0.000  0.027  0.000  0.000  0.000  0.889  0.000  0.000  0.926
 
band     8 # energy   -5.52206386 # occ.  2.00000000
 
ion      s     py     pz     px    dxy    dyz    dz2    dxz  x2-y2    tot
    1  0.000  0.000  0.000  0.000  0.008  0.004  0.000  0.002  0.016  0.030
    2  0.000  0.000  0.000  0.000  0.129  0.009  0.000  0.005  0.246  0.389
    3  0.000  0.000  0.000  0.000  0.158  0.009  0.000  0.005  0.302  0.473
    4  0.000  0.000  0.000  0.000  0.020  0.008  0.000  0.004  0.039  0.071
    5  0.000  0.000  0.000  0.000  0.000  0.000  0.000  0.000  0.000  0.000
tot    0.000  0.000  0.000  0.000  0.315  0.030  0.000  0.016  0.602  0.964
 
band     9 # energy   -5.52103420 # occ.  2.00000000
 
ion      s     py     pz     px    dxy    dyz    dz2    dxz  x2-y2    tot
    1  0.000  0.000  0.000  0.000  0.016  0.002  0.000  0.004  0.008  0.031
    2  0.000  0.000  0.000  0.000  0.248  0.005  0.000  0.009  0.130  0.392
    3  0.000  0.000  0.000  0.000  0.301  0.005  0.000  0.009  0.158  0.472
    4  0.000  0.000  0.000  0.000  0.038  0.004  0.000  0.008  0.019  0.069
    5  0.000  0.000  0.000  0.000  0.000  0.000  0.000  0.000  0.000  0.000
tot    0.000  0.000  0.000  0.000  0.602  0.016  0.000  0.030  0.316  0.964
 
band    10 # energy   -5.48165203 # occ.  2.00000000
 
ion      s     py     pz     px    dxy    dyz    dz2    dxz  x2-y2    tot
    1  0.000  0.000  0.000  0.000  0.001  0.015  0.000  0.007  0.002  0.025
    2  0.000  0.000  0.000  0.000  0.129  0.043  0.000  0.021  0.263  0.457
    3  0.000  0.000  0.000  0.000  0.118  0.055  0.000  0.027  0.237  0.436
    4  0.000  0.000  0.000  0.000  0.006  0.023  0.000  0.011  0.011  0.051
    5  0.000  0.000  0.000  0.000  0.000  0.000  0.000  0.000  0.000  0.000
tot    0.000  0.000  0.000  0.000  0.253  0.135  0.000  0.067  0.512  0.968
 
band    11 # energy   -5.48094465 # occ.  2.00000000
 
ion      s     py     pz     px    dxy    dyz    dz2    dxz  x2-y2    tot
    1  0.000  0.000  0.000  0.000  0.002  0.007  0.000  0.015  0.001  0.025
    2  0.000  0.000  0.000  0.000  0.266  0.021  0.000  0.043  0.133  0.464
    3  0.000  0.000  0.000  0.000  0.236  0.027  0.000  0.054  0.117  0.433
    4  0.000  0.000  0.000  0.000  0.009  0.011  0.000  0.022  0.004  0.047
    5  0.000  0.000  0.000  0.000  0.000  0.000  0.000  0.000  0.000  0.000
tot    0.000  0.000  0.000  0.000  0.513  0.066  0.000  0.134  0.255  0.968
 
band    12 # energy   -5.35155803 # occ.  2.00000000
 
ion      s     py     pz     px    dxy    dyz    dz2    dxz  x2-y2    tot
    1  0.000  0.000  0.000  0.000  0.014  0.001  0.000  0.001  0.030  0.047
    2  0.000  0.000  0.000  0.000  0.032  0.004  0.000  0.002  0.064  0.103
    3  0.000  0.000  0.000  0.000  0.000  0.025  0.000  0.012  0.000  0.038
    4  0.000  0.000  0.000  0.000  0.256  0.003  0.000  0.001  0.521  0.781
    5  0.000  0.000  0.000  0.000  0.000  0.000  0.000  0.000  0.000  0.000
tot    0.000  0.000  0.000  0.000  0.302  0.033  0.000  0.016  0.616  0.968
 
band    13 # energy   -5.35080727 # occ.  2.00000000
 
ion      s     py     pz     px    dxy    dyz    dz2    dxz  x2-y2    tot
    1  0.000  0.000  0.000  0.000  0.032  0.000  0.000  0.001  0.016  0.050
    2  0.000  0.000  0.000  0.000  0.062  0.003  0.000  0.005  0.030  0.100
    3  0.000  0.000  0.000  0.000  0.000  0.013  0.000  0.025  0.000  0.038
    4  0.000  0.000  0.000  0.000  0.521  0.001  0.000  0.002  0.256  0.780
    5  0.000  0.000  0.000  0.000  0.000  0.000  0.000  0.000  0.000  0.000
tot    0.000  0.000  0.000  0.000  0.615  0.017  0.000  0.034  0.302  0.968
 
band    14 # energy   -5.25265376 # occ.  2.00000000
 
ion      s     py     pz     px    dxy    dyz    dz2    dxz  x2-y2    tot
    1  0.000  0.000  0.000  0.000  0.022  0.007  0.000  0.000  0.776  0.805
    2  0.000  0.000  0.000  0.000  0.000  0.056  0.000  0.002  0.007  0.065
    3  0.000  0.000  0.000  0.000  0.001  0.000  0.000  0.000  0.049  0.051
    4  0.000  0.000  0.000  0.000  0.001  0.004  0.000  0.000  0.042  0.048
    5  0.000  0.000  0.000  0.000  0.000  0.000  0.000  0.000  0.000  0.000
tot    0.000  0.000  0.000  0.000  0.025  0.067  0.000  0.002  0.875  0.969
 
band    15 # energy   -5.25238431 # occ.  2.00000000
 
ion      s     py     pz     px    dxy    dyz    dz2    dxz  x2-y2    tot
    1  0.000  0.000  0.000  0.000  0.777  0.000  0.000  0.007  0.023  0.806
    2  0.000  0.000  0.000  0.000  0.007  0.002  0.000  0.056  0.000  0.065
    3  0.000  0.000  0.000  0.000  0.049  0.000  0.000  0.000  0.001  0.050
    4  0.000  0.000  0.000  0.000  0.042  0.000  0.000  0.004  0.001  0.047
    5  0.000  0.000  0.000  0.000  0.000  0.000  0.000  0.000  0.000  0.000
tot    0.000  0.000  0.000  0.000  0.874  0.002  0.000  0.067  0.025  0.969
 
band    16 # energy   -5.07593638 # occ.  2.00000000
 
ion      s     py     pz     px    dxy    dyz    dz2    dxz  x2-y2    tot
    1  0.024  0.000  0.001  0.000  0.000  0.000  0.303  0.000  0.000  0.328
    2  0.013  0.000  0.035  0.000  0.000  0.000  0.048  0.000  0.000  0.096
    3  0.000  0.000  0.074  0.000  0.000  0.000  0.004  0.000  0.000  0.078
    4  0.009  0.000  0.037  0.000  0.000  0.000  0.172  0.000  0.000  0.219
    5  0.018  0.000  0.000  0.000  0.000  0.000  0.000  0.000  0.000  0.018
tot    0.064  0.000  0.146  0.000  0.000  0.000  0.527  0.000  0.000  0.739
 
band    17 # energy   -4.77141607 # occ.  2.00000000
 
ion      s     py     pz     px    dxy    dyz    dz2    dxz  x2-y2    tot
    1  0.000  0.000  0.000  0.000  0.015  0.002  0.000  0.002  0.020  0.038
    2  0.000  0.000  0.000  0.000  0.027  0.083  0.000  0.062  0.036  0.208
    3  0.000  0.000  0.000  0.000  0.036  0.238  0.000  0.179  0.047  0.500
    4  0.000  0.000  0.000  0.000  0.026  0.102  0.000  0.076  0.034  0.238
    5  0.000  0.000  0.000  0.000  0.000  0.000  0.000  0.000  0.000  0.000
tot    0.000  0.000  0.000  0.000  0.103  0.425  0.000  0.319  0.137  0.984
 
band    18 # energy   -4.76961149 # occ.  2.00000000
 
ion      s     py     pz     px    dxy    dyz    dz2    dxz  x2-y2    tot
    1  0.000  0.000  0.000  0.000  0.020  0.002  0.000  0.002  0.015  0.040
    2  0.000  0.000  0.000  0.000  0.036  0.065  0.000  0.086  0.027  0.213
    3  0.000  0.000  0.000  0.000  0.047  0.178  0.000  0.237  0.036  0.497
    4  0.000  0.000  0.000  0.000  0.036  0.073  0.000  0.098  0.027  0.234
    5  0.000  0.000  0.000  0.000  0.000  0.000  0.000  0.000  0.000  0.000
tot    0.000  0.000  0.000  0.000  0.139  0.317  0.000  0.423  0.104  0.984
 
band    19 # energy   -4.67121485 # occ.  2.00000000
 
ion      s     py     pz     px    dxy    dyz    dz2    dxz  x2-y2    tot
    1  0.000  0.000  0.000  0.000  0.002  0.142  0.000  0.005  0.052  0.202
    2  0.000  0.000  0.000  0.000  0.000  0.401  0.000  0.015  0.009  0.425
    3  0.000  0.000  0.000  0.000  0.000  0.019  0.000  0.001  0.000  0.021
    4  0.000  0.000  0.000  0.000  0.000  0.320  0.000  0.013  0.002  0.336
    5  0.000  0.000  0.000  0.000  0.000  0.000  0.000  0.000  0.000  0.000
tot    0.000  0.000  0.000  0.000  0.002  0.883  0.000  0.034  0.064  0.984
 
band    20 # energy   -4.67106020 # occ.  2.00000000
 
ion      s     py     pz     px    dxy    dyz    dz2    dxz  x2-y2    tot
    1  0.000  0.000  0.000  0.000  0.053  0.006  0.000  0.142  0.002  0.202
    2  0.000  0.000  0.000  0.000  0.009  0.016  0.000  0.402  0.000  0.427
    3  0.000  0.000  0.000  0.000  0.000  0.001  0.000  0.019  0.000  0.021
    4  0.000  0.000  0.000  0.000  0.002  0.012  0.000  0.319  0.000  0.333
    5  0.000  0.000  0.000  0.000  0.000  0.000  0.000  0.000  0.000  0.000
tot    0.000  0.000  0.000  0.000  0.064  0.034  0.000  0.882  0.003  0.983
 
band    21 # energy   -4.43719173 # occ.  2.00000000
 
ion      s     py     pz     px    dxy    dyz    dz2    dxz  x2-y2    tot
    1  0.000  0.000  0.000  0.000  0.000  0.167  0.000  0.151  0.000  0.318
    2  0.000  0.000  0.000  0.000  0.000  0.003  0.000  0.003  0.000  0.006
    3  0.000  0.000  0.000  0.000  0.006  0.143  0.000  0.129  0.006  0.284
    4  0.000  0.000  0.000  0.000  0.004  0.195  0.000  0.176  0.004  0.379
    5  0.000  0.000  0.000  0.000  0.000  0.000  0.000  0.000  0.000  0.000
tot    0.000  0.000  0.000  0.000  0.010  0.507  0.000  0.458  0.011  0.987
 
band    22 # energy   -4.43513783 # occ.  2.00000000
 
ion      s     py     pz     px    dxy    dyz    dz2    dxz  x2-y2    tot
    1  0.000  0.000  0.000  0.000  0.000  0.152  0.000  0.168  0.000  0.320
    2  0.000  0.000  0.000  0.000  0.000  0.002  0.000  0.002  0.000  0.005
    3  0.000  0.000  0.000  0.000  0.006  0.128  0.000  0.142  0.006  0.282
    4  0.000  0.000  0.000  0.000  0.005  0.176  0.000  0.195  0.004  0.380
    5  0.000  0.000  0.000  0.000  0.000  0.000  0.000  0.000  0.000  0.000
tot    0.000  0.000  0.000  0.000  0.012  0.458  0.000  0.507  0.011  0.987
 
band    23 # energy   -4.24006121 # occ.  2.00000000
 
ion      s     py     pz     px    dxy    dyz    dz2    dxz  x2-y2    tot
    1  0.000  0.000  0.000  0.000  0.003  0.236  0.000  0.244  0.003  0.486
    2  0.000  0.000  0.000  0.000  0.012  0.133  0.000  0.138  0.011  0.294
    3  0.000  0.000  0.000  0.000  0.005  0.071  0.000  0.073  0.005  0.154
    4  0.000  0.000  0.000  0.000  0.002  0.026  0.000  0.027  0.002  0.056
    5  0.000  0.000  0.000  0.000  0.000  0.000  0.000  0.000  0.000  0.000
tot    0.000  0.000  0.000  0.000  0.022  0.465  0.000  0.482  0.021  0.990
 
band    24 # energy   -4.23923881 # occ.  2.00000000
 
ion      s     py     pz     px    dxy    dyz    dz2    dxz  x2-y2    tot
    1  0.000  0.000  0.000  0.000  0.003  0.243  0.000  0.234  0.003  0.483
    2  0.000  0.000  0.000  0.000  0.011  0.138  0.000  0.133  0.012  0.293
    3  0.000  0.000  0.000  0.000  0.005  0.074  0.000  0.072  0.005  0.156
    4  0.000  0.000  0.000  0.000  0.002  0.027  0.000  0.027  0.002  0.058
    5  0.000  0.000  0.000  0.000  0.000  0.000  0.000  0.000  0.000  0.000
tot    0.000  0.000  0.000  0.000  0.021  0.482  0.000  0.465  0.022  0.990
 
band    25 # energy   -3.21601121 # occ.  2.00000000
 
ion      s     py     pz     px    dxy    dyz    dz2    dxz  x2-y2    tot
    1  0.023  0.000  0.148  0.000  0.000  0.000  0.036  0.000  0.000  0.207
    2  0.018  0.000  0.072  0.000  0.000  0.000  0.028  0.000  0.000  0.117
    3  0.015  0.000  0.027  0.000  0.000  0.000  0.023  0.000  0.000  0.064
    4  0.013  0.000  0.004  0.000  0.000  0.000  0.028  0.000  0.000  0.046
    5  0.006  0.000  0.000  0.000  0.000  0.000  0.000  0.000  0.000  0.006
tot    0.074  0.000  0.251  0.000  0.000  0.000  0.115  0.000  0.000  0.440
 
band    26 # energy    0.14559789 # occ.  0.00000000
 
ion      s     py     pz     px    dxy    dyz    dz2    dxz  x2-y2    tot
    1  0.004  0.000  0.012  0.000  0.000  0.000  0.005  0.000  0.000  0.021
    2  0.017  0.000  0.016  0.000  0.000  0.000  0.016  0.000  0.000  0.049
    3  0.044  0.000  0.026  0.000  0.000  0.000  0.039  0.000  0.000  0.108
    4  0.093  0.000  0.042  0.000  0.000  0.000  0.096  0.000  0.000  0.231
    5  0.037  0.000  0.005  0.000  0.000  0.000  0.000  0.000  0.000  0.042
tot    0.195  0.000  0.101  0.000  0.000  0.000  0.155  0.000  0.000  0.452
 
band    27 # energy    1.77093863 # occ.  0.00000000
 
ion      s     py     pz     px    dxy    dyz    dz2    dxz  x2-y2    tot
    1  0.019  0.000  0.003  0.000  0.000  0.000  0.019  0.000  0.000  0.040
    2  0.009  0.000  0.005  0.000  0.000  0.000  0.008  0.000  0.000  0.022
    3  0.002  0.000  0.006  0.000  0.000  0.000  0.002  0.000  0.000  0.010
    4  0.000  0.000  0.007  0.000  0.000  0.000  0.000  0.000  0.000  0.007
    5  0.000  0.000  0.000  0.000  0.000  0.000  0.000  0.000  0.000  0.000
tot    0.030  0.000  0.020  0.000  0.000  0.000  0.029  0.000  0.000  0.079
 
band    28 # energy    2.40484032 # occ.  0.00000000
 
ion      s     py     pz     px    dxy    dyz    dz2    dxz  x2-y2    tot
    1  0.000  0.000  0.002  0.000  0.000  0.000  0.000  0.000  0.000  0.003
    2  0.000  0.000  0.002  0.000  0.000  0.000  0.000  0.000  0.000  0.003
    3  0.002  0.000  0.001  0.000  0.000  0.000  0.002  0.000  0.000  0.005
    4  0.004  0.000  0.000  0.000  0.000  0.000  0.004  0.000  0.000  0.008
    5  0.004  0.000  0.000  0.000  0.000  0.000  0.000  0.000  0.000  0.004
tot    0.010  0.000  0.006  0.000  0.000  0.000  0.007  0.000  0.000  0.023
 

 k-point     2 :    0.10000000 0.00000000 0.00000000     weight = 0.02000000

band     1 # energy  -10.97072836 # occ.  2.00000000
 
ion      s     py     pz     px    dxy    dyz    dz2    dxz  x2-y2    tot
    1  0.057  0.000  0.006  0.001  0.000  0.000  0.000  0.000  0.000  0.066
    2  0.206  0.001  0.001  0.004  0.000  0.000  0.000  0.000  0.000  0.213
    3  0.214  0.002  0.001  0.005  0.000  0.000  0.000  0.000  0.000  0.221
    4  0.074  0.001  0.005  0.002  0.000  0.000  0.000  0.000  0.000  0.082
    5  0.003  0.000  0.000  0.000  0.000  0.000  0.000  0.000  0.000  0.003
tot    0.553  0.004  0.014  0.012  0.000  0.000  0.000  0.001  0.000  0.584
 
band     2 # energy   -9.84219736 # occ.  2.00000000
 
ion      s     py     pz     px    dxy    dyz    dz2    dxz  x2-y2    tot
    1  0.141  0.001  0.007  0.003  0.000  0.000  0.003  0.001  0.000  0.157
    2  0.100  0.001  0.015  0.002  0.000  0.000  0.004  0.001  0.000  0.123
    3  0.056  0.000  0.021  0.001  0.000  0.001  0.002  0.002  0.000  0.084
    4  0.182  0.001  0.002  0.004  0.000  0.000  0.001  0.000  0.000  0.190
    5  0.016  0.000  0.000  0.000  0.000  0.000  0.000  0.000  0.000  0.016
tot    0.495  0.004  0.045  0.011  0.000  0.001  0.010  0.004  0.000  0.570
 
band     3 # energy   -8.38992899 # occ.  2.00000000
 
ion      s     py     pz     px    dxy    dyz    dz2    dxz  x2-y2    tot
    1  0.139  0.001  0.000  0.004  0.000  0.000  0.038  0.000  0.000  0.182
    2  0.013  0.000  0.036  0.000  0.000  0.002  0.005  0.005  0.000  0.060
    3  0.082  0.001  0.016  0.002  0.000  0.001  0.033  0.002  0.000  0.137
    4  0.109  0.001  0.013  0.003  0.000  0.000  0.017  0.001  0.000  0.145
    5  0.045  0.000  0.000  0.000  0.000  0.000  0.000  0.000  0.000  0.045
tot    0.387  0.003  0.065  0.009  0.001  0.003  0.093  0.008  0.000  0.569
 
band     4 # energy   -7.46273046 # occ.  2.00000000
 
ion      s     py     pz     px    dxy    dyz    dz2    dxz  x2-y2    tot
    1  0.065  0.001  0.004  0.002  0.001  0.000  0.112  0.000  0.000  0.186
    2  0.072  0.001  0.000  0.003  0.001  0.000  0.237  0.000  0.000  0.315
    3  0.043  0.001  0.005  0.002  0.001  0.000  0.142  0.001  0.000  0.195
    4  0.007  0.000  0.014  0.000  0.000  0.001  0.009  0.002  0.000  0.033
    5  0.018  0.000  0.000  0.000  0.000  0.000  0.000  0.000  0.000  0.018
tot    0.206  0.003  0.024  0.008  0.002  0.001  0.499  0.003  0.001  0.747
 
band     5 # energy   -6.86986391 # occ.  2.00000000
 
ion      s     py     pz     px    dxy    dyz    dz2    dxz  x2-y2    tot
    1  0.000  0.000  0.000  0.000  0.000  0.000  0.000  0.000  0.000  0.000
    2  0.000  0.000  0.000  0.000  0.000  0.000  0.001  0.000  0.000  0.001
    3  0.000  0.000  0.004  0.000  0.002  0.000  0.062  0.000  0.001  0.070
    4  0.015  0.001  0.029  0.002  0.001  0.003  0.474  0.010  0.000  0.535
    5  0.109  0.000  0.001  0.000  0.000  0.000  0.000  0.000  0.000  0.110
tot    0.125  0.001  0.034  0.002  0.002  0.003  0.538  0.010  0.001  0.717
 
band     6 # energy   -5.75310833 # occ.  2.00000000
 
ion      s     py     pz     px    dxy    dyz    dz2    dxz  x2-y2    tot
    1  0.001  0.000  0.002  0.000  0.006  0.001  0.135  0.002  0.002  0.148
    2  0.001  0.000  0.009  0.000  0.104  0.022  0.023  0.065  0.035  0.258
    3  0.002  0.000  0.001  0.000  0.023  0.007  0.331  0.020  0.008  0.394
    4  0.001  0.000  0.006  0.000  0.013  0.002  0.097  0.008  0.004  0.132
    5  0.001  0.000  0.000  0.000  0.000  0.000  0.000  0.000  0.000  0.001
tot    0.006  0.000  0.018  0.001  0.146  0.032  0.586  0.096  0.049  0.933
 
band     7 # energy   -5.66618104 # occ.  2.00000000
 
ion      s     py     pz     px    dxy    dyz    dz2    dxz  x2-y2    tot
    1  0.003  0.000  0.002  0.000  0.021  0.001  0.046  0.004  0.007  0.085
    2  0.002  0.000  0.004  0.000  0.037  0.001  0.392  0.002  0.012  0.452
    3  0.000  0.000  0.014  0.000  0.044  0.030  0.118  0.091  0.015  0.313
    4  0.001  0.000  0.005  0.000  0.038  0.000  0.011  0.001  0.013  0.069
    5  0.004  0.000  0.000  0.000  0.000  0.000  0.000  0.000  0.000  0.004
tot    0.011  0.000  0.026  0.001  0.140  0.033  0.568  0.098  0.047  0.923
 
band     8 # energy   -5.61000357 # occ.  2.00000000
 
ion      s     py     pz     px    dxy    dyz    dz2    dxz  x2-y2    tot
    1  0.000  0.000  0.001  0.000  0.021  0.002  0.020  0.007  0.007  0.059
    2  0.000  0.000  0.001  0.000  0.194  0.010  0.003  0.031  0.065  0.305
    3  0.000  0.000  0.000  0.001  0.357  0.004  0.002  0.013  0.120  0.498
    4  0.000  0.000  0.000  0.000  0.049  0.005  0.006  0.015  0.017  0.092
    5  0.000  0.000  0.000  0.000  0.000  0.000  0.000  0.000  0.000  0.000
tot    0.001  0.000  0.002  0.001  0.622  0.022  0.031  0.066  0.209  0.954
 
band     9 # energy   -5.46715064 # occ.  2.00000000
 
ion      s     py     pz     px    dxy    dyz    dz2    dxz  x2-y2    tot
    1  0.001  0.000  0.002  0.000  0.010  0.012  0.039  0.037  0.003  0.105
    2  0.002  0.000  0.000  0.000  0.241  0.005  0.069  0.017  0.079  0.414
    3  0.001  0.000  0.010  0.000  0.122  0.001  0.053  0.003  0.039  0.228
    4  0.000  0.000  0.008  0.000  0.012  0.021  0.082  0.063  0.004  0.190
    5  0.002  0.000  0.000  0.000  0.000  0.000  0.000  0.000  0.000  0.002
tot    0.006  0.000  0.020  0.001  0.385  0.039  0.241  0.120  0.126  0.938
 
band    10 # energy   -5.41474227 # occ.  2.00000000
 
ion      s     py     pz     px    dxy    dyz    dz2    dxz  x2-y2    tot
    1  0.000  0.000  0.000  0.000  0.008  0.007  0.000  0.002  0.017  0.034
    2  0.000  0.000  0.000  0.000  0.081  0.019  0.000  0.007  0.234  0.341
    3  0.000  0.000  0.000  0.000  0.125  0.013  0.000  0.004  0.373  0.514
    4  0.000  0.000  0.000  0.000  0.010  0.018  0.000  0.006  0.042  0.076
    5  0.000  0.000  0.000  0.000  0.000  0.000  0.000  0.000  0.000  0.000
tot    0.000  0.001  0.000  0.000  0.224  0.057  0.000  0.019  0.665  0.966
 
band    11 # energy   -5.40553051 # occ.  2.00000000
 
ion      s     py     pz     px    dxy    dyz    dz2    dxz  x2-y2    tot
    1  0.000  0.000  0.000  0.000  0.086  0.008  0.008  0.003  0.018  0.124
    2  0.000  0.000  0.000  0.000  0.004  0.015  0.009  0.040  0.201  0.268
    3  0.000  0.000  0.000  0.000  0.023  0.015  0.016  0.059  0.082  0.196
    4  0.000  0.000  0.000  0.000  0.323  0.010  0.007  0.005  0.031  0.376
    5  0.000  0.000  0.000  0.000  0.000  0.000  0.000  0.000  0.000  0.000
tot    0.000  0.001  0.001  0.001  0.437  0.048  0.040  0.106  0.331  0.965
 
band    12 # energy   -5.40486218 # occ.  2.00000000
 
ion      s     py     pz     px    dxy    dyz    dz2    dxz  x2-y2    tot
    1  0.000  0.000  0.000  0.000  0.045  0.010  0.007  0.004  0.033  0.100
    2  0.000  0.000  0.000  0.000  0.133  0.059  0.007  0.007  0.108  0.315
    3  0.000  0.000  0.000  0.000  0.042  0.087  0.011  0.001  0.119  0.260
    4  0.000  0.000  0.000  0.000  0.123  0.017  0.005  0.005  0.141  0.291
    5  0.000  0.000  0.000  0.000  0.000  0.000  0.000  0.000  0.000  0.000
tot    0.000  0.001  0.001  0.001  0.343  0.173  0.031  0.016  0.402  0.966
 
band    13 # energy   -5.34844250 # occ.  2.00000000
 
ion      s     py     pz     px    dxy    dyz    dz2    dxz  x2-y2    tot
    1  0.004  0.000  0.002  0.000  0.064  0.000  0.290  0.001  0.022  0.382
    2  0.002  0.000  0.015  0.000  0.017  0.016  0.054  0.047  0.005  0.157
    3  0.000  0.000  0.018  0.000  0.093  0.015  0.047  0.044  0.030  0.247
    4  0.001  0.000  0.014  0.000  0.009  0.003  0.069  0.009  0.003  0.108
    5  0.006  0.000  0.000  0.000  0.000  0.000  0.000  0.000  0.000  0.006
tot    0.013  0.000  0.049  0.000  0.183  0.034  0.459  0.102  0.059  0.899
 
band    14 # energy   -5.25241507 # occ.  2.00000000
 
ion      s     py     pz     px    dxy    dyz    dz2    dxz  x2-y2    tot
    1  0.000  0.000  0.000  0.000  0.004  0.005  0.001  0.002  0.047  0.059
    2  0.000  0.000  0.000  0.000  0.039  0.007  0.000  0.002  0.107  0.155
    3  0.000  0.000  0.000  0.000  0.001  0.033  0.000  0.009  0.006  0.050
    4  0.000  0.000  0.000  0.000  0.198  0.004  0.000  0.002  0.500  0.705
    5  0.000  0.000  0.000  0.000  0.000  0.000  0.000  0.000  0.000  0.000
tot    0.000  0.001  0.000  0.000  0.242  0.049  0.002  0.015  0.659  0.969
 
band    15 # energy   -5.24970469 # occ.  2.00000000
 
ion      s     py     pz     px    dxy    dyz    dz2    dxz  x2-y2    tot
    1  0.003  0.000  0.000  0.000  0.414  0.000  0.054  0.001  0.120  0.593
    2  0.001  0.000  0.010  0.000  0.008  0.001  0.023  0.000  0.007  0.050
    3  0.000  0.000  0.011  0.000  0.010  0.010  0.017  0.037  0.003  0.088
    4  0.001  0.000  0.003  0.000  0.104  0.003  0.011  0.009  0.074  0.206
    5  0.001  0.000  0.000  0.000  0.000  0.000  0.000  0.000  0.000  0.001
tot    0.006  0.000  0.024  0.001  0.537  0.014  0.106  0.047  0.204  0.938
 
band    16 # energy   -5.15729593 # occ.  2.00000000
 
ion      s     py     pz     px    dxy    dyz    dz2    dxz  x2-y2    tot
    1  0.000  0.000  0.000  0.000  0.186  0.008  0.000  0.003  0.555  0.753
    2  0.000  0.000  0.000  0.000  0.001  0.059  0.000  0.020  0.002  0.082
    3  0.000  0.000  0.000  0.000  0.017  0.001  0.000  0.000  0.052  0.070
    4  0.000  0.000  0.000  0.000  0.014  0.007  0.000  0.002  0.043  0.066
    5  0.000  0.000  0.000  0.000  0.000  0.000  0.000  0.000  0.000  0.000
tot    0.000  0.001  0.000  0.000  0.218  0.074  0.000  0.025  0.652  0.970
 
band    17 # energy   -4.84029254 # occ.  2.00000000
 
ion      s     py     pz     px    dxy    dyz    dz2    dxz  x2-y2    tot
    1  0.000  0.000  0.000  0.000  0.039  0.015  0.004  0.051  0.013  0.122
    2  0.001  0.000  0.001  0.000  0.036  0.044  0.006  0.133  0.014  0.235
    3  0.001  0.000  0.001  0.000  0.049  0.081  0.003  0.193  0.020  0.349
    4  0.000  0.000  0.000  0.000  0.032  0.061  0.002  0.160  0.014  0.269
    5  0.000  0.000  0.000  0.000  0.000  0.000  0.000  0.000  0.000  0.000
tot    0.002  0.000  0.003  0.000  0.156  0.200  0.015  0.538  0.061  0.976
 
band    18 # energy   -4.81810243 # occ.  2.00000000
 
ion      s     py     pz     px    dxy    dyz    dz2    dxz  x2-y2    tot
    1  0.000  0.000  0.000  0.000  0.021  0.030  0.000  0.007  0.060  0.117
    2  0.000  0.000  0.000  0.000  0.015  0.122  0.000  0.040  0.039  0.217
    3  0.000  0.000  0.000  0.000  0.018  0.219  0.000  0.090  0.044  0.372
    4  0.000  0.000  0.000  0.000  0.025  0.137  0.000  0.050  0.063  0.275
    5  0.000  0.000  0.000  0.000  0.000  0.000  0.000  0.000  0.000  0.000
tot    0.000  0.000  0.000  0.000  0.078  0.508  0.000  0.188  0.206  0.981
 
band    19 # energy   -4.66255598 # occ.  2.00000000
 
ion      s     py     pz     px    dxy    dyz    dz2    dxz  x2-y2    tot
    1  0.000  0.000  0.002  0.000  0.009  0.074  0.003  0.160  0.041  0.290
    2  0.000  0.000  0.002  0.000  0.027  0.214  0.001  0.039  0.009  0.292
    3  0.000  0.000  0.001  0.000  0.017  0.026  0.004  0.026  0.022  0.096
    4  0.000  0.000  0.000  0.000  0.003  0.252  0.000  0.036  0.005  0.297
    5  0.000  0.000  0.000  0.000  0.000  0.000  0.000  0.000  0.000  0.000
tot    0.001  0.000  0.004  0.000  0.056  0.567  0.008  0.261  0.076  0.974
 
band    20 # energy   -4.66064742 # occ.  2.00000000
 
ion      s     py     pz     px    dxy    dyz    dz2    dxz  x2-y2    tot
    1  0.001  0.000  0.005  0.000  0.012  0.156  0.008  0.266  0.010  0.459
    2  0.000  0.000  0.004  0.000  0.013  0.042  0.003  0.070  0.026  0.159
    3  0.001  0.000  0.002  0.000  0.002  0.027  0.011  0.028  0.016  0.087
    4  0.000  0.000  0.001  0.000  0.002  0.035  0.001  0.207  0.003  0.249
    5  0.001  0.000  0.000  0.000  0.000  0.000  0.000  0.000  0.000  0.001
tot    0.004  0.000  0.013  0.000  0.029  0.260  0.023  0.571  0.056  0.955
 
band    21 # energy   -4.52495679 # occ.  2.00000000
 
ion      s     py     pz     px    dxy    dyz    dz2    dxz  x2-y2    tot
    1  0.012  0.000  0.010  0.000  0.014  0.045  0.083  0.126  0.004  0.296
    2  0.001  0.000  0.000  0.000  0.004  0.091  0.001  0.285  0.001  0.384
    3  0.001  0.000  0.001  0.000  0.005  0.001  0.017  0.001  0.002  0.028
    4  0.000  0.000  0.002  0.000  0.000  0.049  0.006  0.150  0.000  0.208
    5  0.003  0.000  0.000  0.000  0.000  0.000  0.000  0.000  0.000  0.003
tot    0.018  0.000  0.013  0.001  0.024  0.186  0.107  0.563  0.008  0.919
 
band    22 # energy   -4.43349295 # occ.  2.00000000
 
ion      s     py     pz     px    dxy    dyz    dz2    dxz  x2-y2    tot
    1  0.000  0.000  0.000  0.000  0.000  0.235  0.000  0.080  0.001  0.316
    2  0.000  0.000  0.000  0.000  0.002  0.004  0.000  0.001  0.006  0.013
    3  0.000  0.000  0.000  0.000  0.002  0.214  0.000  0.070  0.007  0.293
    4  0.000  0.000  0.000  0.000  0.003  0.266  0.000  0.089  0.008  0.366
    5  0.000  0.000  0.000  0.000  0.000  0.000  0.000  0.000  0.000  0.000
tot    0.000  0.000  0.000  0.000  0.007  0.719  0.000  0.239  0.022  0.987
 
band    23 # energy   -4.23473394 # occ.  2.00000000
 
ion      s     py     pz     px    dxy    dyz    dz2    dxz  x2-y2    tot
    1  0.000  0.000  0.000  0.000  0.002  0.335  0.000  0.112  0.007  0.456
    2  0.000  0.000  0.000  0.000  0.005  0.219  0.000  0.072  0.016  0.312
    3  0.000  0.000  0.000  0.000  0.003  0.115  0.000  0.038  0.008  0.164