   10   10    1    1
  0.6722407E+02  0.5431010E-09  0.5431010E-09  0.2279101E-08  0.5000000E-15
  1.000000000000000E-004
  CAR 
 unknown system                          
     40      6     26
 
  0.0000000E+00  0.0000000E+00  0.0000000E+00  0.4000000E-01
    1      -13.187804   1.000000
    2      -11.563227   1.000000
    3       -9.587088   1.000000
    4       -9.444667   1.000000
    5       -9.444517   1.000000
    6       -9.211624   1.000000
    7       -8.633889   1.000000
    8       -8.460485   1.000000
    9       -6.265862   1.000000
   10       -5.112858   1.000000
   11       -5.015120   1.000000
   12       -5.015031   1.000000
   13       -4.130836   1.000000
   14       -4.130832   1.000000
   15       -3.135368   1.000000
   16       -3.132878   1.000000
   17       -2.774678   1.000000
   18       -2.774629   1.000000
   19       -2.509969   1.000000
   20       -2.509789   1.000000
   21       -2.122428   0.958422
   22       -1.566866   0.000000
   23       -0.544786   0.000000
   24       -0.441173   0.000000
   25        0.187761   0.000000
   26        0.275386   0.000000
 
  0.2000000E+00  0.0000000E+00  0.0000000E+00  0.1600000E+00
    1      -13.020727   1.000000
    2      -11.423766   1.000000
    3      -10.667772   1.000000
    4       -9.791796   1.000000
    5       -9.149804   1.000000
    6       -9.052877   1.000000
    7       -8.180372   1.000000
    8       -7.805105   1.000000
    9       -6.436206   1.000000
   10       -5.403301   1.000000
   11       -5.192505   1.000000
   12       -4.649926   1.000000
   13       -4.456437   1.000000
   14       -4.421537   1.000000
   15       -3.840541   1.000000
   16       -3.265340   1.000000
   17       -2.965828   1.000000
   18       -2.429426   1.000000
   19       -2.338150   0.999999
   20       -2.317855   0.999997
   21       -2.106027   0.933286
   22       -1.697950   0.000010
   23       -0.337861   0.000000
   24        0.025663   0.000000
   25        0.299785   0.000000
   26        0.414065   0.000000
 
  0.4000000E+00  0.0000000E+00  0.0000000E+00  0.1600000E+00
    1      -12.525822   1.000000
    2      -11.724891   1.000000
    3      -11.023903   1.000000
    4      -10.430071   1.000000
    5       -9.023567   1.000000
    6       -8.972260   1.000000
    7       -7.621764   1.000000
    8       -6.962768   1.000000
    9       -6.490638   1.000000
   10       -5.403260   1.000000
   11       -5.378366   1.000000
   12       -5.285570   1.000000
   13       -5.000228   1.000000
   14       -4.864846   1.000000
   15       -3.977786   1.000000
   16       -3.771424   1.000000
   17       -2.591390   1.000000
   18       -2.350525   1.000000
   19       -2.282761   0.999968
   20       -2.091136   0.901497
   21       -2.009869   0.556000
   22       -1.333525   0.000000
   23       -1.137538   0.000000
   24       -0.208366   0.000000
   25        1.000109   0.000000
   26        1.485442   0.000000
 
  0.2000000E+00  0.2000000E+00  0.0000000E+00  0.1600000E+00
    1      -12.857794   1.000000
    2      -11.302683   1.000000
    3      -10.783464   1.000000
    4      -10.425802   1.000000
    5       -9.126203   1.000000
    6       -8.798800   1.000000
    7       -8.248427   1.000000
    8       -7.368646   1.000000
    9       -6.759014   1.000000
   10       -5.311514   1.000000
   11       -5.294467   1.000000
   12       -4.949196   1.000000
   13       -4.505991   1.000000
   14       -4.476844   1.000000
   15       -3.889436   1.000000
   16       -2.713457   1.000000
   17       -2.686653   1.000000
   18       -2.592567   1.000000
   19       -2.461318   1.000000
   20       -2.419146   1.000000
   21       -2.049563   0.758720
   22       -1.507829   0.000000
   23       -0.699509   0.000000
   24        0.033891   0.000000
   25        0.309243   0.000000
   26        0.790109   0.000000
 
  0.4000000E+00  0.2000000E+00  0.0000000E+00  0.3200000E+00
    1      -12.378272   1.000000
    2      -11.619044   1.000000
    3      -10.984654   1.000000
    4      -10.651592   1.000000
    5       -9.116342   1.000000
    6       -9.079478   1.000000
    7       -7.753003   1.000000
    8       -7.303354   1.000000
    9       -6.798638   1.000000
   10       -6.139210   1.000000
   11       -4.885393   1.000000
   12       -4.769169   1.000000
   13       -4.756193   1.000000
   14       -4.119343   1.000000
   15       -4.002961   1.000000
   16       -3.213580   1.000000
   17       -2.905653   1.000000
   18       -2.884087   1.000000
   19       -2.182846   0.995161
   20       -1.959865   0.285585
   21       -1.859409   0.023462
   22       -1.284171   0.000000
   23       -0.750574   0.000000
   24        0.041244   0.000000
   25        0.927024   0.000000
   26        1.138425   0.000000
 
  0.4000000E+00  0.4000000E+00  0.0000000E+00  0.1600000E+00
    1      -11.960068   1.000000
    2      -11.471539   1.000000
    3      -11.116202   1.000000
    4      -10.998900   1.000000
    5       -9.245232   1.000000
    6       -9.158074   1.000000
    7       -7.999295   1.000000
    8       -7.741657   1.000000
    9       -6.889473   1.000000
   10       -6.764421   1.000000
   11       -4.730300   1.000000
   12       -4.684709   1.000000
   13       -3.643157   1.000000
   14       -3.616401   1.000000
   15       -3.338743   1.000000
   16       -3.292660   1.000000
   17       -2.964953   1.000000
   18       -2.703419   1.000000
   19       -2.154110   0.985398
   20       -1.849203   0.016531
   21       -1.766830   0.000490
   22       -1.733803   0.000084
   23        0.068815   0.000000
   24        0.481202   0.000000
   25        0.547476   0.000000
   26        0.844913   0.000000
