unknown system                          
   1.00000000000000     
     5.431010    0.000000    0.000000
     0.000000    5.431010    0.000000
     0.000000    0.000000   22.791010
   Si
    10
Direct
  0.000000  0.000000  0.000000
  0.499999  0.499999  0.000000
  0.250000  0.250000  0.059574
  0.750000  0.750000  0.059574
  0.000000  0.499999  0.119148
  0.499999  0.000000  0.119148
  0.250000  0.750000  0.178722
  0.750000  0.250000  0.178722
  0.000000  0.000000  0.238296
  0.499999  0.499999  0.238296
 
   24   24   90
 0.12390     0.21314     0.47767     0.69522     0.76536     0.72683     0.59182     0.39443     0.20708     0.89815E-01
 0.39062E-01 0.21336E-01 0.17161E-01 0.21346E-01 0.39046E-01 0.89879E-01 0.20700     0.39455     0.59175     0.72686    
 0.76535     0.69523     0.47767     0.21314     0.21314     0.36655     0.62458     0.77377     0.80744     0.75466    
 0.61531     0.41734     0.23033     0.11001     0.53019E-01 0.29642E-01 0.21346E-01 0.21992E-01 0.34522E-01 0.75002E-01
 0.17686     0.35524     0.55384     0.69488     0.73696     0.66865     0.47311     0.26036     0.47767     0.62458    
 0.77211     0.83734     0.83323     0.76034     0.61082     0.41383     0.24030     0.13328     0.79649E-01 0.52980E-01
 0.39046E-01 0.34522E-01 0.41983E-01 0.72385E-01 0.15297     0.31012     0.50663     0.66182     0.72764     0.70082    
 0.59214     0.47311     0.69522     0.77377     0.83734     0.85526     0.82271     0.72841     0.57069     0.39047    
 0.25142     0.17236     0.13333     0.11005     0.89879E-01 0.75002E-01 0.72385E-01 0.89915E-01 0.14508     0.26541    
 0.44363     0.61032     0.70797     0.73014     0.70081     0.66865     0.76536     0.80744     0.83323     0.82271    
 0.76476     0.65306     0.50522     0.37162     0.28827     0.25138     0.24026     0.23023     0.20700     0.17686    
 0.15297     0.14508     0.16557     0.23454     0.36483     0.52175     0.64432     0.70800     0.72765     0.73697    
 0.72683     0.75466     0.76034     0.72841     0.65306     0.54569     0.44338     0.38345     0.37163     0.39049    
 0.41388     0.41741     0.39455     0.35524     0.31012     0.26541     0.23454     0.23939     0.29650     0.40310    
 0.52170     0.61029     0.66178     0.69484     0.59182     0.61531     0.61082     0.57069     0.50522     0.44338    
 0.41804     0.44338     0.50521     0.57067     0.61079     0.61525     0.59175     0.55384     0.50663     0.44363    
 0.36483     0.29650     0.27039     0.29652     0.36486     0.44371     0.50669     0.55393     0.39443     0.41734    
 0.41383     0.39047     0.37162     0.38345     0.44338     0.54569     0.65306     0.72842     0.76036     0.75469    
 0.72686     0.69488     0.66182     0.61032     0.52175     0.40310     0.29652     0.23938     0.23451     0.26537    
 0.31002     0.35514     0.20708     0.23033     0.24030     0.25142     0.28827     0.37163     0.50521     0.65306    
 0.76475     0.82270     0.83323     0.80743     0.76535     0.73696     0.72764     0.70797     0.64432     0.52170    
 0.36486     0.23451     0.16559     0.14511     0.15302     0.17696     0.89815E-01 0.11001     0.13328     0.17236    
 0.25138     0.39049     0.57067     0.72842     0.82270     0.85526     0.83734     0.77377     0.69523     0.66865    
 0.70082     0.73014     0.70800     0.61029     0.44371     0.26537     0.14511     0.89890E-01 0.72363E-01 0.74966E-01
 0.39062E-01 0.53019E-01 0.79649E-01 0.13333     0.24026     0.41388     0.61079     0.76036     0.83323     0.83734    
 0.77210     0.62458     0.47767     0.47311     0.59214     0.70081     0.72765     0.66178     0.50669     0.31002    
 0.15302     0.72363E-01 0.42000E-01 0.34536E-01 0.21336E-01 0.29642E-01 0.52980E-01 0.11005     0.23023     0.41741    
 0.61525     0.75469     0.80743     0.77377     0.62458     0.36654     0.21314     0.26036     0.47311     0.66865    
 0.73697     0.69484     0.55393     0.35514     0.17696     0.74966E-01 0.34536E-01 0.21984E-01 0.17161E-01 0.21346E-01
 0.39046E-01 0.89879E-01 0.20700     0.39455     0.59175     0.72686     0.76535     0.69523     0.47767     0.21314    
 0.12390     0.21314     0.47767     0.69522     0.76536     0.72683     0.59182     0.39443     0.20708     0.89815E-01
 0.39062E-01 0.21336E-01 0.21346E-01 0.21992E-01 0.34522E-01 0.75002E-01 0.17686     0.35524     0.55384     0.69488    
 0.73696     0.66865     0.47311     0.26036     0.21314     0.36655     0.62458     0.77377     0.80744     0.75466    
 0.61531     0.41734     0.23033     0.11001     0.53019E-01 0.29642E-01 0.39046E-01 0.34522E-01 0.41983E-01 0.72385E-01
 0.15297     0.31012     0.50663     0.66182     0.72764     0.70082     0.59214     0.47311     0.47767     0.62458    
 0.77211     0.83734     0.83323     0.76034     0.61082     0.41383     0.24030     0.13328     0.79649E-01 0.52980E-01
 0.89879E-01 0.75002E-01 0.72385E-01 0.89915E-01 0.14508     0.26541     0.44363     0.61032     0.70797     0.73014    
 0.70081     0.66865     0.69522     0.77377     0.83734     0.85526     0.82271     0.72841     0.57069     0.39047    
 0.25142     0.17236     0.13333     0.11005     0.20700     0.17686     0.15297     0.14508     0.16557     0.23454    
 0.36483     0.52175     0.64432     0.70800     0.72765     0.73697     0.76536     0.80744     0.83323     0.82271    
 0.76476     0.65306     0.50522     0.37162     0.28827     0.25138     0.24026     0.23023     0.39455     0.35524    
 0.31012     0.26541     0.23454     0.23939     0.29650     0.40310     0.52170     0.61029     0.66178     0.69484    
 0.72683     0.75466     0.76034     0.72841     0.65306     0.54569     0.44338     0.38345     0.37163     0.39049    
 0.41388     0.41741     0.59175     0.55384     0.50663     0.44363     0.36483     0.29650     0.27039     0.29652    
 0.36486     0.44371     0.50669     0.55393     0.59182     0.61531     0.61082     0.57069     0.50522     0.44338    
 0.41804     0.44338     0.50521     0.57067     0.61079     0.61525     0.72686     0.69488     0.66182     0.61032    
 0.52175     0.40310     0.29652     0.23938     0.23451     0.26537     0.31002     0.35514     0.39443     0.41734    
 0.41383     0.39047     0.37162     0.38345     0.44338     0.54569     0.65306     0.72842     0.76036     0.75469    
 0.76535     0.73696     0.72764     0.70797     0.64432     0.52170     0.36486     0.23451     0.16559     0.14511    
 0.15302     0.17696     0.20708     0.23033     0.24030     0.25142     0.28827     0.37163     0.50521     0.65306    
 0.76475     0.82270     0.83323     0.80743     0.69523     0.66865     0.70082     0.73014     0.70800     0.61029    
 0.44371     0.26537     0.14511     0.89890E-01 0.72363E-01 0.74966E-01 0.89815E-01 0.11001     0.13328     0.17236    
 0.25138     0.39049     0.57067     0.72842     0.82270     0.85526     0.83734     0.77377     0.47767     0.47311    
 0.59214     0.70081     0.72765     0.66178     0.50669     0.31002     0.15302     0.72363E-01 0.42000E-01 0.34536E-01
 0.39062E-01 0.53019E-01 0.79649E-01 0.13333     0.24026     0.41388     0.61079     0.76036     0.83323     0.83734    
 0.77210     0.62458     0.21314     0.26036     0.47311     0.66865     0.73697     0.69484     0.55393     0.35514    
 0.17696     0.74966E-01 0.34536E-01 0.21984E-01 0.21336E-01 0.29642E-01 0.52980E-01 0.11005     0.23023     0.41741    
 0.61525     0.75469     0.80743     0.77377     0.62458     0.36654     0.12466     0.22113     0.50116     0.71239    
 0.77067     0.72471     0.59427     0.41141     0.23257     0.11239     0.53555E-01 0.30191E-01 0.24247E-01 0.30195E-01
 0.53552E-01 0.11242     0.23256     0.41146     0.59426     0.72473     0.77066     0.71239     0.50117     0.22113    
 0.22113     0.45108     0.72122     0.83152     0.84268     0.78518     0.65879     0.47725     0.29066     0.15685    
 0.82963E-01 0.46413E-01 0.30195E-01 0.27328E-01 0.38993E-01 0.78402E-01 0.17252     0.33234     0.51244     0.64757    
 0.68813     0.60520     0.39585     0.21607     0.50116     0.72122     0.85310     0.89078     0.87662     0.81433    
 0.69362     0.51721     0.33689     0.20704     0.12941     0.82939E-01 0.53552E-01 0.38993E-01 0.40450E-01 0.64073E-01
 0.12997     0.26004     0.42957     0.57234     0.63114     0.58509     0.46558     0.39585     0.71239     0.83152    
 0.89078     0.90096     0.87610     0.81249     0.69479     0.53099     0.37955     0.27495     0.20708     0.15686    
 0.11242     0.78402E-01 0.64073E-01 0.72970E-01 0.11453     0.20854     0.35296     0.49712     0.58658     0.60468    
 0.58509     0.60520     0.77067     0.84268     0.87662     0.87610     0.84608     0.77724     0.65971     0.52878    
 0.43564     0.37952     0.33689     0.29061     0.23256     0.17252     0.12997     0.11453     0.12912     0.18338    
 0.28530     0.41129     0.51812     0.58661     0.63114     0.68815     0.72471     0.78518     0.81433     0.81249    
 0.77724     0.70056     0.60376     0.54155     0.52880     0.53100     0.51723     0.47727     0.41146     0.33234    
 0.26004     0.20854     0.18338     0.19013     0.23568     0.31706     0.41123     0.49710     0.57230     0.64757    
 0.59427     0.65879     0.69362     0.69479     0.65971     0.60376     0.57493     0.60375     0.65970     0.69477    
 0.69361     0.65876     0.59426     0.51244     0.42957     0.35296     0.28530     0.23568     0.21733     0.23570    
 0.28532     0.35302     0.42959     0.51248     0.41141     0.47725     0.51721     0.53099     0.52878     0.54155    
 0.60375     0.70057     0.77725     0.81249     0.81433     0.78518     0.72473     0.64757     0.57234     0.49712    
 0.41129     0.31706     0.23570     0.19012     0.18336     0.20852     0.25999     0.33232     0.23257     0.29066    
 0.33689     0.37955     0.43564     0.52880     0.65970     0.77725     0.84608     0.87610     0.87661     0.84268    
 0.77066     0.68813     0.63114     0.58658     0.51812     0.41123     0.28532     0.18336     0.12914     0.11455    
 0.12999     0.17256     0.11239     0.15685     0.20704     0.27495     0.37952     0.53100     0.69477     0.81249    
 0.87610     0.90096     0.89078     0.83152     0.71239     0.60520     0.58509     0.60468     0.58661     0.49710    
 0.35302     0.20852     0.11455     0.72960E-01 0.64064E-01 0.78395E-01 0.53555E-01 0.82963E-01 0.12941     0.20708    
 0.33689     0.51723     0.69361     0.81433     0.87661     0.89078     0.85310     0.72122     0.50117     0.39585    
 0.46558     0.58509     0.63114     0.57230     0.42959     0.25999     0.12999     0.64064E-01 0.40455E-01 0.38999E-01
 0.30191E-01 0.46413E-01 0.82939E-01 0.15686     0.29061     0.47727     0.65876     0.78518     0.84268     0.83152    
 0.72122     0.45108     0.22113     0.21607     0.39585     0.60520     0.68815     0.64757     0.51248     0.33232    
 0.17256     0.78395E-01 0.38999E-01 0.27326E-01 0.24247E-01 0.30195E-01 0.53552E-01 0.11242     0.23256     0.41146    
 0.59426     0.72473     0.77066     0.71239     0.50117     0.22113     0.12466     0.22113     0.50116     0.71239    
 0.77067     0.72471     0.59427     0.41141     0.23257     0.11239     0.53555E-01 0.30191E-01 0.30195E-01 0.27328E-01
 0.38993E-01 0.78402E-01 0.17252     0.33234     0.51244     0.64757     0.68813     0.60520     0.39585     0.21607    
 0.22113     0.45108     0.72122     0.83152     0.84268     0.78518     0.65879     0.47725     0.29066     0.15685    
 0.82963E-01 0.46413E-01 0.53552E-01 0.38993E-01 0.40450E-01 0.64073E-01 0.12997     0.26004     0.42957     0.57234    
 0.63114     0.58509     0.46558     0.39585     0.50116     0.72122     0.85310     0.89078     0.87662     0.81433    
 0.69362     0.51721     0.33689     0.20704     0.12941     0.82939E-01 0.11242     0.78402E-01 0.64073E-01 0.72970E-01
 0.11453     0.20854     0.35296     0.49712     0.58658     0.60468     0.58509     0.60520     0.71239     0.83152    
 0.89078     0.90096     0.87610     0.81249     0.69479     0.53099     0.37955     0.27495     0.20708     0.15686    
 0.23256     0.17252     0.12997     0.11453     0.12912     0.18338     0.28530     0.41129     0.51812     0.58661    
 0.63114     0.68815     0.77067     0.84268     0.87662     0.87610     0.84608     0.77724     0.65971     0.52878    
 0.43564     0.37952     0.33689     0.29061     0.41146     0.33234     0.26004     0.20854     0.18338     0.19013    
 0.23568     0.31706     0.41123     0.49710     0.57230     0.64757     0.72471     0.78518     0.81433     0.81249    
 0.77724     0.70056     0.60376     0.54155     0.52880     0.53100     0.51723     0.47727     0.59426     0.51244    
 0.42957     0.35296     0.28530     0.23568     0.21733     0.23570     0.28532     0.35302     0.42959     0.51248    
 0.59427     0.65879     0.69362     0.69479     0.65971     0.60376     0.57493     0.60375     0.65970     0.69477    
 0.69361     0.65876     0.72473     0.64757     0.57234     0.49712     0.41129     0.31706     0.23570     0.19012    
 0.18336     0.20852     0.25999     0.33232     0.41141     0.47725     0.51721     0.53099     0.52878     0.54155    
 0.60375     0.70057     0.77725     0.81249     0.81433     0.78518     0.77066     0.68813     0.63114     0.58658    
 0.51812     0.41123     0.28532     0.18336     0.12914     0.11455     0.12999     0.17256     0.23257     0.29066    
 0.33689     0.37955     0.43564     0.52880     0.65970     0.77725     0.84608     0.87610     0.87661     0.84268    
 0.71239     0.60520     0.58509     0.60468     0.58661     0.49710     0.35302     0.20852     0.11455     0.72960E-01
 0.64064E-01 0.78395E-01 0.11239     0.15685     0.20704     0.27495     0.37952     0.53100     0.69477     0.81249    
 0.87610     0.90096     0.89078     0.83152     0.50117     0.39585     0.46558     0.58509     0.63114     0.57230    
 0.42959     0.25999     0.12999     0.64064E-01 0.40455E-01 0.38999E-01 0.53555E-01 0.82963E-01 0.12941     0.20708    
 0.33689     0.51723     0.69361     0.81433     0.87661     0.89078     0.85310     0.72122     0.22113     0.21607    
 0.39585     0.60520     0.68815     0.64757     0.51248     0.33232     0.17256     0.78395E-01 0.38999E-01 0.27326E-01
 0.30191E-01 0.46413E-01 0.82939E-01 0.15686     0.29061     0.47727     0.65876     0.78518     0.84268     0.83152    
 0.72122     0.45108     0.29883     0.40554     0.62797     0.76163     0.78257     0.72221     0.59730     0.42876    
 0.26235     0.14436     0.78635E-01 0.48792E-01 0.40603E-01 0.48788E-01 0.78642E-01 0.14436     0.26239     0.42876    
 0.59733     0.72221     0.78258     0.76163     0.62797     0.40554     0.40554     0.63456     0.81472     0.87313    
 0.86476     0.80696     0.69694     0.53429     0.35784     0.21897     0.12887     0.76078E-01 0.48788E-01 0.40508E-01
 0.50752E-01 0.88858E-01 0.17372     0.31370     0.47449     0.60340     0.66003     0.61516     0.47435     0.35352    
 0.62797     0.81472     0.89941     0.91717     0.90120     0.85456     0.76031     0.60667     0.43767     0.30119    
 0.20106     0.12887     0.78642E-01 0.50752E-01 0.44741E-01 0.61389E-01 0.11277     0.21535     0.35443     0.48021    
 0.54659     0.53134     0.47060     0.47435     0.76163     0.87313     0.91717     0.92442     0.91143     0.87141    
 0.77647     0.62539     0.48581     0.38622     0.30120     0.21894     0.14436     0.88858E-01 0.61389E-01 0.60372E-01
 0.87005E-01 0.15332     0.26095     0.37604     0.46039     0.50199     0.53134     0.61516     0.78257     0.86476    
 0.90120     0.91143     0.90039     0.84967     0.73415     0.59728     0.52013     0.48579     0.43768     0.35783    
 0.26239     0.17372     0.11277     0.87005E-01 0.91766E-01 0.12782     0.19943     0.29194     0.38031     0.46042    
 0.54657     0.66003     0.72221     0.80696     0.85456     0.87141     0.84967     0.76955     0.64913     0.58192    
 0.59729     0.62539     0.60668     0.53426     0.42876     0.31370     0.21535     0.15332     0.12782     0.13174    
 0.16368     0.22064     0.29189     0.37604     0.48019     0.60342     0.59730     0.69694     0.76031     0.77647    
 0.73415     0.64913     0.60131     0.64913     0.73415     0.77647     0.76031     0.69694     0.59733     0.47449    
 0.35443     0.26095     0.19943     0.16368     0.15147     0.16370     0.19944     0.26099     0.35442     0.47449    
 0.42876     0.53429     0.60667     0.62539     0.59728     0.58192     0.64913     0.76956     0.84967     0.87141    
 0.85457     0.80696     0.72221     0.60340     0.48021     0.37604     0.29194     0.22064     0.16370     0.13174    
 0.12781     0.15332     0.21533     0.31374     0.26235     0.35784     0.43767     0.48581     0.52013     0.59729    
 0.73415     0.84967     0.90038     0.91143     0.90120     0.86476     0.78258     0.66003     0.54659     0.46039    
 0.38031     0.29189     0.19944     0.12781     0.91771E-01 0.87014E-01 0.11277     0.17373     0.14436     0.21897    
 0.30119     0.38622     0.48579     0.62539     0.77647     0.87141     0.91143     0.92442     0.91717     0.87313    
 0.76163     0.61516     0.53134     0.50199     0.46042     0.37604     0.26099     0.15332     0.87014E-01 0.60370E-01
 0.61386E-01 0.88869E-01 0.78635E-01 0.12887     0.20106     0.30120     0.43768     0.60668     0.76031     0.85457    
 0.90120     0.91717     0.89941     0.81472     0.62797     0.47435     0.47060     0.53134     0.54657     0.48019    
 0.35442     0.21533     0.11277     0.61386E-01 0.44741E-01 0.50750E-01 0.48792E-01 0.76078E-01 0.12887     0.21894    
 0.35783     0.53426     0.69694     0.80696     0.86476     0.87313     0.81472     0.63456     0.40554     0.35352    
 0.47435     0.61516     0.66003     0.60342     0.47449     0.31374     0.17373     0.88869E-01 0.50750E-01 0.40508E-01
 0.40603E-01 0.48788E-01 0.78642E-01 0.14436     0.26239     0.42876     0.59733     0.72221     0.78258     0.76163    
 0.62797     0.40554     0.29883     0.40554     0.62797     0.76163     0.78257     0.72221     0.59730     0.42876    
 0.26235     0.14436     0.78635E-01 0.48792E-01 0.48788E-01 0.40508E-01 0.50752E-01 0.88858E-01 0.17372     0.31370    
 0.47449     0.60340     0.66003     0.61516     0.47435     0.35352     0.40554     0.63456     0.81472     0.87313    
 0.86476     0.80696     0.69694     0.53429     0.35784     0.21897     0.12887     0.76078E-01 0.78642E-01 0.50752E-01
 0.44741E-01 0.61389E-01 0.11277     0.21535     0.35443     0.48021     0.54659     0.53134     0.47060     0.47435    
 0.62797     0.81472     0.89941     0.91717     0.90120     0.85456     0.76031     0.60667     0.43767     0.30119    
 0.20106     0.12887     0.14436     0.88858E-01 0.61389E-01 0.60372E-01 0.87005E-01 0.15332     0.26095     0.37604    
 0.46039     0.50199     0.53134     0.61516     0.76163     0.87313     0.91717     0.92442     0.91143     0.87141    
 0.77647     0.62539     0.48581     0.38622     0.30120     0.21894     0.26239     0.17372     0.11277     0.87005E-01
 0.91766E-01 0.12782     0.19943     0.29194     0.38031     0.46042     0.54657     0.66003     0.78257     0.86476    
 0.90120     0.91143     0.90039     0.84967     0.73415     0.59728     0.52013     0.48579     0.43768     0.35783    
 0.42876     0.31370     0.21535     0.15332     0.12782     0.13174     0.16368     0.22064     0.29189     0.37604    
 0.48019     0.60342     0.72221     0.80696     0.85456     0.87141     0.84967     0.76955     0.64913     0.58192    
 0.59729     0.62539     0.60668     0.53426     0.59733     0.47449     0.35443     0.26095     0.19943     0.16368    
 0.15147     0.16370     0.19944     0.26099     0.35442     0.47449     0.59730     0.69694     0.76031     0.77647    
 0.73415     0.64913     0.60131     0.64913     0.73415     0.77647     0.76031     0.69694     0.72221     0.60340    
 0.48021     0.37604     0.29194     0.22064     0.16370     0.13174     0.12781     0.15332     0.21533     0.31374    
 0.42876     0.53429     0.60667     0.62539     0.59728     0.58192     0.64913     0.76956     0.84967     0.87141    
 0.85457     0.80696     0.78258     0.66003     0.54659     0.46039     0.38031     0.29189     0.19944     0.12781    
 0.91771E-01 0.87014E-01 0.11277     0.17373     0.26235     0.35784     0.43767     0.48581     0.52013     0.59729    
 0.73415     0.84967     0.90038     0.91143     0.90120     0.86476     0.76163     0.61516     0.53134     0.50199    
 0.46042     0.37604     0.26099     0.15332     0.87014E-01 0.60370E-01 0.61386E-01 0.88869E-01 0.14436     0.21897    
 0.30119     0.38622     0.48579     0.62539     0.77647     0.87141     0.91143     0.92442     0.91717     0.87313    
 0.62797     0.47435     0.47060     0.53134     0.54657     0.48019     0.35442     0.21533     0.11277     0.61386E-01
 0.44741E-01 0.50750E-01 0.78635E-01 0.12887     0.20106     0.30120     0.43768     0.60668     0.76031     0.85457    
 0.90120     0.91717     0.89941     0.81472     0.40554     0.35352     0.47435     0.61516     0.66003     0.60342    
 0.47449     0.31374     0.17373     0.88869E-01 0.50750E-01 0.40508E-01 0.48792E-01 0.76078E-01 0.12887     0.21894    
 0.35783     0.53426     0.69694     0.80696     0.86476     0.87313     0.81472     0.63456     0.49294     0.56278    
 0.69216     0.76436     0.76112     0.69958     0.58911     0.44437     0.30523     0.19970     0.12970     0.91859E-01
 0.80426E-01 0.91849E-01 0.12971     0.19969     0.30527     0.44436     0.58913     0.69958     0.76113     0.76435    
 0.69216     0.56278     0.56278     0.71965     0.83350     0.86969     0.85733     0.80834     0.71484     0.57812    
 0.43449     0.31120     0.21105     0.13705     0.91849E-01 0.73631E-01 0.80393E-01 0.11534     0.18638     0.29932    
 0.43450     0.54791     0.61158     0.60922     0.54733     0.49872     0.69216     0.83350     0.89862     0.91442    
 0.90538     0.86920     0.78387     0.64998     0.51989     0.41382     0.31141     0.21108     0.12971     0.80393E-01
 0.62481E-01 0.70613E-01 0.10735     0.18231     0.28926     0.39114     0.45839     0.48393     0.49094     0.54732    
 0.76436     0.86969     0.91442     0.92888     0.92419     0.88631     0.78206     0.63042     0.52849     0.47803    
 0.41382     0.31118     0.19969     0.11534     0.70613E-01 0.58333E-01 0.71257E-01 0.11311     0.18635     0.26996    
 0.34221     0.40650     0.48392     0.60923     0.76112     0.85733     0.90538     0.92419     0.91476     0.85179    
 0.69542     0.53544     0.49928     0.52848     0.51990     0.43450     0.30527     0.18638     0.10735     0.71257E-01
 0.66199E-01 0.85429E-01 0.12949     0.19085     0.25872     0.34223     0.45838     0.61158     0.69958     0.80834    
 0.86920     0.88631     0.85179     0.72809     0.53827     0.46256     0.53544     0.63042     0.64998     0.57809    
 0.44436     0.29932     0.18231     0.11311     0.85429E-01 0.84152E-01 0.10265     0.13860     0.19082     0.26997    
 0.39114     0.54794     0.58911     0.71484     0.78387     0.78206     0.69542     0.53827     0.45227     0.53826    
 0.69542     0.78206     0.78388     0.71484     0.58913     0.43450     0.28926     0.18635     0.12949     0.10265    
 0.94521E-01 0.10266     0.12950     0.18636     0.28924     0.43449     0.44437     0.57812     0.64998     0.63042    
 0.53544     0.46256     0.53826     0.72809     0.85179     0.88631     0.86920     0.80833     0.69958     0.54791    
 0.39114     0.26996     0.19085     0.13860     0.10266     0.84152E-01 0.85422E-01 0.11311     0.18230     0.29936    
 0.30523     0.43449     0.51989     0.52849     0.49928     0.53544     0.69542     0.85179     0.91476     0.92419    
 0.90538     0.85733     0.76113     0.61158     0.45839     0.34221     0.25872     0.19082     0.12950     0.85422E-01
 0.66198E-01 0.71262E-01 0.10734     0.18638     0.19970     0.31120     0.41382     0.47803     0.52848     0.63042    
 0.78206     0.88631     0.92419     0.92888     0.91442     0.86968     0.76435     0.60922     0.48393     0.40650    
 0.34223     0.26997     0.18636     0.11311     0.71262E-01 0.58333E-01 0.70612E-01 0.11535     0.12970     0.21105    
 0.31141     0.41382     0.51990     0.64998     0.78388     0.86920     0.90538     0.91442     0.89862     0.83350    
 0.69216     0.54733     0.49094     0.48392     0.45838     0.39114     0.28924     0.18230     0.10734     0.70612E-01
 0.62482E-01 0.80389E-01 0.91859E-01 0.13705     0.21108     0.31118     0.43450     0.57809     0.71484     0.80833    
 0.85733     0.86968     0.83350     0.71965     0.56278     0.49872     0.54732     0.60923     0.61158     0.54794    
 0.43449     0.29936     0.18638     0.11535     0.80389E-01 0.73629E-01 0.80426E-01 0.91849E-01 0.12971     0.19969    
 0.30527     0.44436     0.58913     0.69958     0.76113     0.76435     0.69216     0.56278     0.49294     0.56278    
 0.69216     0.76436     0.76112     0.69958     0.58911     0.44437     0.30523     0.19970     0.12970     0.91859E-01
 0.91849E-01 0.73631E-01 0.80393E-01 0.11534     0.18638     0.29932     0.43450     0.54791     0.61158     0.60922    
 0.54733     0.49872     0.56278     0.71965     0.83350     0.86969     0.85733     0.80834     0.71484     0.57812    
 0.43449     0.31120     0.21105     0.13705     0.12971     0.80393E-01 0.62481E-01 0.70613E-01 0.10735     0.18231    
 0.28926     0.39114     0.45839     0.48393     0.49094     0.54732     0.69216     0.83350     0.89862     0.91442    
 0.90538     0.86920     0.78387     0.64998     0.51989     0.41382     0.31141     0.21108     0.19969     0.11534    
 0.70613E-01 0.58333E-01 0.71257E-01 0.11311     0.18635     0.26996     0.34221     0.40650     0.48392     0.60923    
 0.76436     0.86969     0.91442     0.92888     0.92419     0.88631     0.78206     0.63042     0.52849     0.47803    
 0.41382     0.31118     0.30527     0.18638     0.10735     0.71257E-01 0.66199E-01 0.85429E-01 0.12949     0.19085    
 0.25872     0.34223     0.45838     0.61158     0.76112     0.85733     0.90538     0.92419     0.91476     0.85179    
 0.69542     0.53544     0.49928     0.52848     0.51990     0.43450     0.44436     0.29932     0.18231     0.11311    
 0.85429E-01 0.84152E-01 0.10265     0.13860     0.19082     0.26997     0.39114     0.54794     0.69958     0.80834    
 0.86920     0.88631     0.85179     0.72809     0.53827     0.46256     0.53544     0.63042     0.64998     0.57809    
 0.58913     0.43450     0.28926     0.18635     0.12949     0.10265     0.94521E-01 0.10266     0.12950     0.18636    
 0.28924     0.43449     0.58911     0.71484     0.78387     0.78206     0.69542     0.53827     0.45227     0.53826    
 0.69542     0.78206     0.78388     0.71484     0.69958     0.54791     0.39114     0.26996     0.19085     0.13860    
 0.10266     0.84152E-01 0.85422E-01 0.11311     0.18230     0.29936     0.44437     0.57812     0.64998     0.63042    
 0.53544     0.46256     0.53826     0.72809     0.85179     0.88631     0.86920     0.80833     0.76113     0.61158    
 0.45839     0.34221     0.25872     0.19082     0.12950     0.85422E-01 0.66198E-01 0.71262E-01 0.10734     0.18638    
 0.30523     0.43449     0.51989     0.52849     0.49928     0.53544     0.69542     0.85179     0.91476     0.92419    
 0.90538     0.85733     0.76435     0.60922     0.48393     0.40650     0.34223     0.26997     0.18636     0.11311    
 0.71262E-01 0.58333E-01 0.70612E-01 0.11535     0.19970     0.31120     0.41382     0.47803     0.52848     0.63042    
 0.78206     0.88631     0.92419     0.92888     0.91442     0.86968     0.69216     0.54733     0.49094     0.48392    
 0.45838     0.39114     0.28924     0.18230     0.10734     0.70612E-01 0.62482E-01 0.80389E-01 0.12970     0.21105    
 0.31141     0.41382     0.51990     0.64998     0.78388     0.86920     0.90538     0.91442     0.89862     0.83350    
 0.56278     0.49872     0.54732     0.60923     0.61158     0.54794     0.43449     0.29936     0.18638     0.11535    
 0.80389E-01 0.73629E-01 0.91859E-01 0.13705     0.21108     0.31118     0.43450     0.57809     0.71484     0.80833    
 0.85733     0.86968     0.83350     0.71965     0.54338     0.58243     0.65817     0.70481     0.70156     0.65228    
 0.56541     0.46539     0.37622     0.29865     0.23035     0.18326     0.16714     0.18325     0.23035     0.29865    
 0.37624     0.46538     0.56542     0.65227     0.70156     0.70480     0.65817     0.58242     0.58243     0.69685    
 0.78838     0.82666     0.82298     0.78108     0.70116     0.60705     0.52507     0.44592     0.35234     0.25560    
 0.18325     0.14768     0.14648     0.17430     0.22543     0.29918     0.39162     0.47736     0.52850     0.53896    
 0.52182     0.51951     0.65817     0.78838     0.86160     0.88949     0.88573     0.84333     0.75447     0.65653    
 0.59630     0.55071     0.47213     0.35235     0.23035     0.14648     0.10740     0.10214     0.12261     0.16802    
 0.23640     0.30772     0.35946     0.39596     0.43874     0.52181     0.70481     0.82666     0.88949     0.91308    
 0.90361     0.84288     0.70997     0.58549     0.55985     0.57755     0.55071     0.44590     0.29865     0.17430    
 0.10214     0.73238E-01 0.72031E-01 0.92542E-01 0.13420     0.18720     0.23963     0.30191     0.39596     0.53897    
 0.70156     0.82298     0.88573     0.90361     0.87660     0.76185     0.53757     0.40622     0.45441     0.55985    
 0.59630     0.52507     0.37624     0.22543     0.12261     0.72031E-01 0.56205E-01 0.61348E-01 0.83473E-01 0.11929    
 0.16673     0.23964     0.35945     0.52850     0.65228     0.78108     0.84333     0.84288     0.76185     0.53531    