 vasp.5.4.1 05Feb16 (build Mar 02 2016 14:09:44) complex                        
  
 executed on   Abel-impi-ifc-cuda date 2019.10.04  09:47:16
 running on    4 total cores
 distrk:  each k-point on    4 cores,    1 groups
 distr:  one band on NCORES_PER_BAND=   2 cores,    2 groups


--------------------------------------------------------------------------------------------------------


 INCAR:
 POTCAR:   PAW_PBE Si 05Jan2001                   
 POTCAR:   PAW_PBE Si 05Jan2001                   
   VRHFIN =Si: s2p2                                                             
   LEXCH  = PE                                                                  
   EATOM  =   103.0669 eV,    7.5752 Ry                                         
                                                                                
   TITEL  = PAW_PBE Si 05Jan2001                                                
   LULTRA =        F    use ultrasoft PP ?                                      
   IUNSCR =        1    unscreen: 0-lin 1-nonlin 2-no                           
   RPACOR =    1.500    partial core radius                                     
   POMASS =   28.085; ZVAL   =    4.000    mass and valenz                      
   RCORE  =    1.900    outmost cutoff radius                                   
   RWIGS  =    2.480; RWIGS  =    1.312    wigner-seitz radius (au A)           
   ENMAX  =  245.345; ENMIN  =  184.009 eV                                      
   ICORE  =        2    local potential                                         
   LCOR   =        T    correct aug charges                                     
   LPAW   =        T    paw PP                                                  
   EAUG   =  322.069                                                            
   DEXC   =    -.007                                                            
   RMAX   =    2.944    core radius for proj-oper                               
   RAUG   =    1.300    factor for augmentation sphere                          
   RDEP   =    1.993    radius for radial grids                                 
   QCUT   =   -4.246; QGAM   =    8.493    optimization parameters              
                                                                                
   Description                                                                  
     l     E      TYP  RCUT    TYP  RCUT                                        
     0   .000     23  1.900                                                     
     0   .000     23  1.900                                                     
     1   .000     23  1.900                                                     
     1   .000     23  1.900                                                     
     2   .000      7  1.900                                                     
  local pseudopotential read in
  partial core-charges read in
  atomic valenz-charges read in
  non local Contribution for L=           0  read in
    real space projection operators read in
  non local Contribution for L=           0  read in
    real space projection operators read in
  non local Contribution for L=           1  read in
    real space projection operators read in
  non local Contribution for L=           1  read in
    real space projection operators read in
    PAW grid and wavefunctions read in
 
   number of l-projection  operators is LMAX  =           4
   number of lm-projection operators is LMMAX =           8
 
 Optimization of the real space projectors (new method)

 maximal supplied QI-value         = 19.84
 optimisation between [QCUT,QGAM] = [  7.94, 16.07] = [ 17.64, 72.34] Ry 
 Optimized for a Real-space Cutoff    1.55 Angstroem

   l    n(q)    QCUT    max X(q) W(low)/X(q) W(high)/X(q)  e(spline) 
   0      7     7.937     8.708    0.25E-04    0.20E-04    0.11E-07
   0      7     7.937   106.241    0.95E-04    0.31E-03    0.13E-06
   1      7     7.937     5.901    0.19E-04    0.32E-04    0.50E-07
   1      7     7.937    73.241    0.39E-03    0.64E-03    0.12E-06
 PAW_PBE Si 05Jan2001                   :
 energy of atom  1       EATOM= -103.0669
 kinetic energy error for atom=    0.0052 (will be added to EATOM!!)
 
 
 POSCAR: Si_bulk_icsd_60385                      
  positions in cartesian coordinates
  No initial velocities read in
 exchange correlation table for  LEXCH =        8
   RHO(1)=    0.500       N(1)  =     2000
   RHO(2)=  100.500       N(2)  =     4000
 


--------------------------------------------------------------------------------------------------------


 ion  position               nearest neighbor table
   1  0.000  0.000  0.000-   3 2.35   4 2.35
   2  0.500  0.500  0.000-   3 2.35   4 2.35
   3  0.250  0.250  0.060-   2 2.35   5 2.35   6 2.35   1 2.35
   4  0.750  0.750  0.060-   1 2.35   5 2.35   6 2.35   2 2.35
   5  0.000  0.500  0.119-   3 2.35   4 2.35   8 2.35   7 2.35
   6  0.500  0.000  0.119-   3 2.35   4 2.35   7 2.35   8 2.35
   7  0.250  0.750  0.179-   9 2.35  10 2.35   6 2.35   5 2.35
   8  0.750  0.250  0.179-   9 2.35  10 2.35   5 2.35   6 2.35
   9  0.000  0.000  0.238-   7 2.35   8 2.35
  10  0.500  0.500  0.238-   7 2.35   8 2.35
 
  LATTYP: Found a simple tetragonal cell.
 ALAT       =     5.4310100000
 C/A-ratio  =     4.1964588539
  
  Lattice vectors:
  
 A1 = (   5.4310100000,   0.0000000000,   0.0000000000)
 A2 = (   0.0000000000,   5.4310100000,   0.0000000000)
 A3 = (   0.0000000000,   0.0000000000,  22.7910100000)


Analysis of symmetry for initial positions (statically):
=====================================================================
 Subroutine PRICEL returns following result:
 
  LATTYP: Found a simple tetragonal cell.
 ALAT       =     3.8403039997
 C/A-ratio  =     5.9346890251
  
  Lattice vectors:
  
 A1 = (   2.7155050000,  -2.7155050000,   0.0000000000)
 A2 = (  -2.7155050000,  -2.7155050000,   0.0000000000)
 A3 = (   0.0000000000,   0.0000000000, -22.7910100000)
 
   2 primitive cells build up your supercell.
 

 Routine SETGRP: Setting up the symmetry group for a 
 simple tetragonal supercell.


 Subroutine GETGRP returns: Found  8 space group operations
 (whereof  4 operations were pure point group operations)
 out of a pool of 16 trial point group operations.


The static configuration has the point symmetry C_2v.
 The point group associated with its full space group is D_2d.


Analysis of symmetry for dynamics (positions and initial velocities):
=====================================================================
 Subroutine PRICEL returns following result:
 
  LATTYP: Found a simple tetragonal cell.
 ALAT       =     3.8403039997
 C/A-ratio  =     5.9346890251
  
  Lattice vectors:
  
 A1 = (   2.7155050000,  -2.7155050000,   0.0000000000)
 A2 = (  -2.7155050000,  -2.7155050000,   0.0000000000)
 A3 = (   0.0000000000,   0.0000000000, -22.7910100000)
 
   2 primitive cells build up your supercell.
 

 Routine SETGRP: Setting up the symmetry group for a 
 simple tetragonal supercell.


 Subroutine GETGRP returns: Found  8 space group operations
 (whereof  4 operations were pure point group operations)
 out of a pool of 16 trial point group operations.


The dynamic configuration has the point symmetry C_2v.
 The point group associated with its full space group is D_2d.


 Subroutine INISYM returns: Found  8 space group operations
 (whereof  4 operations are pure point group operations),
 and found     2 'primitive' translations

 
 
 KPOINTS: Automatic                               

Automatic generation of k-mesh.
Space group operators:
 irot       det(A)        alpha          n_x          n_y          n_z        tau_x        tau_y        tau_z
    1     1.000000     0.000000     1.000000     0.000000     0.000000     0.000000     0.000000     0.000000
    2     1.000000   179.999999     0.000000     0.000000     1.000000     0.000000     0.000000     0.000000
    3    -1.000000   180.000000     0.707107     0.707107     0.000000     0.000000     0.000000     0.000000
    4    -1.000000   180.000000     0.707107    -0.707107     0.000000     0.000000     0.000000     0.000000
    5    -1.000000    90.000000     0.000000     0.000000    -1.000000     0.000000     0.000000    -0.761704
    6    -1.000000    90.000000     0.000000     0.000000     1.000000     0.000000     0.000000    -0.761704
    7     1.000000   180.000000     0.000000     1.000000     0.000000     0.000000     0.000000    -0.761704
    8     1.000000   180.000000     1.000000     0.000000     0.000000     0.000000     0.000000    -0.761704
 
 Subroutine IBZKPT returns following result:
 ===========================================
 
 Found      6 irreducible k-points:
 
 Following reciprocal coordinates:
            Coordinates               Weight
  0.000000  0.000000  0.000000      1.000000
  0.200000  0.000000  0.000000      4.000000
  0.400000  0.000000  0.000000      4.000000
  0.200000  0.200000  0.000000      4.000000
  0.400000  0.200000  0.000000      8.000000
  0.400000  0.400000  0.000000      4.000000
 
 Following cartesian coordinates:
            Coordinates               Weight
  0.000000  0.000000  0.000000      1.000000
  0.036826  0.000000  0.000000      4.000000
  0.073651  0.000000  0.000000      4.000000
  0.036826  0.036826  0.000000      4.000000
  0.073651  0.036826  0.000000      8.000000
  0.073651  0.073651  0.000000      4.000000
 


--------------------------------------------------------------------------------------------------------




 Dimension of arrays:
   k-points           NKPTS =      6   k-points in BZ     NKDIM =      6   number of bands    NBANDS=     26
   number of dos      NEDOS =   2401   number of ions     NIONS =     10
   non local maximal  LDIM  =      4   non local SUM 2l+1 LMDIM =      8
   total plane-waves  NPLWV =  51840
   max r-space proj   IRMAX =   1256   max aug-charges    IRDMAX=   2778
   dimension x,y,z NGX =    24 NGY =   24 NGZ =   90
   dimension x,y,z NGXF=    48 NGYF=   48 NGZF=  180
   support grid    NGXF=    48 NGYF=   48 NGZF=  180
   ions per type =              10
 NGX,Y,Z   is equivalent  to a cutoff of   7.35,  7.35,  6.56 a.u.
 NGXF,Y,Z  is equivalent  to a cutoff of  14.69, 14.69, 13.13 a.u.


 I would recommend the setting:
   dimension x,y,z NGX =    21 NGY =   21 NGZ =   88
 SYSTEM =  unknown system                          
 POSCAR =  Si_bulk_icsd_60385                      

 Startparameter for this run:
   NWRITE =      2    write-flag & timer
   PREC   = normal    normal or accurate (medium, high low for compatibility)
   ISTART =      0    job   : 0-new  1-cont  2-samecut
   ICHARG =      2    charge: 1-file 2-atom 10-const
   ISPIN  =      1    spin polarized calculation?
   LNONCOLLINEAR =      F non collinear calculations
   LSORBIT =      F    spin-orbit coupling
   INIWAV =      1    electr: 0-lowe 1-rand  2-diag
   LASPH  =      F    aspherical Exc in radial PAW
   METAGGA=      F    non-selfconsistent MetaGGA calc.

 Electronic Relaxation 1
   ENCUT  =  250.0 eV  18.37 Ry    4.29 a.u.   7.00  7.00 29.38*2*pi/ulx,y,z
   ENINI  =  250.0     initial cutoff
   ENAUG  =  322.1 eV  augmentation charge cutoff
   NELM   =     60;   NELMIN=  4; NELMDL= -5     # of ELM steps 
   EDIFF  = 0.1E-05   stopping-criterion for ELM
   LREAL  =      T    real-space projection
   NLSPLINE    = F    spline interpolate recip. space projectors
   LCOMPAT=      F    compatible to vasp.4.4
   GGA_COMPAT  = T    GGA compatible to vasp.4.4-vasp.4.6
   LMAXPAW     = -100 max onsite density
   LMAXMIX     =    2 max onsite mixed and CHGCAR
   VOSKOWN=      0    Vosko Wilk Nusair interpolation
   ROPT   =   -0.00050
 Ionic relaxation
   EDIFFG = 0.1E-04   stopping-criterion for IOM
   NSW    =      0    number of steps for IOM
   NBLOCK =      1;   KBLOCK =      1    inner block; outer block 
   IBRION =     -1    ionic relax: 0-MD 1-quasi-New 2-CG
   NFREE  =      0    steps in history (QN), initial steepest desc. (CG)
   ISIF   =      2    stress and relaxation
   IWAVPR =     10    prediction:  0-non 1-charg 2-wave 3-comb
   ISYM   =      2    0-nonsym 1-usesym 2-fastsym
   LCORR  =      T    Harris-Foulkes like correction to forces

   POTIM  = 0.5000    time-step for ionic-motion
   TEIN   =    0.0    initial temperature
   TEBEG  =    0.0;   TEEND  =   0.0 temperature during run
   SMASS  =  -3.00    Nose mass-parameter (am)
   estimated Nose-frequenzy (Omega)   =  0.10E-29 period in steps =****** mass=  -0.674E-27a.u.
   SCALEE = 1.0000    scale energy and forces
   NPACO  =    256;   APACO  = 16.0  distance and # of slots for P.C.
   PSTRESS=    0.0 pullay stress

  Mass of Ions in am
   POMASS =  28.09
  Ionic Valenz
   ZVAL   =   4.00
  Atomic Wigner-Seitz radii
   RWIGS  =  -1.00
  virtual crystal weights 
   VCA    =   1.00
   NELECT =      40.0000    total number of electrons
   NUPDOWN=      -1.0000    fix difference up-down

 DOS related values:
   EMIN   = -17.00;   EMAX   =  7.00  energy-range for DOS
   EFERMI =   0.00
   ISMEAR =     0;   SIGMA  =   0.10  broadening in eV -4-tet -1-fermi 0-gaus

 Electronic relaxation 2 (details)
   IALGO  =     68    algorithm
   LDIAG  =      T    sub-space diagonalisation (order eigenvalues)
   LSUBROT=      F    optimize rotation matrix (better conditioning)
   TURBO    =      0    0=normal 1=particle mesh
   IRESTART =      0    0=no restart 2=restart with 2 vectors
   NREBOOT  =      0    no. of reboots
   NMIN     =      0    reboot dimension
   EREF     =   0.00    reference energy to select bands
   IMIX   =      4    mixing-type and parameters
     AMIX     =   0.40;   BMIX     =  1.00
     AMIX_MAG =   1.60;   BMIX_MAG =  1.00
     AMIN     =   0.10
     WC   =   100.;   INIMIX=   1;  MIXPRE=   1;  MAXMIX= -45

 Intra band minimization:
   WEIMIN = 0.0000     energy-eigenvalue tresh-hold
   EBREAK =  0.96E-08  absolut break condition
   DEPER  =   0.30     relativ break condition  

   TIME   =   0.40     timestep for ELM

  volume/ion in A,a.u.               =      67.22       453.65
  Fermi-wavevector in a.u.,A,eV,Ry     =   0.639126  1.207773  5.557738  0.408482
  Thomas-Fermi vector in A             =   1.704697
 
 Write flags
   LWAVE  =      F    write WAVECAR
   LCHARG =      T    write CHGCAR
   LVTOT  =      F    write LOCPOT, total local potential
   LVHAR  =      F    write LOCPOT, Hartree potential only
   LELF   =      T    write electronic localiz. function (ELF)
   LORBIT =     11    0 simple, 1 ext, 2 COOP (PROOUT)


 Dipole corrections
   LMONO  =      F    monopole corrections only (constant potential shift)
   LDIPOL =      F    correct potential (dipole corrections)
   IDIPOL =      0    1-x, 2-y, 3-z, 4-all directions 
   EPSILON=  1.0000000 bulk dielectric constant

 Exchange correlation treatment:
   GGA     =    --    GGA type
   LEXCH   =     8    internal setting for exchange type
   VOSKOWN=      0    Vosko Wilk Nusair interpolation
   LHFCALC =     F    Hartree Fock is set to
   LHFONE  =     F    Hartree Fock one center treatment
   AEXX    =    0.0000 exact exchange contribution

 Linear response parameters
   LEPSILON=     F    determine dielectric tensor
   LRPA    =     F    only Hartree local field effects (RPA)
   LNABLA  =     F    use nabla operator in PAW spheres
   LVEL    =     F    velocity operator in full k-point grid
   LINTERFAST=   F  fast interpolation
   KINTER  =     0    interpolate to denser k-point grid
   CSHIFT  =0.1000    complex shift for real part using Kramers Kronig
   OMEGAMAX=  -1.0    maximum frequency
   DEG_THRESHOLD= 0.2000000E-02 threshold for treating states as degnerate
   RTIME   =    0.100 relaxation time in fs

 Orbital magnetization related:
   ORBITALMAG=     F  switch on orbital magnetization
   LCHIMAG   =     F  perturbation theory with respect to B field
   DQ        =  0.001000  dq finite difference perturbation B field



--------------------------------------------------------------------------------------------------------


 Static calculation
 charge density and potential will be updated during run
 non-spin polarized calculation
 RMM-DIIS sequential band-by-band and
  variant of blocked Davidson during initial phase
 perform sub-space diagonalisation
    before iterative eigenvector-optimisation
 modified Broyden-mixing scheme, WC =      100.0
 initial mixing is a Kerker type mixing with AMIX =  0.4000 and BMIX =      1.0000
 Hartree-type preconditioning will be used
 using additional bands            6
 real space projection scheme for non local part
 use partial core corrections
 calculate Harris-corrections to forces 
   (improved forces if not selfconsistent)
 use gradient corrections 
 use of overlap-Matrix (Vanderbilt PP)
 Gauss-broadening in eV      SIGMA  =   0.10


--------------------------------------------------------------------------------------------------------


  energy-cutoff  :      250.00
  volume of cell :      672.24
      direct lattice vectors                 reciprocal lattice vectors
     5.431010000  0.000000000  0.000000000     0.184127814  0.000000000  0.000000000
     0.000000000  5.431010000  0.000000000     0.000000000  0.184127814  0.000000000
     0.000000000  0.000000000 22.791010000     0.000000000  0.000000000  0.043876950

  length of vectors
     5.431010000  5.431010000 22.791010000     0.184127814  0.184127814  0.043876950


 
 k-points in units of 2pi/SCALE and weight: Automatic                               
   0.00000000  0.00000000  0.00000000       0.040
   0.03682556  0.00000000  0.00000000       0.160
   0.07365113  0.00000000  0.00000000       0.160
   0.03682556  0.03682556  0.00000000       0.160
   0.07365113  0.03682556  0.00000000       0.320
   0.07365113  0.07365113  0.00000000       0.160
 
 k-points in reciprocal lattice and weights: Automatic                               
   0.00000000  0.00000000  0.00000000       0.040
   0.20000000  0.00000000  0.00000000       0.160
   0.40000000  0.00000000  0.00000000       0.160
   0.20000000  0.20000000  0.00000000       0.160
   0.40000000  0.20000000  0.00000000       0.320
   0.40000000  0.40000000  0.00000000       0.160
 
 position of ions in fractional coordinates (direct lattice) 
   0.00000000  0.00000000  0.00000000
   0.49999908  0.49999908  0.00000000
   0.24999954  0.24999954  0.05957393
   0.75000046  0.75000046  0.05957393
   0.00000000  0.49999908  0.11914786
   0.49999908  0.00000000  0.11914786
   0.24999954  0.75000046  0.17872222
   0.75000046  0.24999954  0.17872222
   0.00000000  0.00000000  0.23829615
   0.49999908  0.49999908  0.23829615
 
 position of ions in cartesian coordinates  (Angst):
   0.00000000  0.00000000  0.00000000
   2.71550000  2.71550000  0.00000000
   1.35775000  1.35775000  1.35775000
   4.07326000  4.07326000  1.35775000
   0.00000000  2.71550000  2.71550000
   2.71550000  0.00000000  2.71550000
   1.35775000  4.07326000  4.07326000
   4.07326000  1.35775000  4.07326000
   0.00000000  0.00000000  5.43101000
   2.71550000  2.71550000  5.43101000
 


--------------------------------------------------------------------------------------------------------


 k-point  1 :   0.0000 0.0000 0.0000  plane waves:    5967
 k-point  2 :   0.2000 0.0000 0.0000  plane waves:    6002
 k-point  3 :   0.4000 0.0000 0.0000  plane waves:    6032
 k-point  4 :   0.2000 0.2000 0.0000  plane waves:    6030
 k-point  5 :   0.4000 0.2000 0.0000  plane waves:    6057
 k-point  6 :   0.4000 0.4000 0.0000  plane waves:    6056

 maximum and minimum number of plane-waves per node :      3033     2975

 maximum number of plane-waves:      6057
 maximum index in each direction: 
   IXMAX=    7   IYMAX=    7   IZMAX=   29
   IXMIN=   -7   IYMIN=   -7   IZMIN=  -29

 WARNING: aliasing errors must be expected set NGX to  30 to avoid them
 WARNING: aliasing errors must be expected set NGY to  30 to avoid them
 WARNING: aliasing errors must be expected set NGZ to 118 to avoid them
 aliasing errors are usually negligible using standard VASP settings
 and one can safely disregard these warnings

 real space projection operators:
  total allocation   :        738.62 KBytes
  max/ min on nodes  :        372.38        366.25


 parallel 3D FFT for wavefunctions:
    minimum data exchange during FFTs selected (reduces bandwidth)
 parallel 3D FFT for charge:
    minimum data exchange during FFTs selected (reduces bandwidth)


 total amount of memory used by VASP on root node    44872. kBytes
========================================================================

   base      :      30000. kBytes
   nonlr-proj:        665. kBytes
   fftplans  :       4302. kBytes
   grid      :       6054. kBytes
   one-center:         15. kBytes
   wavefun   :       3836. kBytes
 
     INWAV:  cpu time    0.0000: real time    0.0004
 Broyden mixing: mesh for mixing (old mesh)
   NGX = 15   NGY = 15   NGZ = 59
  (NGX  = 48   NGY  = 48   NGZ  =180)
  gives a total of  13275 points

 initial charge density was supplied:
 charge density of overlapping atoms calculated
 number of electron      40.0000000 magnetization 
 keeping initial charge density in first step


--------------------------------------------------------------------------------------------------------


 Maximum index for non-local projection operator          604
 Maximum index for augmentation-charges          624 (set IRDMAX)


--------------------------------------------------------------------------------------------------------


 First call to EWALD:  gamma=   0.202
 Maximum number of real-space cells 4x 4x 1
 Maximum number of reciprocal cells 2x 2x 6

 FEWALD executed in parallel
    FEWALD:  cpu time    0.0020: real time    0.0016


----------------------------------------- Iteration    1(   1)  ---------------------------------------


    POTLOK:  cpu time    0.0580: real time    0.0577
    SETDIJ:  cpu time    0.0040: real time    0.0050
     EDDAV:  cpu time    0.3439: real time    0.3472
       DOS:  cpu time    0.0010: real time    0.0013
    --------------------------------------------
      LOOP:  cpu time    0.4099: real time    0.4707

 eigenvalue-minimisations  :   320
 total energy-change (2. order) : 0.1400648E+03  (-0.8584829E+03)
 number of electron      40.0000000 magnetization 
 augmentation part       40.0000000 magnetization 

 Free energy of the ion-electron system (eV)
  ---------------------------------------------------
  alpha Z        PSCENC =         5.00759333
  Ewald energy   TEWEN  =      3552.24450947
  -Hartree energ DENC   =     -4418.06011247
  -exchange      EXHF   =         0.00000000
  -V(xc)+E(xc)   XCENC  =       -96.54898079
  PAW double counting   =       329.77604058     -153.84263392
  entropy T*S    EENTRO =        -0.01824382
  eigenvalues    EBANDS =      -109.11089106
  atomic energy  EATOM  =      1030.61749613
  Solvation  Ediel_sol  =         0.00000000
  ---------------------------------------------------
  free energy    TOTEN  =       140.06477745 eV

  energy without entropy =      140.08302127  energy(sigma->0) =      140.07389936


--------------------------------------------------------------------------------------------------------




----------------------------------------- Iteration    1(   2)  ---------------------------------------


     EDDAV:  cpu time    0.4249: real time    0.4284
       DOS:  cpu time    0.0010: real time    0.0011
    --------------------------------------------
      LOOP:  cpu time    0.4279: real time    0.4352

 eigenvalue-minimisations  :   422
 total energy-change (2. order) :-0.1729275E+03  (-0.1701918E+03)
 number of electron      40.0000000 magnetization 
 augmentation part       40.0000000 magnetization 

 Free energy of the ion-electron system (eV)
  ---------------------------------------------------
  alpha Z        PSCENC =         5.00759333
  Ewald energy   TEWEN  =      3552.24450947
  -Hartree energ DENC   =     -4418.06011247
  -exchange      EXHF   =         0.00000000
  -V(xc)+E(xc)   XCENC  =       -96.54898079
  PAW double counting   =       329.77604058     -153.84263392
  entropy T*S    EENTRO =        -0.02500697
  eigenvalues    EBANDS =      -282.03162036
  atomic energy  EATOM  =      1030.61749613
  Solvation  Ediel_sol  =         0.00000000
  ---------------------------------------------------
  free energy    TOTEN  =       -32.86271500 eV

  energy without entropy =      -32.83770803  energy(sigma->0) =      -32.85021151


--------------------------------------------------------------------------------------------------------




----------------------------------------- Iteration    1(   3)  ---------------------------------------


     EDDAV:  cpu time    0.3649: real time    0.3646
       DOS:  cpu time    0.0010: real time    0.0011
    --------------------------------------------
      LOOP:  cpu time    0.3659: real time    0.3707

 eigenvalue-minimisations  :   350
 total energy-change (2. order) :-0.1422884E+02  (-0.1397448E+02)
 number of electron      40.0000000 magnetization 
 augmentation part       40.0000000 magnetization 

 Free energy of the ion-electron system (eV)
  ---------------------------------------------------
  alpha Z        PSCENC =         5.00759333
  Ewald energy   TEWEN  =      3552.24450947
  -Hartree energ DENC   =     -4418.06011247
  -exchange      EXHF   =         0.00000000
  -V(xc)+E(xc)   XCENC  =       -96.54898079
  PAW double counting   =       329.77604058     -153.84263392
  entropy T*S    EENTRO =        -0.04448940
  eigenvalues    EBANDS =      -296.24097348
  atomic energy  EATOM  =      1030.61749613
  Solvation  Ediel_sol  =         0.00000000
  ---------------------------------------------------
  free energy    TOTEN  =       -47.09155055 eV

  energy without entropy =      -47.04706115  energy(sigma->0) =      -47.06930585


--------------------------------------------------------------------------------------------------------




----------------------------------------- Iteration    1(   4)  ---------------------------------------


     EDDAV:  cpu time    0.5129: real time    0.5134
       DOS:  cpu time    0.0020: real time    0.0011
    --------------------------------------------
      LOOP:  cpu time    0.5159: real time    0.5193

 eigenvalue-minimisations  :   528
 total energy-change (2. order) :-0.5370598E+00  (-0.5338524E+00)
 number of electron      40.0000000 magnetization 
 augmentation part       40.0000000 magnetization 

 Free energy of the ion-electron system (eV)
  ---------------------------------------------------
  alpha Z        PSCENC =         5.00759333
  Ewald energy   TEWEN  =      3552.24450947
  -Hartree energ DENC   =     -4418.06011247
  -exchange      EXHF   =         0.00000000
  -V(xc)+E(xc)   XCENC  =       -96.54898079
  PAW double counting   =       329.77604058     -153.84263392
  entropy T*S    EENTRO =        -0.04650973
  eigenvalues    EBANDS =      -296.77601290
  atomic energy  EATOM  =      1030.61749613
  Solvation  Ediel_sol  =         0.00000000
  ---------------------------------------------------
  free energy    TOTEN  =       -47.62861030 eV

  energy without entropy =      -47.58210057  energy(sigma->0) =      -47.60535544


--------------------------------------------------------------------------------------------------------




----------------------------------------- Iteration    1(   5)  ---------------------------------------


     EDDAV:  cpu time    0.4379: real time    0.4386
       DOS:  cpu time    0.0020: real time    0.0011
    CHARGE:  cpu time    0.0330: real time    0.0349
    MIXING:  cpu time    0.0030: real time    0.0017
    --------------------------------------------
      LOOP:  cpu time    0.4769: real time    0.4815

 eigenvalue-minimisations  :   440
 total energy-change (2. order) :-0.8288778E-02  (-0.8272182E-02)
 number of electron      40.0000098 magnetization 
 augmentation part       -2.4660007 magnetization 

 Broyden mixing:
  rms(total) = 0.59283E+00    rms(broyden)= 0.59279E+00
  rms(prec ) = 0.66991E+00
  weight for this iteration     100.00

 Free energy of the ion-electron system (eV)
  ---------------------------------------------------
  alpha Z        PSCENC =         5.00759333
  Ewald energy   TEWEN  =      3552.24450947
  -Hartree energ DENC   =     -4418.06011247
  -exchange      EXHF   =         0.00000000
  -V(xc)+E(xc)   XCENC  =       -96.54898079
  PAW double counting   =       329.77604058     -153.84263392
  entropy T*S    EENTRO =        -0.04653090
  eigenvalues    EBANDS =      -296.78428051
  atomic energy  EATOM  =      1030.61749613
  Solvation  Ediel_sol  =         0.00000000
  ---------------------------------------------------
  free energy    TOTEN  =       -47.63689908 eV

  energy without entropy =      -47.59036818  energy(sigma->0) =      -47.61363363


--------------------------------------------------------------------------------------------------------




----------------------------------------- Iteration    1(   6)  ---------------------------------------


    POTLOK:  cpu time    0.0490: real time    0.0492
    SETDIJ:  cpu time    0.0050: real time    0.0038
    EDDIAG:  cpu time    0.0650: real time    0.0660
  RMM-DIIS:  cpu time    0.2250: real time    0.2252
    ORTHCH:  cpu time    0.0090: real time    0.0085
       DOS:  cpu time    0.0010: real time    0.0011
    CHARGE:  cpu time    0.0340: real time    0.0340
    MIXING:  cpu time    0.0020: real time    0.0020
    --------------------------------------------
      LOOP:  cpu time    0.3899: real time    0.3946

 eigenvalue-minimisations  :   327
 total energy-change (2. order) : 0.1025286E+01  (-0.2299629E+00)
 number of electron      40.0000098 magnetization 
 augmentation part       -2.4353839 magnetization 

 Broyden mixing:
  rms(total) = 0.32433E+00    rms(broyden)= 0.32433E+00
  rms(prec ) = 0.35254E+00
  weight for this iteration     100.00

 eigenvalues of (default mixing * dielectric matrix)
  average eigenvalue GAMMA=   2.0306
  2.0306

 Free energy of the ion-electron system (eV)
  ---------------------------------------------------
  alpha Z        PSCENC =         5.00759333
  Ewald energy   TEWEN  =      3552.24450947
  -Hartree energ DENC   =     -4437.54617504
  -exchange      EXHF   =         0.00000000
  -V(xc)+E(xc)   XCENC  =       -95.65749301
  PAW double counting   =       346.11203859     -170.59655087
  entropy T*S    EENTRO =        -0.04638116
  eigenvalues    EBANDS =      -276.74665084
  atomic energy  EATOM  =      1030.61749613
  Solvation  Ediel_sol  =         0.00000000
  ---------------------------------------------------
  free energy    TOTEN  =       -46.61161341 eV

  energy without entropy =      -46.56523224  energy(sigma->0) =      -46.58842282


--------------------------------------------------------------------------------------------------------




----------------------------------------- Iteration    1(   7)  ---------------------------------------


    POTLOK:  cpu time    0.0480: real time    0.0489
    SETDIJ:  cpu time    0.0050: real time    0.0039
    EDDIAG:  cpu time    0.0650: real time    0.0653
  RMM-DIIS:  cpu time    0.2250: real time    0.2256
    ORTHCH:  cpu time    0.0090: real time    0.0085
       DOS:  cpu time    0.0010: real time    0.0011
    CHARGE:  cpu time    0.0340: real time    0.0340
    MIXING:  cpu time    0.0020: real time    0.0017
    --------------------------------------------
      LOOP:  cpu time    0.3899: real time    0.3968

 eigenvalue-minimisations  :   340
 total energy-change (2. order) : 0.1875192E+00  (-0.1331431E+00)
 number of electron      40.0000098 magnetization 
 augmentation part       -2.4101849 magnetization 

 Broyden mixing:
  rms(total) = 0.88826E-01    rms(broyden)= 0.88824E-01
  rms(prec ) = 0.99555E-01
  weight for this iteration     100.00

 eigenvalues of (default mixing * dielectric matrix)
  average eigenvalue GAMMA=   1.8969
  1.4401  2.3536

 Free energy of the ion-electron system (eV)
  ---------------------------------------------------
  alpha Z        PSCENC =         5.00759333
  Ewald energy   TEWEN  =      3552.24450947
  -Hartree energ DENC   =     -4453.89869738
  -exchange      EXHF   =         0.00000000
  -V(xc)+E(xc)   XCENC  =       -94.55493970
  PAW double counting   =       361.73550272     -186.59953424
  entropy T*S    EENTRO =        -0.04300849
  eigenvalues    EBANDS =      -260.93301609
  atomic energy  EATOM  =      1030.61749613
  Solvation  Ediel_sol  =         0.00000000
  ---------------------------------------------------
  free energy    TOTEN  =       -46.42409425 eV

  energy without entropy =      -46.38108576  energy(sigma->0) =      -46.40259000


--------------------------------------------------------------------------------------------------------




----------------------------------------- Iteration    1(   8)  ---------------------------------------


    POTLOK:  cpu time    0.0480: real time    0.0487
    SETDIJ:  cpu time    0.0050: real time    0.0039
    EDDIAG:  cpu time    0.0650: real time    0.0652
  RMM-DIIS:  cpu time    0.2430: real time    0.2427
    ORTHCH:  cpu time    0.0080: real time    0.0085
       DOS:  cpu time    0.0010: real time    0.0011
    CHARGE:  cpu time    0.0340: real time    0.0340
    MIXING:  cpu time    0.0020: real time    0.0019
    --------------------------------------------
      LOOP:  cpu time    0.4069: real time    0.4107

 eigenvalue-minimisations  :   357
 total energy-change (2. order) : 0.1676272E-01  (-0.1257319E-01)
 number of electron      40.0000097 magnetization 
 augmentation part       -2.4051554 magnetization 

 Broyden mixing:
  rms(total) = 0.22464E-01    rms(broyden)= 0.22464E-01
  rms(prec ) = 0.26851E-01
  weight for this iteration     100.00

 eigenvalues of (default mixing * dielectric matrix)
  average eigenvalue GAMMA=   1.9294
  2.6382  1.5750  1.5750

 Free energy of the ion-electron system (eV)
  ---------------------------------------------------
  alpha Z        PSCENC =         5.00759333
  Ewald energy   TEWEN  =      3552.24450947
  -Hartree energ DENC   =     -4456.13293892
  -exchange      EXHF   =         0.00000000
  -V(xc)+E(xc)   XCENC  =       -94.17827041
  PAW double counting   =       363.90073186     -188.80328276
  entropy T*S    EENTRO =        -0.04372304
  eigenvalues    EBANDS =      -259.01944719
  atomic energy  EATOM  =      1030.61749613
  Solvation  Ediel_sol  =         0.00000000
  ---------------------------------------------------
  free energy    TOTEN  =       -46.40733153 eV

  energy without entropy =      -46.36360849  energy(sigma->0) =      -46.38547001


--------------------------------------------------------------------------------------------------------




----------------------------------------- Iteration    1(   9)  ---------------------------------------


    POTLOK:  cpu time    0.0490: real time    0.0494
    SETDIJ:  cpu time    0.0040: real time    0.0038
    EDDIAG:  cpu time    0.0650: real time    0.0653
  RMM-DIIS:  cpu time    0.2630: real time    0.2634
    ORTHCH:  cpu time    0.0090: real time    0.0085
       DOS:  cpu time    0.0010: real time    0.0011
    CHARGE:  cpu time    0.0340: real time    0.0340
    MIXING:  cpu time    0.0020: real time    0.0019
    --------------------------------------------
      LOOP:  cpu time    0.4279: real time    0.4319

 eigenvalue-minimisations  :   392
 total energy-change (2. order) :-0.2234978E-03  (-0.1553353E-02)
 number of electron      40.0000097 magnetization 
 augmentation part       -2.4052209 magnetization 

 Broyden mixing:
  rms(total) = 0.88823E-02    rms(broyden)= 0.88821E-02
  rms(prec ) = 0.11629E-01
  weight for this iteration     100.00

 eigenvalues of (default mixing * dielectric matrix)
  average eigenvalue GAMMA=   1.7785
  1.1119  1.3461  2.3280  2.3280

 Free energy of the ion-electron system (eV)
  ---------------------------------------------------
  alpha Z        PSCENC =         5.00759333
  Ewald energy   TEWEN  =      3552.24450947
  -Hartree energ DENC   =     -4458.06312854
  -exchange      EXHF   =         0.00000000
  -V(xc)+E(xc)   XCENC  =       -94.09682119
  PAW double counting   =       363.34083431     -188.22598086
  entropy T*S    EENTRO =        -0.04326186
  eigenvalues    EBANDS =      -257.18879581
  atomic energy  EATOM  =      1030.61749613
  Solvation  Ediel_sol  =         0.00000000
  ---------------------------------------------------
  free energy    TOTEN  =       -46.40755503 eV

  energy without entropy =      -46.36429317  energy(sigma->0) =      -46.38592410


--------------------------------------------------------------------------------------------------------




----------------------------------------- Iteration    1(  10)  ---------------------------------------


    POTLOK:  cpu time    0.0490: real time    0.0495
    SETDIJ:  cpu time    0.0050: real time    0.0040
    EDDIAG:  cpu time    0.0650: real time    0.0650
  RMM-DIIS:  cpu time    0.2470: real time    0.2477
    ORTHCH:  cpu time    0.0080: real time    0.0085
       DOS:  cpu time    0.0010: real time    0.0011
    CHARGE:  cpu time    0.0340: real time    0.0339
    MIXING:  cpu time    0.0030: real time    0.0020
    --------------------------------------------
      LOOP:  cpu time    0.4129: real time    0.4164

 eigenvalue-minimisations  :   370
 total energy-change (2. order) :-0.1776853E-03  (-0.1703772E-03)
 number of electron      40.0000097 magnetization 
 augmentation part       -2.4058944 magnetization 

 Broyden mixing:
  rms(total) = 0.44078E-02    rms(broyden)= 0.44077E-02
  rms(prec ) = 0.69653E-02
  weight for this iteration     100.00

 eigenvalues of (default mixing * dielectric matrix)
  average eigenvalue GAMMA=   1.9314
  2.9592  2.4341  0.9855  1.8713  1.4069

 Free energy of the ion-electron system (eV)
  ---------------------------------------------------
  alpha Z        PSCENC =         5.00759333
  Ewald energy   TEWEN  =      3552.24450947
  -Hartree energ DENC   =     -4458.44530942
  -exchange      EXHF   =         0.00000000
  -V(xc)+E(xc)   XCENC  =       -94.10294533
  PAW double counting   =       362.68793132     -187.55726310
  entropy T*S    EENTRO =        -0.04346479
  eigenvalues    EBANDS =      -256.81628032
  atomic energy  EATOM  =      1030.61749613
  Solvation  Ediel_sol  =         0.00000000
  ---------------------------------------------------
  free energy    TOTEN  =       -46.40773272 eV

  energy without entropy =      -46.36426793  energy(sigma->0) =      -46.38600032


--------------------------------------------------------------------------------------------------------




----------------------------------------- Iteration    1(  11)  ---------------------------------------


    POTLOK:  cpu time    0.0490: real time    0.0500
    SETDIJ:  cpu time    0.0050: real time    0.0039
    EDDIAG:  cpu time    0.0650: real time    0.0650
  RMM-DIIS:  cpu time    0.2440: real time    0.2444
    ORTHCH:  cpu time    0.0080: real time    0.0085
       DOS:  cpu time    0.0010: real time    0.0011
    CHARGE:  cpu time    0.0340: real time    0.0340
    MIXING:  cpu time    0.0030: real time    0.0021
    --------------------------------------------
      LOOP:  cpu time    0.4099: real time    0.4139

 eigenvalue-minimisations  :   359
 total energy-change (2. order) :-0.2551070E-03  (-0.1027285E-03)
 number of electron      40.0000097 magnetization 
 augmentation part       -2.4057934 magnetization 

 Broyden mixing:
  rms(total) = 0.24510E-02    rms(broyden)= 0.24509E-02
  rms(prec ) = 0.39955E-02
  weight for this iteration     100.00

 eigenvalues of (default mixing * dielectric matrix)
  average eigenvalue GAMMA=   1.8641
  2.8221  2.4590  1.0008  1.4965  1.7032  1.7032

 Free energy of the ion-electron system (eV)
  ---------------------------------------------------
  alpha Z        PSCENC =         5.00759333
  Ewald energy   TEWEN  =      3552.24450947
  -Hartree energ DENC   =     -4459.64114290
  -exchange      EXHF   =         0.00000000
  -V(xc)+E(xc)   XCENC  =       -94.08001025
  PAW double counting   =       362.49831461     -187.36490378
  entropy T*S    EENTRO =        -0.04368102
  eigenvalues    EBANDS =      -255.64616340
  atomic energy  EATOM  =      1030.61749613
  Solvation  Ediel_sol  =         0.00000000
  ---------------------------------------------------
  free energy    TOTEN  =       -46.40798782 eV

  energy without entropy =      -46.36430680  energy(sigma->0) =      -46.38614731


--------------------------------------------------------------------------------------------------------




----------------------------------------- Iteration    1(  12)  ---------------------------------------


    POTLOK:  cpu time    0.0500: real time    0.0506
    SETDIJ:  cpu time    0.0040: real time    0.0041
    EDDIAG:  cpu time    0.0660: real time    0.0658
  RMM-DIIS:  cpu time    0.2600: real time    0.2598
    ORTHCH:  cpu time    0.0090: real time    0.0088
       DOS:  cpu time    0.0010: real time    0.0012
    CHARGE:  cpu time    0.0340: real time    0.0342
    MIXING:  cpu time    0.0020: real time    0.0021
    --------------------------------------------
      LOOP:  cpu time    0.4269: real time    0.4300

 eigenvalue-minimisations  :   379
 total energy-change (2. order) :-0.2786630E-03  (-0.5439829E-04)
 number of electron      40.0000097 magnetization 
 augmentation part       -2.4055858 magnetization 

 Broyden mixing:
  rms(total) = 0.18822E-02    rms(broyden)= 0.18822E-02
  rms(prec ) = 0.29243E-02
  weight for this iteration     100.00

 eigenvalues of (default mixing * dielectric matrix)
  average eigenvalue GAMMA=   2.1022
  4.5418  2.6547  2.2325  2.0607  1.2585  1.0445  0.9229

 Free energy of the ion-electron system (eV)
  ---------------------------------------------------
  alpha Z        PSCENC =         5.00759333
  Ewald energy   TEWEN  =      3552.24450947
  -Hartree energ DENC   =     -4460.08888220
  -exchange      EXHF   =         0.00000000
  -V(xc)+E(xc)   XCENC  =       -94.07717325
  PAW double counting   =       362.50760445     -187.37458451
  entropy T*S    EENTRO =        -0.04359599
  eigenvalues    EBANDS =      -255.20123392
  atomic energy  EATOM  =      1030.61749613
  Solvation  Ediel_sol  =         0.00000000
  ---------------------------------------------------
  free energy    TOTEN  =       -46.40826649 eV

  energy without entropy =      -46.36467050  energy(sigma->0) =      -46.38646849


--------------------------------------------------------------------------------------------------------




----------------------------------------- Iteration    1(  13)  ---------------------------------------


    POTLOK:  cpu time    0.0510: real time    0.0514
    SETDIJ:  cpu time    0.0050: real time    0.0042
    EDDIAG:  cpu time    0.0650: real time    0.0654
  RMM-DIIS:  cpu time    0.2420: real time    0.2420
    ORTHCH:  cpu time    0.0080: real time    0.0085
       DOS:  cpu time    0.0010: real time    0.0011
    CHARGE:  cpu time    0.0340: real time    0.0338
    MIXING:  cpu time    0.0020: real time    0.0022
    --------------------------------------------
      LOOP:  cpu time    0.4089: real time    0.4122

 eigenvalue-minimisations  :   356
 total energy-change (2. order) :-0.4311064E-03  (-0.2450665E-04)
 number of electron      40.0000097 magnetization 
 augmentation part       -2.4053135 magnetization 

 Broyden mixing:
  rms(total) = 0.96576E-03    rms(broyden)= 0.96572E-03
  rms(prec ) = 0.12000E-02
  weight for this iteration     100.00

 eigenvalues of (default mixing * dielectric matrix)
  average eigenvalue GAMMA=   2.0619
  4.3214  2.6082  2.3784  1.9642  1.9642  0.9589  1.1501  1.1501

 Free energy of the ion-electron system (eV)
  ---------------------------------------------------
  alpha Z        PSCENC =         5.00759333
  Ewald energy   TEWEN  =      3552.24450947
  -Hartree energ DENC   =     -4460.75752088
  -exchange      EXHF   =         0.00000000
  -V(xc)+E(xc)   XCENC  =       -94.06831305
  PAW double counting   =       362.51471508     -187.38236823
  entropy T*S    EENTRO =        -0.04367261
  eigenvalues    EBANDS =      -254.54113683
  atomic energy  EATOM  =      1030.61749613
  Solvation  Ediel_sol  =         0.00000000
  ---------------------------------------------------
  free energy    TOTEN  =       -46.40869759 eV

  energy without entropy =      -46.36502498  energy(sigma->0) =      -46.38686129


--------------------------------------------------------------------------------------------------------




----------------------------------------- Iteration    1(  14)  ---------------------------------------


    POTLOK:  cpu time    0.0510: real time    0.0509
    SETDIJ:  cpu time    0.0040: real time    0.0039
    EDDIAG:  cpu time    0.0650: real time    0.0649
  RMM-DIIS:  cpu time    0.2480: real time    0.2477
    ORTHCH:  cpu time    0.0080: real time    0.0085
       DOS:  cpu time    0.0010: real time    0.0011
    CHARGE:  cpu time    0.0340: real time    0.0338
    MIXING:  cpu time    0.0030: real time    0.0023
    --------------------------------------------
      LOOP:  cpu time    0.4149: real time    0.4171

 eigenvalue-minimisations  :   370
 total energy-change (2. order) :-0.1295178E-03  (-0.8493931E-05)
 number of electron      40.0000097 magnetization 
 augmentation part       -2.4052905 magnetization 

 Broyden mixing:
  rms(total) = 0.75432E-03    rms(broyden)= 0.75431E-03
  rms(prec ) = 0.93029E-03
  weight for this iteration     100.00

 eigenvalues of (default mixing * dielectric matrix)
  average eigenvalue GAMMA=   2.1748
  5.9100  2.8193  2.4795  2.4795  1.6180  1.1692  1.1692  0.9643  0.9643

 Free energy of the ion-electron system (eV)
  ---------------------------------------------------
  alpha Z        PSCENC =         5.00759333
  Ewald energy   TEWEN  =      3552.24450947
  -Hartree energ DENC   =     -4460.88488504
  -exchange      EXHF   =         0.00000000
  -V(xc)+E(xc)   XCENC  =       -94.06824164
  PAW double counting   =       362.51316322     -187.38074301
  entropy T*S    EENTRO =        -0.04370202
  eigenvalues    EBANDS =      -254.41401754
  atomic energy  EATOM  =      1030.61749613
  Solvation  Ediel_sol  =         0.00000000
  ---------------------------------------------------
  free energy    TOTEN  =       -46.40882711 eV

  energy without entropy =      -46.36512509  energy(sigma->0) =      -46.38697610


--------------------------------------------------------------------------------------------------------




----------------------------------------- Iteration    1(  15)  ---------------------------------------


    POTLOK:  cpu time    0.0520: real time    0.0519
    SETDIJ:  cpu time    0.0040: real time    0.0039
    EDDIAG:  cpu time    0.0650: real time    0.0650
  RMM-DIIS:  cpu time    0.2270: real time    0.2270
    ORTHCH:  cpu time    0.0080: real time    0.0084
       DOS:  cpu time    0.0010: real time    0.0011
    CHARGE:  cpu time    0.0330: real time    0.0338
    MIXING:  cpu time    0.0030: real time    0.0024
    --------------------------------------------
      LOOP:  cpu time    0.3939: real time    0.3994

 eigenvalue-minimisations  :   344
 total energy-change (2. order) :-0.1375351E-03  (-0.2194202E-05)
 number of electron      40.0000097 magnetization 
 augmentation part       -2.4053362 magnetization 

 Broyden mixing:
  rms(total) = 0.28431E-03    rms(broyden)= 0.28431E-03
  rms(prec ) = 0.35142E-03
  weight for this iteration     100.00

 eigenvalues of (default mixing * dielectric matrix)
  average eigenvalue GAMMA=   2.1996
  6.2064  3.4804  2.6087  1.9676  1.9676  1.4507  1.1969  1.1969  0.9604  0.9604

 Free energy of the ion-electron system (eV)
  ---------------------------------------------------
  alpha Z        PSCENC =         5.00759333
  Ewald energy   TEWEN  =      3552.24450947
  -Hartree energ DENC   =     -4460.92240752
  -exchange      EXHF   =         0.00000000
  -V(xc)+E(xc)   XCENC  =       -94.06941682
  PAW double counting   =       362.49064968     -187.35713605
  entropy T*S    EENTRO =        -0.04368916
  eigenvalues    EBANDS =      -254.37656370
  atomic energy  EATOM  =      1030.61749613
  Solvation  Ediel_sol  =         0.00000000
  ---------------------------------------------------
  free energy    TOTEN  =       -46.40896464 eV

  energy without entropy =      -46.36527549  energy(sigma->0) =      -46.38712007


--------------------------------------------------------------------------------------------------------




----------------------------------------- Iteration    1(  16)  ---------------------------------------


    POTLOK:  cpu time    0.0520: real time    0.0528
    SETDIJ:  cpu time    0.0040: real time    0.0038
    EDDIAG:  cpu time    0.0650: real time    0.0649
  RMM-DIIS:  cpu time    0.2260: real time    0.2262
    ORTHCH:  cpu time    0.0090: real time    0.0085
       DOS:  cpu time    0.0010: real time    0.0011
    CHARGE:  cpu time    0.0340: real time    0.0338
    MIXING:  cpu time    0.0020: real time    0.0026
    --------------------------------------------
      LOOP:  cpu time    0.3939: real time    0.3975

 eigenvalue-minimisations  :   340
 total energy-change (2. order) :-0.4179034E-04  (-0.1097627E-05)
 number of electron      40.0000097 magnetization 
 augmentation part       -2.4053235 magnetization 

 Broyden mixing:
  rms(total) = 0.23764E-03    rms(broyden)= 0.23763E-03
  rms(prec ) = 0.30445E-03
  weight for this iteration     100.00

 eigenvalues of (default mixing * dielectric matrix)
  average eigenvalue GAMMA=   2.2272
  6.6642  3.6160  2.6160  2.4135  2.4135  1.4284  1.4284  1.0270  1.0270  0.9323
  0.9323

 Free energy of the ion-electron system (eV)
  ---------------------------------------------------
  alpha Z        PSCENC =         5.00759333
  Ewald energy   TEWEN  =      3552.24450947
  -Hartree energ DENC   =     -4460.94277490
  -exchange      EXHF   =         0.00000000
  -V(xc)+E(xc)   XCENC  =       -94.06887816
  PAW double counting   =       362.51586422     -187.38304939
  entropy T*S    EENTRO =        -0.04369539
  eigenvalues    EBANDS =      -254.35607174
  atomic energy  EATOM  =      1030.61749613
  Solvation  Ediel_sol  =         0.00000000
  ---------------------------------------------------
  free energy    TOTEN  =       -46.40900644 eV

  energy without entropy =      -46.36531105  energy(sigma->0) =      -46.38715874


--------------------------------------------------------------------------------------------------------




----------------------------------------- Iteration    1(  17)  ---------------------------------------


    POTLOK:  cpu time    0.0530: real time    0.0537
    SETDIJ:  cpu time    0.0050: real time    0.0038
    EDDIAG:  cpu time    0.0650: real time    0.0649
  RMM-DIIS:  cpu time    0.1820: real time    0.1835
    ORTHCH:  cpu time    0.0090: real time    0.0085
       DOS:  cpu time    0.0010: real time    0.0011
    CHARGE:  cpu time    0.0340: real time    0.0338
    MIXING:  cpu time    0.0030: real time    0.0027
    --------------------------------------------
      LOOP:  cpu time    0.3529: real time    0.3561

 eigenvalue-minimisations  :   264
 total energy-change (2. order) :-0.1944892E-04  (-0.3429055E-06)
 number of electron      40.0000097 magnetization 
 augmentation part       -2.4053374 magnetization 

 Broyden mixing:
  rms(total) = 0.79111E-04    rms(broyden)= 0.79108E-04
  rms(prec ) = 0.11121E-03
  weight for this iteration     100.00

 eigenvalues of (default mixing * dielectric matrix)
  average eigenvalue GAMMA=   2.1701
  6.7329  3.8691  2.7713  2.2793  1.9087  1.9087  1.3136  1.2141  1.2141  0.9359
  0.9464  0.9464

 Free energy of the ion-electron system (eV)
  ---------------------------------------------------
  alpha Z        PSCENC =         5.00759333
  Ewald energy   TEWEN  =      3552.24450947
  -Hartree energ DENC   =     -4460.96131741
  -exchange      EXHF   =         0.00000000
  -V(xc)+E(xc)   XCENC  =       -94.06922808
  PAW double counting   =       362.50901193     -187.37610440
  entropy T*S    EENTRO =        -0.04369250
  eigenvalues    EBANDS =      -254.33729435
  atomic energy  EATOM  =      1030.61749613
  Solvation  Ediel_sol  =         0.00000000
  ---------------------------------------------------
  free energy    TOTEN  =       -46.40902588 eV

  energy without entropy =      -46.36533338  energy(sigma->0) =      -46.38717963


--------------------------------------------------------------------------------------------------------




----------------------------------------- Iteration    1(  18)  ---------------------------------------


    POTLOK:  cpu time    0.0540: real time    0.0541
    SETDIJ:  cpu time    0.0040: real time    0.0039
    EDDIAG:  cpu time    0.0650: real time    0.0649
  RMM-DIIS:  cpu time    0.1530: real time    0.1532
    ORTHCH:  cpu time    0.0080: real time    0.0085
       DOS:  cpu time    0.0020: real time    0.0011
    CHARGE:  cpu time    0.0330: real time    0.0338
    MIXING:  cpu time    0.0030: real time    0.0028
    --------------------------------------------
      LOOP:  cpu time    0.3230: real time    0.3276

 eigenvalue-minimisations  :   213
 total energy-change (2. order) :-0.3754165E-05  (-0.4409721E-07)
 number of electron      40.0000097 magnetization 
 augmentation part       -2.4053419 magnetization 

 Broyden mixing:
  rms(total) = 0.43511E-04    rms(broyden)= 0.43510E-04
  rms(prec ) = 0.64421E-04
  weight for this iteration     100.00

 eigenvalues of (default mixing * dielectric matrix)
  average eigenvalue GAMMA=   2.1896
  6.8515  4.0728  2.7388  2.6220  2.1230  2.1230  1.6097  1.1971  1.1971  1.0605
  0.9048  0.9826  0.9826

 Free energy of the ion-electron system (eV)
  ---------------------------------------------------
  alpha Z        PSCENC =         5.00759333
  Ewald energy   TEWEN  =      3552.24450947
  -Hartree energ DENC   =     -4460.95902324
  -exchange      EXHF   =         0.00000000
  -V(xc)+E(xc)   XCENC  =       -94.06931505
  PAW double counting   =       362.50474192     -187.37168452
  entropy T*S    EENTRO =        -0.04369210
  eigenvalues    EBANDS =      -254.33965558
  atomic energy  EATOM  =      1030.61749613
  Solvation  Ediel_sol  =         0.00000000
  ---------------------------------------------------
  free energy    TOTEN  =       -46.40902964 eV

  energy without entropy =      -46.36533754  energy(sigma->0) =      -46.38718359


--------------------------------------------------------------------------------------------------------




----------------------------------------- Iteration    1(  19)  ---------------------------------------


    POTLOK:  cpu time    0.0520: real time    0.0537
    SETDIJ:  cpu time    0.0040: real time    0.0039
    EDDIAG:  cpu time    0.0650: real time    0.0649
  RMM-DIIS:  cpu time    0.1310: real time    0.1313
    ORTHCH:  cpu time    0.0090: real time    0.0085
       DOS:  cpu time    0.0010: real time    0.0011
    CHARGE:  cpu time    0.0340: real time    0.0338
    MIXING:  cpu time    0.0020: real time    0.0029
    --------------------------------------------
      LOOP:  cpu time    0.3010: real time    0.3043

 eigenvalue-minimisations  :   159
 total energy-change (2. order) :-0.3015274E-05  (-0.2533223E-07)
 number of electron      40.0000097 magnetization 
 augmentation part       -2.4053412 magnetization 

 Broyden mixing:
  rms(total) = 0.32745E-04    rms(broyden)= 0.32745E-04
  rms(prec ) = 0.43907E-04
  weight for this iteration     100.00

 eigenvalues of (default mixing * dielectric matrix)
  average eigenvalue GAMMA=   2.2209
  6.7949  4.6486  3.3156  2.6478  2.1033  1.8349  1.8349  1.4280  1.4280  1.1410
  1.0158  0.9182  0.9908  0.9908

 Free energy of the ion-electron system (eV)
  ---------------------------------------------------
  alpha Z        PSCENC =         5.00759333
  Ewald energy   TEWEN  =      3552.24450947
  -Hartree energ DENC   =     -4460.96668776
  -exchange      EXHF   =         0.00000000
  -V(xc)+E(xc)   XCENC  =       -94.06926717
  PAW double counting   =       362.50580944     -187.37280997
  entropy T*S    EENTRO =        -0.04369298
  eigenvalues    EBANDS =      -254.33198314
  atomic energy  EATOM  =      1030.61749613
  Solvation  Ediel_sol  =         0.00000000
  ---------------------------------------------------
  free energy    TOTEN  =       -46.40903265 eV

  energy without entropy =      -46.36533967  energy(sigma->0) =      -46.38718616


--------------------------------------------------------------------------------------------------------




----------------------------------------- Iteration    1(  20)  ---------------------------------------


    POTLOK:  cpu time    0.0520: real time    0.0531
    SETDIJ:  cpu time    0.0050: real time    0.0039
    EDDIAG:  cpu time    0.0650: real time    0.0649
  RMM-DIIS:  cpu time    0.1040: real time    0.1049
    ORTHCH:  cpu time    0.0090: real time    0.0086
       DOS:  cpu time    0.0010: real time    0.0011
    CHARGE:  cpu time    0.0340: real time    0.0338
    MIXING:  cpu time    0.0030: real time    0.0030
    --------------------------------------------
      LOOP:  cpu time    0.2740: real time    0.2791

 eigenvalue-minimisations  :    78
 total energy-change (2. order) :-0.1258970E-05  (-0.5005540E-08)
 number of electron      40.0000097 magnetization 
 augmentation part       -2.4053412 magnetization 

 Broyden mixing:
  rms(total) = 0.17872E-04    rms(broyden)= 0.17872E-04
  rms(prec ) = 0.24862E-04
  weight for this iteration     100.00

 eigenvalues of (default mixing * dielectric matrix)
  average eigenvalue GAMMA=   2.2261
  6.7519  5.0247  3.1008  2.7573  2.7573  2.0498  2.0498  1.3851  1.3851  1.1550
  1.1550  0.9796  0.9796  0.9769  0.8834

 Free energy of the ion-electron system (eV)
  ---------------------------------------------------
  alpha Z        PSCENC =         5.00759333
  Ewald energy   TEWEN  =      3552.24450947
  -Hartree energ DENC   =     -4460.97306446
  -exchange      EXHF   =         0.00000000
  -V(xc)+E(xc)   XCENC  =       -94.06920297
  PAW double counting   =       362.50598189     -187.37299749
  entropy T*S    EENTRO =        -0.04369333
  eigenvalues    EBANDS =      -254.32565648
  atomic energy  EATOM  =      1030.61749613
  Solvation  Ediel_sol  =         0.00000000
  ---------------------------------------------------
  free energy    TOTEN  =       -46.40903391 eV

  energy without entropy =      -46.36534059  energy(sigma->0) =      -46.38718725


--------------------------------------------------------------------------------------------------------




----------------------------------------- Iteration    1(  21)  ---------------------------------------


    POTLOK:  cpu time    0.0540: real time    0.0538
    SETDIJ:  cpu time    0.0040: real time    0.0038
    EDDIAG:  cpu time    0.0640: real time    0.0648
  RMM-DIIS:  cpu time    0.1050: real time    0.1042
    ORTHCH:  cpu time    0.0080: real time    0.0085
       DOS:  cpu time    0.0010: real time    0.0011
    CHARGE:  cpu time    0.0340: real time    0.0340
    MIXING:  cpu time    0.0030: real time    0.0031
    --------------------------------------------
      LOOP:  cpu time    0.2740: real time    0.2857

 eigenvalue-minimisations  :    75
 total energy-change (2. order) :-0.1787884E-05  (-0.2565477E-08)
 number of electron      40.0000097 magnetization 
 augmentation part       -2.4053407 magnetization 

 Broyden mixing:
  rms(total) = 0.14379E-04    rms(broyden)= 0.14379E-04
  rms(prec ) = 0.16798E-04
  weight for this iteration     100.00

 eigenvalues of (default mixing * dielectric matrix)
  average eigenvalue GAMMA=   2.3422
  6.5230  6.5230  3.9615  2.8635  2.4065  2.2726  2.2726  1.6236  1.6236  1.2463
  1.2463  0.9983  0.9983  0.9094  1.0037  1.0037

 Free energy of the ion-electron system (eV)
  ---------------------------------------------------
  alpha Z        PSCENC =         5.00759333
  Ewald energy   TEWEN  =      3552.24450947
  -Hartree energ DENC   =     -4460.97699798
  -exchange      EXHF   =         0.00000000
  -V(xc)+E(xc)   XCENC  =       -94.06914903
  PAW double counting   =       362.50643984     -187.37344285
  entropy T*S    EENTRO =        -0.04369311
  eigenvalues    EBANDS =      -254.32179150
  atomic energy  EATOM  =      1030.61749613
  Solvation  Ediel_sol  =         0.00000000
  ---------------------------------------------------
  free energy    TOTEN  =       -46.40903570 eV

  energy without entropy =      -46.36534259  energy(sigma->0) =      -46.38718915


--------------------------------------------------------------------------------------------------------




----------------------------------------- Iteration    1(  22)  ---------------------------------------


    POTLOK:  cpu time    0.0540: real time    0.0538
    SETDIJ:  cpu time    0.0040: real time    0.0038
    EDDIAG:  cpu time    0.0650: real time    0.0649
  RMM-DIIS:  cpu time    0.0890: real time    0.0887
    ORTHCH:  cpu time    0.0080: real time    0.0085
       DOS:  cpu time    0.0010: real time    0.0011
    --------------------------------------------
      LOOP:  cpu time    0.2220: real time    0.2319

 eigenvalue-minimisations  :    45
 total energy-change (2. order) :-0.6530595E-06  (-0.6432440E-09)
 number of electron      40.0000097 magnetization 
 augmentation part       -2.4053407 magnetization 

 Free energy of the ion-electron system (eV)
  ---------------------------------------------------
  alpha Z        PSCENC =         5.00759333
  Ewald energy   TEWEN  =      3552.24450947
  -Hartree energ DENC   =     -4460.97906232
  -exchange      EXHF   =         0.00000000
  -V(xc)+E(xc)   XCENC  =       -94.06915900
  PAW double counting   =       362.50621801     -187.37322312
  entropy T*S    EENTRO =        -0.04369316
  eigenvalues    EBANDS =      -254.31971568
  atomic energy  EATOM  =      1030.61749613
  Solvation  Ediel_sol  =         0.00000000
  ---------------------------------------------------
  free energy    TOTEN  =       -46.40903635 eV

  energy without entropy =      -46.36534319  energy(sigma->0) =      -46.38718977


--------------------------------------------------------------------------------------------------------




 average (electrostatic) potential at core
  the test charge radii are     0.9892
  (the norm of the test charge is              1.0000)
       1 -91.1784       2 -91.1783       3 -90.8642       4 -90.8640       5 -91.1511
       6 -91.1511       7 -90.8638       8 -90.8638       9 -91.1782      10 -91.1781
 
 
 
 E-fermi :  -1.9999     XC(G=0):  -3.6526     alpha+bet : -3.5678


 k-point     1 :       0.0000    0.0000    0.0000
  band No.  band energies     occupation 
      1     -13.1878      2.00000
      2     -11.5632      2.00000
      3      -9.5871      2.00000
      4      -9.4447      2.00000
      5      -9.4445      2.00000
      6      -9.2116      2.00000
      7      -8.6339      2.00000
      8      -8.4605      2.00000
      9      -6.2659      2.00000
     10      -5.1129      2.00000
     11      -5.0151      2.00000
     12      -5.0150      2.00000
     13      -4.1308      2.00000
     14      -4.1308      2.00000
     15      -3.1354      2.00000
     16      -3.1329      2.00000
     17      -2.7747      2.00000
     18      -2.7746      2.00000
     19      -2.5100      2.00000
     20      -2.5098      2.00000
     21      -2.1224      1.91684
     22      -1.5669      0.00000
     23      -0.5448      0.00000
     24      -0.4412      0.00000
     25       0.1878      0.00000
     26       0.2754      0.00000

 k-point     2 :       0.2000    0.0000    0.0000
  band No.  band energies     occupation 
      1     -13.0207      2.00000
      2     -11.4238      2.00000
      3     -10.6678      2.00000
      4      -9.7918      2.00000
      5      -9.1498      2.00000
      6      -9.0529      2.00000
      7      -8.1804      2.00000
      8      -7.8051      2.00000
      9      -6.4362      2.00000
     10      -5.4033      2.00000
     11      -5.1925      2.00000
     12      -4.6499      2.00000
     13      -4.4564      2.00000
     14      -4.4215      2.00000
     15      -3.8405      2.00000
     16      -3.2653      2.00000
     17      -2.9658      2.00000
     18      -2.4294      2.00000
     19      -2.3381      2.00000
     20      -2.3179      1.99999
     21      -2.1060      1.86657
     22      -1.6979      0.00002
     23      -0.3379      0.00000
     24       0.0257      0.00000
     25       0.2998      0.00000
     26       0.4141      0.00000

 k-point     3 :       0.4000    0.0000    0.0000
  band No.  band energies     occupation 
      1     -12.5258      2.00000
      2     -11.7249      2.00000
      3     -11.0239      2.00000
      4     -10.4301      2.00000
      5      -9.0236      2.00000
      6      -8.9723      2.00000
      7      -7.6218      2.00000
      8      -6.9628      2.00000
      9      -6.4906      2.00000
     10      -5.4033      2.00000
     11      -5.3784      2.00000
     12      -5.2856      2.00000
     13      -5.0002      2.00000
     14      -4.8648      2.00000
     15      -3.9778      2.00000
     16      -3.7714      2.00000
     17      -2.5914      2.00000
     18      -2.3505      2.00000
     19      -2.2828      1.99994
     20      -2.0911      1.80299
     21      -2.0099      1.11200
     22      -1.3335      0.00000
     23      -1.1375      0.00000
     24      -0.2084      0.00000
     25       1.0001      0.00000
     26       1.4854      0.00000

 k-point     4 :       0.2000    0.2000    0.0000
  band No.  band energies     occupation 
      1     -12.8578      2.00000
      2     -11.3027      2.00000
      3     -10.7835      2.00000
      4     -10.4258      2.00000
      5      -9.1262      2.00000
      6      -8.7988      2.00000
      7      -8.2484      2.00000
      8      -7.3686      2.00000
      9      -6.7590      2.00000
     10      -5.3115      2.00000
     11      -5.2945      2.00000
     12      -4.9492      2.00000
     13      -4.5060      2.00000
     14      -4.4768      2.00000
     15      -3.8894      2.00000
     16      -2.7135      2.00000
     17      -2.6867      2.00000
     18      -2.5926      2.00000
     19      -2.4613      2.00000
     20      -2.4191      2.00000
     21      -2.0496      1.51744
     22      -1.5078      0.00000
     23      -0.6995      0.00000
     24       0.0339      0.00000
     25       0.3092      0.00000
     26       0.7901      0.00000

 k-point     5 :       0.4000    0.2000    0.0000
  band No.  band energies     occupation 
      1     -12.3783      2.00000
      2     -11.6190      2.00000
      3     -10.9847      2.00000
      4     -10.6516      2.00000
      5      -9.1163      2.00000
      6      -9.0795      2.00000
      7      -7.7530      2.00000
      8      -7.3034      2.00000
      9      -6.7986      2.00000
     10      -6.1392      2.00000
     11      -4.8854      2.00000
     12      -4.7692      2.00000
     13      -4.7562      2.00000
     14      -4.1193      2.00000
     15      -4.0030      2.00000
     16      -3.2136      2.00000
     17      -2.9057      2.00000
     18      -2.8841      2.00000
     19      -2.1828      1.99032
     20      -1.9599      0.57117
     21      -1.8594      0.04692
     22      -1.2842      0.00000
     23      -0.7506      0.00000
     24       0.0412      0.00000
     25       0.9270      0.00000
     26       1.1384      0.00000

 k-point     6 :       0.4000    0.4000    0.0000
  band No.  band energies     occupation 
      1     -11.9601      2.00000
      2     -11.4715      2.00000
      3     -11.1162      2.00000
      4     -10.9989      2.00000
      5      -9.2452      2.00000
      6      -9.1581      2.00000
      7      -7.9993      2.00000
      8      -7.7417      2.00000
      9      -6.8895      2.00000
     10      -6.7644      2.00000
     11      -4.7303      2.00000
     12      -4.6847      2.00000
     13      -3.6432      2.00000
     14      -3.6164      2.00000
     15      -3.3387      2.00000
     16      -3.2927      2.00000
     17      -2.9650      2.00000
     18      -2.7034      2.00000
     19      -2.1541      1.97080
     20      -1.8492      0.03306
     21      -1.7668      0.00098
     22      -1.7338      0.00017
     23       0.0688      0.00000
     24       0.4812      0.00000
     25       0.5475      0.00000
     26       0.8449      0.00000


--------------------------------------------------------------------------------------------------------


 soft charge-density along one line, spin component           1
         0         1         2         3         4         5         6         7         8         9
 total charge-density along one line
 
 pseudopotential strength for first ion, spin component:           1
 19.321   0.005   0.000   0.003   0.000  -0.000   0.000  -0.000
  0.005   0.006  -0.000   0.000  -0.000   0.000  -0.000   0.000
  0.000  -0.000   4.307   0.000  -0.002   0.000  -0.000   0.000
  0.003   0.000   0.000   4.306   0.000  -0.000   0.000  -0.000
  0.000  -0.000  -0.002   0.000   4.307   0.000  -0.000   0.000
 -0.000   0.000   0.000  -0.000   0.000   0.004   0.000   0.000
  0.000  -0.000  -0.000   0.000  -0.000   0.000   0.004   0.000
 -0.000   0.000   0.000  -0.000   0.000   0.000   0.000   0.004
 total augmentation occupancy for first ion, spin component:           1
  1.778  -0.370   0.000  -0.175   0.000   0.000  -0.094   0.000
 -0.370   0.543   0.000  -0.454   0.000   0.000   0.286   0.000
  0.000   0.000   0.773   0.000   0.236  -0.385   0.000  -0.192
 -0.175  -0.454   0.000   0.887   0.000   0.000  -0.368   0.000
  0.000   0.000   0.236   0.000   0.773  -0.192   0.000  -0.385
  0.000   0.000  -0.385   0.000  -0.192   0.231   0.000   0.151
 -0.094   0.286   0.000  -0.368   0.000  -0.000   0.199   0.000
  0.000   0.000  -0.192   0.000  -0.385   0.151   0.000   0.231


------------------------ aborting loop because EDIFF is reached ----------------------------------------


 


 total charge     
 
# of ion     s       p       d       tot
----------------------------------------
  1        0.866   0.742   0.000   1.607
  2        0.866   0.742   0.000   1.607
  3        0.771   0.920   0.000   1.691
  4        0.771   0.920   0.000   1.690
  5        0.779   0.898   0.000   1.677
  6        0.779   0.898   0.000   1.677
  7        0.765   0.940   0.000   1.706
  8        0.765   0.940   0.000   1.706
  9        0.861   0.722   0.000   1.582
 10        0.861   0.722   0.000   1.582
------------------------------------------------
tot        8.083   8.443   0.000  16.526
 
    CHARGE:  cpu time    0.0330: real time    0.0336
    FORLOC:  cpu time    0.0060: real time    0.0060
    FORNL :  cpu time    0.1010: real time    0.1003
    STRESS:  cpu time    0.3060: real time    0.3065
    FORCOR:  cpu time    0.0590: real time    0.0587
    FORHAR:  cpu time    0.0130: real time    0.0132
    MIXING:  cpu time    0.0040: real time    0.0033
    OFIELD:  cpu time    0.0000: real time    0.0000

  FORCE on cell =-STRESS in cart. coord.  units (eV):
  Direction    XX          YY          ZZ          XY          YZ          ZX
  --------------------------------------------------------------------------------------
  Alpha Z     5.00759     5.00759     5.00759
  Ewald    4266.33459  4266.33459 -4980.42564    -0.00082    -0.00080    -0.00080
  Hartree  4402.40792  4402.40792 -4343.83563     0.00002     0.00002     0.00002
  E(xc)    -122.84548  -122.84548  -122.99085     0.00001     0.00001     0.00001
  Local   -9155.27877 -9155.27877  8840.60117     0.00041     0.00041     0.00041
  n-local   394.73708   394.51016   389.52901    -3.82455    -0.00026    -0.00028
  augment   -61.25664   -61.25664   -60.95421     0.00000    -0.00000    -0.00000
  Kinetic   262.56892   274.63704   272.53905    -4.20357     0.00002     0.00000
  Fock        0.00000     0.00000     0.00000     0.00000     0.00000     0.00000
  -------------------------------------------------------------------------------------
  Total      -2.40418    -2.40418    -0.52949    -0.00000     0.00000     0.00000
  in kB      -5.72998    -5.72998    -1.26196    -0.00000     0.00000     0.00000
  external pressure =       -4.24 kB  Pullay stress =        0.00 kB


 VOLUME and BASIS-vectors are now :
 -----------------------------------------------------------------------------
  energy-cutoff  :      250.00
  volume of cell :      672.24
      direct lattice vectors                 reciprocal lattice vectors
     5.431010000  0.000000000  0.000000000     0.184127814  0.000000000  0.000000000
     0.000000000  5.431010000  0.000000000     0.000000000  0.184127814  0.000000000
     0.000000000  0.000000000 22.791010000     0.000000000  0.000000000  0.043876950

  length of vectors
     5.431010000  5.431010000 22.791010000     0.184127814  0.184127814  0.043876950


 FORCES acting on ions
    electron-ion (+dipol)            ewald-force                    non-local-force                 convergence-correction
 -----------------------------------------------------------------------------------------------
   -.562E-05 -.562E-05 0.258E+03   -.909E-04 -.909E-04 -.260E+03   0.678E-20 0.678E-20 0.122E+01   0.888E-09 0.888E-09 -.415E-04
   0.160E-03 0.160E-03 0.258E+03   0.300E-03 0.300E-03 -.260E+03   0.339E-20 -.169E-20 0.122E+01   -.209E-09 -.209E-09 -.415E-04
   0.122E-03 0.122E-03 0.133E+03   0.900E-04 0.900E-04 -.134E+03   0.000E+00 0.000E+00 0.261E+00   0.178E-09 0.178E-09 -.849E-04
   -.130E-03 -.130E-03 0.133E+03   -.212E-03 -.212E-03 -.134E+03   0.000E+00 0.000E+00 0.261E+00   -.391E-09 -.391E-09 -.849E-04
   -.722E-05 0.259E-03 0.700E-03   -.121E-03 0.241E-03 -.126E-03   0.000E+00 0.000E+00 -.278E-16   0.653E-09 -.747E-09 -.159E-06
   0.259E-03 -.722E-05 0.700E-03   0.241E-03 -.121E-03 -.126E-03   0.847E-21 0.000E+00 0.278E-16   -.747E-09 0.653E-09 -.159E-06
   0.123E-03 -.129E-03 -.133E+03   0.920E-04 -.210E-03 0.134E+03   0.000E+00 0.000E+00 -.261E+00   0.420E-09 -.150E-09 0.846E-04
   -.129E-03 0.123E-03 -.133E+03   -.210E-03 0.920E-04 0.134E+03   0.000E+00 0.000E+00 -.261E+00   -.150E-09 0.420E-09 0.846E-04
   -.557E-05 -.557E-05 -.258E+03   -.909E-04 -.909E-04 0.260E+03   -.678E-20 0.678E-20 -.122E+01   0.898E-09 0.898E-09 0.414E-04
   0.626E-03 0.626E-03 -.258E+03   0.255E-05 0.255E-05 0.260E+03   0.339E-20 0.339E-20 -.122E+01   -.978E-10 -.978E-10 0.414E-04
 -----------------------------------------------------------------------------------------------
   0.101E-02 0.101E-02 0.151E-02   0.729E-16 -.599E-14 0.568E-13   0.762E-20 0.152E-19 -.444E-15   0.144E-08 0.144E-08 -.100E-05
 
 
 POSITION                                       TOTAL-FORCE (eV/Angst)
 -----------------------------------------------------------------------------------
      0.00000      0.00000      0.00000         0.000000      0.000000      0.136387
      2.71550      2.71550      0.00000        -0.000000     -0.000000      0.136387
      1.35775      1.35775      1.35775         0.000000     -0.000000     -0.255155
      4.07326      4.07326      1.35775         0.000000     -0.000000     -0.255155
      0.00000      2.71550      2.71550         0.000000      0.000000      0.000000
      2.71550      0.00000      2.71550        -0.000000     -0.000000      0.000000
      1.35775      4.07326      4.07326         0.000000     -0.000000      0.255155
      4.07326      1.35775      4.07326         0.000000     -0.000000      0.255155
      0.00000      0.00000      5.43101         0.000000      0.000000     -0.136387
      2.71550      2.71550      5.43101         0.000000     -0.000000     -0.136387
 -----------------------------------------------------------------------------------
    total drift:                                0.001012      0.001012      0.001512


--------------------------------------------------------------------------------------------------------



  FREE ENERGIE OF THE ION-ELECTRON SYSTEM (eV)
  ---------------------------------------------------
  free  energy   TOTEN  =       -46.40903635 eV

  energy  without entropy=      -46.36534319  energy(sigma->0) =      -46.38718977
 


--------------------------------------------------------------------------------------------------------


    POTLOK:  cpu time    0.0570: real time    0.0570


--------------------------------------------------------------------------------------------------------


     LOOP+:  cpu time    9.3796: real time    9.6249
    4ORBIT:  cpu time    0.0000: real time    0.0000
 


 total charge     
 
# of ion     s       p       d       tot
----------------------------------------
  1        0.866   0.742   0.000   1.607
  2        0.866   0.742   0.000   1.607
  3        0.771   0.920   0.000   1.691
  4        0.771   0.920   0.000   1.690
  5        0.779   0.898   0.000   1.677
  6        0.779   0.898   0.000   1.677
  7        0.765   0.940   0.000   1.706
  8        0.765   0.940   0.000   1.706
  9        0.861   0.722   0.000   1.582
 10        0.861   0.722   0.000   1.582
------------------------------------------------
tot        8.083   8.443   0.000  16.526
 

 total amount of memory used by VASP on root node    44872. kBytes
========================================================================

   base      :      30000. kBytes
   nonlr-proj:        665. kBytes
   fftplans  :       4302. kBytes
   grid      :       6054. kBytes
   one-center:         15. kBytes
   wavefun   :       3836. kBytes
 
  
  
 General timing and accounting informations for this job:
 ========================================================
  
                  Total CPU time used (sec):       11.007
                            User time (sec):       10.790
                          System time (sec):        0.217
                         Elapsed time (sec):       12.490
  
                   Maximum memory used (kb):       48680.
                   Average memory used (kb):           0.
  
                          Minor page faults:        16425
                          Major page faults:          171
                 Voluntary context switches:         2181
