unknown system                          
           1
     5.431010    0.000000    0.000000
     0.000000    5.431010    0.000000
     0.000000    0.000000   22.791010
   Si
  10
Direct configuration=     1
   0.00000000  0.00000000  0.00000000
   0.49999908  0.49999908  0.00000000
   0.24999954  0.24999954  0.05957393
   0.75000046  0.75000046  0.05957393
   0.00000000  0.49999908  0.11914786
   0.49999908  0.00000000  0.11914786
   0.24999954  0.75000046  0.17872222
   0.75000046  0.24999954  0.17872222
   0.00000000  0.00000000  0.23829615
   0.49999908  0.49999908  0.23829615
