   32   32    1    1
  0.2587633E+03  0.2023101E-08  0.2023101E-08  0.2023101E-08  0.5000000E-15
  1.000000000000000E-004
  CAR 
 unknown system                          
     74      1     54
 
  0.0000000E+00  0.0000000E+00  0.0000000E+00  0.1000000E+01
    1      -14.855074   1.000000
    2      -13.943697   1.000000
    3      -13.943204   1.000000
    4      -13.943199   1.000000
    5      -12.944424   1.000000
    6      -12.671878   1.000000
    7      -12.671852   1.000000
    8      -12.671333   1.000000
    9      -11.959864   1.000000
   10      -11.959859   1.000000
   11      -10.560540   1.000000
   12      -10.560138   1.000000
   13      -10.560136   1.000000
   14       -9.643146   1.000000
   15       -8.402708   1.000000
   16       -8.402657   1.000000
   17       -8.397001   1.000000
   18       -8.304028   1.000000
   19       -8.299111   1.000000
   20       -8.299041   1.000000
   21       -8.275936   1.000000
   22       -8.275862   1.000000
   23       -8.182849   1.000000
   24       -7.942472   1.000000
   25       -7.942446   1.000000
   26       -7.940393   1.000000
   27       -7.284265   1.000000
   28       -7.284259   1.000000
   29       -6.684783   1.000000
   30       -6.683905   1.000000
   31       -6.683892   1.000000
   32       -6.521836   1.000000
   33       -6.521802   1.000000
   34       -6.520935   1.000000
   35       -4.161442   1.000000
   36       -4.159269   1.000000
   37       -4.159264   1.000000
   38       -2.892392   0.000000
   39       -2.892382   0.000000
   40       -2.891558   0.000000
   41       -2.336695   0.000000
   42       -1.661634   0.000000
   43       -1.661625   0.000000
   44       -1.470426   0.000000
   45       -1.375509   0.000000
   46       -1.375485   0.000000
   47       -1.373994   0.000000
   48       -1.007480   0.000000
   49       -1.005594   0.000000
   50       -1.005584   0.000000
   51       -0.340099   0.000000
   52       -0.072644   0.000000
   53       -0.030138   0.000000
   54        0.037722   0.000000
