       N       E                     dE             d eps       ncg     rms          rms(c)
RMM:   1     0.606261201784E+03    0.60626E+03   -0.70129E+03    54   0.345E+02
RMM:   2     0.297794863472E+03   -0.30847E+03   -0.37322E+03    54   0.823E+01
RMM:   3     0.129109047897E+03   -0.16869E+03   -0.25533E+03    54   0.865E+01
RMM:   4    -0.361405722580E+02   -0.16525E+03   -0.15880E+03    54   0.817E+01
RMM:   5    -0.106260069863E+03   -0.70119E+02   -0.66560E+02    54   0.619E+01
RMM:   6    -0.126186163729E+03   -0.19926E+02   -0.18781E+02    54   0.372E+01
RMM:   7    -0.131724687312E+03   -0.55385E+01   -0.51231E+01    54   0.206E+01
RMM:   8    -0.133440058951E+03   -0.17154E+01   -0.14813E+01    54   0.117E+01
RMM:   9    -0.134168612912E+03   -0.72855E+00   -0.67754E+00   137   0.694E+00
RMM:  10    -0.134319278855E+03   -0.15067E+00   -0.12894E+00   156   0.256E+00
RMM:  11    -0.134325137930E+03   -0.58591E-02   -0.60604E-02   144   0.446E-01
RMM:  12    -0.134325552302E+03   -0.41437E-03   -0.37057E-03   146   0.152E-01    0.147E+01
RMM:  13    -0.129875372307E+03    0.44502E+01   -0.24960E+00   119   0.382E+00    0.825E+00
RMM:  14    -0.127497568866E+03    0.23778E+01   -0.58786E+00   121   0.591E+00    0.102E+00
RMM:  15    -0.127433990020E+03    0.63579E-01   -0.34581E-01   130   0.142E+00    0.394E-01
RMM:  16    -0.127417275597E+03    0.16714E-01   -0.67999E-02   136   0.605E-01    0.246E-01
RMM:  17    -0.127419663059E+03   -0.23875E-02   -0.13417E-02   125   0.323E-01    0.116E-01
RMM:  18    -0.127420191254E+03   -0.52819E-03   -0.30072E-03   128   0.122E-01    0.782E-02
RMM:  19    -0.127429315135E+03   -0.91239E-02   -0.92447E-03   110   0.178E-01    0.447E-02
RMM:  20    -0.127431126053E+03   -0.18109E-02   -0.27667E-04   127   0.472E-02    0.271E-02
RMM:  21    -0.127438181316E+03   -0.70553E-02   -0.13050E-03   114   0.710E-02    0.219E-02
RMM:  22    -0.127438948856E+03   -0.76754E-03   -0.11949E-04   126   0.215E-02    0.113E-02
RMM:  23    -0.127442242671E+03   -0.32938E-02   -0.55644E-04   114   0.419E-02    0.920E-03
RMM:  24    -0.127442494168E+03   -0.25150E-03   -0.41193E-05   119   0.982E-03    0.367E-03
RMM:  25    -0.127443127028E+03   -0.63286E-03   -0.73558E-05   111   0.128E-02    0.181E-03
RMM:  26    -0.127443241526E+03   -0.11450E-03   -0.11082E-05   105   0.548E-03    0.148E-03
RMM:  27    -0.127443312714E+03   -0.71188E-04   -0.51306E-06    91   0.401E-03    0.106E-03
RMM:  28    -0.127443327727E+03   -0.15012E-04   -0.10185E-06    94   0.201E-03    0.338E-04
RMM:  29    -0.127443342853E+03   -0.15126E-04   -0.67850E-07    84   0.185E-03    0.556E-04
RMM:  30    -0.127443347585E+03   -0.47326E-05   -0.16246E-07    66   0.108E-03    0.133E-04
RMM:  31    -0.127443351145E+03   -0.35599E-05   -0.16013E-07    71   0.111E-03    0.141E-04
RMM:  32    -0.127443351745E+03   -0.60029E-06    0.00000E+00    40   0.585E-04
   1 F= -.12744335E+03 E0= -.12744335E+03  d E =-.433760E-10
