PROCAR lm decomposed
# of k-points:    1         # of bands:  54         # of ions:  32

 k-point    1 :    0.00000000 0.00000000 0.00000000     weight = 1.00000000

band   1 # energy  -14.85507352 # occ.  2.00000000
 
ion      s     py     pz     px    dxy    dyz    dz2    dxz    dx2    tot
  1  0.009  0.000  0.000  0.000  0.000  0.000  0.000  0.000  0.000  0.009
  2  0.032  0.000  0.001  0.000  0.000  0.000  0.000  0.000  0.000  0.033
  3  0.052  0.000  0.000  0.000  0.000  0.000  0.000  0.000  0.000  0.053
  4  0.052  0.000  0.000  0.000  0.000  0.000  0.000  0.000  0.000  0.053
  5  0.032  0.000  0.000  0.001  0.000  0.000  0.000  0.000  0.000  0.033
  6  0.032  0.001  0.000  0.000  0.000  0.000  0.000  0.000  0.000  0.033
  7  0.052  0.000  0.000  0.000  0.000  0.000  0.000  0.000  0.000  0.053
  8  0.052  0.000  0.000  0.000  0.000  0.000  0.000  0.000  0.000  0.053
  9  0.032  0.000  0.001  0.000  0.000  0.000  0.000  0.000  0.000  0.033
 10  0.032  0.001  0.000  0.000  0.000  0.000  0.000  0.000  0.000  0.033
 11  0.009  0.000  0.000  0.000  0.000  0.000  0.000  0.000  0.000  0.009
 12  0.032  0.000  0.000  0.001  0.000  0.000  0.000  0.000  0.000  0.033
 13  0.009  0.000  0.000  0.000  0.000  0.000  0.000  0.000  0.000  0.009
 14  0.009  0.000  0.000  0.000  0.000  0.000  0.000  0.000  0.000  0.009
 15  0.001  0.000  0.000  0.000  0.000  0.000  0.000  0.000  0.000  0.001
 16  0.002  0.000  0.000  0.000  0.000  0.000  0.000  0.000  0.000  0.002
 17  0.001  0.000  0.000  0.000  0.000  0.000  0.000  0.000  0.000  0.001
 18  0.001  0.000  0.000  0.000  0.000  0.000  0.000  0.000  0.000  0.001
 19  0.002  0.000  0.000  0.000  0.000  0.000  0.000  0.000  0.000  0.002
 20  0.001  0.000  0.000  0.000  0.000  0.000  0.000  0.000  0.000  0.001
 21  0.001  0.000  0.000  0.000  0.000  0.000  0.000  0.000  0.000  0.001
 22  0.002  0.000  0.000  0.000  0.000  0.000  0.000  0.000  0.000  0.002
 23  0.001  0.000  0.000  0.000  0.000  0.000  0.000  0.000  0.000  0.001
 24  0.002  0.000  0.000  0.000  0.000  0.000  0.000  0.000  0.000  0.002
 25  0.001  0.000  0.000  0.000  0.000  0.000  0.000  0.000  0.000  0.001
 26  0.001  0.000  0.000  0.000  0.000  0.000  0.000  0.000  0.000  0.001
 27  0.001  0.000  0.000  0.000  0.000  0.000  0.000  0.000  0.000  0.001
 28  0.002  0.000  0.000  0.000  0.000  0.000  0.000  0.000  0.000  0.002
 29  0.001  0.000  0.000  0.000  0.000  0.000  0.000  0.000  0.000  0.001
 30  0.002  0.000  0.000  0.000  0.000  0.000  0.000  0.000  0.000  0.002
 31  0.001  0.000  0.000  0.000  0.000  0.000  0.000  0.000  0.000  0.001
 32  0.001  0.000  0.000  0.000  0.000  0.000  0.000  0.000  0.000  0.001
tot  0.456  0.004  0.004  0.004  0.000  0.000  0.000  0.000  0.000  0.468
 
band   2 # energy  -13.94369734 # occ.  2.00000000
 
ion      s     py     pz     px    dxy    dyz    dz2    dxz    dx2    tot
  1  0.104  0.000  0.000  0.000  0.000  0.000  0.000  0.000  0.000  0.105
  2  0.017  0.002  0.000  0.002  0.000  0.000  0.000  0.000  0.000  0.021
  3  0.139  0.000  0.000  0.000  0.000  0.000  0.000  0.000  0.000  0.140
  4  0.016  0.000  0.000  0.000  0.000  0.000  0.000  0.000  0.000  0.017
  5  0.017  0.002  0.002  0.000  0.000  0.000  0.000  0.000  0.000  0.021
  6  0.017  0.000  0.002  0.002  0.000  0.000  0.000  0.000  0.000  0.021
  7  0.015  0.000  0.000  0.000  0.000  0.000  0.000  0.000  0.000  0.016
  8  0.015  0.000  0.000  0.000  0.000  0.000  0.000  0.000  0.000  0.016
  9  0.017  0.000  0.000  0.000  0.000  0.000  0.000  0.000  0.000  0.017
 10  0.017  0.000  0.000  0.000  0.000  0.000  0.000  0.000  0.000  0.017
 11  0.011  0.000  0.000  0.000  0.000  0.000  0.000  0.000  0.000  0.012
 12  0.017  0.000  0.000  0.000  0.000  0.000  0.000  0.000  0.000  0.017
 13  0.011  0.000  0.000  0.000  0.000  0.000  0.000  0.000  0.000  0.012
 14  0.012  0.000  0.000  0.000  0.000  0.000  0.000  0.000  0.000  0.012
 15  0.011  0.000  0.000  0.000  0.000  0.000  0.000  0.000  0.000  0.011
 16  0.002  0.000  0.000  0.000  0.000  0.000  0.000  0.000  0.000  0.002
 17  0.001  0.000  0.000  0.000  0.000  0.000  0.000  0.000  0.000  0.001
 18  0.001  0.000  0.000  0.000  0.000  0.000  0.000  0.000  0.000  0.001
 19  0.002  0.000  0.000  0.000  0.000  0.000  0.000  0.000  0.000  0.002
 20  0.001  0.000  0.000  0.000  0.000  0.000  0.000  0.000  0.000  0.001
 21  0.011  0.000  0.000  0.000  0.000  0.000  0.000  0.000  0.000  0.011
 22  0.002  0.000  0.000  0.000  0.000  0.000  0.000  0.000  0.000  0.002
 23  0.001  0.000  0.000  0.000  0.000  0.000  0.000  0.000  0.000  0.001
 24  0.002  0.000  0.000  0.000  0.000  0.000  0.000  0.000  0.000  0.002
 25  0.001  0.000  0.000  0.000  0.000  0.000  0.000  0.000  0.000  0.001
 26  0.001  0.000  0.000  0.000  0.000  0.000  0.000  0.000  0.000  0.001
 27  0.011  0.000  0.000  0.000  0.000  0.000  0.000  0.000  0.000  0.011
 28  0.002  0.000  0.000  0.000  0.000  0.000  0.000  0.000  0.000  0.002
 29  0.001  0.000  0.000  0.000  0.000  0.000  0.000  0.000  0.000  0.001
 30  0.002  0.000  0.000  0.000  0.000  0.000  0.000  0.000  0.000  0.002
 31  0.001  0.000  0.000  0.000  0.000  0.000  0.000  0.000  0.000  0.001
 32  0.001  0.000  0.000  0.000  0.000  0.000  0.000  0.000  0.000  0.001
tot  0.477  0.007  0.007  0.007  0.000  0.000  0.000  0.000  0.000  0.498
 
band   3 # energy  -13.94320443 # occ.  2.00000000
 
ion      s     py     pz     px    dxy    dyz    dz2    dxz    dx2    tot
  1  0.000  0.000  0.000  0.000  0.000  0.000  0.000  0.000  0.000  0.000
  2  0.032  0.001  0.000  0.001  0.000  0.000  0.000  0.000  0.000  0.034
  3  0.000  0.000  0.001  0.000  0.000  0.000  0.000  0.000  0.000  0.001
  4  0.117  0.000  0.000  0.000  0.000  0.000  0.000  0.000  0.000  0.118
  5  0.016  0.000  0.001  0.000  0.000  0.000  0.000  0.000  0.000  0.017
  6  0.003  0.000  0.000  0.000  0.000  0.000  0.000  0.000  0.000  0.003
  7  0.058  0.000  0.000  0.000  0.000  0.000  0.000  0.000  0.000  0.059
  8  0.010  0.000  0.001  0.000  0.000  0.000  0.000  0.000  0.000  0.012
  9  0.032  0.000  0.000  0.000  0.000  0.000  0.000  0.000  0.000  0.032
 10  0.003  0.000  0.003  0.003  0.000  0.000  0.000  0.000  0.000  0.009
 11  0.043  0.000  0.000  0.000  0.000  0.000  0.000  0.000  0.000  0.044
 12  0.016  0.002  0.002  0.000  0.000  0.000  0.000  0.000  0.000  0.019
 13  0.008  0.000  0.000  0.000  0.000  0.000  0.000  0.000  0.000  0.008
 14  0.087  0.000  0.000  0.000  0.000  0.000  0.000  0.000  0.000  0.089
 15  0.000  0.000  0.000  0.000  0.000  0.000  0.000  0.000  0.000  0.000
 16  0.003  0.000  0.000  0.000  0.000  0.000  0.000  0.000  0.000  0.003
 17  0.009  0.000  0.000  0.000  0.000  0.000  0.000  0.000  0.000  0.010
 18  0.005  0.000  0.000  0.000  0.000  0.000  0.000  0.000  0.000  0.005
 19  0.003  0.000  0.000  0.000  0.000  0.000  0.000  0.000  0.000  0.003
 20  0.001  0.000  0.000  0.000  0.000  0.000  0.000  0.000  0.000  0.001
 21  0.000  0.000  0.000  0.000  0.000  0.000  0.000  0.000  0.000  0.000
 22  0.001  0.000  0.000  0.000  0.000  0.000  0.000  0.000  0.000  0.002
 23  0.005  0.000  0.000  0.000  0.000  0.000  0.000  0.000  0.000  0.005
 24  0.001  0.000  0.000  0.000  0.000  0.000  0.000  0.000  0.000  0.002
 25  0.001  0.000  0.000  0.000  0.000  0.000  0.000  0.000  0.000  0.001
 26  0.009  0.000  0.000  0.000  0.000  0.000  0.000  0.000  0.000  0.009
 27  0.000  0.000  0.000  0.000  0.000  0.000  0.000  0.000  0.000  0.000
 28  0.000  0.000  0.000  0.000  0.000  0.000  0.000  0.000  0.000  0.000
 29  0.001  0.000  0.000  0.000  0.000  0.000  0.000  0.000  0.000  0.001
 30  0.000  0.000  0.000  0.000  0.000  0.000  0.000  0.000  0.000  0.000
 31  0.004  0.000  0.000  0.000  0.000  0.000  0.000  0.000  0.000  0.005
 32  0.009  0.000  0.000  0.000  0.000  0.000  0.000  0.000  0.000  0.009
tot  0.477  0.004  0.010  0.007  0.000  0.000  0.000  0.000  0.000  0.498
 
band   4 # energy  -13.94319945 # occ.  2.00000000
 
ion      s     py     pz     px    dxy    dyz    dz2    dxz    dx2    tot
  1  0.000  0.000  0.000  0.000  0.000  0.000  0.000  0.000  0.000  0.000
  2  0.002  0.000  0.000  0.000  0.000  0.000  0.000  0.000  0.000  0.002
  3  0.000  0.001  0.000  0.000  0.000  0.000  0.000  0.000  0.000  0.001
  4  0.006  0.001  0.000  0.000  0.000  0.000  0.000  0.000  0.000  0.008
  5  0.018  0.001  0.000  0.000  0.000  0.000  0.000  0.000  0.000  0.019
  6  0.031  0.000  0.001  0.001  0.000  0.000  0.000  0.000  0.000  0.033
  7  0.066  0.000  0.000  0.000  0.000  0.000  0.000  0.000  0.000  0.067
  8  0.114  0.000  0.000  0.000  0.000  0.000  0.000  0.000  0.000  0.114
  9  0.002  0.003  0.000  0.003  0.000  0.000  0.000  0.000  0.000  0.008
 10  0.031  0.000  0.000  0.000  0.000  0.000  0.000  0.000  0.000  0.031
 11  0.049  0.000  0.000  0.000  0.000  0.000  0.000  0.000  0.000  0.050
 12  0.018  0.002  0.001  0.000  0.000  0.000  0.000  0.000  0.000  0.021
 13  0.085  0.000  0.000  0.000  0.000  0.000  0.000  0.000  0.000  0.086
 14  0.005  0.000  0.000  0.000  0.000  0.000  0.000  0.000  0.000  0.005
 15  0.000  0.000  0.000  0.000  0.000  0.000  0.000  0.000  0.000  0.000
 16  0.000  0.000  0.000  0.000  0.000  0.000  0.000  0.000  0.000  0.000
 17  0.001  0.000  0.000  0.000  0.000  0.000  0.000  0.000  0.000  0.001
 18  0.005  0.000  0.000  0.000  0.000  0.000  0.000  0.000  0.000  0.005
 19  0.000  0.000  0.000  0.000  0.000  0.000  0.000  0.000  0.000  0.000
 20  0.009  0.000  0.000  0.000  0.000  0.000  0.000  0.000  0.000  0.009
 21  0.000  0.000  0.000  0.000  0.000  0.000  0.000  0.000  0.000  0.000
 22  0.002  0.000  0.000  0.000  0.000  0.000  0.000  0.000  0.000  0.002
 23  0.005  0.000  0.000  0.000  0.000  0.000  0.000  0.000  0.000  0.005
 24  0.002  0.000  0.000  0.000  0.000  0.000  0.000  0.000  0.000  0.002
 25  0.009  0.000  0.000  0.000  0.000  0.000  0.000  0.000  0.000  0.009
 26  0.000  0.000  0.000  0.000  0.000  0.000  0.000  0.000  0.000  0.000
 27  0.000  0.000  0.000  0.000  0.000  0.000  0.000  0.000  0.000  0.000
 28  0.003  0.000  0.000  0.000  0.000  0.000  0.000  0.000  0.000  0.003
 29  0.009  0.000  0.000  0.000  0.000  0.000  0.000  0.000  0.000  0.009
 30  0.003  0.000  0.000  0.000  0.000  0.000  0.000  0.000  0.000  0.003
 31  0.005  0.000  0.000  0.000  0.000  0.000  0.000  0.000  0.000  0.005
 32  0.001  0.000  0.000  0.000  0.000  0.000  0.000  0.000  0.000  0.001
tot  0.477  0.010  0.004  0.007  0.000  0.000  0.000  0.000  0.000  0.498
 
band   5 # energy  -12.94442413 # occ.  2.00000000
 
ion      s     py     pz     px    dxy    dyz    dz2    dxz    dx2    tot
  1  0.081  0.000  0.000  0.000  0.000  0.000  0.000  0.000  0.000  0.081
  2  0.007  0.000  0.000  0.000  0.000  0.000  0.000  0.000  0.000  0.007
  3  0.001  0.002  0.002  0.002  0.000  0.000  0.000  0.000  0.000  0.005
  4  0.001  0.002  0.002  0.002  0.000  0.000  0.000  0.000  0.000  0.005
  5  0.007  0.000  0.000  0.000  0.000  0.000  0.000  0.000  0.000  0.007
  6  0.007  0.000  0.000  0.000  0.000  0.000  0.000  0.000  0.000  0.007
  7  0.001  0.002  0.002  0.002  0.000  0.000  0.000  0.000  0.000  0.005
  8  0.001  0.002  0.002  0.002  0.000  0.000  0.000  0.000  0.000  0.005
  9  0.007  0.000  0.000  0.000  0.000  0.000  0.000  0.000  0.000  0.007
 10  0.007  0.000  0.000  0.000  0.000  0.000  0.000  0.000  0.000  0.007
 11  0.081  0.000  0.000  0.000  0.000  0.000  0.000  0.000  0.000  0.081
 12  0.007  0.000  0.000  0.000  0.000  0.000  0.000  0.000  0.000  0.007
 13  0.081  0.000  0.000  0.000  0.000  0.000  0.000  0.000  0.000  0.081
 14  0.081  0.000  0.000  0.000  0.000  0.000  0.000  0.000  0.000  0.081
 15  0.012  0.000  0.000  0.000  0.000  0.000  0.000  0.000  0.000  0.013
 16  0.001  0.000  0.000  0.000  0.000  0.000  0.000  0.000  0.000  0.001
 17  0.012  0.000  0.000  0.000  0.000  0.000  0.000  0.000  0.000  0.013
 18  0.012  0.000  0.000  0.000  0.000  0.000  0.000  0.000  0.000  0.013
 19  0.001  0.000  0.000  0.000  0.000  0.000  0.000  0.000  0.000  0.001
 20  0.012  0.000  0.000  0.000  0.000  0.000  0.000  0.000  0.000  0.013
 21  0.012  0.000  0.000  0.000  0.000  0.000  0.000  0.000  0.000  0.013
 22  0.001  0.000  0.000  0.000  0.000  0.000  0.000  0.000  0.000  0.001
 23  0.012  0.000  0.000  0.000  0.000  0.000  0.000  0.000  0.000  0.013
 24  0.001  0.000  0.000  0.000  0.000  0.000  0.000  0.000  0.000  0.001
 25  0.012  0.000  0.000  0.000  0.000  0.000  0.000  0.000  0.000  0.013
 26  0.012  0.000  0.000  0.000  0.000  0.000  0.000  0.000  0.000  0.013
 27  0.012  0.000  0.000  0.000  0.000  0.000  0.000  0.000  0.000  0.013
 28  0.001  0.000  0.000  0.000  0.000  0.000  0.000  0.000  0.000  0.001
 29  0.012  0.000  0.000  0.000  0.000  0.000  0.000  0.000  0.000  0.013
 30  0.001  0.000  0.000  0.000  0.000  0.000  0.000  0.000  0.000  0.001
 31  0.012  0.000  0.000  0.000  0.000  0.000  0.000  0.000  0.000  0.013
 32  0.012  0.000  0.000  0.000  0.000  0.000  0.000  0.000  0.000  0.013
tot  0.513  0.010  0.010  0.010  0.000  0.000  0.000  0.000  0.000  0.542
 
band   6 # energy  -12.67187809 # occ.  2.00000000
 
ion      s     py     pz     px    dxy    dyz    dz2    dxz    dx2    tot
  1  0.000  0.000  0.000  0.000  0.000  0.000  0.000  0.000  0.000  0.000
  2  0.007  0.000  0.000  0.000  0.000  0.000  0.000  0.000  0.000  0.007
  3  0.000  0.002  0.000  0.001  0.000  0.000  0.000  0.000  0.000  0.003
  4  0.002  0.000  0.000  0.003  0.000  0.000  0.000  0.000  0.000  0.006
  5  0.019  0.000  0.000  0.000  0.000  0.000  0.000  0.000  0.000  0.019
  6  0.046  0.000  0.000  0.000  0.000  0.000  0.000  0.000  0.000  0.046
  7  0.007  0.000  0.005  0.001  0.000  0.000  0.000  0.000  0.000  0.013
  8  0.019  0.002  0.004  0.003  0.000  0.000  0.000  0.000  0.000  0.028
  9  0.007  0.001  0.000  0.000  0.000  0.000  0.000  0.000  0.000  0.008
 10  0.046  0.000  0.000  0.000  0.000  0.000  0.000  0.000  0.000  0.046
 11  0.054  0.000  0.000  0.000  0.000  0.000  0.000  0.000  0.000  0.055
 12  0.019  0.000  0.000  0.000  0.000  0.000  0.000  0.000  0.000  0.020
 13  0.136  0.001  0.001  0.001  0.000  0.000  0.000  0.000  0.000  0.139
 14  0.018  0.000  0.000  0.000  0.000  0.000  0.000  0.000  0.000  0.018
 15  0.000  0.000  0.000  0.000  0.000  0.000  0.000  0.000  0.000  0.000
 16  0.001  0.000  0.000  0.000  0.000  0.000  0.000  0.000  0.000  0.001
 17  0.003  0.000  0.000  0.000  0.000  0.000  0.000  0.000  0.000  0.003
 18  0.010  0.000  0.000  0.000  0.000  0.000  0.000  0.000  0.000  0.010
 19  0.001  0.000  0.000  0.000  0.000  0.000  0.000  0.000  0.000  0.001
 20  0.023  0.000  0.001  0.000  0.000  0.000  0.000  0.000  0.000  0.024
 21  0.000  0.000  0.000  0.000  0.000  0.000  0.000  0.000  0.000  0.000
 22  0.003  0.000  0.000  0.000  0.000  0.000  0.000  0.000  0.000  0.003
 23  0.009  0.000  0.000  0.000  0.000  0.000  0.000  0.000  0.000  0.009
 24  0.003  0.000  0.000  0.000  0.000  0.000  0.000  0.000  0.000  0.003
 25  0.023  0.000  0.000  0.001  0.000  0.000  0.000  0.000  0.000  0.024
 26  0.003  0.000  0.000  0.000  0.000  0.000  0.000  0.000  0.000  0.003
 27  0.000  0.000  0.000  0.000  0.000  0.000  0.000  0.000  0.000  0.000
 28  0.007  0.000  0.000  0.000  0.000  0.000  0.000  0.000  0.000  0.007
 29  0.023  0.001  0.000  0.000  0.000  0.000  0.000  0.000  0.000  0.024
 30  0.007  0.000  0.000  0.000  0.000  0.000  0.000  0.000  0.000  0.007
 31  0.009  0.000  0.000  0.000  0.000  0.000  0.000  0.000  0.000  0.009
 32  0.003  0.000  0.000  0.000  0.000  0.000  0.000  0.000  0.000  0.003
tot  0.506  0.008  0.013  0.011  0.000  0.000  0.000  0.000  0.000  0.538
 
band   7 # energy  -12.67185221 # occ.  2.00000000
 
ion      s     py     pz     px    dxy    dyz    dz2    dxz    dx2    tot
  1  0.000  0.000  0.000  0.000  0.000  0.000  0.000  0.000  0.000  0.000
  2  0.042  0.000  0.000  0.000  0.000  0.000  0.000  0.000  0.000  0.042
  3  0.000  0.000  0.002  0.001  0.000  0.000  0.000  0.000  0.000  0.003
  4  0.017  0.005  0.001  0.002  0.000  0.000  0.000  0.000  0.000  0.025
  5  0.029  0.000  0.000  0.000  0.000  0.000  0.000  0.000  0.000  0.029
  6  0.001  0.000  0.000  0.000  0.000  0.000  0.000  0.000  0.000  0.001
  7  0.012  0.005  0.001  0.001  0.000  0.000  0.000  0.000  0.000  0.019
  8  0.000  0.000  0.001  0.002  0.000  0.000  0.000  0.000  0.000  0.004
  9  0.042  0.000  0.000  0.000  0.000  0.000  0.000  0.000  0.000  0.042
 10  0.001  0.000  0.001  0.001  0.000  0.000  0.000  0.000  0.000  0.002
 11  0.085  0.001  0.000  0.000  0.000  0.000  0.000  0.000  0.000  0.086
 12  0.029  0.000  0.000  0.000  0.000  0.000  0.000  0.000  0.000  0.029
 13  0.003  0.000  0.000  0.000  0.000  0.000  0.000  0.000  0.000  0.003
 14  0.120  0.001  0.001  0.001  0.000  0.000  0.000  0.000  0.000  0.122
 15  0.000  0.000  0.000  0.000  0.000  0.000  0.000  0.000  0.000  0.000
 16  0.006  0.000  0.000  0.000  0.000  0.000  0.000  0.000  0.000  0.006
 17  0.020  0.000  0.001  0.000  0.000  0.000  0.000  0.000  0.000  0.021
 18  0.014  0.000  0.000  0.000  0.000  0.000  0.000  0.000  0.000  0.014
 19  0.006  0.000  0.000  0.000  0.000  0.000  0.000  0.000  0.000  0.006
 20  0.000  0.000  0.000  0.000  0.000  0.000  0.000  0.000  0.000  0.000
 21  0.000  0.000  0.000  0.000  0.000  0.000  0.000  0.000  0.000  0.000
 22  0.004  0.000  0.000  0.000  0.000  0.000  0.000  0.000  0.000  0.004
 23  0.014  0.000  0.000  0.000  0.000  0.000  0.000  0.000  0.000  0.015
 24  0.004  0.000  0.000  0.000  0.000  0.000  0.000  0.000  0.000  0.004
 25  0.001  0.000  0.000  0.000  0.000  0.000  0.000  0.000  0.000  0.001
 26  0.020  0.000  0.000  0.001  0.000  0.000  0.000  0.000  0.000  0.021
 27  0.000  0.000  0.000  0.000  0.000  0.000  0.000  0.000  0.000  0.000
 28  0.000  0.000  0.000  0.000  0.000  0.000  0.000  0.000  0.000  0.000
 29  0.001  0.000  0.000  0.000  0.000  0.000  0.000  0.000  0.000  0.001
 30  0.000  0.000  0.000  0.000  0.000  0.000  0.000  0.000  0.000  0.000
 31  0.015  0.000  0.000  0.000  0.000  0.000  0.000  0.000  0.000  0.015
 32  0.021  0.001  0.000  0.000  0.000  0.000  0.000  0.000  0.000  0.021
tot  0.506  0.014  0.009  0.010  0.000  0.000  0.000  0.000  0.000  0.538
 
band   8 # energy  -12.67133266 # occ.  2.00000000
 
ion      s     py     pz     px    dxy    dyz    dz2    dxz    dx2    tot
  1  0.156  0.001  0.001  0.001  0.000  0.000  0.000  0.000  0.000  0.159
  2  0.023  0.000  0.000  0.000  0.000  0.000  0.000  0.000  0.000  0.024
  3  0.022  0.003  0.003  0.003  0.000  0.000  0.000  0.000  0.000  0.032
  4  0.003  0.000  0.004  0.000  0.000  0.000  0.000  0.000  0.000  0.006
  5  0.024  0.000  0.000  0.000  0.000  0.000  0.000  0.000  0.000  0.024
  6  0.025  0.000  0.000  0.000  0.000  0.000  0.000  0.000  0.000  0.025
  7  0.002  0.000  0.000  0.004  0.000  0.000  0.000  0.000  0.000  0.006
  8  0.002  0.004  0.000  0.000  0.000  0.000  0.000  0.000  0.000  0.006
  9  0.023  0.000  0.000  0.000  0.000  0.000  0.000  0.000  0.000  0.023
 10  0.025  0.000  0.000  0.000  0.000  0.000  0.000  0.000  0.000  0.025
 11  0.018  0.000  0.000  0.000  0.000  0.000  0.000  0.000  0.000  0.018
 12  0.024  0.000  0.000  0.000  0.000  0.000  0.000  0.000  0.000  0.024
 13  0.016  0.000  0.000  0.000  0.000  0.000  0.000  0.000  0.000  0.016
 14  0.018  0.000  0.000  0.000  0.000  0.000  0.000  0.000  0.000  0.018
 15  0.026  0.000  0.001  0.000  0.000  0.000  0.000  0.000  0.000  0.027
 16  0.003  0.000  0.000  0.000  0.000  0.000  0.000  0.000  0.000  0.004
 17  0.003  0.000  0.000  0.000  0.000  0.000  0.000  0.000  0.000  0.004
 18  0.003  0.000  0.000  0.000  0.000  0.000  0.000  0.000  0.000  0.003
 19  0.003  0.000  0.000  0.000  0.000  0.000  0.000  0.000  0.000  0.004
 20  0.003  0.000  0.000  0.000  0.000  0.000  0.000  0.000  0.000  0.003
 21  0.026  0.000  0.000  0.001  0.000  0.000  0.000  0.000  0.000  0.027
 22  0.004  0.000  0.000  0.000  0.000  0.000  0.000  0.000  0.000  0.004
 23  0.003  0.000  0.000  0.000  0.000  0.000  0.000  0.000  0.000  0.004
 24  0.004  0.000  0.000  0.000  0.000  0.000  0.000  0.000  0.000  0.004
 25  0.003  0.000  0.000  0.000  0.000  0.000  0.000  0.000  0.000  0.003
 26  0.003  0.000  0.000  0.000  0.000  0.000  0.000  0.000  0.000  0.003
 27  0.026  0.001  0.000  0.000  0.000  0.000  0.000  0.000  0.000  0.027
 28  0.004  0.000  0.000  0.000  0.000  0.000  0.000  0.000  0.000  0.004
 29  0.003  0.000  0.000  0.000  0.000  0.000  0.000  0.000  0.000  0.003
 30  0.004  0.000  0.000  0.000  0.000  0.000  0.000  0.000  0.000  0.004
 31  0.003  0.000  0.000  0.000  0.000  0.000  0.000  0.000  0.000  0.003
 32  0.003  0.000  0.000  0.000  0.000  0.000  0.000  0.000  0.000  0.003
tot  0.506  0.011  0.011  0.011  0.000  0.000  0.000  0.000  0.000  0.538
 
band   9 # energy  -11.95986360 # occ.  2.00000000
 
ion      s     py     pz     px    dxy    dyz    dz2    dxz    dx2    tot
  1  0.000  0.000  0.000  0.000  0.000  0.000  0.000  0.000  0.000  0.000
  2  0.120  0.000  0.002  0.000  0.000  0.000  0.000  0.000  0.000  0.122
  3  0.000  0.003  0.006  0.001  0.000  0.000  0.000  0.000  0.000  0.009
  4  0.000  0.003  0.006  0.001  0.000  0.000  0.000  0.000  0.000  0.009
  5  0.013  0.000  0.000  0.000  0.000  0.000  0.000  0.000  0.000  0.013
  6  0.054  0.001  0.000  0.000  0.000  0.000  0.000  0.000  0.000  0.055
  7  0.000  0.003  0.006  0.001  0.000  0.000  0.000  0.000  0.000  0.009
  8  0.000  0.003  0.006  0.001  0.000  0.000  0.000  0.000  0.000  0.009
  9  0.120  0.000  0.002  0.000  0.000  0.000  0.000  0.000  0.000  0.122
 10  0.054  0.001  0.000  0.000  0.000  0.000  0.000  0.000  0.000  0.055
 11  0.000  0.000  0.000  0.000  0.000  0.000  0.000  0.000  0.000  0.000
 12  0.013  0.000  0.000  0.000  0.000  0.000  0.000  0.000  0.000  0.013
 13  0.000  0.000  0.000  0.000  0.000  0.000  0.000  0.000  0.000  0.000
 14  0.000  0.000  0.000  0.000  0.000  0.000  0.000  0.000  0.000  0.000
 15  0.000  0.000  0.000  0.000  0.000  0.000  0.000  0.000  0.000  0.000
 16  0.031  0.000  0.001  0.000  0.000  0.000  0.000  0.000  0.000  0.033
 17  0.000  0.000  0.000  0.000  0.000  0.000  0.000  0.000  0.000  0.000
 18  0.000  0.000  0.000  0.000  0.000  0.000  0.000  0.000  0.000  0.000
 19  0.031  0.000  0.001  0.000  0.000  0.000  0.000  0.000  0.000  0.033
 20  0.000  0.000  0.000  0.000  0.000  0.000  0.000  0.000  0.000  0.000
 21  0.000  0.000  0.000  0.000  0.000  0.000  0.000  0.000  0.000  0.000
 22  0.003  0.000  0.000  0.000  0.000  0.000  0.000  0.000  0.000  0.004
 23  0.000  0.000  0.000  0.000  0.000  0.000  0.000  0.000  0.000  0.000
 24  0.003  0.000  0.000  0.000  0.000  0.000  0.000  0.000  0.000  0.004
 25  0.000  0.000  0.000  0.000  0.000  0.000  0.000  0.000  0.000  0.000
 26  0.000  0.000  0.000  0.000  0.000  0.000  0.000  0.000  0.000  0.000
 27  0.000  0.000  0.000  0.000  0.000  0.000  0.000  0.000  0.000  0.000
 28  0.014  0.000  0.000  0.000  0.000  0.000  0.000  0.000  0.000  0.015
 29  0.000  0.000  0.000  0.000  0.000  0.000  0.000  0.000  0.000  0.000
 30  0.014  0.000  0.000  0.000  0.000  0.000  0.000  0.000  0.000  0.015
 31  0.000  0.000  0.000  0.000  0.000  0.000  0.000  0.000  0.000  0.000
 32  0.000  0.000  0.000  0.000  0.000  0.000  0.000  0.000  0.000  0.000
tot  0.472  0.014  0.031  0.003  0.000  0.000  0.000  0.000  0.000  0.520
 
band  10 # energy  -11.95985883 # occ.  2.00000000
 
ion      s     py     pz     px    dxy    dyz    dz2    dxz    dx2    tot
  1  0.000  0.000  0.000  0.000  0.000  0.000  0.000  0.000  0.000  0.000
  2  0.005  0.000  0.000  0.000  0.000  0.000  0.000  0.000  0.000  0.005
  3  0.000  0.004  0.000  0.006  0.000  0.000  0.000  0.000  0.000  0.009
  4  0.000  0.004  0.000  0.006  0.000  0.000  0.000  0.000  0.000  0.009
  5  0.111  0.000  0.000  0.002  0.000  0.000  0.000  0.000  0.000  0.113
  6  0.071  0.001  0.000  0.000  0.000  0.000  0.000  0.000  0.000  0.072
  7  0.000  0.004  0.000  0.006  0.000  0.000  0.000  0.000  0.000  0.009
  8  0.000  0.004  0.000  0.006  0.000  0.000  0.000  0.000  0.000  0.009
  9  0.005  0.000  0.000  0.000  0.000  0.000  0.000  0.000  0.000  0.005
 10  0.071  0.001  0.000  0.000  0.000  0.000  0.000  0.000  0.000  0.072
 11  0.000  0.000  0.000  0.000  0.000  0.000  0.000  0.000  0.000  0.000
 12  0.111  0.000  0.000  0.002  0.000  0.000  0.000  0.000  0.000  0.113
 13  0.000  0.000  0.000  0.000  0.000  0.000  0.000  0.000  0.000  0.000
 14  0.000  0.000  0.000  0.000  0.000  0.000  0.000  0.000  0.000  0.000
 15  0.000  0.000  0.000  0.000  0.000  0.000  0.000  0.000  0.000  0.000
 16  0.001  0.000  0.000  0.000  0.000  0.000  0.000  0.000  0.000  0.001
 17  0.000  0.000  0.000  0.000  0.000  0.000  0.000  0.000  0.000  0.000
 18  0.000  0.000  0.000  0.000  0.000  0.000  0.000  0.000  0.000  0.000
 19  0.001  0.000  0.000  0.000  0.000  0.000  0.000  0.000  0.000  0.001
 20  0.000  0.000  0.000  0.000  0.000  0.000  0.000  0.000  0.000  0.000
 21  0.000  0.000  0.000  0.000  0.000  0.000  0.000  0.000  0.000  0.000
 22  0.029  0.000  0.000  0.001  0.000  0.000  0.000  0.000  0.000  0.030
 23  0.000  0.000  0.000  0.000  0.000  0.000  0.000  0.000  0.000  0.000
 24  0.029  0.000  0.000  0.001  0.000  0.000  0.000  0.000  0.000  0.030
 25  0.000  0.000  0.000  0.000  0.000  0.000  0.000  0.000  0.000  0.000
 26  0.000  0.000  0.000  0.000  0.000  0.000  0.000  0.000  0.000  0.000
 27  0.000  0.000  0.000  0.000  0.000  0.000  0.000  0.000  0.000  0.000
 28  0.019  0.001  0.000  0.000  0.000  0.000  0.000  0.000  0.000  0.019
 29  0.000  0.000  0.000  0.000  0.000  0.000  0.000  0.000  0.000  0.000
 30  0.019  0.001  0.000  0.000  0.000  0.000  0.000  0.000  0.000  0.019
 31  0.000  0.000  0.000  0.000  0.000  0.000  0.000  0.000  0.000  0.000
 32  0.000  0.000  0.000  0.000  0.000  0.000  0.000  0.000  0.000  0.000
tot  0.472  0.018  0.001  0.029  0.000  0.000  0.000  0.000  0.000  0.520
 
band  11 # energy  -10.56054040 # occ.  2.00000000
 
ion      s     py     pz     px    dxy    dyz    dz2    dxz    dx2    tot
  1  0.011  0.004  0.005  0.004  0.000  0.000  0.000  0.000  0.000  0.024
  2  0.019  0.007  0.005  0.007  0.000  0.000  0.000  0.000  0.000  0.038
  3  0.118  0.000  0.000  0.000  0.000  0.000  0.000  0.000  0.000  0.118
  4  0.012  0.001  0.005  0.001  0.000  0.000  0.000  0.000  0.000  0.019
  5  0.017  0.007  0.007  0.005  0.000  0.000  0.000  0.000  0.000  0.036
  6  0.018  0.005  0.007  0.007  0.000  0.000  0.000  0.000  0.000  0.037
  7  0.014  0.001  0.001  0.005  0.000  0.000  0.000  0.000  0.000  0.021
  8  0.014  0.005  0.001  0.001  0.000  0.000  0.000  0.000  0.000  0.021
  9  0.019  0.000  0.005  0.000  0.000  0.000  0.000  0.000  0.000  0.025
 10  0.018  0.005  0.000  0.000  0.000  0.000  0.000  0.000  0.000  0.023
 11  0.001  0.001  0.001  0.000  0.000  0.000  0.000  0.000  0.000  0.003
 12  0.017  0.000  0.000  0.004  0.000  0.000  0.000  0.000  0.000  0.022
 13  0.001  0.000  0.001  0.001  0.000  0.000  0.000  0.000  0.000  0.003
 14  0.001  0.001  0.000  0.001  0.000  0.000  0.000  0.000  0.000  0.003
 15  0.007  0.000  0.000  0.000  0.000  0.000  0.000  0.000  0.000  0.007
 16  0.016  0.000  0.000  0.000  0.000  0.000  0.000  0.000  0.000  0.016
 17  0.000  0.000  0.000  0.000  0.000  0.000  0.000  0.000  0.000  0.000
 18  0.001  0.000  0.000  0.000  0.000  0.000  0.000  0.000  0.000  0.001
 19  0.016  0.000  0.000  0.000  0.000  0.000  0.000  0.000  0.000  0.016
 20  0.001  0.000  0.000  0.000  0.000  0.000  0.000  0.000  0.000  0.001
 21  0.007  0.000  0.000  0.000  0.000  0.000  0.000  0.000  0.000  0.007
 22  0.014  0.000  0.000  0.000  0.000  0.000  0.000  0.000  0.000  0.014
 23  0.000  0.000  0.000  0.000  0.000  0.000  0.000  0.000  0.000  0.000
 24  0.014  0.000  0.000  0.000  0.000  0.000  0.000  0.000  0.000  0.014
 25  0.001  0.000  0.000  0.000  0.000  0.000  0.000  0.000  0.000  0.001
 26  0.001  0.000  0.000  0.000  0.000  0.000  0.000  0.000  0.000  0.001
 27  0.007  0.000  0.000  0.000  0.000  0.000  0.000  0.000  0.000  0.007
 28  0.014  0.000  0.000  0.000  0.000  0.000  0.000  0.000  0.000  0.015
 29  0.000  0.000  0.000  0.000  0.000  0.000  0.000  0.000  0.000  0.000
 30  0.014  0.000  0.000  0.000  0.000  0.000  0.000  0.000  0.000  0.015
 31  0.001  0.000  0.000  0.000  0.000  0.000  0.000  0.000  0.000  0.001
 32  0.001  0.000  0.000  0.000  0.000  0.000  0.000  0.000  0.000  0.001
tot  0.397  0.038  0.040  0.038  0.000  0.000  0.000  0.000  0.000  0.513
 
band  12 # energy  -10.56013801 # occ.  2.00000000
 
ion      s     py     pz     px    dxy    dyz    dz2    dxz    dx2    tot
  1  0.000  0.000  0.000  0.000  0.000  0.000  0.000  0.000  0.000  0.001
  2  0.000  0.000  0.000  0.000  0.000  0.000  0.000  0.000  0.000  0.001
  3  0.000  0.004  0.000  0.004  0.000  0.000  0.000  0.000  0.000  0.008
  4  0.001  0.004  0.000  0.004  0.000  0.000  0.000  0.000  0.000  0.009
  5  0.024  0.002  0.003  0.006  0.000  0.000  0.000  0.000  0.000  0.035
  6  0.030  0.008  0.004  0.002  0.000  0.000  0.000  0.000  0.000  0.044
  7  0.070  0.001  0.002  0.000  0.000  0.000  0.000  0.000  0.000  0.073
  8  0.087  0.000  0.002  0.000  0.000  0.000  0.000  0.000  0.000  0.089
  9  0.000  0.010  0.000  0.011  0.000  0.000  0.000  0.000  0.000  0.022
 10  0.030  0.008  0.003  0.001  0.000  0.000  0.000  0.000  0.000  0.041
 11  0.006  0.003  0.002  0.003  0.000  0.000  0.000  0.000  0.000  0.014
 12  0.024  0.003  0.005  0.006  0.000  0.000  0.000  0.000  0.000  0.038
 13  0.008  0.004  0.002  0.004  0.000  0.000  0.000  0.000  0.000  0.018
 14  0.000  0.000  0.000  0.000  0.000  0.000  0.000  0.000  0.000  0.001
 15  0.000  0.000  0.000  0.000  0.000  0.000  0.000  0.000  0.000  0.000
 16  0.000  0.000  0.000  0.000  0.000  0.000  0.000  0.000  0.000  0.000
 17  0.000  0.000  0.000  0.000  0.000  0.000  0.000  0.000  0.000  0.000
 18  0.003  0.000  0.000  0.000  0.000  0.000  0.000  0.000  0.000  0.003
 19  0.000  0.000  0.000  0.000  0.000  0.000  0.000  0.000  0.000  0.000