unknown system                          
           1
    20.231010    0.000000    0.000000
     0.000000   20.231010    0.000000
     0.000000    0.000000   20.231010
   Si   H 
  14  18
Direct configuration=     1
   0.99704441  0.99704414  0.99704360
   0.13420515  0.13420546  0.00671870
   0.06471966  0.06471980  0.06472030
   0.20369407  0.20369423  0.06471954
   0.00671907  0.13420528  0.13420578
   0.13420547  0.00671933  0.13420595
   0.06472001  0.20369415  0.20369431
   0.20369406  0.06472016  0.20369397
   0.13416491  0.13416482  0.26170576
   0.13416556  0.26170620  0.13416515
   0.99701507  0.27138266  0.27138301
   0.26170572  0.13416538  0.13416551
   0.27138359  0.99701498  0.27138305
   0.27138279  0.27138164  0.99701435
   0.01058863  0.01058858  0.92537832
   0.13424862  0.13424872  0.93209438
   0.25789258  0.25789242  0.92540493
   0.01060394  0.25787977  0.34307410
   0.13429669  0.13429665  0.33632857
   0.25787948  0.01060399  0.34307505
   0.92537803  0.01058849  0.01058809
   0.93209387  0.13424867  0.13424859
   0.92540490  0.25789272  0.25789231
   0.33632802  0.13429682  0.13429658
   0.34307415  0.01060399  0.25787975
   0.34307465  0.25787928  0.01060398
   0.01058844  0.92537824  0.01058806
   0.13424861  0.93209369  0.13424854
   0.25789254  0.92540495  0.25789289
   0.13429663  0.33632784  0.13429663
   0.01060406  0.34307491  0.25787917
   0.25787946  0.34307491  0.01060396
