unknown system                          
   1.00000000000000     
     2.573869    0.000000    0.000000
     1.286934    2.229036    0.000000
     0.000000    0.000000   30.304665
   Cu   H 
     4     1
Direct
  0.000000  0.000000  0.395979
  0.333333  0.333333  0.465326
  0.666667  0.666667  0.534674
  0.000000  0.000000  0.604021
  0.705519  0.666667  0.637020
 
   20   20  240
 -.76572E-02 -.71438E-02 -.55713E-02 -.33459E-02 -.10600E-02 0.63624E-03 0.12266E-02 0.57097E-03 -.92823E-03 -.24274E-02
 -.30581E-02 -.24370E-02 -.90586E-03 0.68039E-03 0.14556E-02 0.97479E-03 -.66169E-03 -.29585E-02 -.52657E-02 -.69758E-02
 -.71190E-02 -.60700E-02 -.41563E-02 -.19189E-02 -.64952E-04 0.72170E-03 0.66472E-04 -.18213E-02 -.41037E-02 -.56539E-02
 -.56591E-02 -.41029E-02 -.17758E-02 0.19466E-03 0.95014E-03 0.25195E-03 -.15549E-02 -.38109E-02 -.58196E-02 -.70273E-02
 -.55307E-02 -.41405E-02 -.22360E-02 -.56629E-03 -.56148E-04 -.14372E-02 -.47587E-02 -.90978E-02 -.12800E-01 -.14259E-01
 -.12803E-01 -.90872E-02 -.47057E-02 -.13121E-02 0.15816E-03 -.27249E-03 -.19075E-02 -.38514E-02 -.53603E-02 -.59762E-02
 -.32888E-02 -.18886E-02 -.55482E-03 -.37616E-03 -.25157E-02 -.75162E-02 -.14632E-01 -.21757E-01 -.26242E-01 -.26245E-01
 -.21758E-01 -.14616E-01 -.74594E-02 -.23932E-02 -.17708E-03 -.29686E-03 -.16228E-02 -.30864E-02 -.40072E-02 -.40831E-02
 -.98081E-03 -.18279E-04 -.34914E-04 -.25099E-02 -.86068E-02 -.18154E-01 -.29067E-01 -.37863E-01 -.41249E-01 -.37869E-01
 -.29068E-01 -.18134E-01 -.85467E-02 -.23983E-02 0.12656E-03 0.17020E-03 -.80935E-03 -.17529E-02 -.21498E-02 -.18561E-02
 0.73362E-03 0.78034E-03 -.14102E-02 -.75090E-02 -.18155E-01 -.31876E-01 -.45019E-01 -.53124E-01 -.53125E-01 -.45020E-01
 -.31869E-01 -.18132E-01 -.74630E-02 -.13384E-02 0.87226E-03 0.82875E-03 0.78813E-04 -.47677E-03 -.50436E-03 0.57064E-05
 0.13198E-02 0.12188E-03 -.47337E-02 -.14626E-01 -.29070E-01 -.45023E-01 -.57653E-01 -.62471E-01 -.57647E-01 -.45013E-01
 -.29058E-01 -.14616E-01 -.47237E-02 0.13433E-03 0.13372E-02 0.80210E-03 -.66305E-05 -.34835E-03 -.19927E-04 0.78272E-03
 0.62695E-03 -.17879E-02 -.90825E-02 -.21754E-01 -.37868E-01 -.53131E-01 -.62475E-01 -.62470E-01 -.53118E-01 -.37855E-01
 -.21750E-01 -.90927E-02 -.18080E-02 0.60991E-03 0.42293E-04 -.14980E-02 -.26011E-02 -.26050E-02 -.15034E-02 0.46678E-04
 -.93279E-03 -.41010E-02 -.12795E-01 -.26241E-01 -.41253E-01 -.53132E-01 -.57653E-01 -.53120E-01 -.41240E-01 -.26237E-01
 -.12803E-01 -.41070E-02 -.91768E-03 -.19664E-02 -.50052E-02 -.78410E-02 -.89777E-02 -.78844E-02 -.50655E-02 -.20115E-02
 -.24880E-02 -.56727E-02 -.14258E-01 -.26242E-01 -.37872E-01 -.45026E-01 -.45017E-01 -.37856E-01 -.26236E-01 -.14262E-01
 -.56564E-02 -.24099E-02 -.43470E-02 -.95556E-02 -.15288E-01 -.18966E-01 -.19035E-01 -.15463E-01 -.97594E-02 -.45044E-02
 -.31424E-02 -.56779E-02 -.12797E-01 -.21754E-01 -.29072E-01 -.31875E-01 -.29061E-01 -.21748E-01 -.12800E-01 -.56551E-02
 -.30269E-02 -.59488E-02 -.13421E-01 -.22726E-01 -.30368E-01 -.33399E-01 -.30624E-01 -.23124E-01 -.13806E-01 -.62089E-02
 -.25036E-02 -.41038E-02 -.90734E-02 -.14615E-01 -.18144E-01 -.18143E-01 -.14621E-01 -.90931E-02 -.41069E-02 -.24086E-02
 -.59439E-02 -.14930E-01 -.27387E-01 -.39526E-01 -.47117E-01 -.47323E-01 -.40051E-01 -.28011E-01 -.15438E-01 -.62313E-02
 -.93057E-03 -.17587E-02 -.46949E-02 -.74709E-02 -.85709E-02 -.74858E-02 -.47403E-02 -.18212E-02 -.92717E-03 -.43430E-02
 -.13395E-01 -.27352E-01 -.43001E-01 -.55517E-01 -.60475E-01 -.56005E-01 -.43764E-01 -.28090E-01 -.13890E-01 -.45454E-02
 0.69094E-03 0.21046E-03 -.13232E-02 -.24306E-02 -.24448E-02 -.13822E-02 0.93480E-04 0.57151E-03 -.19891E-02 -.95366E-02
 -.22648E-01 -.39408E-01 -.55419E-01 -.65399E-01 -.65681E-01 -.56138E-01 -.40253E-01 -.23308E-01 -.98557E-02 -.20105E-02
 0.14710E-02 0.93815E-03 0.10815E-03 -.24945E-03 0.50523E-04 0.79741E-03 0.12599E-02 -.28734E-04 -.50366E-02 -.15234E-01
 -.30207E-01 -.46878E-01 -.60237E-01 -.65537E-01 -.60743E-01 -.47650E-01 -.30909E-01 -.15625E-01 -.50789E-02 0.14467E-03
 0.96349E-03 0.19617E-03 -.36521E-03 -.40398E-03 0.62286E-04 0.71692E-03 0.68378E-03 -.15993E-02 -.78700E-02 -.18863E-01
 -.33143E-01 -.46962E-01 -.55638E-01 -.55866E-01 -.47525E-01 -.33753E-01 -.19245E-01 -.79111E-02 -.13778E-02 0.99132E-03
 -.71059E-03 -.16489E-02 -.20298E-02 -.17531E-02 -.94305E-03 -.66205E-04 -.15873E-03 -.27203E-02 -.89932E-02 -.18885E-01
 -.30299E-01 -.39620E-01 -.43339E-01 -.39933E-01 -.30736E-01 -.19190E-01 -.90089E-02 -.24614E-02 0.22931E-03 0.28868E-03
 -.30295E-02 -.39188E-02 -.39784E-02 -.32205E-02 -.18976E-02 -.63984E-03 -.51557E-03 -.27247E-02 -.78833E-02 -.15289E-01
 -.22790E-01 -.27596E-01 -.27705E-01 -.23036E-01 -.15487E-01 -.78683E-02 -.24577E-02 -.89021E-04 -.20247E-03 -.15637E-02
 -.53296E-02 -.59123E-02 -.54677E-02 -.41252E-02 -.22865E-02 -.66346E-03 -.17890E-03 -.16082E-02 -.50538E-02 -.96002E-02
 -.13527E-01 -.15120E-01 -.13623E-01 -.96936E-02 -.50174E-02 -.13724E-02 0.22505E-03 -.19831E-03 -.18767E-02 -.38424E-02
 -.70100E-02 -.70866E-02 -.60501E-02 -.41721E-02 -.19684E-02 -.12873E-03 0.65157E-03 -.34606E-04 -.19998E-02 -.43898E-02
 -.60273E-02 -.60476E-02 -.44177E-02 -.19586E-02 0.14370E-03 0.98030E-03 0.29796E-03 -.15341E-02 -.38156E-02 -.58238E-02
 0.23065E-03 0.25422E-03 0.27395E-03 0.28061E-03 0.26694E-03 0.23482E-03 0.19557E-03 0.16285E-03 0.14439E-03 0.13907E-03
 0.14027E-03 0.14116E-03 0.13826E-03 0.13249E-03 0.12830E-03 0.13099E-03 0.14314E-03 0.16277E-03 0.18529E-03 0.20777E-03
 0.24576E-03 0.28393E-03 0.32140E-03 0.32675E-03 0.27438E-03 0.16029E-03 0.52583E-05 -.15527E-03 -.28519E-03 -.35717E-03
 -.35706E-03 -.28672E-03 -.16546E-03 -.25619E-04 0.98813E-04 0.18487E-03 0.22697E-03 0.23504E-03 0.22805E-03 0.22684E-03
 0.25572E-03 0.31203E-03 0.34529E-03 0.30566E-03 0.16056E-03 -.87018E-04 -.39471E-03 -.69311E-03 -.90826E-03 -.98525E-03
 -.90543E-03 -.69262E-03 -.40557E-03 -.11817E-03 0.10597E-03 0.23410E-03 0.27129E-03 0.25215E-03 0.22263E-03 0.21971E-03
 0.25168E-03 0.30803E-03 0.29715E-03 0.15900E-03 -.13348E-03 -.55593E-03 -.10302E-02 -.14428E-02 -.16822E-02 -.16802E-02
 -.14393E-02 -.10312E-02 -.56803E-03 -.16047E-03 0.11733E-03 0.24580E-03 0.25681E-03 0.21331E-03 0.17977E-03 0.19406E-03
 0.22875E-03 0.24885E-03 0.14658E-03 -.13880E-03 -.61679E-03 -.12263E-02 -.18397E-02 -.22981E-02 -.24683E-02 -.22985E-02
 -.18412E-02 -.12301E-02 -.62510E-03 -.15403E-03 0.12356E-03 0.22071E-03 0.20226E-03 0.15083E-03 0.13164E-03 0.16709E-03
 0.19271E-03 0.13337E-03 -.10164E-03 -.56258E-03 -.12285E-02 -.19890E-02 -.26642E-02 -.30638E-02 -.30651E-02 -.26672E-02
 -.19920E-02 -.12299E-02 -.56236E-03 -.10114E-03 0.13237E-03 0.18976E-03 0.15775E-03 0.11854E-03 0.12004E-03 0.16115E-03
 0.15792E-03 -.16576E-04 -.40536E-03 -.10348E-02 -.18415E-02 -.26645E-02 -.32874E-02 -.35215E-02 -.32905E-02 -.26674E-02
 -.18408E-02 -.10292E-02 -.39548E-03 -.34062E-05 0.17319E-03 0.21001E-03 0.18950E-03 0.17186E-03 0.18032E-03 0.19547E-03
 0.13774E-03 -.16737E-03 -.69769E-03 -.14442E-02 -.22981E-02 -.30629E-02 -.35205E-02 -.35240E-02 -.30692E-02 -.22998E-02
 -.14384E-02 -.68708E-03 -.15431E-03 0.15490E-03 0.29841E-03 0.34624E-03 0.35116E-03 0.34241E-03 0.32546E-03 0.27634E-03
 0.13544E-03 -.28699E-03 -.90803E-03 -.16817E-02 -.24669E-02 -.30625E-02 -.32879E-02 -.30680E-02 -.24726E-02 -.16830E-02
 -.90472E-03 -.28058E-03 0.14632E-03 0.40781E-03 0.55757E-03 0.63303E-03 0.65049E-03 0.61740E-03 0.53585E-03 0.39003E-03
 0.14307E-03 -.35262E-03 -.98382E-03 -.16804E-02 -.22974E-02 -.26640E-02 -.26642E-02 -.22984E-02 -.16832E-02 -.98887E-03
 -.35783E-03 0.14236E-03 0.51170E-03 0.77658E-03 0.95351E-03 0.10412E-02 0.10343E-02 0.93739E-03 0.76078E-03 0.50371E-03
 0.14830E-03 -.35284E-03 -.90659E-03 -.14421E-02 -.18418E-02 -.19899E-02 -.18385E-02 -.14382E-02 -.90644E-03 -.35959E-03
 0.13744E-03 0.57026E-03 0.93971E-03 0.12325E-02 0.14207E-02 0.14803E-02 0.14070E-02 0.12166E-02 0.93372E-03 0.57646E-03
 0.14335E-03 -.28878E-03 -.69806E-03 -.10361E-02 -.12318E-02 -.12290E-02 -.10280E-02 -.68747E-03 -.28277E-03 0.13965E-03
 0.56871E-03 0.99719E-03 0.13913E-02 0.16935E-02 0.18509E-02 0.18400E-02 0.16705E-02 0.13752E-02 0.99709E-03 0.57711E-03
 0.12956E-03 -.17523E-03 -.41357E-03 -.57184E-03 -.62482E-03 -.55983E-03 -.39256E-03 -.15215E-03 0.14717E-03 0.51156E-03
 0.93975E-03 0.13923E-02 0.17925E-02 0.20599E-02 0.21437E-02 0.20348E-02 0.17587E-02 0.13668E-02 0.92584E-03 0.50012E-03
 0.11568E-03 -.38645E-04 -.12393E-03 -.15867E-03 -.14723E-03 -.92132E-04 0.63686E-05 0.16471E-03 0.41674E-03 0.78413E-03
 0.12394E-02 0.17003E-02 0.20651E-02 0.22563E-02 0.22405E-02 0.20249E-02 0.16508E-02 0.11915E-02 0.73880E-03 0.36984E-03
 0.11181E-03 0.90445E-04 0.10820E-03 0.12888E-03 0.14113E-03 0.15311E-03 0.19551E-03 0.32098E-03 0.57896E-03 0.97294E-03
 0.14386E-02 0.18674E-02 0.21574E-02 0.22484E-02 0.21259E-02 0.18131E-02 0.13706E-02 0.89501E-03 0.49174E-03 0.22960E-03
 0.12298E-03 0.18745E-03 0.24786E-03 0.26912E-03 0.25142E-03 0.22571E-03 0.24856E-03 0.38423E-03 0.66796E-03 0.10723E-02
 0.15083E-02 0.18649E-02 0.20555E-02 0.20397E-02 0.18205E-02 0.14408E-02 0.98276E-03 0.55552E-03 0.25543E-03 0.12166E-03
 0.14632E-03 0.24118E-03 0.29580E-03 0.29081E-03 0.24554E-03 0.20875E-03 0.24371E-03 0.40254E-03 0.69477E-03 0.10709E-02
 0.14374E-02 0.16963E-02 0.17804E-02 0.16682E-02 0.13834E-02 0.98986E-03 0.58227E-03 0.26028E-03 0.88922E-04 0.69725E-04
 0.17349E-03 0.25600E-03 0.28273E-03 0.25399E-03 0.20274E-03 0.17989E-03 0.23588E-03 0.39996E-03 0.66223E-03 0.96908E-03
 0.12391E-02 0.13931E-02 0.13834E-02 0.12083E-02 0.91135E-03 0.56864E-03 0.26703E-03 0.75609E-04 0.19880E-04 0.73207E-04
 0.19695E-03 0.24898E-03 0.25321E-03 0.22148E-03 0.18562E-03 0.18332E-03 0.24424E-03 0.37899E-03 0.57172E-03 0.77933E-03
 0.94175E-03 0.10033E-02 0.93629E-03 0.75501E-03 0.51073E-03 0.27185E-03 0.98480E-04 0.22424E-04 0.39129E-04 0.11349E-03
 0.21497E-03 0.24270E-03 0.24548E-03 0.23134E-03 0.21589E-03 0.21706E-03 0.24921E-03 0.31724E-03 0.41174E-03 0.50799E-03
 0.57225E-03 0.57539E-03 0.50787E-03 0.38677E-03 0.24939E-03 0.13659E-03 0.75644E-04 0.71594E-04 0.10980E-03 0.16557E-03
 0.80372E-02 0.75242E-02 0.59534E-02 0.37317E-02 0.14490E-02 -.24911E-03 -.84920E-03 -.20944E-03 0.12737E-02 0.27621E-02
 0.33904E-02 0.27746E-02 0.12550E-02 -.31691E-03 -.10791E-02 -.59048E-03 0.10476E-02 0.33422E-02 0.56470E-02 0.73560E-02
 0.74990E-02 0.64486E-02 0.45390E-02 0.23074E-02 0.45391E-03 -.34147E-03 0.29977E-03 0.21752E-02 0.44501E-02 0.59961E-02
 0.59995E-02 0.44468E-02 0.21304E-02 0.17487E-03 -.56846E-03 0.13488E-03 0.19418E-02 0.41971E-02 0.62054E-02 0.74109E-02
 0.59123E-02 0.45228E-02 0.26204E-02 0.95155E-03 0.43713E-03 0.18082E-02 0.51182E-02 0.94497E-02 0.13150E-01 0.14610E-01
 0.13156E-01 0.94420E-02 0.50656E-02 0.16809E-02 0.22018E-03 0.65707E-03 0.22940E-02 0.42369E-02 0.57443E-02 0.63587E-02
 0.36751E-02 0.22769E-02 0.93917E-03 0.75405E-03 0.28879E-02 0.78829E-02 0.14992E-01 0.22110E-01 0.26593E-01 0.26599E-01
 0.22117E-01 0.14977E-01 0.78215E-02 0.27603E-02 0.55365E-03 0.68156E-03 0.20086E-02 0.34677E-02 0.43853E-02 0.44638E-02
 0.13716E-02 0.40713E-03 0.41387E-03 0.28801E-02 0.89739E-02 0.18519E-01 0.29424E-01 0.38211E-01 0.41593E-01 0.38218E-01
 0.29424E-01 0.18494E-01 0.89094E-02 0.27682E-02 0.25455E-03 0.21781E-03 0.11942E-02 0.21301E-02 0.25256E-02 0.22394E-02
 -.34472E-03 -.40027E-03 0.17789E-02 0.78728E-02 0.18518E-01 0.32233E-01 0.45362E-01 0.53456E-01 0.53458E-01 0.45364E-01
 0.32224E-01 0.18491E-01 0.78260E-02 0.17112E-02 -.48798E-03 -.44099E-03 0.30272E-03 0.85224E-03 0.88292E-03 0.38125E-03
 -.94211E-03 0.24391E-03 0.50921E-02 0.14985E-01 0.29427E-01 0.45366E-01 0.57976E-01 0.62786E-01 0.57973E-01 0.45358E-01
 0.29416E-01 0.14975E-01 0.50836E-02 0.23319E-03 -.96021E-03 -.42295E-03 0.38150E-03 0.72175E-03 0.39861E-03 -.39972E-03
 -.26614E-03 0.21413E-02 0.94350E-02 0.22109E-01 0.38217E-01 0.53462E-01 0.62789E-01 0.62783E-01 0.53448E-01 0.38205E-01
 0.22109E-01 0.94483E-02 0.21596E-02 -.25495E-03 0.31990E-03 0.18642E-02 0.29676E-02 0.29723E-02 0.18729E-02 0.32139E-03
 0.12785E-02 0.44476E-02 0.13147E-01 0.26595E-01 0.41600E-01 0.53466E-01 0.57978E-01 0.53449E-01 0.41581E-01 0.26588E-01
 0.13155E-01 0.44543E-02 0.12618E-02 0.23129E-02 0.53573E-02 0.81980E-02 0.93369E-02 0.82432E-02 0.54209E-02 0.23614E-02
 0.28250E-02 0.60160E-02 0.14610E-01 0.26597E-01 0.38222E-01 0.45371E-01 0.45362E-01 0.38205E-01 0.26586E-01 0.14607E-01
 0.59970E-02 0.27505E-02 0.46920E-02 0.99049E-02 0.15639E-01 0.19319E-01 0.19390E-01 0.15816E-01 0.10107E-01 0.48438E-02
 0.34775E-02 0.60198E-02 0.13149E-01 0.22111E-01 0.29428E-01 0.32231E-01 0.29419E-01 0.22107E-01 0.13150E-01 0.59937E-02
 0.33619E-02 0.62916E-02 0.13774E-01 0.23082E-01 0.30719E-01 0.33747E-01 0.30975E-01 0.23478E-01 0.14155E-01 0.65482E-02
 0.28426E-02 0.44486E-02 0.94277E-02 0.14974E-01 0.18504E-01 0.18503E-01 0.14981E-01 0.94487E-02 0.44519E-02 0.27458E-02
 0.62844E-02 0.15282E-01 0.27744E-01 0.39877E-01 0.47458E-01 0.47663E-01 0.40400E-01 0.28367E-01 0.15791E-01 0.65748E-02
 0.12788E-02 0.21133E-02 0.50548E-02 0.78327E-02 0.89338E-02 0.78499E-02 0.51014E-02 0.21730E-02 0.12695E-02 0.46849E-02
 0.13745E-01 0.27707E-01 0.43349E-01 0.55849E-01 0.60799E-01 0.56337E-01 0.44111E-01 0.28445E-01 0.14242E-01 0.48926E-02
 -.32846E-03 0.15855E-03 0.16921E-02 0.27984E-02 0.28160E-02 0.17563E-02 0.27476E-03 -.21654E-03 0.23351E-02 0.98850E-02
 0.23002E-01 0.39757E-01 0.55750E-01 0.65715E-01 0.65999E-01 0.56471E-01 0.40600E-01 0.23658E-01 0.10204E-01 0.23633E-02
 -.10935E-02 -.55690E-03 0.26936E-03 0.62641E-03 0.33241E-03 -.41140E-03 -.88257E-03 0.39073E-03 0.53895E-02 0.15587E-01
 0.30559E-01 0.47217E-01 0.60559E-01 0.65853E-01 0.61070E-01 0.47992E-01 0.31259E-01 0.15974E-01 0.54309E-02 0.21957E-03
 -.57626E-03 0.19057E-03 0.74800E-03 0.78813E-03 0.32749E-03 -.32697E-03 -.30411E-03 0.19650E-02 0.82278E-02 0.19219E-01
 0.33494E-01 0.47302E-01 0.55968E-01 0.56197E-01 0.47867E-01 0.34106E-01 0.19601E-01 0.82682E-02 0.17427E-02 -.61315E-03
 0.10995E-02 0.20360E-02 0.24144E-02 0.21381E-02 0.13294E-02 0.44998E-03 0.53421E-03 0.30857E-02 0.93521E-02 0.19241E-01
 0.30654E-01 0.39970E-01 0.43685E-01 0.40279E-01 0.31085E-01 0.19546E-01 0.93712E-02 0.28311E-02 0.14905E-03 0.97252E-04
 0.34148E-02 0.43053E-02 0.43632E-02 0.36012E-02 0.22755E-02 0.10166E-02 0.88924E-03 0.30905E-02 0.82401E-02 0.15642E-01
 0.23146E-01 0.27955E-01 0.28061E-01 0.23386E-01 0.15835E-01 0.82246E-02 0.28268E-02 0.46794E-03 0.58515E-03 0.19474E-02
 0.57113E-02 0.62986E-02 0.58519E-02 0.45030E-02 0.26616E-02 0.10416E-02 0.55723E-03 0.19766E-02 0.54068E-02 0.99450E-02
 0.13875E-01 0.15475E-01 0.13978E-01 0.10044E-01 0.53682E-02 0.17346E-02 0.15098E-03 0.57999E-03 0.22559E-02 0.42199E-02
 0.73903E-02 0.74708E-02 0.64333E-02 0.45522E-02 0.23497E-02 0.51375E-03 -.26924E-03 0.40255E-03 0.23482E-02 0.47260E-02
 0.63638E-02 0.63910E-02 0.47671E-02 0.23129E-02 0.21886E-03 -.60624E-03 0.84152E-04 0.19159E-02 0.41928E-02 0.61998E-02
 0.29736E-04 0.25653E-04 0.45658E-04 0.73069E-04 0.98195E-04 0.12334E-03 0.15516E-03 0.19467E-03 0.23444E-03 0.26340E-03
 0.27346E-03 0.26401E-03 0.24302E-03 0.22357E-03 0.21521E-03 0.21501E-03 0.20744E-03 0.17688E-03 0.12334E-03 0.66071E-04
 0.32724E-04 0.19904E-04 0.17911E-04 0.35296E-04 0.90287E-04 0.20141E-03 0.36962E-03 0.56711E-03 0.74359E-03 0.84698E-03
 0.84623E-03 0.74474E-03 0.57861E-03 0.40075E-03 0.25716E-03 0.16776E-03 0.12318E-03 0.99345E-04 0.77455E-04 0.53485E-04
 0.61617E-04 0.26180E-04 0.95494E-05 0.56788E-04 0.21455E-03 0.50265E-03 0.88939E-03 0.12898E-02 0.15929E-02 0.17053E-02
 0.15916E-02 0.12905E-02 0.89868E-03 0.52861E-03 0.26141E-03 0.12036E-03 0.77294E-04 0.82297E-04 0.93104E-04 0.87570E-04
 0.10003E-03 0.52215E-04 0.63653E-04 0.21724E-03 0.57410E-03 0.11270E-02 0.17792E-02 0.23662E-02 0.27154E-02 0.27152E-02
 0.23647E-02 0.17768E-02 0.11305E-02 0.59316E-03 0.25475E-03 0.11068E-03 0.94027E-04 0.12647E-03 0.15183E-03 0.14316E-03
 0.13515E-03 0.11353E-03 0.22503E-03 0.57675E-03 0.12148E-02 0.20702E-02 0.29569E-02 0.36308E-02 0.38844E-02 0.36337E-02
 0.29575E-02 0.20670E-02 0.12148E-02 0.58858E-03 0.24818E-03 0.13798E-03 0.15135E-03 0.19456E-03 0.21300E-03 0.18805E-03
 0.16407E-03 0.22575E-03 0.51317E-03 0.11298E-02 0.20704E-02 0.31783E-02 0.41775E-02 0.47745E-02 0.47782E-02 0.41846E-02
 0.31813E-02 0.20680E-02 0.11270E-02 0.51465E-03 0.22977E-03 0.16577E-03 0.19630E-03 0.23274E-03 0.23414E-03 0.19799E-03
 0.19054E-03 0.38910E-03 0.89744E-03 0.17815E-02 0.29572E-02 0.41773E-02 0.51070E-02 0.54581E-02 0.51140E-02 0.41846E-02
 0.29588E-02 0.17768E-02 0.88936E-03 0.37840E-03 0.17589E-03 0.14829E-03 0.17874E-03 0.20049E-03 0.19072E-03 0.16515E-03
 0.21764E-03 0.57797E-03 0.12944E-02 0.23684E-02 0.36314E-02 0.47735E-02 0.54566E-02 0.54595E-02 0.47791E-02 0.36340E-02
 0.23651E-02 0.12859E-02 0.56419E-03 0.19679E-03 0.72356E-04 0.63621E-04 0.84227E-04 0.94274E-04 0.88023E-04 0.99177E-04
 0.24359E-03 0.74590E-03 0.15942E-02 0.27170E-02 0.38846E-02 0.47759E-02 0.51107E-02 0.47770E-02 0.38854E-02 0.27162E-02
 0.15909E-02 0.73828E-03 0.22861E-03 -.12409E-05 -.67518E-04 -.67811E-04 -.55814E-04 -.50422E-04 -.41813E-04 0.21870E-04
 0.26278E-03 0.84443E-03 0.17051E-02 0.27163E-02 0.36331E-02 0.41816E-02 0.41809E-02 0.36315E-02 0.27154E-02 0.17066E-02
 0.84756E-03 0.26265E-03 -.52004E-04 -.17649E-03 -.20222E-03 -.19428E-03 -.18586E-03 -.18266E-03 -.15783E-03 -.42748E-04
 0.27001E-03 0.84436E-03 0.15928E-02 0.23665E-02 0.29573E-02 0.31796E-02 0.29570E-02 0.23643E-02 0.15906E-02 0.84732E-03
 0.27902E-03 -.71656E-04 -.23973E-03 -.29038E-03 -.28494E-03 -.26853E-03 -.26508E-03 -.26776E-03 -.23088E-03 -.77488E-04
 0.26449E-03 0.74816E-03 0.12956E-02 0.17804E-02 0.20682E-02 0.20683E-02 0.17775E-02 0.12866E-02 0.73826E-03 0.26182E-03
 -.72612E-04 -.25841E-03 -.32748E-03 -.32505E-03 -.29713E-03 -.28130E-03 -.29090E-03 -.30064E-03 -.25082E-03 -.74780E-04
 0.25141E-03 0.58830E-03 0.90664E-03 0.11345E-02 0.12157E-02 0.11269E-02 0.88923E-03 0.56331E-03 0.22650E-03 -.55065E-04
 -.24337E-03 -.33086E-03 -.33636E-03 -.29884E-03 -.26437E-03 -.26293E-03 -.28697E-03 -.29103E-03 -.21786E-03 -.33741E-04
 0.23898E-03 0.41285E-03 0.53445E-03 0.59277E-03 0.58445E-03 0.50890E-03 0.37150E-03 0.18887E-03 -.95353E-05 -.18500E-03
 -.30012E-03 -.33613E-03 -.30762E-03 -.25883E-03 -.23544E-03 -.24967E-03 -.26892E-03 -.24054E-03 -.13303E-03 0.41523E-04
 0.23187E-03 0.26488E-03 0.25891E-03 0.24474E-03 0.23400E-03 0.21275E-03 0.15643E-03 0.52078E-04 -.86525E-04 -.22017E-03
 -.30453E-03 -.31953E-03 -.28560E-03 -.24827E-03 -.23900E-03 -.24595E-03 -.22450E-03 -.13994E-03 -.25675E-05 0.13791E-03
 0.22550E-03 0.16569E-03 0.10641E-03 0.88886E-04 0.11121E-03 0.13440E-03 0.11318E-03 0.28201E-04 -.99990E-04 -.22343E-03
 -.29821E-03 -.31333E-03 -.29372E-03 -.27264E-03 -.25704E-03 -.21995E-03 -.13002E-03 0.89477E-05 0.14863E-03 0.22916E-03
 0.20771E-03 0.11091E-03 0.53923E-04 0.62549E-04 0.11292E-03 0.15098E-03 0.12895E-03 0.35489E-04 -.98596E-04 -.22236E-03
 -.29870E-03 -.32413E-03 -.31826E-03 -.29439E-03 -.24151E-03 -.13824E-03 0.13824E-04 0.17246E-03 0.27493E-03 0.28193E-03
 0.16904E-03 0.81361E-04 0.54826E-04 0.89738E-04 0.14787E-03 0.17719E-03 0.14132E-03 0.39291E-04 -.95495E-04 -.21723E-03
 -.29525E-03 -.32492E-03 -.31408E-03 -.26240E-03 -.15928E-03 -.55584E-05 0.16514E-03 0.29356E-03 0.33086E-03 0.27393E-03
 0.11356E-03 0.59774E-04 0.66678E-04 0.11436E-03 0.16309E-03 0.17510E-03 0.13097E-03 0.36986E-04 -.78760E-04 -.18113E-03
 -.24507E-03 -.26181E-03 -.23085E-03 -.15068E-03 -.23372E-04 0.12985E-03 0.26338E-03 0.32737E-03 0.30122E-03 0.21104E-03
 0.59934E-04 0.40259E-04 0.65417E-04 0.10900E-03 0.14133E-03 0.14418E-03 0.11438E-03 0.60738E-04 -.57478E-06 -.51723E-04
 -.79263E-04 -.76634E-04 -.41656E-04 0.25412E-04 0.11706E-03 0.21096E-03 0.27250E-03 0.27340E-03 0.21393E-03 0.12746E-03
 -.76898E-02 -.71668E-02 -.55777E-02 -.33459E-02 -.10665E-02 0.62299E-03 0.12171E-02 0.57115E-03 -.92496E-03 -.24298E-02
 -.30655E-02 -.24413E-02 -.90475E-03 0.67968E-03 0.14471E-02 0.96303E-03 -.66776E-03 -.29599E-02 -.52748E-02 -.70008E-02
 -.71426E-02 -.60836E-02 -.41619E-02 -.19263E-02 -.77983E-04 0.70977E-03 0.62145E-04 -.18219E-02 -.41098E-02 -.56667E-02
 -.56694E-02 -.41035E-02 -.17721E-02 0.19107E-03 0.93628E-03 0.23684E-03 -.15630E-02 -.38160E-02 -.58326E-02 -.70506E-02
 -.55383E-02 -.41467E-02 -.22461E-02 -.58313E-03 -.74118E-04 -.14478E-02 -.47613E-02 -.91015E-02 -.12813E-01 -.14278E-01
 -.12818E-01 -.90928E-02 -.47086E-02 -.13215E-02 0.14175E-03 -.28831E-03 -.19172E-02 -.38573E-02 -.53677E-02 -.59854E-02
 -.32901E-02 -.18971E-02 -.57236E-03 -.39815E-03 -.25340E-02 -.75263E-02 -.14637E-01 -.21764E-01 -.26256E-01 -.26261E-01
 -.21773E-01 -.14628E-01 -.74728E-02 -.24095E-02 -.19400E-03 -.31034E-03 -.16308E-02 -.30897E-02 -.40073E-02 -.40819E-02
 -.98813E-03 -.32434E-04 -.54112E-04 -.25289E-02 -.86214E-02 -.18165E-01 -.29076E-01 -.37872E-01 -.41258E-01 -.37876E-01
 -.29076E-01 -.18147E-01 -.85644E-02 -.24176E-02 0.11049E-03 0.15955E-03 -.81533E-03 -.17560E-02 -.21516E-02 -.18589E-02
 0.72052E-03 0.76786E-03 -.14220E-02 -.75203E-02 -.18166E-01 -.31886E-01 -.45028E-01 -.53130E-01 -.53129E-01 -.45023E-01
 -.31874E-01 -.18141E-01 -.74755E-02 -.13527E-02 0.85939E-03 0.81894E-03 0.70950E-04 -.48526E-03 -.51513E-03 -.69738E-05
 0.13113E-02 0.11793E-03 -.47370E-02 -.14633E-01 -.29080E-01 -.45032E-01 -.57657E-01 -.62472E-01 -.57650E-01 -.45019E-01
 -.29066E-01 -.14621E-01 -.47266E-02 0.13086E-03 0.13303E-02 0.79170E-03 -.19352E-04 -.36250E-03 -.34614E-04 0.76979E-03
 0.62811E-03 -.17875E-02 -.90861E-02 -.21763E-01 -.37878E-01 -.53138E-01 -.62476E-01 -.62470E-01 -.53122E-01 -.37866E-01
 -.21763E-01 -.90989E-02 -.18056E-02 0.61505E-03 0.41736E-04 -.15077E-02 -.26161E-02 -.26185E-02 -.15111E-02 0.44765E-04
 -.92942E-03 -.41062E-02 -.12808E-01 -.26255E-01 -.41263E-01 -.53137E-01 -.57656E-01 -.53125E-01 -.41248E-01 -.26250E-01
 -.12816E-01 -.41157E-02 -.91808E-03 -.19617E-02 -.50035E-02 -.78476E-02 -.89895E-02 -.78929E-02 -.50651E-02 -.20054E-02
 -.24914E-02 -.56852E-02 -.14276E-01 -.26258E-01 -.37881E-01 -.45031E-01 -.45024E-01 -.37867E-01 -.26249E-01 -.14273E-01
 -.56664E-02 -.24195E-02 -.43546E-02 -.95590E-02 -.15289E-01 -.18969E-01 -.19042E-01 -.15470E-01 -.97619E-02 -.45038E-02
 -.31509E-02 -.56882E-02 -.12811E-01 -.21768E-01 -.29081E-01 -.31882E-01 -.29069E-01 -.21761E-01 -.12813E-01 -.56648E-02
 -.30342E-02 -.59584E-02 -.13434E-01 -.22737E-01 -.30373E-01 -.33400E-01 -.30628E-01 -.23136E-01 -.13820E-01 -.62203E-02
 -.25082E-02 -.41042E-02 -.90786E-02 -.14626E-01 -.18157E-01 -.18152E-01 -.14625E-01 -.90988E-02 -.41150E-02 -.24175E-02
 -.59530E-02 -.14942E-01 -.27401E-01 -.39538E-01 -.47123E-01 -.47325E-01 -.40057E-01 -.28027E-01 -.15458E-01 -.62462E-02
 -.92879E-03 -.17544E-02 -.46976E-02 -.74841E-02 -.85882E-02 -.74972E-02 -.47419E-02 -.18179E-02 -.92679E-03 -.43496E-02
 -.13407E-01 -.27365E-01 -.43012E-01 -.55523E-01 -.60478E-01 -.56008E-01 -.43771E-01 -.28103E-01 -.13903E-01 -.45524E-02
 0.69113E-03 0.20739E-03 -.13329E-02 -.24474E-02 -.24641E-02 -.13956E-02 0.91106E-04 0.57751E-03 -.19838E-02 -.95393E-02
 -.22659E-01 -.39419E-01 -.55426E-01 -.65401E-01 -.65682E-01 -.56141E-01 -.40258E-01 -.23312E-01 -.98576E-02 -.20103E-02
 0.14626E-02 0.92408E-03 0.90936E-04 -.26748E-03 0.33565E-04 0.78415E-03 0.12531E-02 -.29086E-04 -.50346E-02 -.15235E-01
 -.30212E-01 -.46884E-01 -.60240E-01 -.65538E-01 -.60745E-01 -.47653E-01 -.30913E-01 -.15627E-01 -.50789E-02 0.14206E-03
 0.95079E-03 0.18019E-03 -.38194E-03 -.41854E-03 0.50347E-04 0.70585E-03 0.67258E-03 -.16091E-02 -.78763E-02 -.18866E-01
 -.33145E-01 -.46965E-01 -.55642E-01 -.55871E-01 -.47529E-01 -.33758E-01 -.19252E-01 -.79191E-02 -.13862E-02 0.98171E-03
 -.71802E-03 -.16578E-02 -.20398E-02 -.17615E-02 -.94989E-03 -.75216E-04 -.17209E-03 -.27350E-02 -.90043E-02 -.18891E-01
 -.30305E-01 -.39628E-01 -.43347E-01 -.39939E-01 -.30739E-01 -.19196E-01 -.90219E-02 -.24783E-02 0.21477E-03 0.27916E-03
 -.30318E-02 -.39240E-02 -.39838E-02 -.32231E-02 -.19008E-02 -.64888E-03 -.52980E-03 -.27372E-02 -.78901E-02 -.15295E-01
 -.22801E-01 -.27613E-01 -.27719E-01 -.23041E-01 -.15488E-01 -.78755E-02 -.24740E-02 -.10662E-03 -.21265E-03 -.15667E-02
 -.53389E-02 -.59247E-02 -.54738E-02 -.41240E-02 -.22878E-02 -.67449E-03 -.19365E-03 -.16150E-02 -.50515E-02 -.96007E-02
 -.13540E-01 -.15140E-01 -.13637E-01 -.96957E-02 -.50169E-02 -.13797E-02 0.21162E-03 -.20782E-03 -.18788E-02 -.38445E-02
 -.70348E-02 -.71090E-02 -.60578E-02 -.41695E-02 -.19705E-02 -.14175E-03 0.63799E-03 -.36495E-04 -.19924E-02 -.43872E-02
 -.60369E-02 -.60618E-02 -.44251E-02 -.19590E-02 0.14117E-03 0.97172E-03 0.28990E-03 -.15359E-02 -.38172E-02 -.58368E-02
 0.40495E-03 0.40793E-03 0.38275E-03 0.34133E-03 0.29952E-03 0.26544E-03 0.22889E-03 0.16953E-03 0.83342E-04 -.32505E-07
 -.35018E-04 -.10137E-05 0.75692E-04 0.14464E-03 0.17626E-03 0.18316E-03 0.19956E-03 0.24509E-03 0.31019E-03 0.37006E-03
 0.40026E-03 0.40525E-03 0.39586E-03 0.36433E-03 0.29680E-03 0.17312E-03 -.21688E-04 -.27310E-03 -.52059E-03 -.67560E-03
 -.67279E-03 -.51588E-03 -.27649E-03 -.45187E-04 0.12266E-03 0.22375E-03 0.28380E-03 0.32620E-03 0.35975E-03 0.38470E-03
 0.36600E-03 0.38683E-03 0.38509E-03 0.31892E-03 0.13699E-03 -.19766E-03 -.67045E-03 -.11890E-02 -.16000E-02 -.17563E-02
 -.15977E-02 -.11879E-02 -.67745E-03 -.22019E-03 0.95829E-04 0.26397E-03 0.32799E-03 0.34077E-03 0.34067E-03 0.34754E-03
 0.31512E-03 0.34669E-03 0.31076E-03 0.11983E-03 -.30635E-03 -.98445E-03 -.18173E-02 -.25949E-02 -.30687E-02 -.30695E-02
 -.25973E-02 -.18218E-02 -.99328E-03 -.32313E-03 0.92936E-04 0.27588E-03 0.31093E-03 0.28814E-03 0.26862E-03 0.27867E-03
 0.26601E-03 0.27390E-03 0.12423E-03 -.31132E-03 -.11069E-02 -.22031E-02 -.33731E-02 -.42819E-02 -.46261E-02 -.42832E-02
 -.33750E-02 -.22057E-02 -.11120E-02 -.32093E-03 0.10979E-03 0.25726E-03 0.25153E-03 0.20579E-03 0.18665E-03 0.21414E-03
 0.22989E-03 0.15051E-03 -.21010E-03 -.99056E-03 -.22055E-02 -.36700E-02 -.50179E-02 -.58318E-02 -.58328E-02 -.50189E-02
 -.36687E-02 -.22023E-02 -.98895E-03 -.21131E-03 0.14943E-03 0.23235E-03 0.19412E-03 0.14660E-03 0.14404E-03 0.18920E-03
 0.19814E-03 -.38695E-04 -.67870E-03 -.18216E-02 -.33757E-02 -.50189E-02 -.62875E-02 -.67672E-02 -.62905E-02 -.50210E-02
 -.33733E-02 -.18148E-02 -.66914E-03 -.26835E-04 0.21285E-03 0.22802E-03 0.17402E-03 0.14234E-03 0.16354E-03 0.21252E-03
 0.14905E-03 -.28177E-03 -.11920E-02 -.25964E-02 -.42830E-02 -.58322E-02 -.67670E-02 -.67689E-02 -.58366E-02 -.42862E-02
 -.25949E-02 -.11836E-02 -.26632E-03 0.16998E-03 0.27821E-03 0.23793E-03 0.18173E-03 0.17506E-03 0.22044E-03 0.25590E-03
 0.74765E-04 -.52163E-03 -.15993E-02 -.30684E-02 -.46255E-02 -.58313E-02 -.62889E-02 -.58359E-02 -.46298E-02 -.30687E-02
 -.15965E-02 -.51682E-03 0.84730E-04 0.29758E-03 0.28610E-03 0.20491E-03 0.15793E-03 0.18610E-03 0.26067E-03 0.27824E-03
 0.31578E-06 -.67251E-03 -.17550E-02 -.30695E-02 -.42820E-02 -.50162E-02 -.50185E-02 -.42854E-02 -.30691E-02 -.17528E-02
 -.67440E-03 -.35744E-05 0.27083E-03 0.27293E-03 0.15682E-03 0.52307E-04 0.38640E-04 0.12732E-03 0.24983E-03 0.26489E-03
 -.31974E-04 -.67038E-03 -.15989E-02 -.25995E-02 -.33751E-02 -.36665E-02 -.33714E-02 -.25948E-02 -.15978E-02 -.67543E-03
 -.38465E-04 0.24325E-03 0.22699E-03 0.45116E-04 -.15182E-03 -.24333E-03 -.17652E-03 0.12808E-04 0.20613E-03 0.24000E-03
 -.18377E-05 -.51826E-03 -.11930E-02 -.18264E-02 -.22075E-02 -.22016E-02 -.18139E-02 -.11840E-02 -.51807E-03 -.45325E-05
 0.24327E-03 0.20688E-03 -.40922E-04 -.35814E-03 -.58199E-03 -.59827E-03 -.39800E-03 -.83724E-04 0.17933E-03 0.23552E-03
 0.67447E-04 -.28479E-03 -.68504E-03 -.99798E-03 -.11131E-02 -.98784E-03 -.66742E-03 -.26483E-03 0.86081E-04 0.27275E-03
 0.23016E-03 -.37372E-04 -.43820E-03 -.80690E-03 -.97196E-03 -.85043E-03 -.50138E-03 -.92422E-04 0.19506E-03 0.25142E-03
 0.13043E-03 -.56351E-04 -.22642E-03 -.32372E-03 -.31723E-03 -.20536E-03 -.19986E-04 0.17723E-03 0.30529E-03 0.28186E-03
 0.56280E-04 -.34548E-03 -.79717E-03 -.11113E-02 -.11392E-02 -.86628E-03 -.42531E-03 -.12793E-04 0.22537E-03 0.25427E-03
 0.16164E-03 0.11451E-03 0.95800E-04 0.10045E-03 0.12262E-03 0.16522E-03 0.23000E-03 0.29584E-03 0.30430E-03 0.17694E-03
 -.12824E-03 -.55583E-03 -.94822E-03 -.11251E-02 -.99981E-03 -.64071E-03 -.22344E-03 0.85295E-04 0.21915E-03 0.21714E-03
 0.17430E-03 0.22377E-03 0.27326E-03 0.29339E-03 0.28146E-03 0.26134E-03 0.25931E-03 0.26925E-03 0.23590E-03 0.84866E-04
 -.20726E-03 -.55987E-03 -.81488E-03 -.84004E-03 -.62769E-03 -.30076E-03 -.19634E-04 0.12722E-03 0.15955E-03 0.15515E-03
 0.19930E-03 0.29312E-03 0.34620E-03 0.33749E-03 0.28654E-03 0.23635E-03 0.21957E-03 0.22606E-03 0.19931E-03 0.78931E-04
 -.13497E-03 -.35594E-03 -.46282E-03 -.39463E-03 -.20297E-03 -.97241E-05 0.91597E-04 0.10015E-03 0.86078E-04 0.11603E-03
 0.25157E-03 0.34163E-03 0.36450E-03 0.32064E-03 0.24839E-03 0.19809E-03 0.19714E-03 0.22615E-03 0.22991E-03 0.16528E-03
 0.48198E-04 -.49611E-04 -.60796E-04 0.14674E-04 0.10756E-03 0.14306E-03 0.10798E-03 0.57380E-04 0.59655E-04 0.13682E-03
 0.31867E-03 0.37626E-03 0.36551E-03 0.30298E-03 0.23171E-03 0.19753E-03 0.21841E-03 0.26825E-03 0.29678E-03 0.27557E-03
 0.22635E-03 0.19846E-03 0.21525E-03 0.24674E-03 0.24019E-03 0.17723E-03 0.97193E-04 0.63497E-04 0.10915E-03 0.21268E-03
 0.37584E-03 0.39812E-03 0.36974E-03 0.31078E-03 0.25586E-03 0.23656E-03 0.25796E-03 0.29157E-03 0.30022E-03 0.27518E-03
 0.24478E-03 0.24155E-03 0.26283E-03 0.27109E-03 0.23576E-03 0.17041E-03 0.12421E-03 0.13801E-03 0.21071E-03 0.30464E-03
 0.80062E-02 0.74977E-02 0.59362E-02 0.37198E-02 0.14362E-02 -.26262E-03 -.85757E-03 -.20938E-03 0.12785E-02 0.27658E-02
 0.33917E-02 0.27764E-02 0.12578E-02 -.31689E-03 -.10856E-02 -.60171E-03 0.10362E-02 0.33309E-02 0.56303E-02 0.73299E-02
 0.74722E-02 0.64311E-02 0.45277E-02 0.22954E-02 0.43942E-03 -.35287E-03 0.29622E-03 0.21772E-02 0.44518E-02 0.59961E-02
 0.60015E-02 0.44524E-02 0.21351E-02 0.17217E-03 -.57882E-03 0.12230E-03 0.19300E-02 0.41820E-02 0.61818E-02 0.73811E-02