unknown system                          
   1.00000000000000     
     2.573869    0.000000    0.000000
     1.286934    2.229036    0.000000
     0.000000    0.000000   30.304665
   Cu   H 
     4     1
Direct
  0.000000  0.000000  0.395979
  0.333333  0.333333  0.465326
  0.666667  0.666667  0.534674
  0.000000  0.000000  0.604021
  0.705519  0.666667  0.637020
 
   20   20  240
 -.76571685696E-02 -.71437859401E-02 -.55712856937E-02 -.33459210566E-02 -.10600271538E-02
 0.63624353001E-03 0.12265501032E-02 0.57097442885E-03 -.92823057030E-03 -.24273628583E-02
 -.30581345818E-02 -.24369959353E-02 -.90586411207E-03 0.68039304532E-03 0.14556266331E-02
 0.97479073079E-03 -.66169015298E-03 -.29584683351E-02 -.52657370188E-02 -.69758287261E-02
 -.71190394368E-02 -.60700026287E-02 -.41563367979E-02 -.19189084815E-02 -.64952455688E-04
 0.72169589495E-03 0.66471788301E-04 -.18212871896E-02 -.41036846868E-02 -.56538961177E-02
 -.56590871519E-02 -.41029053587E-02 -.17758420264E-02 0.19465552711E-03 0.95014162672E-03
 0.25194572291E-03 -.15548917353E-02 -.38108630165E-02 -.58195998063E-02 -.70272550338E-02
 -.55307392877E-02 -.41405048327E-02 -.22360109405E-02 -.56629108641E-03 -.56148405008E-04
 -.14372323583E-02 -.47587132037E-02 -.90978083820E-02 -.12799850842E-01 -.14258733754E-01
 -.12803071917E-01 -.90871595589E-02 -.47056515346E-02 -.13120945102E-02 0.15816492737E-03
 -.27248721602E-03 -.19075484236E-02 -.38513730375E-02 -.53603073585E-02 -.59761922494E-02
 -.32888111449E-02 -.18886396198E-02 -.55481986681E-03 -.37616291593E-03 -.25157372550E-02
 -.75161761389E-02 -.14631692926E-01 -.21756838089E-01 -.26242422085E-01 -.26244769898E-01
 -.21758383673E-01 -.14616258454E-01 -.74594499085E-02 -.23932052624E-02 -.17708348679E-03
 -.29685882024E-03 -.16228031836E-02 -.30864326576E-02 -.40072436240E-02 -.40831052989E-02
 -.98080982724E-03 -.18278871408E-04 -.34913628767E-04 -.25098944449E-02 -.86067507939E-02
 -.18154359809E-01 -.29066796275E-01 -.37863135023E-01 -.41248988099E-01 -.37868663145E-01
 -.29067577537E-01 -.18133587059E-01 -.85466529347E-02 -.23983085766E-02 0.12656343344E-03
 0.17020054219E-03 -.80934599509E-03 -.17529372481E-02 -.21498236429E-02 -.18561316645E-02
 0.73361899697E-03 0.78033735151E-03 -.14101945999E-02 -.75089542483E-02 -.18154987423E-01
 -.31876039540E-01 -.45019276277E-01 -.53123989170E-01 -.53125008590E-01 -.45019667155E-01
 -.31868966238E-01 -.18132048817E-01 -.74629686436E-02 -.13383901601E-02 0.87226406467E-03
 0.82875332515E-03 0.78813134735E-04 -.47677302115E-03 -.50435947404E-03 0.57063852807E-05
 0.13197781768E-02 0.12188072890E-03 -.47337431244E-02 -.14626363881E-01 -.29070238763E-01
 -.45023125981E-01 -.57653155495E-01 -.62470962769E-01 -.57647239318E-01 -.45012818839E-01
 -.29058402716E-01 -.14615563945E-01 -.47237439806E-02 0.13433482790E-03 0.13371536391E-02
 0.80210076835E-03 -.66305017015E-05 -.34834512314E-03 -.19926689674E-04 0.78271544088E-03
 0.62695428037E-03 -.17878850328E-02 -.90824824903E-02 -.21754468116E-01 -.37868084867E-01
 -.53130571003E-01 -.62474887107E-01 -.62470155935E-01 -.53118417881E-01 -.37855084750E-01
 -.21750146133E-01 -.90926705198E-02 -.18079605389E-02 0.60990555277E-03 0.42292680945E-04
 -.14979713340E-02 -.26010787608E-02 -.26049525347E-02 -.15033647182E-02 0.46678137011E-04
 -.93278972204E-03 -.41010304180E-02 -.12795247608E-01 -.26241375050E-01 -.41253161035E-01
 -.53131788441E-01 -.57652560163E-01 -.53120308988E-01 -.41239841910E-01 -.26237495520E-01
 -.12802666187E-01 -.41069823783E-02 -.91767741239E-03 -.19664395842E-02 -.50052283262E-02
 -.78410452570E-02 -.89776934228E-02 -.78844095394E-02 -.50654612183E-02 -.20114518287E-02
 -.24879929792E-02 -.56727434971E-02 -.14257865202E-01 -.26242273258E-01 -.37871501393E-01
 -.45025546468E-01 -.45016900095E-01 -.37855539339E-01 -.26236362466E-01 -.14261619986E-01
 -.56564200913E-02 -.24099071439E-02 -.43470162594E-02 -.95555622653E-02 -.15287710679E-01
 -.18966207386E-01 -.19035407100E-01 -.15462807983E-01 -.97593841313E-02 -.45043530718E-02
 -.31423599531E-02 -.56778980574E-02 -.12796775391E-01 -.21753894641E-01 -.29071564874E-01
 -.31875479509E-01 -.29060957523E-01 -.21748237080E-01 -.12799885899E-01 -.56551094251E-02
 -.30268959140E-02 -.59487979325E-02 -.13421050947E-01 -.22726088237E-01 -.30368403531E-01
 -.33398883059E-01 -.30623843516E-01 -.23124129960E-01 -.13805672831E-01 -.62088924761E-02
 -.25036046391E-02 -.41037866588E-02 -.90734312308E-02 -.14614530592E-01 -.18144039890E-01
 -.18143322261E-01 -.14620562972E-01 -.90931017402E-02 -.41068830807E-02 -.24086480257E-02
 -.59439178560E-02 -.14930464760E-01 -.27386977192E-01 -.39526082840E-01 -.47117264262E-01
 -.47323329998E-01 -.40051172703E-01 -.28010837720E-01 -.15437501185E-01 -.62312504161E-02
 -.93057176040E-03 -.17587103904E-02 -.46948514534E-02 -.74709033969E-02 -.85709438576E-02
 -.74857755567E-02 -.47402624936E-02 -.18212377843E-02 -.92716936599E-03 -.43430160597E-02
 -.13395024565E-01 -.27351629714E-01 -.43001318208E-01 -.55516746804E-01 -.60474501654E-01
 -.56005304975E-01 -.43764454844E-01 -.28090209225E-01 -.13889817870E-01 -.45453821662E-02
 0.69093720609E-03 0.21046016349E-03 -.13232488328E-02 -.24305737298E-02 -.24448417685E-02
 -.13821590194E-02 0.93479700993E-04 0.57150733752E-03 -.19891035345E-02 -.95365761843E-02
 -.22648420462E-01 -.39408169201E-01 -.55419310211E-01 -.65398980705E-01 -.65681323655E-01
 -.56137514056E-01 -.40252907268E-01 -.23307969831E-01 -.98557123270E-02 -.20104759272E-02
 0.14710128766E-02 0.93814544671E-03 0.10814986047E-03 -.24944726002E-03 0.50523386008E-04
 0.79741108090E-03 0.12599291751E-02 -.28734006278E-04 -.50366229950E-02 -.15234191422E-01
 -.30207134891E-01 -.46877704790E-01 -.60236660392E-01 -.65536935861E-01 -.60742894467E-01
 -.47649629251E-01 -.30909097268E-01 -.15625273636E-01 -.50788940696E-02 0.14467091495E-03
 0.96349389142E-03 0.19617293066E-03 -.36521165191E-03 -.40397882719E-03 0.62286344189E-04
 0.71691656501E-03 0.68377535331E-03 -.15992689849E-02 -.78699600138E-02 -.18862777498E-01
 -.33142919020E-01 -.46961827240E-01 -.55638032899E-01 -.55866383802E-01 -.47525004129E-01
 -.33753438068E-01 -.19244979787E-01 -.79111206592E-02 -.13778330174E-02 0.99132065530E-03
 -.71058883310E-03 -.16489005155E-02 -.20297836398E-02 -.17531199606E-02 -.94304779719E-03
 -.66204628865E-04 -.15872576601E-03 -.27202637609E-02 -.89932037993E-02 -.18884535977E-01
 -.30299282729E-01 -.39619647127E-01 -.43338566621E-01 -.39933241868E-01 -.30735815505E-01
 -.19189938251E-01 -.90088863182E-02 -.24614103799E-02 0.22931427037E-03 0.28867572931E-03
 -.30294524992E-02 -.39187575246E-02 -.39784365907E-02 -.32205041919E-02 -.18976475965E-02
 -.63983577326E-03 -.51556971084E-03 -.27246627664E-02 -.78832744674E-02 -.15289314117E-01
 -.22789791657E-01 -.27595811694E-01 -.27704942149E-01 -.23036066185E-01 -.15486726776E-01
 -.78682748152E-02 -.24576777634E-02 -.89020875919E-04 -.20246974071E-03 -.15637410083E-02
 -.53296205244E-02 -.59123294207E-02 -.54677024295E-02 -.41252170410E-02 -.22865019818E-02
 -.66345813764E-03 -.17889754619E-03 -.16082288902E-02 -.50538346904E-02 -.96002201194E-02
 -.13527180163E-01 -.15119615987E-01 -.13622972435E-01 -.96935600071E-02 -.50173759873E-02
 -.13723984512E-02 0.22504897595E-03 -.19831297053E-03 -.18767245303E-02 -.38424202863E-02
 -.70099611000E-02 -.70865677544E-02 -.60501367841E-02 -.41720734586E-02 -.19683549702E-02
 -.12873206714E-03 0.65157305805E-03 -.34606379451E-04 -.19997506840E-02 -.43897933873E-02
 -.60273189193E-02 -.60476212400E-02 -.44176587500E-02 -.19585774359E-02 0.14370377886E-03
 0.98030100995E-03 0.29796370217E-03 -.15340911568E-02 -.38155829352E-02 -.58237617342E-02
 0.23064622906E-03 0.25422475642E-03 0.27395371967E-03 0.28060874553E-03 0.26694335702E-03
 0.23481894382E-03 0.19556757098E-03 0.16285347573E-03 0.14438814660E-03 0.13906823323E-03
 0.14026836089E-03 0.14115677327E-03 0.13825723784E-03 0.13249334813E-03 0.12830095775E-03
 0.13098555991E-03 0.14314406485E-03 0.16277375403E-03 0.18528842588E-03 0.20777448094E-03
 0.24576079375E-03 0.28392646254E-03 0.32139729319E-03 0.32674991257E-03 0.27437592087E-03
 0.16028862913E-03 0.52582654675E-05 -.15526896324E-03 -.28518586376E-03 -.35717166503E-03
 -.35705701028E-03 -.28672272666E-03 -.16546391046E-03 -.25618969666E-04 0.98813357326E-04
 0.18486563218E-03 0.22697475424E-03 0.23503723764E-03 0.22804978926E-03 0.22683784005E-03
 0.25572496133E-03 0.31203182289E-03 0.34528778696E-03 0.30566108279E-03 0.16056269509E-03
 -.87018307113E-04 -.39470925984E-03 -.69311049696E-03 -.90826414125E-03 -.98524628600E-03
 -.90543226065E-03 -.69262028334E-03 -.40556515991E-03 -.11816711126E-03 0.10597373958E-03
 0.23410355558E-03 0.27128862911E-03 0.25214686536E-03 0.22262697757E-03 0.21971312492E-03
 0.25167557067E-03 0.30803273734E-03 0.29714954266E-03 0.15899964058E-03 -.13347624761E-03
 -.55593108838E-03 -.10301927805E-02 -.14428440302E-02 -.16822024308E-02 -.16801613968E-02
 -.14392739525E-02 -.10312404173E-02 -.56802678493E-03 -.16047216691E-03 0.11732695000E-03
 0.24580029066E-03 0.25680649850E-03 0.21330852059E-03 0.17976684649E-03 0.19406112176E-03
 0.22875163864E-03 0.24885219580E-03 0.14658485748E-03 -.13879942297E-03 -.61678921926E-03
 -.12262767869E-02 -.18397414878E-02 -.22980791277E-02 -.24682687611E-02 -.22985224096E-02
 -.18411900338E-02 -.12300625571E-02 -.62509913671E-03 -.15402705051E-03 0.12356090421E-03
 0.22070749219E-03 0.20226293310E-03 0.15083150601E-03 0.13164321410E-03 0.16709107030E-03
 0.19271374936E-03 0.13337119049E-03 -.10163589086E-03 -.56258483237E-03 -.12284527443E-02
 -.19890123802E-02 -.26641895802E-02 -.30638264514E-02 -.30650686691E-02 -.26671729215E-02
 -.19919962023E-02 -.12299077967E-02 -.56236107392E-03 -.10113641918E-03 0.13237129140E-03
 0.18975918070E-03 0.15775403185E-03 0.11853582427E-03 0.12003567599E-03 0.16114519349E-03
 0.15792353619E-03 -.16576084086E-04 -.40536190840E-03 -.10348206402E-02 -.18415060660E-02
 -.26644964677E-02 -.32874066024E-02 -.35215249788E-02 -.32904887423E-02 -.26674344585E-02
 -.18407964585E-02 -.10291921370E-02 -.39547654338E-03 -.34062291334E-05 0.17319424887E-03
 0.21001204271E-03 0.18949521791E-03 0.17186064213E-03 0.18031812294E-03 0.19547311611E-03
 0.13773647589E-03 -.16737142055E-03 -.69768626114E-03 -.14442356947E-02 -.22980606110E-02
 -.30628854015E-02 -.35204883944E-02 -.35239745524E-02 -.30692419554E-02 -.22997702755E-02
 -.14384059921E-02 -.68708480851E-03 -.15430575050E-03 0.15490185140E-03 0.29841103688E-03
 0.34624393382E-03 0.35116122316E-03 0.34241462812E-03 0.32545899258E-03 0.27634050374E-03
 0.13543866815E-03 -.28698669237E-03 -.90802853691E-03 -.16816934673E-02 -.24668605588E-02
 -.30624613834E-02 -.32878649912E-02 -.30679844217E-02 -.24725820698E-02 -.16829580079E-02
 -.90472376442E-03 -.28058172835E-03 0.14631545611E-03 0.40780861642E-03 0.55756766491E-03
 0.63303088974E-03 0.65048936161E-03 0.61739832437E-03 0.53585048446E-03 0.39002958480E-03
 0.14307004263E-03 -.35261536429E-03 -.98382059596E-03 -.16804034372E-02 -.22974233490E-02
 -.26640362250E-02 -.26642013435E-02 -.22983916999E-02 -.16832310951E-02 -.98887301441E-03
 -.35783147237E-03 0.14235723785E-03 0.51170269384E-03 0.77657566522E-03 0.95351301200E-03
 0.10411614037E-02 0.10343178283E-02 0.93738505898E-03 0.76077652027E-03 0.50371261579E-03
 0.14830377098E-03 -.35284273320E-03 -.90659466905E-03 -.14421196564E-02 -.18417925188E-02
 -.19899232830E-02 -.18385185056E-02 -.14381625168E-02 -.90643931749E-03 -.35958836120E-03
 0.13744498754E-03 0.57026026974E-03 0.93971072960E-03 0.12325302192E-02 0.14207358951E-02
 0.14803487429E-02 0.14070089300E-02 0.12166157525E-02 0.93372388623E-03 0.57646475508E-03
 0.14334593179E-03 -.28877796607E-03 -.69806357287E-03 -.10361386121E-02 -.12317620861E-02
 -.12289528275E-02 -.10279657180E-02 -.68747046549E-03 -.28277291361E-03 0.13964623871E-03
 0.56871252086E-03 0.99719313653E-03 0.13913399656E-02 0.16935345331E-02 0.18508980956E-02
 0.18399704358E-02 0.16705173673E-02 0.13752182868E-02 0.99708693899E-03 0.57711376988E-03
 0.12955552591E-03 -.17523435253E-03 -.41357180591E-03 -.57184453647E-03 -.62481724376E-03
 -.55983140302E-03 -.39255856111E-03 -.15215189082E-03 0.14717294020E-03 0.51155897146E-03
 0.93974511602E-03 0.13922626872E-02 0.17925382543E-02 0.20599082847E-02 0.21437231520E-02
 0.20347875172E-02 0.17587243318E-02 0.13667723083E-02 0.92583590747E-03 0.50012003179E-03
 0.11568023731E-03 -.38645029292E-04 -.12392583800E-03 -.15866817412E-03 -.14722874162E-03
 -.92132068076E-04 0.63685781555E-05 0.16470697595E-03 0.41673777357E-03 0.78413479496E-03
 0.12393642286E-02 0.17002909624E-02 0.20651026185E-02 0.22562643635E-02 0.22405067090E-02
 0.20249444804E-02 0.16508201945E-02 0.11914900212E-02 0.73879840431E-03 0.36983783768E-03
 0.11180526707E-03 0.90444880172E-04 0.10819937577E-03 0.12888185518E-03 0.14112749173E-03
 0.15311490422E-03 0.19550546730E-03 0.32098490063E-03 0.57895548920E-03 0.97293746822E-03
 0.14385628184E-02 0.18674038321E-02 0.21574205631E-02 0.22484213078E-02 0.21259186810E-02
 0.18130562318E-02 0.13706196559E-02 0.89500990733E-03 0.49174212447E-03 0.22960164787E-03
 0.12298057212E-03 0.18744753123E-03 0.24786087036E-03 0.26911981365E-03 0.25141863830E-03
 0.22570691613E-03 0.24855524306E-03 0.38422935121E-03 0.66795823385E-03 0.10722940979E-02
 0.15082542388E-02 0.18648550410E-02 0.20555016678E-02 0.20396524011E-02 0.18205241495E-02
 0.14407595332E-02 0.98276326814E-03 0.55552143400E-03 0.25542787826E-03 0.12165864140E-03
 0.14631850121E-03 0.24117965745E-03 0.29580485585E-03 0.29081158220E-03 0.24553713075E-03
 0.20875138384E-03 0.24371286541E-03 0.40254099879E-03 0.69477426496E-03 0.10708537592E-02
 0.14374339245E-02 0.16963365059E-02 0.17803695225E-02 0.16682045596E-02 0.13833968296E-02
 0.98985654870E-03 0.58227136260E-03 0.26028142208E-03 0.88922306603E-04 0.69725146886E-04
 0.17348574050E-03 0.25599830519E-03 0.28272812256E-03 0.25398943183E-03 0.20274237988E-03
 0.17989279846E-03 0.23587947649E-03 0.39995917314E-03 0.66223237519E-03 0.96908335244E-03
 0.12390540595E-02 0.13930940038E-02 0.13834010061E-02 0.12083031183E-02 0.91134513877E-03
 0.56863731066E-03 0.26702524533E-03 0.75609172313E-04 0.19879950116E-04 0.73206827551E-04
 0.19695302819E-03 0.24897767935E-03 0.25321250519E-03 0.22148025926E-03 0.18562186375E-03
 0.18332390803E-03 0.24424429711E-03 0.37899212655E-03 0.57172123270E-03 0.77933218394E-03
 0.94175451634E-03 0.10032599992E-02 0.93629174450E-03 0.75500957200E-03 0.51072694396E-03
 0.27184743481E-03 0.98479621258E-04 0.22424146920E-04 0.39129228185E-04 0.11348767043E-03
 0.21497201328E-03 0.24270468293E-03 0.24548251145E-03 0.23133775301E-03 0.21589377229E-03
 0.21706315576E-03 0.24920704611E-03 0.31723873126E-03 0.41174358665E-03 0.50799188202E-03
 0.57224678809E-03 0.57538872919E-03 0.50787223604E-03 0.38677113967E-03 0.24938927632E-03
 0.13659381416E-03 0.75643696931E-04 0.71594444933E-04 0.10979968340E-03 0.16556627747E-03
 0.80372210963E-02 0.75241652585E-02 0.59533987019E-02 0.37316810073E-02 0.14489895625E-02
 -.24910951647E-03 -.84919501154E-03 -.20944206667E-03 0.12736614779E-02 0.27621161656E-02
 0.33903671958E-02 0.27746496491E-02 0.12549830249E-02 -.31690666446E-03 -.10791259689E-02
 -.59047744840E-03 0.10475958222E-02 0.33421857405E-02 0.56470060667E-02 0.73560398424E-02
 0.74989513578E-02 0.64486279672E-02 0.45389633096E-02 0.23074436413E-02 0.45390976825E-03
 -.34147460701E-03 0.29977105851E-03 0.21752336047E-02 0.44500875000E-02 0.59960691714E-02
 0.59995379143E-02 0.44467571759E-02 0.21304256343E-02 0.17486981407E-03 -.56845960475E-03
 0.13487774160E-03 0.19418093186E-02 0.41970912335E-02 0.62053709013E-02 0.74108714157E-02
 0.59123281937E-02 0.45227734111E-02 0.26204356855E-02 0.95155044733E-03 0.43713250975E-03
 0.18082090352E-02 0.51181520159E-02 0.94496946029E-02 0.13149966317E-01 0.14610179165E-01
 0.13155953708E-01 0.94420091479E-02 0.50656234695E-02 0.16809322932E-02 0.22018266819E-03
 0.65707344967E-03 0.22939539671E-02 0.42369105526E-02 0.57442803794E-02 0.63586768093E-02
 0.36750752219E-02 0.22768553472E-02 0.93916659588E-03 0.75405409365E-03 0.28879101342E-02
 0.78828743801E-02 0.14991516850E-01 0.22110060688E-01 0.26593348419E-01 0.26598733354E-01
 0.22116874802E-01 0.14976976646E-01 0.78215304215E-02 0.27603498087E-02 0.55364707882E-03
 0.68156291402E-03 0.20086355534E-02 0.34676868605E-02 0.43852944234E-02 0.44638454077E-02
 0.13715604513E-02 0.40713057203E-03 0.41387483876E-03 0.28801047956E-02 0.89738625144E-02
 0.18519141244E-01 0.29424286578E-01 0.38211071849E-01 0.41593210669E-01 0.38217709523E-01
 0.29423989094E-01 0.18493886482E-01 0.89094329123E-02 0.27681913463E-02 0.25454908995E-03
 0.21781015229E-03 0.11941932982E-02 0.21300871597E-02 0.25255602439E-02 0.22393865661E-02
 -.34472320337E-03 -.40026578390E-03 0.17789097175E-02 0.78728146025E-02 0.18518138113E-01
 0.32233036530E-01 0.45362492181E-01 0.53455762484E-01 0.53457833143E-01 0.45363798084E-01
 0.32223644778E-01 0.18491149414E-01 0.78260249112E-02 0.17111826872E-02 -.48797645721E-03
 -.44098606048E-03 0.30271576537E-03 0.85223721106E-03 0.88291850923E-03 0.38124828890E-03
 -.94211024247E-03 0.24390950526E-03 0.50920889443E-02 0.14984898842E-01 0.29426656777E-01
 0.45365745966E-01 0.57976382487E-01 0.62785971523E-01 0.57973083714E-01 0.45358127614E-01
 0.29415849867E-01 0.14974527295E-01 0.50835899611E-02 0.23319016621E-03 -.96021213248E-03
 -.42295445975E-03 0.38150336866E-03 0.72175032727E-03 0.39861441330E-03 -.39971962161E-03
 -.26613900426E-03 0.21413436939E-02 0.94349677635E-02 0.22109060564E-01 0.38217039983E-01
 0.53462364707E-01 0.62789421539E-01 0.62783210635E-01 0.53448102398E-01 0.38205130011E-01
 0.22109028030E-01 0.94482894957E-02 0.21596150005E-02 -.25494540195E-03 0.31989562800E-03
 0.18642177129E-02 0.29675534021E-02 0.29722787685E-02 0.18728588176E-02 0.32139337096E-03
 0.12784550936E-02 0.44475616620E-02 0.13146693081E-01 0.26594798916E-01 0.41599710381E-01
 0.53465530254E-01 0.57977932455E-01 0.53449212964E-01 0.41580797048E-01 0.26588454212E-01
 0.13154797175E-01 0.44542962134E-02 0.12618038943E-02 0.23129034646E-02 0.53573037383E-02
 0.81979693937E-02 0.93369031358E-02 0.82432199601E-02 0.54209431027E-02 0.23613920659E-02
 0.28250203139E-02 0.60159536546E-02 0.14609980803E-01 0.26597391371E-01 0.38222165461E-01
 0.45370956100E-01 0.45362361247E-01 0.38204603593E-01 0.26586152047E-01 0.14607004784E-01
 0.59969599231E-02 0.27504718996E-02 0.46920134536E-02 0.99048838557E-02 0.15639034731E-01
 0.19318939905E-01 0.19389888586E-01 0.15816441467E-01 0.10106903157E-01 0.48438330931E-02
 0.34775435143E-02 0.60197793860E-02 0.13149322109E-01 0.22111484003E-01 0.29427966239E-01
 0.32231289738E-01 0.29419436441E-01 0.22106610418E-01 0.13149947327E-01 0.59936730806E-02
 0.33618952874E-02 0.62916351259E-02 0.13774183829E-01 0.23081649486E-01 0.30719206016E-01
 0.33746901093E-01 0.30975229705E-01 0.23478478924E-01 0.14155010761E-01 0.65482399748E-02
 0.28425575444E-02 0.44485770812E-02 0.94277499903E-02 0.14973808431E-01 0.18503663592E-01
 0.18503383501E-01 0.14981037460E-01 0.94487429942E-02 0.44518649169E-02 0.27457808613E-02
 0.62844265697E-02 0.15281935531E-01 0.27744063284E-01 0.39876773160E-01 0.47457739883E-01
 0.47662673442E-01 0.40399799947E-01 0.28367434680E-01 0.15790995380E-01 0.65747888859E-02
 0.12788453801E-02 0.21133288424E-02 0.50547705703E-02 0.78326575789E-02 0.89338336838E-02
 0.78498629284E-02 0.51013936650E-02 0.21730478076E-02 0.12695369664E-02 0.46848945540E-02
 0.13745078089E-01 0.27706911233E-01 0.43349141491E-01 0.55849304246E-01 0.60799032739E-01
 0.56337125438E-01 0.44111006425E-01 0.28444973376E-01 0.14242088883E-01 0.48926218892E-02
 -.32846061553E-03 0.15855280952E-03 0.16920947274E-02 0.27984112417E-02 0.28160057013E-02
 0.17562547477E-02 0.27476347447E-03 -.21654276550E-03 0.23350891561E-02 0.98849798922E-02
 0.23002399031E-01 0.39756757582E-01 0.55750220139E-01 0.65714876052E-01 0.65998962970E-01
 0.56470578179E-01 0.40599676491E-01 0.23657867371E-01 0.10204310670E-01 0.23633266349E-02
 -.10935367145E-02 -.55690110651E-03 0.26935617672E-03 0.62641095786E-03 0.33241318232E-03
 -.41140141991E-03 -.88257303656E-03 0.39073005212E-03 0.53894563011E-02 0.15587330222E-01
 0.30559050544E-01 0.47217108057E-01 0.60558657574E-01 0.65852732705E-01 0.61069505025E-01
 0.47992394618E-01 0.31259218592E-01 0.15974448536E-01 0.54308702262E-02 0.21956525119E-03
 -.57626217330E-03 0.19056633863E-03 0.74799798310E-03 0.78812767788E-03 0.32748733202E-03
 -.32696512504E-03 -.30410631332E-03 0.19650036651E-02 0.82277903530E-02 0.19218651352E-01
 0.33494113639E-01 0.47301709178E-01 0.55967721156E-01 0.56196987665E-01 0.47866735394E-01
 0.34105788637E-01 0.19600739717E-01 0.82682361543E-02 0.17427356827E-02 -.61315277306E-03
 0.10994717241E-02 0.20359872470E-02 0.24143993769E-02 0.21380520316E-02 0.13293568705E-02
 0.44998020283E-03 0.53421037985E-03 0.30856764777E-02 0.93520743523E-02 0.19241105751E-01
 0.30653992465E-01 0.39970215410E-01 0.43684690572E-01 0.40278586694E-01 0.31085122315E-01
 0.19545579746E-01 0.93711820120E-02 0.28311156365E-02 0.14905099458E-03 0.97251866322E-04
 0.34147658922E-02 0.43053049343E-02 0.43631880118E-02 0.36012334728E-02 0.22755339684E-02
 0.10166323422E-02 0.88924010515E-03 0.30905101158E-02 0.82401186681E-02 0.15642428273E-01
 0.23145682372E-01 0.27954822915E-01 0.28061367757E-01 0.23386266677E-01 0.15835320275E-01
 0.82245975159E-02 0.28267905319E-02 0.46794459035E-03 0.58514605342E-03 0.19474127976E-02
 0.57113289943E-02 0.62986123861E-02 0.58519336538E-02 0.45029500789E-02 0.26615843026E-02
 0.10415617942E-02 0.55723015865E-03 0.19765604358E-02 0.54068268543E-02 0.99449701236E-02
 0.13875474612E-01 0.15474679361E-01 0.13977997062E-01 0.10043574437E-01 0.53682003366E-02
 0.17345925813E-02 0.15097506008E-03 0.57999353228E-03 0.22558735112E-02 0.42199298162E-02
 0.73903221562E-02 0.74708311211E-02 0.64332542365E-02 0.45522435630E-02 0.23496519714E-02
 0.51374765010E-03 -.26924146985E-03 0.40254904844E-03 0.23481744268E-02 0.47259846279E-02
 0.63637809776E-02 0.63910481367E-02 0.47671220333E-02 0.23129138542E-02 0.21886393009E-03
 -.60623542416E-03 0.84152073953E-04 0.19159454088E-02 0.41927649881E-02 0.61998173375E-02
 0.29736353440E-04 0.25653378088E-04 0.45657636406E-04 0.73068609765E-04 0.98194521371E-04
 0.12333723241E-03 0.15515998507E-03 0.19466643458E-03 0.23443798943E-03 0.26339869742E-03
 0.27346460817E-03 0.26401406349E-03 0.24302101241E-03 0.22356909161E-03 0.21521320322E-03
 0.21501475798E-03 0.20744478562E-03 0.17687626251E-03 0.12333922916E-03 0.66070795583E-04
 0.32723526260E-04 0.19904123349E-04 0.17910667793E-04 0.35296417167E-04 0.90286763765E-04
 0.20141336098E-03 0.36962139907E-03 0.56711037108E-03 0.74358963257E-03 0.84697590178E-03
 0.84623420317E-03 0.74473677808E-03 0.57860961168E-03 0.40074712192E-03 0.25716439482E-03
 0.16775712318E-03 0.12317583653E-03 0.99344863315E-04 0.77454706798E-04 0.53484681303E-04
 0.61617246672E-04 0.26180227053E-04 0.95494096399E-05 0.56787537233E-04 0.21455250753E-03
 0.50265374131E-03 0.88938730605E-03 0.12898387212E-02 0.15928926865E-02 0.17052918299E-02
 0.15915804671E-02 0.12904789348E-02 0.89867858609E-03 0.52861152641E-03 0.26141389984E-03
 0.12035930487E-03 0.77293718277E-04 0.82297420420E-04 0.93103661527E-04 0.87570246080E-04
 0.10003154870E-03 0.52214667591E-04 0.63652774713E-04 0.21723671662E-03 0.57410426718E-03
 0.11270316570E-02 0.17791606469E-02 0.23662127105E-02 0.27153921361E-02 0.27152224675E-02
 0.23646985118E-02 0.17768066428E-02 0.11305406479E-02 0.59316073119E-03 0.25475123137E-03
 0.11067566282E-03 0.94026983646E-04 0.12646606035E-03 0.15183241834E-03 0.14316385028E-03
 0.13515149612E-03 0.11352534572E-03 0.22503136769E-03 0.57675471849E-03 0.12148307378E-02
 0.20702369746E-02 0.29568834600E-02 0.36307697749E-02 0.38843764341E-02 0.36336556673E-02
 0.29574600557E-02 0.20670056987E-02 0.12148443807E-02 0.58857610899E-03 0.24818379350E-03
 0.13797823433E-03 0.15135419943E-03 0.19456315164E-03 0.21299857099E-03 0.18804882171E-03
 0.16407438974E-03 0.22574625047E-03 0.51316737115E-03 0.11297575017E-02 0.20704395601E-02
 0.31782713095E-02 0.41775426538E-02 0.47744703009E-02 0.47781900865E-02 0.41845613489E-02
 0.31813408504E-02 0.20679744639E-02 0.11269632768E-02 0.51464747484E-03 0.22977336086E-03
 0.16577247771E-03 0.19630182931E-03 0.23274275861E-03 0.23414490619E-03 0.19799439812E-03
 0.19054108743E-03 0.38909881763E-03 0.89744486624E-03 0.17815237383E-02 0.29572444479E-02
 0.41772946549E-02 0.51070357289E-02 0.54580665854E-02 0.51139668787E-02 0.41845804447E-02
 0.29587639960E-02 0.17768292678E-02 0.88935823964E-03 0.37839591305E-03 0.17588879261E-03
 0.14828846398E-03 0.17874454826E-03 0.20048537192E-03 0.19072181800E-03 0.16514714663E-03
 0.21764439409E-03 0.57796512358E-03 0.12943771727E-02 0.23683599847E-02 0.36313916649E-02
 0.47734923641E-02 0.54566233018E-02 0.54594856522E-02 0.47790716299E-02 0.36340014862E-02
 0.23651427311E-02 0.12858793424E-02 0.56418724690E-03 0.19678933403E-03 0.72356186042E-04
 0.63620624161E-04 0.84227492422E-04 0.94274120023E-04 0.88023036270E-04 0.99176824634E-04
 0.24359029748E-03 0.74590266221E-03 0.15941701849E-02 0.27170073030E-02 0.38845691881E-02
 0.47759055091E-02 0.51106547244E-02 0.47770468347E-02 0.38854349135E-02 0.27162495767E-02
 0.15909009929E-02 0.73828173693E-03 0.22861467830E-03 -.12408815451E-05 -.67518037103E-04
 -.67810968872E-04 -.55813780694E-04 -.50421569817E-04 -.41812568686E-04 0.21870390889E-04
 0.26278365040E-03 0.84443238026E-03 0.17050664183E-02 0.27163097659E-02 0.36331446256E-02
 0.41816002212E-02 0.41808906813E-02 0.36315400740E-02 0.27154072182E-02 0.17065771323E-02
 0.84756049349E-03 0.26264801194E-03 -.52004491316E-04 -.17648701028E-03 -.20222159042E-03
 -.19428329523E-03 -.18586407329E-03 -.18265579395E-03 -.15782907321E-03 -.42747627241E-04
 0.27000578114E-03 0.84435508313E-03 0.15928397407E-02 0.23664567657E-02 0.29573097029E-02
 0.31795662076E-02 0.29570479788E-02 0.23643123680E-02 0.15905818196E-02 0.84731858573E-03
 0.27901789983E-03 -.71656419060E-04 -.23972544568E-03 -.29038247143E-03 -.28493561320E-03
 -.26853141486E-03 -.26507894426E-03 -.26776449174E-03 -.23087709297E-03 -.77488386363E-04
 0.26449172431E-03 0.74815774490E-03 0.12955706199E-02 0.17803879716E-02 0.20681722997E-02
 0.20682581260E-02 0.17775271173E-02 0.12866450606E-02 0.73825775577E-03 0.26181543952E-03
 -.72611856844E-04 -.25841364990E-03 -.32748372264E-03 -.32504827164E-03 -.29713026719E-03
 -.28129983211E-03 -.29089839003E-03 -.30064337219E-03 -.25081594673E-03 -.74779883874E-04
 0.25140662567E-03 0.58830154105E-03 0.90664223223E-03 0.11344959532E-02 0.12156870125E-02
 0.11269083146E-02 0.88922723666E-03 0.56330975007E-03 0.22650360442E-03 -.55065024320E-04
 -.24336615966E-03 -.33086378861E-03 -.33635512575E-03 -.29883964165E-03 -.26437226351E-03
 -.26292591541E-03 -.28696699380E-03 -.29103006606E-03 -.21785592263E-03 -.33740875768E-04
 0.23898105435E-03 0.41284536432E-03 0.53445398855E-03 0.59277352085E-03 0.58445469799E-03
 0.50889565534E-03 0.37150142518E-03 0.18886994348E-03 -.95353123299E-05 -.18499851223E-03
 -.30012408626E-03 -.33612936653E-03 -.30762165155E-03 -.25883488702E-03 -.23543888445E-03
 -.24967382193E-03 -.26891595639E-03 -.24054478820E-03 -.13302961117E-03 0.41522556604E-04
 0.23187312928E-03 0.26488088431E-03 0.25891323011E-03 0.24474344026E-03 0.23400284088E-03
 0.21275359584E-03 0.15643216965E-03 0.52078030350E-04 -.86524538531E-04 -.22017400696E-03
 -.30453262153E-03 -.31953375536E-03 -.28559937458E-03 -.24827435414E-03 -.23899506547E-03
 -.24595022094E-03 -.22450187671E-03 -.13993593843E-03 -.25675323840E-05 0.13791268616E-03
 0.22549686626E-03 0.16569244529E-03 0.10640693532E-03 0.88886321777E-04 0.11120620941E-03
 0.13440467464E-03 0.11318161177E-03 0.28200662371E-04 -.99989865795E-04 -.22343442197E-03
 -.29820960242E-03 -.31332753777E-03 -.29372409191E-03 -.27263950753E-03 -.25703909860E-03
 -.21994655147E-03 -.13001823219E-03 0.89476953562E-05 0.14863103947E-03 0.22915799110E-03
 0.20771384652E-03 0.11090570462E-03 0.53923419131E-04 0.62549010465E-04 0.11291870982E-03
 0.15098071296E-03 0.12895115134E-03 0.35489138284E-04 -.98596065495E-04 -.22235660678E-03
 -.29870243851E-03 -.32412698846E-03 -.31826086479E-03 -.29439054244E-03 -.24150702101E-03
 -.13824206456E-03 0.13823756735E-04 0.17246011441E-03 0.27493427164E-03 0.28193028730E-03
 0.16903599823E-03 0.81360513263E-04 0.54826394830E-04 0.89738389079E-04 0.14787452184E-03
 0.17718819652E-03 0.14132039784E-03 0.39291243141E-04 -.95494749075E-04 -.21723356038E-03
 -.29525440199E-03 -.32491916566E-03 -.31408266496E-03 -.26239856449E-03 -.15927760596E-03
 -.55584399448E-05 0.16514433153E-03 0.29356085241E-03 0.33086265296E-03 0.27392541085E-03
 0.11356137497E-03 0.59773619682E-04 0.66677593622E-04 0.11436411307E-03 0.16309067016E-03
 0.17510054380E-03 0.13097337371E-03 0.36986227634E-04 -.78759970247E-04 -.18113454303E-03
 -.24507268287E-03 -.26180730653E-03 -.23084792487E-03 -.15067647864E-03 -.23372338632E-04
 0.12984791017E-03 0.26338452234E-03 0.32736553041E-03 0.30122272659E-03 0.21103772764E-03
 0.59934085812E-04 0.40258649960E-04 0.65417337964E-04 0.10900459995E-03 0.14132572832E-03
 0.14418192201E-03 0.11438387968E-03 0.60737846844E-04 -.57477990012E-06 -.51722660952E-04
 -.79262725144E-04 -.76634075558E-04 -.41655999354E-04 0.25411848927E-04 0.11706162334E-03
 0.21096413985E-03 0.27250411402E-03 0.27340338895E-03 0.21393303365E-03 0.12746063771E-03
 -.76897966836E-02 -.71667779059E-02 -.55777339570E-02 -.33458694590E-02 -.10665441975E-02
 0.62298578143E-03 0.12171390313E-02 0.57114522596E-03 -.92495889442E-03 -.24298396018E-02
 -.30654851857E-02 -.24412701217E-02 -.90475191985E-03 0.67968269228E-03 0.14470678355E-02
 0.96302769408E-03 -.66775746492E-03 -.29598601262E-02 -.52747968841E-02 -.70008425000E-02
 -.71426266237E-02 -.60836431356E-02 -.41619281290E-02 -.19263215404E-02 -.77982865747E-04