    5    5    1    1
  0.3477306E+02  0.2573869E-09  0.2573869E-09  0.3030466E-08  0.5000000E-15
  1.000000000000000E-004
  CAR 
 unknown system                          
     45     52     28
 
  0.0000000E+00  0.0000000E+00  0.0000000E+00  0.1000000E-01
    1      -11.612361   1.000000
    2      -10.597225   1.000000
    3       -8.988603   1.000000
    4       -7.530250   1.000000
    5       -6.082987   1.000000
    6       -5.563368   1.000000
    7       -5.540018   1.000000
    8       -5.513610   1.000000
    9       -5.319867   1.000000
   10       -5.281889   1.000000
   11       -5.280157   1.000000
   12       -5.226941   1.000000
   13       -5.226471   1.000000
   14       -4.971174   1.000000
   15       -4.970782   1.000000
   16       -4.879223   1.000000
   17       -4.765658   1.000000
   18       -4.730943   1.000000
   19       -4.477598   1.000000
   20       -4.477217   1.000000
   21       -4.259164   1.000000
   22       -4.258374   1.000000
   23       -3.987246   1.000000
   24       -3.987043   1.000000
   25       -2.920784   1.000000
   26        1.609882   0.000000
   27        1.936382   0.000000
   28        2.365376   0.000000
 
  0.1000000E+00  0.6938894E-17  0.0000000E+00  0.2000000E-01
    1      -11.310366   1.000000
    2      -10.299474   1.000000
    3       -8.723650   1.000000
    4       -7.308353   1.000000
    5       -6.089286   1.000000
    6       -5.670969   1.000000
    7       -5.607514   1.000000
    8       -5.432068   1.000000
    9       -5.371430   1.000000
   10       -5.330411   1.000000
   11       -5.288186   1.000000
   12       -5.206167   1.000000
   13       -5.127829   1.000000
   14       -5.115431   1.000000
   15       -4.994394   1.000000
   16       -4.889082   1.000000
   17       -4.778432   1.000000
   18       -4.699644   1.000000
   19       -4.488970   1.000000
   20       -4.452661   1.000000
   21       -4.288557   1.000000
   22       -4.255632   1.000000
   23       -3.982948   1.000000
   24       -3.770498   1.000000
   25       -2.236385   0.115298
   26        1.854319   0.000000
   27        2.240123   0.000000
   28        2.667754   0.000000
 
  0.2000000E+00 -0.1387779E-16  0.0000000E+00  0.2000000E-01
    1      -10.448808   1.000000
    2       -9.456264   1.000000
    3       -8.029985   1.000000
    4       -6.785026   1.000000
    5       -6.189104   1.000000
    6       -5.930896   1.000000
    7       -5.732642   1.000000
    8       -5.631805   1.000000
    9       -5.476402   1.000000
   10       -5.259599   1.000000
   11       -5.205765   1.000000
   12       -5.170639   1.000000
   13       -5.095263   1.000000
   14       -5.011780   1.000000
   15       -4.871543   1.000000
   16       -4.823699   1.000000
   17       -4.792043   1.000000
   18       -4.607331   1.000000
   19       -4.570283   1.000000
   20       -4.435764   1.000000
   21       -4.256381   1.000000
   22       -4.090904   1.000000
   23       -3.978073   1.000000
   24       -2.933523   1.000000
   25       -0.919807   0.000000
   26        2.579573   0.000000
   27        3.149665   0.000000
   28        3.575996   0.000000
 
  0.3000000E+00 -0.2775558E-16  0.0000000E+00  0.2000000E-01
    1       -9.225388   1.000000
    2       -8.289300   1.000000
    3       -7.324909   1.000000
    4       -6.520357   1.000000
    5       -6.333035   1.000000
    6       -6.131146   1.000000
    7       -5.845055   1.000000
    8       -5.639115   1.000000
    9       -5.511512   1.000000
   10       -5.277441   1.000000
   11       -5.185009   1.000000
   12       -5.055211   1.000000
   13       -4.894441   1.000000
   14       -4.826016   1.000000
   15       -4.731824   1.000000
   16       -4.616675   1.000000
   17       -4.506025   1.000000
   18       -4.371031   1.000000
   19       -4.334760   1.000000
   20       -4.244782   1.000000
   21       -4.127257   1.000000
   22       -3.964963   1.000000
   23       -3.634583   1.000000
   24       -1.806319   0.000000
   25        0.716408   0.000000
   26        3.725258   0.000000
   27        4.633245   0.000000
   28        5.016578   0.000000
 
  0.4000000E+00 -0.2775558E-16  0.0000000E+00  0.2000000E-01
    1       -8.266788   1.000000
    2       -7.358870   1.000000
    3       -7.001160   1.000000
    4       -6.535880   1.000000
    5       -6.506994   1.000000
    6       -6.255382   1.000000
    7       -5.964271   1.000000
    8       -5.427270   1.000000
    9       -5.309125   1.000000
   10       -5.269287   1.000000
   11       -5.165149   1.000000
   12       -4.928517   1.000000
   13       -4.846267   1.000000
   14       -4.487891   1.000000
   15       -4.347035   1.000000
   16       -4.311014   1.000000
   17       -4.101801   1.000000
   18       -4.096791   1.000000
   19       -4.047346   1.000000
   20       -3.965966   1.000000
   21       -3.810648   1.000000
   22       -3.519249   1.000000
   23       -2.573240   0.999818
   24       -0.455600   0.000000
   25        1.814893   0.000000
   26        2.489633   0.000000
   27        3.339560   0.000000
   28        4.654427   0.000000
 
  0.5000000E+00 -0.2775558E-16  0.0000000E+00  0.1000000E-01
    1       -8.028258   1.000000
    2       -7.098606   1.000000
    3       -6.910420   1.000000
    4       -6.587317   1.000000
    5       -6.524776   1.000000
    6       -6.300897   1.000000
    7       -5.987104   1.000000
    8       -5.406873   1.000000
    9       -5.308919   1.000000
   10       -5.243136   1.000000
   11       -4.953049   1.000000
   12       -4.932358   1.000000
   13       -4.610834   1.000000
   14       -4.450272   1.000000
   15       -4.253612   1.000000
   16       -4.113681   1.000000
   17       -4.044058   1.000000
   18       -3.949177   1.000000
   19       -3.890797   1.000000
   20       -3.693622   1.000000
   21       -3.626775   1.000000
   22       -2.188897   0.030713
   23       -1.372991   0.000000
   24       -0.822646   0.000000
   25        0.590415   0.000000
   26        1.738907   0.000000
   27        2.843284   0.000000
   28        4.079708   0.000000
 
  0.0000000E+00  0.1000000E+00  0.0000000E+00  0.2000000E-01
    1      -11.308926   1.000000
    2      -10.299448   1.000000
    3       -8.724899   1.000000
    4       -7.309018   1.000000
    5       -6.101801   1.000000
    6       -5.665764   1.000000
    7       -5.616629   1.000000
    8       -5.435598   1.000000
    9       -5.369791   1.000000
   10       -5.330868   1.000000
   11       -5.288563   1.000000
   12       -5.203264   1.000000
   13       -5.128306   1.000000
   14       -5.113406   1.000000
   15       -4.994491   1.000000
   16       -4.887822   1.000000
   17       -4.769456   1.000000
   18       -4.696513   1.000000
   19       -4.487751   1.000000
   20       -4.452841   1.000000
   21       -4.288670   1.000000
   22       -4.254970   1.000000
   23       -3.982773   1.000000
   24       -3.768589   1.000000
   25       -2.235463   0.112783
   26        1.854159   0.000000
   27        2.240211   0.000000
   28        2.667728   0.000000
 
  0.1000000E+00  0.1000000E+00  0.0000000E+00  0.2000000E-01
    1      -11.307712   1.000000
    2      -10.299498   1.000000
    3       -8.726222   1.000000
    4       -7.309799   1.000000
    5       -6.116318   1.000000
    6       -5.666916   1.000000
    7       -5.614599   1.000000
    8       -5.436537   1.000000
    9       -5.368958   1.000000
   10       -5.333731   1.000000
   11       -5.287336   1.000000
   12       -5.201214   1.000000
   13       -5.128269   1.000000
   14       -5.112135   1.000000
   15       -4.994354   1.000000
   16       -4.887181   1.000000
   17       -4.754520   1.000000
   18       -4.698861   1.000000
   19       -4.486685   1.000000
   20       -4.453069   1.000000
   21       -4.289056   1.000000
   22       -4.255025   1.000000
   23       -3.982872   1.000000
   24       -3.767704   1.000000
   25       -2.234768   0.110911
   26        1.854035   0.000000
   27        2.240284   0.000000
   28        2.667765   0.000000
 
  0.2000000E+00  0.1000000E+00  0.0000000E+00  0.2000000E-01
    1      -10.722231   1.000000
    2       -9.726961   1.000000
    3       -8.243497   1.000000
    4       -6.926292   1.000000
    5       -6.172962   1.000000
    6       -5.839630   1.000000
    7       -5.743812   1.000000
    8       -5.549668   1.000000
    9       -5.462839   1.000000
   10       -5.315726   1.000000
   11       -5.230103   1.000000
   12       -5.163247   1.000000
   13       -5.111203   1.000000
   14       -5.089498   1.000000
   15       -4.923312   1.000000
   16       -4.841593   1.000000
   17       -4.706026   1.000000
   18       -4.617441   1.000000
   19       -4.592234   1.000000
   20       -4.442291   1.000000
   21       -4.344260   1.000000
   22       -4.080539   1.000000
   23       -4.021881   1.000000
   24       -3.163848   1.000000
   25       -1.301401   0.000000
   26        2.340122   0.000000
   27        2.847316   0.000000
   28        3.273224   0.000000
 
  0.3000000E+00  0.1000000E+00  0.0000000E+00  0.2000000E-01
    1       -9.658485   1.000000
    2       -8.699469   1.000000
    3       -7.514331   1.000000
    4       -6.514584   1.000000
    5       -6.215546   1.000000
    6       -6.031501   1.000000
    7       -5.850627   1.000000
    8       -5.740934   1.000000
    9       -5.596043   1.000000
   10       -5.298751   1.000000
   11       -5.255424   1.000000
   12       -5.181284   1.000000
   13       -5.041536   1.000000
   14       -4.927675   1.000000
   15       -4.834623   1.000000
   16       -4.747454   1.000000
   17       -4.573371   1.000000
   18       -4.479926   1.000000
   19       -4.361990   1.000000
   20       -4.293803   1.000000
   21       -4.140129   1.000000
   22       -4.042861   1.000000
   23       -3.733329   1.000000
   24       -2.200502   0.043978
   25        0.130969   0.000000
   26        3.309239   0.000000
   27        4.055381   0.000000
   28        4.511664   0.000000
 
  0.4000000E+00  0.1000000E+00  0.0000000E+00  0.2000000E-01
    1       -8.504321   1.000000
    2       -7.595011   1.000000
    3       -7.018678   1.000000
    4       -6.484541   1.000000
    5       -6.357590   1.000000
    6       -6.134529   1.000000
    7       -5.919128   1.000000
    8       -5.617302   1.000000
    9       -5.528056   1.000000
   10       -5.328878   1.000000
   11       -5.230146   1.000000
   12       -5.085313   1.000000
   13       -4.909208   1.000000
   14       -4.730387   1.000000
   15       -4.635027   1.000000
   16       -4.492692   1.000000
   17       -4.366951   1.000000
   18       -4.225158   1.000000
   19       -4.159986   1.000000
   20       -3.986660   1.000000
   21       -3.933194   1.000000
   22       -3.619541   1.000000
   23       -2.868739   1.000000
   24       -0.839113   0.000000
   25        1.818431   0.000000
   26        3.822352   0.000000
   27        4.427711   0.000000
   28        5.279024   0.000000
 
  0.5000000E+00  0.1000000E+00  0.0000000E+00  0.2000000E-01
    1       -7.971844   1.000000
    2       -7.021363   1.000000
    3       -6.824398   1.000000
    4       -6.496250   1.000000
    5       -6.437081   1.000000
    6       -6.208533   1.000000
    7       -5.994968   1.000000
    8       -5.528832   1.000000
    9       -5.372690   1.000000
   10       -5.236226   1.000000
   11       -5.180320   1.000000
   12       -5.017258   1.000000
   13       -4.781311   1.000000
   14       -4.524367   1.000000
   15       -4.394420   1.000000
   16       -4.248171   1.000000
   17       -4.126324   1.000000
   18       -4.066050   1.000000
   19       -4.016723   1.000000
   20       -3.864246   1.000000
   21       -3.353073   1.000000
   22       -2.326852   0.532109
   23       -1.387700   0.000000
   24        0.027845   0.000000
   25        1.229494   0.000000
   26        2.017436   0.000000
   27        3.138830   0.000000
   28        4.485824   0.000000
 
 -0.4000000E+00  0.1000000E+00  0.0000000E+00  0.2000000E-01
    1       -7.966314   1.000000
    2       -7.019975   1.000000
    3       -6.823212   1.000000
    4       -6.495261   1.000000
    5       -6.433972   1.000000
    6       -6.210057   1.000000
    7       -5.998890   1.000000
    8       -5.536971   1.000000
    9       -5.369652   1.000000
   10       -5.234540   1.000000
   11       -5.192555   1.000000
   12       -5.018029   1.000000
   13       -4.784179   1.000000
   14       -4.517638   1.000000
   15       -4.397384   1.000000
   16       -4.248574   1.000000
   17       -4.126337   1.000000
   18       -4.065092   1.000000
   19       -4.016532   1.000000
   20       -3.862955   1.000000
   21       -3.340229   1.000000
   22       -2.327831   0.537609
   23       -1.394669   0.000000
   24        0.023741   0.000000
   25        1.230248   0.000000
   26        2.016896   0.000000
   27        3.139178   0.000000
   28        4.483929   0.000000
 
 -0.3000000E+00  0.1000000E+00  0.0000000E+00  0.2000000E-01
    1       -8.501319   1.000000
    2       -7.589788   1.000000
    3       -7.011251   1.000000
    4       -6.479639   1.000000
    5       -6.357720   1.000000
    6       -6.136847   1.000000
    7       -5.926465   1.000000
    8       -5.623567   1.000000
    9       -5.533488   1.000000
   10       -5.332213   1.000000
   11       -5.238590   1.000000
   12       -5.082263   1.000000
   13       -4.915212   1.000000
   14       -4.732916   1.000000
   15       -4.617594   1.000000
   16       -4.497232   1.000000
   17       -4.366278   1.000000
   18       -4.219996   1.000000
   19       -4.157342   1.000000
   20       -3.983054   1.000000
   21       -3.928599   1.000000
   22       -3.619901   1.000000
   23       -2.878622   1.000000
   24       -0.850112   0.000000
   25        1.811676   0.000000
   26        3.824951   0.000000
   27        4.426760   0.000000
   28        5.279985   0.000000
 
 -0.2000000E+00  0.1000000E+00  0.0000000E+00  0.2000000E-01
    1       -9.662405   1.000000
    2       -8.696475   1.000000
    3       -7.502855   1.000000
    4       -6.507055   1.000000
    5       -6.206181   1.000000
    6       -6.034659   1.000000
    7       -5.858132   1.000000
    8       -5.742600   1.000000
    9       -5.596827   1.000000
   10       -5.300682   1.000000
   11       -5.257445   1.000000
   12       -5.190282   1.000000
   13       -5.039795   1.000000
   14       -4.915630   1.000000
   15       -4.834265   1.000000
   16       -4.748176   1.000000
   17       -4.569474   1.000000
   18       -4.484158   1.000000
   19       -4.367512   1.000000
   20       -4.293226   1.000000
   21       -4.139313   1.000000
   22       -4.041995   1.000000
   23       -3.741633   1.000000
   24       -2.210337   0.058534
   25        0.126041   0.000000
   26        3.308879   0.000000
   27        4.055072   0.000000
   28        4.510779   0.000000
 
 -0.1000000E+00  0.1000000E+00  0.0000000E+00  0.2000000E-01
    1      -10.725630   1.000000
    2       -9.726337   1.000000
    3       -8.238351   1.000000
    4       -6.923347   1.000000
    5       -6.144542   1.000000
    6       -5.842853   1.000000
    7       -5.748585   1.000000
    8       -5.551642   1.000000
    9       -5.462856   1.000000
   10       -5.314678   1.000000
   11       -5.218600   1.000000
   12       -5.165271   1.000000
   13       -5.125289   1.000000
   14       -5.089501   1.000000
   15       -4.922483   1.000000
   16       -4.840320   1.000000
   17       -4.708980   1.000000
   18       -4.635090   1.000000
   19       -4.591700   1.000000
   20       -4.440139   1.000000
   21       -4.344096   1.000000
   22       -4.083802   1.000000
   23       -4.021767   1.000000
   24       -3.169567   1.000000
   25       -1.303918   0.000000
   26        2.340359   0.000000
   27        2.847093   0.000000
   28        3.272567   0.000000
 
  0.0000000E+00  0.2000000E+00  0.0000000E+00  0.2000000E-01
    1      -10.441364   1.000000
    2       -9.456590   1.000000
    3       -8.037203   1.000000
    4       -6.789708   1.000000
    5       -6.220717   1.000000
    6       -5.936350   1.000000
    7       -5.736509   1.000000
    8       -5.631983   1.000000
    9       -5.477294   1.000000
   10       -5.259180   1.000000
   11       -5.205935   1.000000
   12       -5.171392   1.000000
   13       -5.087387   1.000000
   14       -5.005775   1.000000
   15       -4.871432   1.000000
   16       -4.821576   1.000000
   17       -4.786487   1.000000
   18       -4.605474   1.000000
   19       -4.564933   1.000000
   20       -4.434319   1.000000
   21       -4.255823   1.000000
   22       -4.082486   1.000000
   23       -3.977881   1.000000
   24       -2.919735   1.000000
   25       -0.914158   0.000000
   26        2.579634   0.000000
   27        3.149984   0.000000
   28        3.576720   0.000000
 
  0.1000000E+00  0.2000000E+00  0.0000000E+00  0.2000000E-01
    1      -10.718208   1.000000
    2       -9.727447   1.000000
    3       -8.248408   1.000000
    4       -6.928820   1.000000
    5       -6.195088   1.000000
    6       -5.838564   1.000000
    7       -5.741395   1.000000
    8       -5.549600   1.000000
    9       -5.463828   1.000000
   10       -5.320241   1.000000
   11       -5.241013   1.000000
   12       -5.161986   1.000000
   13       -5.100777   1.000000
   14       -5.088378   1.000000
   15       -4.923258   1.000000
   16       -4.841724   1.000000
   17       -4.704623   1.000000
   18       -4.602674   1.000000
   19       -4.590647   1.000000
   20       -4.442036   1.000000
   21       -4.343187   1.000000
   22       -4.077895   1.000000
   23       -4.020909   1.000000
   24       -3.155476   1.000000
   25       -1.298221   0.000000
   26        2.339829   0.000000
   27        2.847522   0.000000
   28        3.272814   0.000000
 
  0.2000000E+00  0.2000000E+00  0.0000000E+00  0.2000000E-01
    1      -10.435175   1.000000
    2       -9.457285   1.000000
    3       -8.045165   1.000000
    4       -6.795688   1.000000
    5       -6.251245   1.000000
    6       -5.937425   1.000000
    7       -5.739133   1.000000
    8       -5.629731   1.000000
    9       -5.479371   1.000000
   10       -5.257521   1.000000
   11       -5.203904   1.000000
   12       -5.174615   1.000000
   13       -5.074153   1.000000
   14       -5.002340   1.000000
   15       -4.872456   1.000000
   16       -4.817741   1.000000
   17       -4.783351   1.000000
   18       -4.602197   1.000000
   19       -4.561634   1.000000
   20       -4.433438   1.000000
   21       -4.255684   1.000000
   22       -4.075992   1.000000
   23       -3.978018   1.000000
   24       -2.908985   1.000000
   25       -0.909516   0.000000
   26        2.579692   0.000000
   27        3.150260   0.000000
   28        3.575044   0.000000
 
  0.3000000E+00  0.2000000E+00  0.0000000E+00  0.2000000E-01
    1       -9.642374   1.000000
    2       -8.701098   1.000000
    3       -7.531204   1.000000
    4       -6.537427   1.000000
    5       -6.224174   1.000000
    6       -6.042317   1.000000
    7       -5.865796   1.000000
    8       -5.741712   1.000000
    9       -5.598447   1.000000
   10       -5.304042   1.000000
   11       -5.259270   1.000000
   12       -5.177328   1.000000
   13       -5.027937   1.000000
   14       -4.910974   1.000000
   15       -4.828655   1.000000
   16       -4.747847   1.000000
   17       -4.573743   1.000000
   18       -4.478539   1.000000
   19       -4.356098   1.000000
   20       -4.293544   1.000000
   21       -4.140212   1.000000
   22       -4.042368   1.000000
   23       -3.721749   1.000000
   24       -2.178589   0.021890
   25        0.143056   0.000000
   26        3.312582   0.000000
   27        4.055585   0.000000
   28        4.500230   0.000000
 
  0.4000000E+00  0.2000000E+00  0.0000000E+00  0.2000000E-01
    1       -8.578140   1.000000
    2       -7.679981   1.000000
    3       -7.002632   1.000000
    4       -6.465304   1.000000
    5       -6.136075   1.000000
    6       -6.044165   1.000000
    7       -5.900043   1.000000
    8       -5.836123   1.000000
    9       -5.571033   1.000000
   10       -5.412114   1.000000
   11       -5.363575   1.000000
   12       -5.293852   1.000000
   13       -4.974982   1.000000
   14       -4.901331   1.000000
   15       -4.757212   1.000000
   16       -4.617277   1.000000
   17       -4.408692   1.000000
   18       -4.262563   1.000000
   19       -4.187651   1.000000
   20       -3.978758   1.000000
   21       -3.917727   1.000000
   22       -3.570678   1.000000
   23       -2.857628   1.000000
   24       -0.931532   0.000000
   25        1.674405   0.000000
   26        4.515417   0.000000
   27        5.358833   0.000000
   28        5.655331   0.000000
 
  0.5000000E+00  0.2000000E+00  0.0000000E+00  0.2000000E-01
    1       -7.855777   1.000000
    2       -6.864413   1.000000
    3       -6.648488   1.000000
    4       -6.385488   1.000000
    5       -6.253632   1.000000
    6       -6.041222   1.000000
    7       -5.958212   1.000000
    8       -5.743704   1.000000
    9       -5.580900   1.000000
   10       -5.509789   1.000000
   11       -5.330416   1.000000
   12       -5.058016   1.000000
   13       -4.962829   1.000000
   14       -4.813175   1.000000
   15       -4.629513   1.000000
   16       -4.530266   1.000000
   17       -4.372597   1.000000
   18       -4.194031   1.000000
   19       -4.028101   1.000000
   20       -3.884018   1.000000
   21       -3.166742   1.000000
   22       -2.358704   0.702301
   23       -1.270179   0.000000
   24        0.711413   0.000000
   25        2.833890   0.000000
   26        3.102900   0.000000
   27        4.033755   0.000000
   28        5.222299   0.000000
 
 -0.4000000E+00  0.2000000E+00  0.0000000E+00  0.2000000E-01
    1       -7.683229   1.000000
    2       -6.663032   1.000000
    3       -6.548751   1.000000
    4       -6.320519   1.000000
    5       -6.198508   1.000000
    6       -6.108841   1.000000
    7       -5.966998   1.000000
    8       -5.820512   1.000000
    9       -5.528866   1.000000
   10       -5.448903   1.000000
   11       -5.246130   1.000000
   12       -5.097819   1.000000
   13       -4.897244   1.000000
   14       -4.693108   1.000000
   15       -4.562458   1.000000
   16       -4.448716   1.000000
   17       -4.277879   1.000000
   18       -4.103355   1.000000
   19       -4.059120   1.000000
   20       -3.954165   1.000000
   21       -2.319711   0.491854
   22       -0.749571   0.000000
   23       -0.213960   0.000000
   24        0.541059   0.000000
   25        1.711362   0.000000
   26        2.185816   0.000000
   27        3.505198   0.000000
   28        4.678123   0.000000
 
 -0.3000000E+00  0.2000000E+00  0.0000000E+00  0.2000000E-01
    1       -7.841768   1.000000
    2       -6.856346   1.000000
    3       -6.646767   1.000000
    4       -6.384015   1.000000
    5       -6.254379   1.000000
    6       -6.047722   1.000000
    7       -5.962696   1.000000
    8       -5.751254   1.000000
    9       -5.584159   1.000000
   10       -5.514326   1.000000
   11       -5.334668   1.000000
   12       -5.057423   1.000000
   13       -4.964498   1.000000
   14       -4.814329   1.000000
   15       -4.627752   1.000000
   16       -4.534498   1.000000
   17       -4.371110   1.000000
   18       -4.195684   1.000000
   19       -4.025121   1.000000
   20       -3.882911   1.000000
   21       -3.141148   1.000000
   22       -2.362717   0.721660
   23       -1.287724   0.000000
   24        0.689899   0.000000
   25        2.837141   0.000000
   26        3.098602   0.000000
   27        4.026290   0.000000
   28        5.199958   0.000000
 
 -0.2000000E+00  0.2000000E+00  0.0000000E+00  0.2000000E-01
    1       -8.584560   1.000000
    2       -7.667584   1.000000
    3       -6.979042   1.000000
    4       -6.462294   1.000000
    5       -6.137194   1.000000
    6       -6.045816   1.000000
    7       -5.902192   1.000000
    8       -5.838312   1.000000
    9       -5.570817   1.000000
   10       -5.411718   1.000000
   11       -5.380333   1.000000
   12       -5.294661   1.000000
   13       -4.973755   1.000000
   14       -4.895418   1.000000
   15       -4.775107   1.000000
   16       -4.609950   1.000000
   17       -4.407604   1.000000
   18       -4.264134   1.000000
   19       -4.176881   1.000000
   20       -3.976717   1.000000
   21       -3.910067   1.000000
   22       -3.573021   1.000000
   23       -2.874051   1.000000
   24       -0.955536   0.000000
   25        1.656650   0.000000
   26        4.502988   0.000000
   27        5.356582   0.000000
   28        5.642507   0.000000
 
 -0.1000000E+00  0.2000000E+00  0.0000000E+00  0.2000000E-01
    1       -9.653580   1.000000
    2       -8.697008   1.000000
    3       -7.510677   1.000000
    4       -6.517912   1.000000
    5       -6.212801   1.000000
    6       -6.043030   1.000000
    7       -5.865599   1.000000
    8       -5.743496   1.000000
    9       -5.596989   1.000000
   10       -5.303386   1.000000
   11       -5.259252   1.000000
   12       -5.186994   1.000000
   13       -5.033777   1.000000
   14       -4.908125   1.000000
   15       -4.831568   1.000000
   16       -4.748032   1.000000
   17       -4.569550   1.000000
   18       -4.483285   1.000000
   19       -4.363883   1.000000
   20       -4.292944   1.000000
   21       -4.139306   1.000000
   22       -4.041762   1.000000
   23       -3.735053   1.000000
   24       -2.198378   0.041253
   25        0.132583   0.000000
   26        3.310651   0.000000
   27        4.055213   0.000000
   28        4.509081   0.000000
 
  0.0000000E+00  0.3000000E+00  0.0000000E+00  0.2000000E-01
    1       -9.199677   1.000000
    2       -8.293598   1.000000
    3       -7.346998   1.000000
    4       -6.545454   1.000000
    5       -6.338803   1.000000
    6       -6.151976   1.000000
    7       -5.858392   1.000000
    8       -5.641137   1.000000
    9       -5.515841   1.000000
   10       -5.278341   1.000000
   11       -5.176827   1.000000
   12       -5.053257   1.000000
   13       -4.886670   1.000000
   14       -4.825379   1.000000
   15       -4.734268   1.000000
   16       -4.606311   1.000000
   17       -4.506112   1.000000
   18       -4.368588   1.000000
   19       -4.333045   1.000000
   20       -4.244429   1.000000
   21       -4.127263   1.000000
   22       -3.964837   1.000000
   23       -3.612401   1.000000
   24       -1.772487   0.000000
   25        0.739503   0.000000
   26        3.739720   0.000000
   27        4.631387   0.000000
   28        5.044587   0.000000
 
  0.1000000E+00  0.3000000E+00  0.0000000E+00  0.2000000E-01
    1       -9.645100   1.000000
    2       -8.703067   1.000000
    3       -7.532959   1.000000
    4       -6.530785   1.000000
    5       -6.228162   1.000000
    6       -6.036096   1.000000
    7       -5.852860   1.000000
    8       -5.740912   1.000000
    9       -5.596127   1.000000
   10       -5.300246   1.000000
   11       -5.256687   1.000000
   12       -5.172515   1.000000
   13       -5.038461   1.000000
   14       -4.930990   1.000000
   15       -4.834751   1.000000
   16       -4.746157   1.000000
   17       -4.576565   1.000000
   18       -4.474313   1.000000
   19       -4.353418   1.000000
   20       -4.293513   1.000000
   21       -4.140370   1.000000
   22       -4.042704   1.000000
   23       -3.718354   1.000000
   24       -2.176243   0.020213
   25        0.143553   0.000000
   26        3.311340   0.000000
   27        4.055803   0.000000
   28        4.507677   0.000000
 
  0.2000000E+00  0.3000000E+00  0.0000000E+00  0.2000000E-01
    1       -9.637829   1.000000
    2       -8.704165   1.000000
    3       -7.541944   1.000000
    4       -6.542589   1.000000
    5       -6.230349   1.000000
    6       -6.039281   1.000000
    7       -5.860287   1.000000
    8       -5.740717   1.000000
    9       -5.598228   1.000000
   10       -5.302853   1.000000
   11       -5.258547   1.000000
   12       -5.171656   1.000000
   13       -5.030809   1.000000
   14       -4.921801   1.000000
   15       -4.831906   1.000000
   16       -4.746568   1.000000
   17       -4.576848   1.000000
   18       -4.473721   1.000000
   19       -4.351110   1.000000
   20       -4.293560   1.000000
   21       -4.140461   1.000000
   22       -4.042455   1.000000
   23       -3.713347   1.000000
   24       -2.166306   0.014266
   25        0.149094   0.000000
   26        3.312910   0.000000
   27        4.055865   0.000000
   28        4.510599   0.000000
 
  0.3000000E+00  0.3000000E+00  0.0000000E+00  0.2000000E-01
    1       -9.178605   1.000000
    2       -8.299542   1.000000
    3       -7.372356   1.000000
    4       -6.572091   1.000000
    5       -6.339048   1.000000
    6       -6.162817   1.000000
    7       -5.866455   1.000000
    8       -5.642874   1.000000
    9       -5.518839   1.000000
   10       -5.279506   1.000000
   11       -5.169691   1.000000
   12       -5.051917   1.000000
   13       -4.875507   1.000000
   14       -4.824923   1.000000
   15       -4.734544   1.000000
   16       -4.599316   1.000000
   17       -4.506963   1.000000
   18       -4.366320   1.000000
   19       -4.332347   1.000000
   20       -4.244680   1.000000
   21       -4.127808   1.000000
   22       -3.965027   1.000000
   23       -3.594555   1.000000
   24       -1.744327   0.000000
   25        0.758835   0.000000
   26        3.752064   0.000000
   27        4.629438   0.000000
   28        5.062677   0.000000
 
  0.4000000E+00  0.3000000E+00  0.0000000E+00  0.2000000E-01
    1       -8.441446   1.000000
    2       -7.614424   1.000000
    3       -7.058412   1.000000
    4       -6.524619   1.000000