unknown system                          
   1.00000000000000     
     2.573869    0.000000    0.000000
     1.286934    2.229036    0.000000
     0.000000    0.000000   30.304665
   Cu   H 
     4     1
Direct
  0.000000  0.000000  0.395979
  0.333333  0.333333  0.465326
  0.666667  0.666667  0.534674
  0.000000  0.000000  0.604021
  0.705519  0.666667  0.637020
 
   10   10  120
 0.28163E-10 0.29746E-10 0.22256E-12 0.22991E-10 0.35805E-13 0.43426E-11 0.11616E-13 0.47598E-09 0.65149E-13 0.11743E-10
 0.30206E-10 0.13021E-10 0.25975E-12 0.16390E-10 0.30850E-13 0.20646E-09 0.13434E-13 0.31305E-11 0.56344E-13 0.12507E-10
 0.24818E-12 0.26912E-12 0.17449E-12 0.10518E-12 0.59536E-14 0.81504E-13 0.22801E-13 0.15524E-12 0.12011E-13 0.32441E-12
 0.24184E-10 0.16463E-10 0.99254E-13 0.56663E-13 0.12518E-13 0.62980E-12 0.14294E-13 0.10843E-11 0.73677E-13 0.77227E-10
 0.35416E-13 0.30753E-13 0.58564E-14 0.12379E-13 0.17680E-13 0.25188E-13 0.20955E-14 0.59508E-13 0.39857E-13 0.26354E-13
 0.24372E-11 0.64668E-10 0.92842E-13 0.47357E-12 0.20067E-13 0.33316E-11 0.17014E-13 0.20688E-12 0.18929E-13 0.30374E-09
 0.18319E-13 0.20983E-13 0.33848E-13 0.23287E-13 0.27062E-14 0.22218E-13 0.97422E-14 0.66058E-14 0.26645E-14 0.24702E-13
 0.35490E-11 0.97845E-12 0.76841E-13 0.47194E-12 0.65906E-13 0.17111E-12 0.38303E-14 0.37789E-13 0.53429E-13 0.51480E-12
 0.18406E-12 0.13907E-12 0.21105E-13 0.20741E-12 0.52056E-13 0.43757E-13 0.28311E-14 0.10641E-12 0.70707E-13 0.11022E-12
 0.14360E-10 0.14658E-10 0.31340E-12 0.51673E-10 0.26049E-13 0.46300E-09 0.15876E-13 0.13878E-11 0.47566E-13 0.12075E-10
 0.10887E-11 0.79838E-12 0.47113E-12 0.15716E-11 0.82295E-14 0.42072E-12 0.65822E-13 0.37399E-12 0.22114E-13 0.64732E-12
 0.72773E-12 0.12603E-08 0.36283E-12 0.47404E-11 0.15321E-13 0.10728E-10 0.36998E-13 0.32005E-11 0.71044E-13 0.13464E-10
 0.48038E-12 0.37466E-12 0.18754E-12 0.75481E-13 0.31919E-14 0.59036E-13 0.52208E-13 0.19733E-12 0.15661E-13 0.35734E-12
 0.13146E-11 0.47233E-11 0.72331E-13 0.12268E-13 0.40523E-14 0.18914E-12 0.41772E-13 0.13044E-11 0.74621E-13 0.23845E-09
 0.80908E-14 0.15404E-13 0.30531E-14 0.40384E-14 0.69944E-14 0.12768E-13 0.30392E-14 0.31614E-13 0.31572E-13 0.16334E-13
 0.49868E-12 0.44615E-11 0.64115E-13 0.16503E-12 0.10547E-13 0.29985E-11 0.38719E-13 0.13680E-11 0.32224E-13 0.64170E-11
 0.10711E-12 0.62131E-13 0.77022E-13 0.75523E-13 0.36499E-14 0.52167E-13 0.35055E-13 0.25036E-13 0.58981E-14 0.56080E-13
 0.16115E-12 0.11368E-11 0.97977E-13 0.65113E-12 0.36166E-13 0.97143E-12 0.11269E-13 0.36485E-12 0.10816E-12 0.12365E-11
 0.40076E-13 0.16490E-12 0.26309E-13 0.19255E-12 0.36859E-13 0.82587E-13 0.63283E-14 0.25288E-12 0.96118E-13 0.95861E-13
 0.61895E-12 0.15799E-10 0.35146E-12 0.12909E-09 0.16293E-13 0.42406E-11 0.34500E-13 0.45407E-11 0.45040E-13 0.36792E-11
 0.26344E-13 0.34396E-13 0.63421E-13 0.36873E-13 0.18874E-14 0.29726E-13 0.48378E-13 0.21649E-13 0.55303E-14 0.31954E-13
 0.32370E-13 0.22073E-10 0.43746E-12 0.15788E-11 0.73552E-14 0.10265E-11 0.70610E-13 0.29803E-11 0.59758E-13 0.13420E-10
 0.61631E-13 0.44879E-12 0.11889E-12 0.26479E-13 0.17070E-14 0.21622E-13 0.72123E-13 0.19217E-12 0.14530E-13 0.36137E-12
 0.35236E-13 0.15680E-11 0.25271E-13 0.37054E-14 0.15543E-14 0.41411E-13 0.82295E-13 0.13544E-11 0.72192E-13 0.27666E-08
 0.18319E-14 0.74662E-14 0.16931E-14 0.15266E-14 0.28588E-14 0.63283E-14 0.25119E-14 0.13767E-13 0.16750E-13 0.79797E-14
 0.33529E-13 0.76804E-12 0.22871E-13 0.39233E-13 0.54123E-14 0.30793E-11 0.86653E-13 0.28839E-11 0.28921E-13 0.30147E-11
 0.53180E-13 0.12759E-12 0.97658E-13 0.16420E-12 0.31225E-14 0.12787E-12 0.96839E-13 0.67862E-13 0.95202E-14 0.12866E-12
 0.15307E-13 0.11462E-11 0.99157E-13 0.66169E-12 0.15543E-13 0.18653E-11 0.26590E-13 0.74687E-12 0.89706E-13 0.24781E-11
 0.78479E-14 0.13317E-12 0.23904E-13 0.17435E-12 0.17777E-13 0.71054E-13 0.11047E-13 0.19440E-12 0.90136E-13 0.78396E-13
 0.30621E-13 0.15830E-10 0.35204E-12 0.58530E-09 0.80491E-14 0.22853E-11 0.72900E-13 0.17124E-10 0.40523E-13 0.16887E-11
 0.59674E-14 0.77022E-14 0.11491E-13 0.82573E-14 0.74940E-15 0.57732E-14 0.12282E-13 0.58981E-14 0.19568E-14 0.72442E-14
 0.73552E-14 0.46130E-11 0.69823E-12 0.97233E-12 0.52458E-14 0.47330E-12 0.32267E-12 0.29739E-11 0.72609E-13 0.15778E-10
 0.11352E-13 0.73437E-12 0.11141E-12 0.23273E-13 0.11380E-14 0.19068E-13 0.13282E-12 0.23725E-12 0.15363E-13 0.36220E-12
 0.79659E-14 0.97050E-12 0.22912E-13 0.19429E-14 0.90206E-15 0.28047E-13 0.43042E-12 0.15755E-11 0.65725E-13 0.12721E-08
 0.74940E-15 0.52180E-14 0.10963E-14 0.95757E-15 0.17486E-14 0.45242E-14 0.29282E-14 0.94091E-14 0.11116E-13 0.60923E-14
 0.63283E-14 0.40055E-12 0.19901E-13 0.27117E-13 0.40523E-14 0.28642E-11 0.33804E-12 0.76832E-11 0.41106E-13 0.15097E-11
 0.11380E-13 0.69397E-12 0.15844E-12 0.11326E-11 0.34278E-14 0.53565E-12 0.28411E-12 0.82601E-13 0.16875E-13 0.43943E-12
 0.48017E-14 0.13299E-11 0.12458E-12 0.87774E-12 0.10533E-13 0.54170E-11 0.39913E-13 0.19354E-12 0.11063E-12 0.24105E-10
 0.25674E-14 0.15354E-12 0.24133E-13 0.14748E-12 0.11185E-13 0.92121E-13 0.21011E-13 0.21255E-12 0.10711E-12 0.64948E-13
 0.71471E-14 0.18654E-10 0.35284E-12 0.14931E-07 0.60785E-14 0.12818E-11 0.24064E-12 0.13281E-09 0.35555E-13 0.10016E-11
 0.18180E-14 0.22760E-14 0.31086E-14 0.23592E-14 0.26368E-15 0.18041E-14 0.26090E-14 0.19568E-14 0.72164E-15 0.22066E-14
 0.22621E-14 0.19922E-11 0.10625E-11 0.51611E-12 0.31364E-14 0.18914E-12 0.11197E-11 0.28196E-11 0.67182E-13 0.15713E-10
 0.30809E-14 0.11286E-11 0.76619E-13 0.84655E-14 0.58287E-15 0.74940E-14 0.12620E-12 0.25134E-12 0.15307E-13 0.40377E-12
 0.23315E-14 0.51807E-12 0.83961E-14 0.74940E-15 0.38858E-15 0.94924E-14 0.17459E-11 0.17335E-11 0.77230E-13 0.16234E-09
 0.22204E-15 0.31641E-14 0.55511E-15 0.38858E-15 0.81879E-15 0.27478E-14 0.24147E-14 0.46907E-14 0.59397E-14 0.32196E-14
 0.20262E-14 0.17342E-12 0.76744E-14 0.92565E-14 0.24980E-14 0.30832E-11 0.79595E-12 0.61964E-12 0.23315E-13 0.17994E-11
 0.24980E-14 0.28897E-11 0.12605E-12 0.67251E-11 0.27062E-14 0.12831E-11 0.12010E-12 0.21899E-13 0.15404E-13 0.72314E-12
 0.17486E-14 0.14044E-11 0.13727E-12 0.10191E-11 0.52458E-14 0.57382E-12 0.16903E-13 0.24009E-13 0.47767E-13 0.11069E-06
 0.98532E-15 0.13636E-12 0.23453E-13 0.16193E-12 0.60507E-14 0.43104E-13 0.19401E-13 0.72720E-13 0.93592E-13 0.63657E-13
 0.21649E-14 0.18594E-10 0.39549E-12 0.28785E-09 0.32752E-14 0.14770E-11 0.45278E-12 0.13763E-10 0.37789E-13 0.63904E-12
 0.52736E-15 0.74940E-15 0.13184E-14 0.86042E-15 0.20817E-15 0.69389E-15 0.83267E-15 0.70777E-15 0.38858E-15 0.79103E-15
 0.77716E-15 0.10726E-11 0.25211E-11 0.36153E-12 0.20539E-14 0.10747E-12 0.94859E-11 0.27794E-11 0.85529E-13 0.23693E-10
 0.13045E-14 0.26809E-11 0.67987E-13 0.62450E-14 0.42327E-15 0.54956E-14 0.11295E-12 0.34447E-12 0.18541E-13 0.37235E-12
 0.86042E-15 0.36197E-12 0.62728E-14 0.51348E-15 0.24980E-15 0.63075E-14 0.32543E-10 0.18403E-11 0.71387E-13 0.63241E-10
 0.13878E-15 0.20539E-14 0.34694E-15 0.25674E-15 0.57593E-15 0.17902E-14 0.22204E-14 0.30254E-14 0.42466E-14 0.21649E-14
 0.61062E-15 0.10149E-12 0.56205E-14 0.62658E-14 0.16653E-14 0.30596E-11 0.16706E-11 0.23812E-12 0.19595E-13 0.17002E-11
 0.77716E-15 0.26598E-10 0.10041E-12 0.90019E-09 0.23315E-14 0.21810E-11 0.51736E-13 0.70499E-14 0.13711E-13 0.79894E-12
 0.80491E-15 0.15845E-11 0.19100E-12 0.11635E-11 0.32752E-14 0.23878E-12 0.66613E-14 0.67724E-14 0.32419E-13 0.10602E-10
 0.51348E-15 0.16237E-12 0.27339E-13 0.13972E-12 0.41911E-14 0.31558E-13 0.17486E-13 0.43687E-13 0.10913E-12 0.52430E-13
 0.81879E-15 0.29020E-10 0.36372E-12 0.84442E-10 0.21927E-14 0.14289E-11 0.70768E-12 0.36326E-11 0.33168E-13 0.45580E-12
 0.41633E-15 0.47184E-15 0.52736E-15 0.36082E-15 0.15266E-15 0.49960E-15 0.36082E-15 0.30531E-15 0.16653E-15 0.47184E-15
 0.45797E-15 0.67873E-12 0.78080E-11 0.23765E-12 0.13878E-14 0.59938E-13 0.12089E-10 0.26545E-11 0.68875E-13 0.24977E-10
 0.49960E-15 0.84539E-11 0.54463E-13 0.34833E-14 0.33307E-15 0.30809E-14 0.70520E-13 0.39319E-12 0.15182E-13 0.35184E-12
 0.47184E-15 0.23728E-12 0.34209E-14 0.30184E-15 0.15613E-15 0.34313E-14 0.31218E-10 0.19903E-11 0.80075E-13 0.33732E-10
 0.11102E-15 0.13323E-14 0.24980E-15 0.12490E-15 0.31919E-15 0.12074E-14 0.17208E-14 0.19984E-14 0.27200E-14 0.15543E-14
 0.47184E-15 0.58176E-13 0.31225E-14 0.34070E-14 0.11519E-14 0.34352E-11 0.66286E-12 0.55206E-13 0.99920E-14 0.52372E-11
 0.38858E-15 0.88213E-11 0.59612E-13 0.20677E-10 0.18319E-14 0.66042E-12 0.12629E-13 0.22204E-14 0.64948E-14 0.29438E-12
 0.40246E-15 0.16788E-11 0.22676E-12 0.13274E-11 0.21649E-14 0.56899E-13 0.21094E-14 0.25535E-14 0.13961E-13 0.37954E-11
 0.24980E-15 0.12526E-12 0.21982E-13 0.14816E-12 0.27200E-14 0.14405E-13 0.73830E-14 0.17153E-13 0.97256E-13 0.51986E-13
 0.43021E-15 0.30324E-10 0.34479E-12 0.41214E-10 0.15543E-14 0.35696E-11 0.34162E-12 0.20871E-11 0.34722E-13 0.33318E-12
 0.83267E-16 0.24980E-15 0.24980E-15 0.27756E-15 0.69389E-16 0.30531E-15 0.19429E-15 0.20817E-15 0.83267E-16 0.27062E-15
 0.26368E-15 0.45529E-12 0.97494E-09 0.17883E-12 0.99920E-15 0.37713E-13 0.26659E-11 0.24995E-11 0.81837E-13 0.54369E-10
 0.29143E-15 0.11727E-08 0.42216E-13 0.22413E-14 0.21511E-15 0.19984E-14 0.38192E-13 0.54741E-12 0.18235E-13 0.35849E-12
 0.36082E-15 0.17801E-12 0.21927E-14 0.19082E-15 0.97145E-16 0.20938E-14 0.33572E-11 0.20937E-11 0.80880E-13 0.20540E-10
 0.16653E-15 0.91593E-15 0.14572E-15 0.10408E-15 0.24113E-15 0.88818E-15 0.15543E-14 0.13878E-14 0.17486E-14 0.11380E-14
 0.11102E-15 0.36984E-13 0.20470E-14 0.21389E-14 0.77716E-15 0.35033E-11 0.24680E-12 0.24619E-13 0.67168E-14 0.20226E-10
 0.22204E-15 0.15763E-11 0.32037E-13 0.19158E-11 0.15821E-14 0.22923E-12 0.49405E-14 0.97145E-15 0.33584E-14 0.12160E-12
 0.29143E-15 0.17701E-11 0.32452E-12 0.15149E-11 0.14710E-14 0.25702E-13 0.99920E-15 0.11657E-14 0.81046E-14 0.17243E-11
 0.15266E-15 0.13811E-12 0.25313E-13 0.13894E-12 0.16931E-14 0.87708E-14 0.38303E-14 0.94369E-14 0.88346E-13 0.45519E-13
 0.22898E-15 0.69765E-10 0.35456E-12 0.23413E-10 0.11241E-14 0.93698E-11 0.14996E-12 0.12209E-11 0.32460E-13 0.25907E-12
 0.27756E-16 0.16653E-15 0.83267E-16 0.13878E-15 0.13878E-16 0.16653E-15 0.12490E-15 0.12490E-15 0.27756E-16 0.18041E-15
 0.13878E-15 0.32981E-12 0.24759E-10 0.13205E-12 0.66613E-15 0.24487E-13 0.50129E-12 0.23185E-11 0.74343E-13 0.12181E-09
 0.13184E-15 0.23275E-10 0.36110E-13 0.16515E-14 0.20123E-15 0.15127E-14 0.22590E-13 0.61572E-12 0.16362E-13 0.34987E-12
 0.16653E-15 0.13122E-12 0.16237E-14 0.16567E-15 0.12490E-15 0.14797E-14 0.51124E-12 0.21994E-11 0.64893E-13 0.13873E-10
 0.13878E-16 0.80491E-15 0.10755E-15 0.13878E-16 0.16653E-15 0.63144E-15 0.12768E-14 0.86042E-15 0.12768E-14 0.80491E-15
 0.22204E-15 0.24335E-13 0.14710E-14 0.14884E-14 0.56899E-15 0.44664E-11 0.79922E-13 0.11963E-13 0.43854E-14 0.86224E-11
 0.83267E-16 0.34620E-12 0.19793E-13 0.35751E-12 0.12906E-14 0.72872E-13 0.21927E-14 0.38858E-15 0.17764E-14 0.45866E-13
 0.16653E-15 0.17798E-11 0.37798E-12 0.16633E-11 0.88818E-15 0.12323E-13 0.47184E-15 0.66613E-15 0.50238E-14 0.12643E-11
 0.83267E-16 0.11711E-12 0.21642E-13 0.10510E-12 0.13045E-14 0.53291E-14 0.19151E-14 0.55789E-14 0.78992E-13 0.36131E-13
 0.11796E-15 0.16486E-09 0.34754E-12 0.15330E-10 0.69389E-15 0.21420E-10 0.55997E-13 0.97289E-12 0.26465E-13 0.20353E-12
 0.13878E-16 0.12490E-15 0.48572E-16 0.55511E-16 -.41633E-16 0.13878E-15 0.13878E-16 0.41633E-16  0.0000     0.55511E-16
 0.12490E-15 0.24701E-12 0.33815E-11 0.10103E-12 0.63144E-15 0.19762E-13 0.14392E-12 0.21219E-11 0.99212E-13 0.17504E-08
 0.13184E-15 0.32834E-11 0.29320E-13 0.11137E-14 0.18345E-15 0.10755E-14 0.13448E-13 0.85235E-12 0.20546E-13 0.42340E-12
 0.13878E-15 0.10066E-12 0.10998E-14 0.40766E-16 0.34694E-16 0.93675E-15 0.14073E-12 0.23127E-11 0.82601E-13 0.97711E-11
 0.48572E-16 0.63144E-15 0.63317E-16 0.38164E-16 0.16914E-15 0.58287E-15 0.11519E-14 0.70777E-15 0.91593E-15 0.62450E-15
 0.11102E-15 0.19398E-13 0.10617E-14 0.10512E-14 0.57593E-15 0.43772E-11 0.38289E-13 0.64948E-14 0.28866E-14 0.26286E-11
 0.55511E-16 0.10892E-12 0.11841E-13 0.10725E-12 0.11380E-14 0.36131E-13 0.13184E-14 0.31919E-15 0.11519E-14 0.24598E-13
 0.21511E-15 0.17697E-11 0.54456E-12 0.19154E-11 0.74940E-15 0.68834E-14 0.16653E-15 0.33307E-15 0.31919E-14 0.77870E-12
 0.11102E-15 0.15141E-12 0.26569E-13 0.12714E-12 0.91593E-15 0.33862E-14 0.11935E-14 0.33307E-14 0.74593E-13 0.37158E-13
 0.13184E-15 0.90798E-08 0.42006E-12 0.10450E-10 0.58981E-15 0.44142E-11 0.28776E-13 0.67260E-12 0.29109E-13 0.16599E-12
 0.97145E-16 0.34694E-16 -.69389E-17 0.76328E-16 -.20817E-16 0.41633E-16 0.69389E-17 0.34694E-16 -.69389E-17 0.34694E-16
 0.12490E-15 0.19033E-12 0.17404E-11 0.79541E-13 0.44409E-15 0.11977E-13 0.55317E-13 0.19253E-11 0.68640E-13 0.30604E-09
 0.27756E-16 0.17561E-11 0.21150E-13 0.79103E-15 0.11102E-15 0.69042E-15 0.67307E-14 0.10273E-11 0.16799E-13 0.32814E-12
 0.10408E-15 0.78972E-13 0.79797E-15 0.31225E-16 0.10408E-15 0.64532E-15 0.52257E-13 0.24083E-11 0.68695E-13 0.74042E-11
 0.69389E-16 0.43715E-15 0.13878E-16  0.0000     -.69389E-17 0.33307E-15 0.80491E-15 0.44409E-15 0.58287E-15 0.43021E-15
 0.62450E-16 0.12046E-13 0.71818E-15 0.69042E-15 0.44409E-15 0.71940E-11 0.15807E-13 0.33723E-14 0.17208E-14 0.43243E-12
 0.55511E-16 0.46581E-13 0.62311E-14 0.44971E-13 0.86042E-15 0.15155E-13 0.63838E-15 0.13878E-15 0.52736E-15 0.11102E-13
 0.15959E-15 0.16977E-11 0.67713E-12 0.20901E-11 0.47184E-15 0.36082E-14 0.18041E-15 0.27062E-15 0.18457E-14 0.66420E-12
 0.76328E-16 0.94952E-13 0.20657E-13 0.97700E-13 0.55511E-15 0.20262E-14 0.45797E-15 0.19151E-14 0.53325E-13 0.30122E-13
 0.34694E-16 0.23164E-09 0.32443E-12 0.78185E-11 0.39552E-15 0.55867E-12 0.12643E-13 0.59187E-12 0.24501E-13 0.13606E-12
 -.34694E-16 0.69389E-16 0.27756E-16 0.41633E-16 -.13878E-16 0.11102E-15  0.0000     0.34694E-16 0.20817E-16 0.11102E-15
 0.11102E-15 0.15014E-12 0.92450E-12 0.63748E-13 0.40939E-15 0.10880E-13 0.26514E-13 0.17282E-11 0.79749E-13 0.38279E-10
 0.13878E-16 0.91758E-12 0.18346E-13 0.71471E-15 0.11796E-15 0.58981E-15 0.49544E-14 0.12463E-11 0.19929E-13 0.35046E-12
 0.97145E-16 0.64067E-13 0.68695E-15 0.55511E-16 0.62450E-16 0.58287E-15 0.24952E-13 0.24248E-11 0.78437E-13 0.57406E-11
 0.13878E-16 0.40246E-15 0.34694E-16 0.83267E-16 0.97145E-16 0.37470E-15 0.79797E-15 0.38858E-15 0.43715E-15 0.31919E-15
 0.20817E-16 0.10769E-13 0.64532E-15 0.61756E-15 0.32613E-15 0.69887E-11 0.98116E-14 0.28588E-14 0.17625E-14 0.27887E-12
 0.34694E-16 0.23405E-13 0.45658E-14 0.21663E-13 0.73552E-15 0.94647E-14 0.56899E-15 0.20123E-15 0.55511E-15 0.74038E-14
 0.97145E-16 0.16030E-11 0.88141E-12 0.22185E-11 0.44409E-15 0.30045E-14 0.15959E-15 0.14572E-15 0.16515E-14 0.50910E-12
 0.48572E-16 0.10912E-12 0.24238E-13 0.10567E-12 0.50654E-15 0.18041E-14 0.45103E-15 0.16376E-14 0.55671E-13 0.29275E-13
 0.15959E-15 0.33446E-10 0.34774E-12 0.59498E-11 0.37470E-15 0.33577E-12 0.80630E-14 0.47152E-12 0.24772E-13 0.11517E-12
 -.55511E-16 0.69389E-17 0.69389E-17 0.69389E-17  0.0000     0.41633E-16 -.20817E-16 -.13878E-16 -.69389E-16 -.20817E-16
 0.27756E-16 0.12161E-12 0.57935E-12 0.51938E-13 0.31225E-15 0.75634E-14 0.13899E-13 0.15470E-11 0.82066E-13 0.15278E-10
  0.0000     0.58385E-12 0.14801E-13 0.47878E-15 0.62450E-16 0.45103E-15 0.30601E-14 0.16131E-11 0.20574E-13 0.34168E-12
 0.69389E-16 0.51709E-13 0.49266E-15 0.13878E-16 0.97145E-16 0.43021E-15 0.13267E-13 0.25049E-11 0.69195E-13 0.44934E-11
 0.20817E-16 0.28449E-15 0.13878E-16 -.27756E-16 0.41633E-16 0.27062E-15 0.54817E-15 0.36082E-15 0.45797E-15 0.34694E-15
 0.48572E-16 0.77091E-14 0.46491E-15 0.44409E-15 0.29143E-15 0.12621E-10 0.55789E-14 0.15890E-14 0.95757E-15 0.12781E-12
 -.20817E-16 0.12851E-13 0.29143E-14 0.12310E-13 0.60368E-15 0.54540E-14 0.29837E-15 0.34694E-16 0.22204E-15 0.43021E-14
 0.55511E-16 0.14783E-11 0.11973E-11 0.24063E-11 0.34001E-15 0.17555E-14 -.20817E-16 0.11796E-15 0.95757E-15 0.43611E-12
 0.27756E-16 0.10335E-12 0.24016E-13 0.87388E-13 0.39552E-15 0.10408E-14 0.25674E-15 0.93675E-15 0.46158E-13 0.25410E-13
 0.55511E-16 0.14801E-10 0.33943E-12 0.46254E-11 0.27756E-15 0.15270E-12 0.45797E-14 0.41156E-12 0.22142E-13 0.97138E-13
 -.69389E-17 0.20817E-16 0.13878E-16 0.69389E-17 -.69389E-17 0.48572E-16 -.90206E-16 0.13878E-16 -.41633E-16 -.69389E-17
 0.76328E-16 0.97589E-13 0.40101E-12 0.41876E-13 0.25674E-15 0.61409E-14 0.76883E-14 0.13794E-11 0.74662E-13 0.38256E-11
 0.34694E-16 0.40095E-12 0.12504E-13 0.34694E-15 0.55511E-16 0.34694E-15 0.21580E-14 0.19492E-11 0.18097E-13 0.34824E-12
 0.83267E-16 0.41966E-13 0.36082E-15 -.41633E-16 0.83267E-16 0.33307E-15 0.72858E-14 0.23748E-11 0.64622E-13 0.36462E-11
 0.20817E-16 0.20123E-15 -.27756E-16 -.20817E-16 0.83267E-16 0.18735E-15 0.44409E-15 0.23592E-15 0.34694E-15 0.26368E-15
 -.20817E-16 0.61270E-14 0.30531E-15 0.27756E-15 0.20123E-15 0.15433E-10 0.34694E-14 0.12906E-14 0.76328E-15 0.77577E-13
 0.69389E-17 0.73136E-14 0.20609E-14 0.68001E-14 0.48572E-15 0.33792E-14 0.28449E-15 0.97145E-16 0.15266E-15 0.28519E-14
 0.48572E-16 0.13535E-11 0.15349E-11 0.23307E-11 0.20123E-15 0.13461E-14 0.12490E-15 -.20817E-16 0.76328E-15 0.39445E-12
 0.27756E-16 0.90379E-13 0.20345E-13 0.77660E-13 0.36776E-15 0.86042E-15 0.15959E-15 0.63144E-15 0.42827E-13 0.22260E-13
 0.83267E-16 0.38608E-11 0.34824E-12 0.37077E-11 0.20123E-15 0.90289E-13 0.29490E-14 0.37269E-12 0.20067E-13 0.84314E-13
 -.27756E-16 0.20817E-16 0.20817E-16 -.34694E-16 0.34694E-16 0.55511E-16 0.62450E-16 -.13878E-16  0.0000     -.34694E-16
 0.41633E-16 0.81421E-13 0.26519E-12 0.34930E-13 0.25674E-15 0.51487E-14 0.47878E-14 0.12317E-11 0.78076E-13 0.23087E-11
 0.69389E-17 0.26833E-12 0.10734E-13 0.27756E-15 0.76328E-16 0.31919E-15 0.15335E-14 0.37644E-11 0.21497E-13 0.34638E-12
 0.90206E-16 0.34563E-13 0.31919E-15 -.27756E-16 0.83267E-16 0.23592E-15 0.44895E-14 0.23949E-11 0.69160E-13 0.29708E-11
 0.27756E-16 0.15959E-15 0.69389E-17 0.27756E-16 0.83267E-16 0.19429E-15 0.38858E-15 0.18041E-15 0.21511E-15 0.23592E-15
 0.14572E-15 0.51834E-14 0.33307E-15 0.26368E-15 0.17347E-15 0.26513E-10 0.25049E-14 0.89512E-15 0.78410E-15 0.53839E-13
 -.48572E-16 0.46560E-14 0.15404E-14 0.45797E-14 0.38164E-15 0.24841E-14 0.20817E-15 -.13878E-16 0.23592E-15 0.20817E-14
 0.62450E-16 0.12265E-11 0.31024E-11 0.24025E-11 0.19429E-15 0.93675E-15 -.32960E-16 -.41633E-16 0.67307E-15 0.35478E-12
 0.69389E-17 0.87888E-13 0.23342E-13 0.77639E-13 0.18041E-15 0.69389E-15 0.22898E-15 0.56899E-15 0.31211E-13 0.21171E-13
 -.27756E-16 0.23888E-11 0.34928E-12 0.30076E-11 0.15959E-15 0.62741E-13 0.21372E-14 0.33688E-12 0.19817E-13 0.72525E-13
 -.27756E-16  0.0000     -.41633E-16 -.48572E-16 -.27756E-16 -.34694E-16 -.69389E-16 -.27756E-16 0.13878E-16 -.34694E-16
 -.20817E-16 0.65642E-13 0.19551E-12 0.29386E-13 0.11796E-15 0.33237E-14 0.31433E-14 0.10822E-11 0.59099E-13 0.92110E-12
 0.69389E-17 0.19693E-12 0.82989E-14 0.15266E-15 -.69389E-17 0.13184E-15 0.97838E-15 0.63464E-11 0.16959E-13 0.28732E-12
 0.13878E-16 0.29282E-13 0.23592E-15  0.0000     0.62450E-16 0.12490E-15 0.29560E-14 0.22570E-11 0.62110E-13 0.24898E-11
 0.13878E-16 -.69389E-17 -.48572E-16 0.20817E-16  0.0000     0.15959E-15 0.30531E-15 0.12490E-15 0.16653E-15 0.15266E-15
 -.20817E-16 0.32821E-14 0.13878E-15 0.12490E-15 0.11102E-15 0.69555E-10 0.14259E-14 0.56552E-15 0.34694E-15 0.28925E-13
 -.97145E-16 0.31364E-14 0.97838E-15 0.29560E-14 0.30531E-15 0.15127E-14 0.14398E-15 -.86736E-17 0.11449E-15 0.11102E-14
 0.69389E-17 0.10854E-11 0.57186E-11 0.22900E-11 0.55511E-16 0.57593E-15 -.44235E-16 -.19949E-16 0.17694E-15 0.32992E-12
 0.20817E-16 0.63304E-13 0.17875E-13 0.67051E-13 0.15613E-15 0.35388E-15 0.74593E-16 0.22204E-15 0.24911E-13 0.18222E-13
 -.13878E-16 0.94896E-12 0.29012E-12 0.24986E-11 0.13184E-15 0.32922E-13 0.11727E-14 0.31251E-12 0.17528E-13 0.65142E-13
 0.83267E-16 0.41633E-16 0.41633E-16 -.27756E-16 0.11102E-15 0.11102E-15 0.34694E-16 0.55511E-16 0.41633E-16 0.13878E-16
 0.20817E-16 0.55983E-13 0.15958E-12 0.22989E-13 0.15959E-15 0.31988E-14 0.18735E-14 0.95862E-12 0.70756E-13 0.59977E-12
 -.13878E-16 0.16143E-12 0.68487E-14 0.22204E-15 0.83267E-16 0.22898E-15 0.80491E-15 0.83100E-11 0.20678E-13 0.29436E-12
 0.16653E-15 0.22697E-13 0.25674E-15 0.69389E-16 0.90206E-16 0.16653E-15 0.17764E-14 0.22050E-11 0.61069E-13 0.20752E-11
 0.11102E-15 0.15266E-15 0.13878E-16 0.13878E-16 0.55511E-16 0.18735E-15 0.22204E-15 0.20817E-15 0.19429E-15 0.22898E-15
 0.22204E-15 0.32058E-14 0.17347E-15 0.13878E-15 0.16653E-15 0.29553E-09 0.13878E-14 0.53256E-15 0.41633E-15 0.26314E-13
 0.90206E-16 0.18735E-14 0.86042E-15 0.18388E-14 0.30531E-15 0.13878E-14 0.21684E-15 0.55511E-16 0.23245E-15 0.10998E-14
  0.0000     0.95843E-12 0.83552E-11 0.22370E-11 0.22204E-15 0.57419E-15 0.11102E-15 -.87604E-16 0.29837E-15 0.29171E-12
 -.20817E-16 0.71734E-13 0.21094E-13 0.62457E-13 0.18388E-15 0.56899E-15 0.27495E-15 0.35388E-15 0.20293E-13 0.16868E-13
 0.13878E-16 0.61370E-12 0.29801E-12 0.20767E-11 0.11449E-15 0.30143E-13 0.12559E-14 0.27659E-12 0.16542E-13 0.56996E-13
 -.13878E-16 0.13878E-16 0.27756E-16 -.27756E-16 -.41633E-16 -.97145E-16 -.90206E-16 -.55511E-16 0.13878E-16 -.27756E-16
 0.69389E-17 0.46352E-13 0.12060E-12 0.20782E-13 0.11796E-15 0.25674E-14 0.15682E-14 0.84038E-12 0.64865E-13 0.29042E-12
 0.41633E-16 0.12174E-12 0.70777E-14 0.15266E-15 0.13878E-16 0.11102E-15 0.72164E-15 0.20266E-10 0.18180E-13 0.27614E-12
 0.34694E-16 0.20664E-13 0.11796E-15 0.27756E-16 0.69389E-16 0.13878E-15 0.14017E-14 0.21028E-11 0.58037E-13 0.17495E-11
 0.41633E-16 0.90206E-16 0.27756E-16 -.27756E-16 0.11102E-15 0.15266E-15 0.20817E-15 0.97145E-16 0.21511E-15 0.16653E-15
 -.27756E-16 0.25396E-14 0.18041E-15 0.16653E-15 0.12490E-15 0.22520E-08 0.77716E-15 0.29837E-15 0.44409E-15 0.15526E-13
 0.20817E-16 0.15821E-14 0.77716E-15 0.15196E-14 0.27062E-15 0.90206E-15 -.69389E-17 0.55511E-16 -.13878E-16 0.70430E-15
 0.41633E-16 0.83500E-12 0.24701E-10 0.21187E-11 0.69389E-16 0.33307E-15 0.83267E-16 -.71124E-16 0.24980E-15 0.26971E-12
 0.20817E-16 0.63137E-13 0.18013E-13 0.56663E-13 0.10061E-15 0.38858E-15 -.65919E-16 0.29143E-15 0.22680E-13 0.15404E-13
 0.11102E-15 0.29833E-12 0.28047E-12 0.17393E-11 0.27756E-16 0.17757E-13 0.66613E-15 0.25360E-12 0.15404E-13 0.51327E-13
  0.0000     0.55511E-16 0.13878E-16 0.41633E-16 0.55511E-16 0.16653E-15 0.69389E-16 -.13878E-16 0.27756E-16  0.0000    
 0.15266E-15 0.39468E-13 0.99483E-13 0.17458E-13 0.24980E-15 0.21094E-14 0.11102E-14 0.74168E-12 0.59230E-13 0.18577E-12
 -.13878E-16 0.10043E-12 0.49127E-14 0.12490E-15  0.0000     0.15266E-15 0.41633E-15 0.64270E-10 0.21955E-13 0.26498E-12
 0.41633E-16 0.17236E-13 0.16653E-15 0.55511E-16 0.69389E-16 0.41633E-16 0.10547E-14 0.20323E-11 0.60077E-13 0.14829E-11
 0.83267E-16 0.10408E-15 -.27756E-16 -.13878E-16 -.27756E-16 0.11102E-15 0.19429E-15 0.12490E-15 0.27756E-15 0.16653E-15
 0.69389E-16 0.20539E-14 0.18041E-15 0.11102E-15 0.16653E-15 0.84025E-10 0.70777E-15 0.33307E-15 0.36082E-15 0.13586E-13
 0.69389E-16 0.12490E-14 0.43021E-15 0.11519E-14 0.24980E-15 0.72164E-15 0.18388E-15 -.13878E-16 0.24286E-16 0.69389E-15
 0.41633E-16 0.72922E-12 0.12200E-09 0.20158E-11 0.27756E-16 0.43021E-15 0.97145E-16 0.45103E-16 0.23592E-15 0.26731E-12
 0.69389E-16 0.55650E-13 0.21108E-13 0.56719E-13 0.27062E-15 0.44409E-15 0.14572E-15 0.26368E-15 0.16542E-13 0.13989E-13
 0.27756E-16 0.19368E-12 0.26887E-12 0.14718E-11 0.11102E-15 0.15175E-13 0.61062E-15 0.24793E-12 0.14461E-13 0.45540E-13
 0.27756E-16 0.27756E-16 -.13878E-16 -.69389E-16  0.0000     -.13878E-16 -.11102E-15  0.0000     -.27756E-16 -.69389E-16
 0.69389E-16 0.32419E-13 0.80241E-13 0.15182E-13 0.27756E-16 0.16931E-14 0.79103E-15 0.64422E-12 0.49100E-13 0.13139E-12
 0.55511E-16 0.80894E-13 0.48017E-14 0.97145E-16 0.27756E-16 0.55511E-16 0.34694E-15 0.91312E-09 0.17236E-13 0.21613E-12
 -.13878E-16 0.15099E-13 0.11102E-15 0.27756E-16 0.83267E-16 -.27756E-16 0.72164E-15 0.18658E-11 0.52180E-13 0.12696E-11
  0.0000     -.69389E-16 -.55511E-16  0.0000     0.27756E-16 0.69389E-16 0.97145E-16 -.27756E-16 0.69389E-16 0.55511E-16
  0.0000     0.16098E-14 0.55511E-16 0.55511E-16 0.55511E-16 0.38075E-10 0.43021E-15 0.13878E-15 0.16653E-15 0.92426E-14
  0.0000     0.90206E-15 0.44409E-15 0.83267E-15 0.27756E-15 0.48572E-15 0.27756E-16 -.55511E-16 -.41633E-16 0.49960E-15
 0.27756E-16 0.62521E-12 0.12045E-07 0.18125E-11 0.83267E-16 0.13878E-15 -.15266E-15 -.13878E-16 0.13878E-15 0.24532E-12
 0.55511E-16 0.44589E-13 0.16029E-13 0.46685E-13 0.97145E-16 0.69389E-16 -.19429E-15 0.27756E-16 0.13559E-13 0.12240E-13
 0.69389E-16 0.13710E-12 0.22034E-12 0.12532E-11 0.13878E-15 0.10547E-13 0.30531E-15 0.22372E-12 0.12906E-13 0.42653E-13
 0.41633E-16 0.55511E-16  0.0000     -.41633E-16 0.83267E-16 -.55511E-16 -.69389E-16 0.41633E-16 -.41633E-16 0.83267E-16
 0.11102E-15 0.27645E-13 0.66502E-13 0.13600E-13 0.12490E-15 0.16376E-14 0.79103E-15 0.56813E-12 0.44811E-13 0.82531E-13
 0.13878E-16 0.66905E-13 0.37192E-14 0.83267E-16 0.27756E-16 0.83267E-16 0.23592E-15 0.16062E-09 0.21261E-13 0.19611E-12
 0.27756E-16 0.13628E-13 0.55511E-16 -.41633E-16 0.11102E-15 0.69389E-16 0.66613E-15 0.18060E-11 0.53443E-13 0.10820E-11
 0.41633E-16 0.83267E-16  0.0000     -.41633E-16 0.41633E-16 0.69389E-16 0.11102E-15 0.12490E-15 0.12490E-15 0.13878E-15
 0.13878E-16 0.16376E-14 0.55511E-16 0.13878E-15 0.11102E-15 0.13923E-10 0.37470E-15 0.97145E-16 0.31919E-15 0.88540E-14
 -.27756E-16 0.86042E-15 0.30531E-15 0.72164E-15 0.16653E-15 0.44409E-15 0.27756E-16 -.97145E-16 0.41633E-16 0.38858E-15
 0.97145E-16 0.54473E-12 0.63765E-10 0.17168E-11 0.12490E-15 0.18041E-15  0.0000     -.55511E-16 0.20817E-15 0.24175E-12
 -.27756E-16 0.39885E-13 0.19429E-13 0.47004E-13 0.83267E-16 0.18041E-15  0.0000     0.13878E-15 0.12962E-13 0.11421E-13
 0.69389E-16 0.85959E-13 0.19977E-12 0.10667E-11 0.11102E-15 0.97700E-14 0.36082E-15 0.21749E-12 0.12171E-13 0.38539E-13
 0.97145E-16 0.20817E-16 0.13878E-16 -.83267E-16 -.41633E-16 0.13878E-16 -.27756E-16 0.13878E-16 0.13878E-16 -.27756E-16
 0.48572E-16 0.23120E-13 0.55678E-13 0.11463E-13 0.11102E-15 0.12768E-14 0.55511E-15 0.49205E-12 0.43424E-13 0.54214E-13
  0.0000     0.56025E-13 0.37192E-14 0.41633E-16 0.27756E-16 -.13878E-16 0.27756E-15 0.44618E-10 0.18860E-13 0.17072E-12
 0.41633E-16 0.11449E-13 0.27756E-16 -.55511E-16 0.41633E-16 -.13878E-16 0.43021E-15 0.16280E-11 0.45811E-13 0.93288E-12
 -.27756E-16 0.69389E-16 -.55511E-16 -.13878E-16 -.11102E-15 0.27756E-16 0.11102E-15 0.55511E-16 0.22204E-15 0.69389E-16
 -.27756E-16 0.12490E-14  0.0000     -.55511E-16 0.55511E-16 0.13078E-10 0.23592E-15 0.22204E-15 0.16653E-15 0.66891E-14
 -.41633E-16 0.56899E-15 0.24980E-15 0.54123E-15 0.15266E-15 0.37470E-15 0.12490E-15  0.0000     0.19429E-15 0.36082E-15
 0.83267E-16 0.46477E-12 0.25718E-10 0.15081E-11 0.11102E-15 0.22204E-15 -.97145E-16 0.13878E-15 0.12490E-15 0.21302E-12
 0.83267E-16 0.37276E-13 0.16834E-13 0.38691E-13 0.13878E-16 0.18041E-15 -.55511E-16 0.18041E-15 0.11116E-13 0.98810E-14
 0.41633E-16 0.55504E-13 0.17396E-12 0.91567E-12 0.55511E-16 0.75356E-14 0.22204E-15 0.18988E-12 0.10714E-13 0.35832E-13
 -.31225E-16 0.10408E-16  0.0000     -.13878E-16 -.41633E-16  0.0000     -.27756E-16 -.27756E-16  0.0000     -.55511E-16
 0.58981E-16 0.19443E-13 0.47171E-13 0.10436E-13 0.55511E-16 0.12490E-14 0.38858E-15 0.43088E-12 0.34514E-13 0.31922E-13
 -.27756E-16 0.47448E-13 0.32613E-14 0.55511E-16  0.0000      0.0000     0.23592E-15 0.19412E-10 0.15730E-13 0.14176E-12
 0.13878E-16 0.10561E-13 0.13878E-16 -.41633E-16 0.83267E-16 0.41633E-16 0.33307E-15 0.15236E-11 0.40551E-13 0.79832E-12
  0.0000     0.13878E-16 -.27756E-16  0.0000     0.27756E-16 0.13878E-16 -.41633E-16  0.0000     0.16653E-15  0.0000    
 0.41633E-16 0.12768E-14  0.0000     0.41633E-16 0.27756E-16 0.52078E-11 0.16653E-15 0.97145E-16 0.97145E-16 0.61895E-14
 -.27756E-16 0.47184E-15 0.20817E-15 0.51348E-15 0.97145E-16 0.30531E-15 -.27756E-16 -.55511E-16 0.83267E-16 0.36082E-15
 0.13878E-16 0.40151E-12 0.13658E-10 0.13712E-11 0.97145E-16 0.16653E-15 -.11102E-15 -.55511E-16 0.16653E-15 0.21423E-12
 0.27756E-16 0.29664E-13 0.13781E-13 0.33445E-13 0.69389E-16 0.13878E-15 0.13878E-16 0.11102E-15 0.10797E-13 0.86042E-14
 0.45103E-16 0.32561E-13 0.14466E-12 0.78287E-12 -.13878E-16 0.67446E-14 0.24980E-15 0.18785E-12 0.95479E-14 0.33563E-13
 0.41633E-16 0.69389E-17 -.24286E-16 -.13878E-16 -.55511E-16 -.27756E-16 -.55511E-16 -.27756E-16 -.31225E-16 -.46838E-16
 0.38164E-16 0.16223E-13 0.39919E-13 0.98116E-14 0.55511E-16 0.12351E-14 0.36082E-15 0.37484E-12 0.34812E-13 0.18922E-13
 0.10408E-16 0.40100E-13 0.33307E-14 0.27756E-16 0.13878E-16 0.41633E-16 0.24980E-15 0.94397E-11 0.20598E-13 0.12489E-12
 0.55511E-16 0.97700E-14 -.27756E-16 -.55511E-16 0.27756E-16 0.27756E-16 0.36082E-15 0.14644E-11 0.47684E-13 0.68785E-12
 -.41633E-16 0.27756E-16 -.27756E-16 -.27756E-16 -.27756E-16 0.69389E-16 0.69389E-16 -.27756E-16 0.69389E-16 0.55511E-16
 -.27756E-16 0.12629E-14 -.27756E-16 0.55511E-16 0.11102E-15 0.26417E-10 0.15266E-15 0.55511E-16 0.97145E-16 0.60923E-14
 -.27756E-16 0.45797E-15 0.19429E-15 0.51348E-15 0.12490E-15 0.30531E-15 -.13878E-16  0.0000     0.27756E-16 0.29143E-15
 0.41633E-16 0.34601E-12 0.78248E-11 0.12882E-11 0.55511E-16 0.24980E-15 -.55511E-16 0.69389E-16 0.83267E-16 0.15901E-12
 0.34694E-17 0.28658E-13 0.17486E-13 0.38178E-13 0.13878E-16 0.83267E-16 -.83267E-16 0.97145E-16 0.10297E-13 0.86320E-14
 0.48572E-16 0.19422E-13 0.12703E-12 0.67284E-12 0.55511E-16 0.68556E-14 0.22204E-15 0.14003E-12 0.95479E-14 0.30698E-13
 0.61257E-16 -.17984E-16 -.51676E-16 0.34803E-16 -.36429E-16 0.62450E-16 -.21250E-16 0.12143E-16 0.22917E-16 -.55301E-16
 0.63046E-16 0.13702E-13 0.34249E-13 0.93393E-14 0.98879E-16 0.11874E-14 0.36776E-15 0.32734E-12 0.28140E-13 0.13272E-13
 -.48030E-16 0.34371E-13 0.31663E-14 0.82616E-16 0.29490E-16 0.64618E-16 0.17217E-15 0.61569E-11 0.18578E-13 0.94817E-13
 0.11200E-15 0.93150E-14 0.21142E-16 -.48572E-16 0.14745E-16 0.78063E-16 0.37947E-15 0.13747E-11 0.44260E-13 0.58775E-12