       N       E                     dE             d eps       ncg     rms          rms(c)
DAV:   1     0.196831848368E+03    0.19683E+03   -0.13879E+04  3024   0.920E+02
DAV:   2    -0.107830264262E+02   -0.20761E+03   -0.20156E+03  3080   0.265E+02
DAV:   3    -0.209625337557E+02   -0.10180E+02   -0.10013E+02  3224   0.783E+01
DAV:   4    -0.210770546005E+02   -0.11452E+00   -0.11425E+00  3176   0.755E+00
DAV:   5    -0.210782174414E+02   -0.11628E-02   -0.11628E-02  3296   0.532E-01    0.145E+01
RMM:   6    -0.190103479734E+02    0.20679E+01   -0.42863E+01  3184   0.640E+01    0.733E+00
RMM:   7    -0.172850432981E+02    0.17253E+01   -0.70142E+00  3130   0.267E+01    0.151E+00
RMM:   8    -0.173149329880E+02   -0.29890E-01   -0.11818E-01  3200   0.266E+00    0.212E+00
RMM:   9    -0.171992489105E+02    0.11568E+00   -0.70641E-02  3191   0.226E+00    0.739E-01
RMM:  10    -0.171890358635E+02    0.10213E-01   -0.20198E-02  3232   0.120E+00    0.459E-01
RMM:  11    -0.171836183512E+02    0.54175E-02   -0.84419E-03  3198   0.733E-01    0.183E-01
RMM:  12    -0.171824465426E+02    0.11718E-02   -0.18935E-03  3184   0.359E-01    0.937E-02
RMM:  13    -0.171820327705E+02    0.41377E-03   -0.56933E-04  3142   0.194E-01    0.599E-02
RMM:  14    -0.171818461554E+02    0.18662E-03   -0.31778E-04  3105   0.123E-01    0.422E-02
RMM:  15    -0.171819034802E+02   -0.57325E-04   -0.16138E-04  3018   0.980E-02    0.145E-02
RMM:  16    -0.171822598881E+02   -0.35641E-03   -0.10260E-04  2917   0.347E-02    0.131E-02
RMM:  17    -0.171823818271E+02   -0.12194E-03   -0.21291E-05  2841   0.212E-02    0.690E-03
RMM:  18    -0.171824981674E+02   -0.11634E-03   -0.88755E-06  2259   0.146E-02    0.426E-03
RMM:  19    -0.171825322432E+02   -0.34076E-04   -0.35003E-06  2005   0.125E-02    0.369E-03
RMM:  20    -0.171825663644E+02   -0.34121E-04   -0.16499E-06  1879   0.792E-03    0.201E-03
RMM:  21    -0.171825808388E+02   -0.14474E-04   -0.75314E-07  1826   0.505E-03    0.676E-04
RMM:  22    -0.171825871796E+02   -0.63408E-05   -0.30039E-07  1813   0.407E-03    0.829E-04
RMM:  23    -0.171825893264E+02   -0.21468E-05   -0.13153E-07  1745   0.314E-03    0.276E-04
RMM:  24    -0.171825898197E+02   -0.49324E-06   -0.86878E-09   632   0.127E-03
   1 F= -.17182590E+02 E0= -.17173391E+02  d E =-.183976E-01
