PROCAR lm decomposed
# of k-points:   52         # of bands:   28         # of ions:    5

 k-point     1 :    0.00000000 0.00000000 0.00000000     weight = 0.01000000

band     1 # energy  -11.61236092 # occ.  2.00000000
 
ion      s     py     pz     px    dxy    dyz    dz2    dxz  x2-y2    tot
    1  0.007  0.000  0.001  0.000  0.000  0.000  0.000  0.000  0.000  0.008
    2  0.043  0.000  0.002  0.000  0.000  0.000  0.000  0.000  0.000  0.045
    3  0.134  0.000  0.003  0.000  0.000  0.000  0.000  0.000  0.000  0.137
    4  0.304  0.000  0.000  0.000  0.000  0.000  0.009  0.000  0.000  0.314
    5  0.088  0.000  0.001  0.000  0.000  0.000  0.000  0.000  0.000  0.089
tot    0.576  0.000  0.007  0.000  0.000  0.000  0.009  0.000  0.000  0.592
 
band     2 # energy  -10.59722544 # occ.  2.00000000
 
ion      s     py     pz     px    dxy    dyz    dz2    dxz  x2-y2    tot
    1  0.117  0.000  0.010  0.000  0.000  0.000  0.000  0.000  0.000  0.128
    2  0.263  0.000  0.000  0.000  0.000  0.000  0.002  0.000  0.000  0.266
    3  0.050  0.000  0.018  0.000  0.000  0.000  0.001  0.000  0.000  0.068
    4  0.067  0.000  0.008  0.000  0.000  0.000  0.011  0.000  0.000  0.087
    5  0.039  0.000  0.000  0.000  0.000  0.000  0.000  0.000  0.000  0.040
tot    0.537  0.000  0.037  0.000  0.000  0.000  0.015  0.000  0.000  0.588
 
band     3 # energy   -8.98860299 # occ.  2.00000000
 
ion      s     py     pz     px    dxy    dyz    dz2    dxz  x2-y2    tot
    1  0.190  0.000  0.002  0.000  0.000  0.000  0.020  0.000  0.000  0.212
    2  0.004  0.000  0.045  0.000  0.000  0.000  0.001  0.000  0.000  0.050
    3  0.203  0.000  0.000  0.000  0.000  0.000  0.040  0.000  0.000  0.243
    4  0.009  0.000  0.031  0.000  0.000  0.000  0.025  0.000  0.000  0.066
    5  0.032  0.000  0.000  0.000  0.000  0.000  0.000  0.000  0.000  0.032
tot    0.437  0.000  0.079  0.000  0.000  0.000  0.086  0.000  0.000  0.603
 
band     4 # energy   -7.53024963 # occ.  2.00000000
 
ion      s     py     pz     px    dxy    dyz    dz2    dxz  x2-y2    tot
    1  0.109  0.000  0.005  0.000  0.000  0.000  0.131  0.000  0.000  0.245
    2  0.101  0.000  0.003  0.000  0.000  0.000  0.226  0.000  0.000  0.329
    3  0.032  0.000  0.014  0.000  0.000  0.000  0.091  0.000  0.000  0.137
    4  0.000  0.000  0.011  0.000  0.000  0.000  0.014  0.000  0.000  0.026
    5  0.006  0.000  0.000  0.000  0.000  0.000  0.000  0.000  0.000  0.006
tot    0.247  0.000  0.034  0.000  0.000  0.000  0.462  0.000  0.000  0.743
 
band     5 # energy   -6.08298722 # occ.  2.00000000
 
ion      s     py     pz     px    dxy    dyz    dz2    dxz  x2-y2    tot
    1  0.000  0.000  0.000  0.000  0.000  0.000  0.004  0.000  0.000  0.004
    2  0.001  0.000  0.001  0.000  0.000  0.000  0.006  0.000  0.000  0.007
    3  0.002  0.000  0.002  0.000  0.000  0.000  0.077  0.000  0.000  0.081
    4  0.005  0.000  0.042  0.000  0.009  0.000  0.593  0.002  0.000  0.650
    5  0.049  0.000  0.001  0.000  0.000  0.000  0.000  0.000  0.000  0.050
tot    0.056  0.000  0.045  0.000  0.009  0.000  0.680  0.002  0.000  0.792
 
band     6 # energy   -5.56336817 # occ.  2.00000000
 
ion      s     py     pz     px    dxy    dyz    dz2    dxz  x2-y2    tot
    1  0.000  0.000  0.001  0.000  0.000  0.000  0.026  0.000  0.000  0.027
    2  0.001  0.000  0.001  0.000  0.003  0.000  0.002  0.000  0.000  0.007
    3  0.000  0.000  0.006  0.000  0.009  0.000  0.255  0.013  0.000  0.284
    4  0.003  0.000  0.008  0.000  0.470  0.000  0.134  0.001  0.009  0.626
    5  0.002  0.000  0.000  0.001  0.000  0.000  0.000  0.000  0.000  0.003
tot    0.007  0.000  0.016  0.001  0.482  0.001  0.417  0.014  0.009  0.947
 
band     7 # energy   -5.54001822 # occ.  2.00000000
 
ion      s     py     pz     px    dxy    dyz    dz2    dxz  x2-y2    tot
    1  0.000  0.000  0.000  0.000  0.000  0.000  0.001  0.000  0.000  0.001
    2  0.000  0.000  0.000  0.000  0.000  0.000  0.000  0.000  0.008  0.008
    3  0.000  0.000  0.000  0.000  0.000  0.026  0.008  0.000  0.018  0.054
    4  0.000  0.000  0.000  0.000  0.000  0.001  0.003  0.001  0.897  0.902
    5  0.000  0.001  0.000  0.000  0.000  0.000  0.000  0.000  0.000  0.001
tot    0.000  0.001  0.000  0.000  0.001  0.028  0.012  0.001  0.923  0.966
 
band     8 # energy   -5.51361048 # occ.  2.00000000
 
ion      s     py     pz     px    dxy    dyz    dz2    dxz  x2-y2    tot
    1  0.000  0.000  0.001  0.000  0.000  0.000  0.034  0.000  0.000  0.035
    2  0.001  0.000  0.003  0.000  0.005  0.000  0.003  0.000  0.000  0.012
    3  0.002  0.000  0.003  0.000  0.009  0.000  0.348  0.013  0.000  0.376
    4  0.001  0.000  0.012  0.000  0.423  0.000  0.073  0.000  0.004  0.514
    5  0.003  0.000  0.000  0.001  0.000  0.000  0.000  0.000  0.000  0.004
tot    0.007  0.000  0.019  0.001  0.437  0.000  0.460  0.014  0.005  0.941
 
band     9 # energy   -5.31986739 # occ.  2.00000000
 
ion      s     py     pz     px    dxy    dyz    dz2    dxz  x2-y2    tot
    1  0.001  0.000  0.005  0.000  0.000  0.000  0.255  0.000  0.000  0.261
    2  0.004  0.000  0.000  0.000  0.001  0.000  0.584  0.000  0.000  0.589
    3  0.001  0.000  0.013  0.000  0.000  0.000  0.052  0.001  0.000  0.067
    4  0.002  0.000  0.006  0.000  0.004  0.000  0.000  0.001  0.000  0.012
    5  0.003  0.000  0.000  0.000  0.000  0.000  0.000  0.000  0.000  0.003
tot    0.010  0.000  0.025  0.000  0.005  0.000  0.891  0.002  0.000  0.933
 
band    10 # energy   -5.28188883 # occ.  2.00000000
 
ion      s     py     pz     px    dxy    dyz    dz2    dxz  x2-y2    tot
    1  0.000  0.000  0.000  0.000  0.004  0.000  0.000  0.000  0.010  0.015
    2  0.000  0.000  0.000  0.000  0.002  0.037  0.000  0.017  0.006  0.064
    3  0.000  0.000  0.000  0.000  0.227  0.016  0.000  0.008  0.499  0.750
    4  0.000  0.000  0.000  0.000  0.007  0.080  0.000  0.038  0.012  0.138
    5  0.000  0.000  0.000  0.000  0.000  0.000  0.000  0.000  0.000  0.000
tot    0.000  0.000  0.000  0.000  0.241  0.134  0.001  0.064  0.527  0.967
 
band    11 # energy   -5.28015684 # occ.  2.00000000
 
ion      s     py     pz     px    dxy    dyz    dz2    dxz  x2-y2    tot
    1  0.000  0.000  0.000  0.000  0.010  0.000  0.000  0.000  0.005  0.016
    2  0.000  0.000  0.000  0.000  0.011  0.017  0.000  0.037  0.006  0.071
    3  0.000  0.000  0.000  0.000  0.507  0.006  0.000  0.014  0.237  0.763
    4  0.000  0.000  0.000  0.000  0.008  0.032  0.000  0.073  0.003  0.116
    5  0.000  0.000  0.000  0.000  0.000  0.000  0.000  0.000  0.000  0.000
tot    0.000  0.000  0.000  0.000  0.537  0.055  0.001  0.123  0.251  0.966
 
band    12 # energy   -5.22694105 # occ.  2.00000000
 
ion      s     py     pz     px    dxy    dyz    dz2    dxz  x2-y2    tot
    1  0.000  0.000  0.000  0.000  0.002  0.021  0.000  0.007  0.006  0.036
    2  0.000  0.000  0.000  0.000  0.208  0.007  0.000  0.002  0.633  0.851
    3  0.000  0.000  0.000  0.000  0.000  0.040  0.000  0.013  0.000  0.054
    4  0.000  0.000  0.000  0.000  0.003  0.009  0.000  0.003  0.011  0.026
    5  0.000  0.000  0.000  0.000  0.000  0.000  0.000  0.000  0.000  0.000
tot    0.000  0.000  0.000  0.000  0.214  0.077  0.000  0.025  0.650  0.967
 
band    13 # energy   -5.22647086 # occ.  2.00000000
 
ion      s     py     pz     px    dxy    dyz    dz2    dxz  x2-y2    tot
    1  0.000  0.000  0.000  0.000  0.005  0.007  0.001  0.021  0.002  0.036
    2  0.000  0.000  0.000  0.000  0.629  0.003  0.000  0.008  0.205  0.846
    3  0.000  0.000  0.000  0.000  0.002  0.014  0.000  0.041  0.001  0.058
    4  0.000  0.000  0.000  0.000  0.011  0.003  0.000  0.009  0.004  0.027
    5  0.000  0.000  0.000  0.000  0.000  0.000  0.000  0.000  0.000  0.000
tot    0.000  0.000  0.000  0.000  0.647  0.027  0.001  0.079  0.212  0.967
 
band    14 # energy   -4.97117357 # occ.  2.00000000
 
ion      s     py     pz     px    dxy    dyz    dz2    dxz  x2-y2    tot
    1  0.000  0.000  0.000  0.000  0.128  0.006  0.000  0.001  0.706  0.842
    2  0.000  0.000  0.000  0.000  0.000  0.069  0.000  0.012  0.001  0.083
    3  0.000  0.000  0.000  0.000  0.005  0.003  0.000  0.001  0.025  0.034
    4  0.000  0.000  0.000  0.000  0.000  0.007  0.000  0.001  0.001  0.010
    5  0.000  0.000  0.000  0.000  0.000  0.000  0.000  0.000  0.000  0.000
tot    0.000  0.000  0.000  0.000  0.134  0.085  0.000  0.015  0.734  0.968
 
band    15 # energy   -4.97078166 # occ.  2.00000000
 
ion      s     py     pz     px    dxy    dyz    dz2    dxz  x2-y2    tot
    1  0.000  0.000  0.000  0.000  0.706  0.001  0.000  0.006  0.128  0.841
    2  0.000  0.000  0.000  0.000  0.001  0.013  0.000  0.070  0.000  0.084
    3  0.000  0.000  0.000  0.000  0.024  0.000  0.000  0.002  0.004  0.031
    4  0.000  0.000  0.000  0.000  0.002  0.002  0.000  0.008  0.000  0.012
    5  0.000  0.000  0.000  0.000  0.000  0.000  0.000  0.000  0.000  0.000
tot    0.000  0.000  0.000  0.000  0.733  0.016  0.000  0.086  0.133  0.968
 
band    16 # energy   -4.87922318 # occ.  2.00000000
 
ion      s     py     pz     px    dxy    dyz    dz2    dxz  x2-y2    tot
    1  0.026  0.000  0.000  0.000  0.000  0.000  0.393  0.000  0.000  0.419
    2  0.012  0.000  0.044  0.000  0.001  0.000  0.050  0.000  0.000  0.108
    3  0.000  0.000  0.077  0.000  0.007  0.000  0.001  0.003  0.000  0.089
    4  0.014  0.000  0.041  0.000  0.002  0.001  0.026  0.022  0.000  0.107
    5  0.016  0.000  0.000  0.000  0.000  0.000  0.000  0.000  0.000  0.016
tot    0.068  0.000  0.163  0.000  0.011  0.001  0.470  0.026  0.001  0.740
 
band    17 # energy   -4.76565827 # occ.  2.00000000
 
ion      s     py     pz     px    dxy    dyz    dz2    dxz  x2-y2    tot
    1  0.001  0.000  0.000  0.000  0.000  0.002  0.008  0.002  0.001  0.013
    2  0.000  0.000  0.001  0.000  0.009  0.003  0.002  0.002  0.013  0.030
    3  0.000  0.000  0.002  0.000  0.061  0.051  0.000  0.037  0.083  0.235
    4  0.000  0.000  0.002  0.000  0.001  0.400  0.000  0.292  0.001  0.696
    5  0.000  0.001  0.000  0.000  0.000  0.000  0.000  0.000  0.000  0.001
tot    0.002  0.001  0.005  0.001  0.072  0.456  0.010  0.333  0.098  0.976
 
band    18 # energy   -4.73094338 # occ.  2.00000000
 
ion      s     py     pz     px    dxy    dyz    dz2    dxz  x2-y2    tot
    1  0.000  0.000  0.000  0.000  0.000  0.002  0.004  0.002  0.000  0.008
    2  0.000  0.000  0.000  0.000  0.012  0.002  0.001  0.002  0.010  0.027
    3  0.000  0.000  0.001  0.000  0.073  0.046  0.000  0.059  0.058  0.238
    4  0.000  0.000  0.001  0.000  0.004  0.307  0.000  0.390  0.003  0.705
    5  0.000  0.000  0.000  0.000  0.000  0.000  0.000  0.000  0.000  0.001
tot    0.001  0.000  0.003  0.000  0.090  0.357  0.005  0.453  0.070  0.979
 
band    19 # energy   -4.47759844 # occ.  2.00000000
 
ion      s     py     pz     px    dxy    dyz    dz2    dxz  x2-y2    tot
    1  0.000  0.000  0.000  0.000  0.001  0.048  0.000  0.001  0.092  0.141
    2  0.000  0.000  0.000  0.000  0.001  0.437  0.000  0.007  0.061  0.506
    3  0.000  0.000  0.000  0.000  0.001  0.245  0.000  0.005  0.024  0.275
    4  0.000  0.000  0.000  0.000  0.000  0.051  0.000  0.000  0.010  0.062
    5  0.000  0.000  0.000  0.000  0.000  0.000  0.000  0.000  0.000  0.000
tot    0.000  0.000  0.000  0.000  0.003  0.781  0.000  0.013  0.187  0.984
 
band    20 # energy   -4.47721727 # occ.  2.00000000
 
ion      s     py     pz     px    dxy    dyz    dz2    dxz  x2-y2    tot
    1  0.000  0.000  0.000  0.000  0.092  0.001  0.000  0.048  0.001  0.142
    2  0.000  0.000  0.000  0.000  0.061  0.007  0.000  0.438  0.001  0.507
    3  0.000  0.000  0.000  0.000  0.024  0.003  0.000  0.243  0.000  0.271
    4  0.000  0.000  0.000  0.000  0.010  0.002  0.000  0.053  0.000  0.065
    5  0.000  0.000  0.000  0.000  0.000  0.000  0.000  0.000  0.000  0.000
tot    0.000  0.000  0.000  0.000  0.187  0.013  0.000  0.782  0.003  0.984
 
band    21 # energy   -4.25916410 # occ.  2.00000000
 
ion      s     py     pz     px    dxy    dyz    dz2    dxz  x2-y2    tot
    1  0.000  0.000  0.000  0.000  0.003  0.242  0.000  0.082  0.008  0.336
    2  0.000  0.000  0.000  0.000  0.000  0.088  0.000  0.030  0.000  0.118
    3  0.000  0.000  0.000  0.000  0.002  0.326  0.000  0.111  0.007  0.447
    4  0.000  0.000  0.000  0.000  0.003  0.057  0.000  0.018  0.008  0.085
    5  0.000  0.000  0.000  0.000  0.000  0.000  0.000  0.000  0.000  0.000
tot    0.000  0.000  0.000  0.000  0.008  0.714  0.000  0.240  0.024  0.986
 
band    22 # energy   -4.25837445 # occ.  2.00000000
 
ion      s     py     pz     px    dxy    dyz    dz2    dxz  x2-y2    tot
    1  0.000  0.000  0.000  0.000  0.008  0.081  0.000  0.242  0.003  0.334
    2  0.000  0.000  0.000  0.000  0.000  0.029  0.000  0.087  0.000  0.117
    3  0.000  0.000  0.000  0.000  0.008  0.108  0.000  0.324  0.003  0.442
    4  0.000  0.000  0.000  0.000  0.007  0.022  0.000  0.062  0.002  0.093
    5  0.000  0.000  0.000  0.000  0.000  0.000  0.000  0.000  0.000  0.000
tot    0.000  0.000  0.000  0.000  0.023  0.241  0.000  0.714  0.008  0.986
 
band    23 # energy   -3.98724613 # occ.  2.00000000
 
ion      s     py     pz     px    dxy    dyz    dz2    dxz  x2-y2    tot
    1  0.000  0.000  0.000  0.000  0.000  0.547  0.000  0.025  0.007  0.580
    2  0.000  0.000  0.000  0.000  0.001  0.260  0.000  0.012  0.022  0.295
    3  0.000  0.000  0.000  0.000  0.000  0.094  0.000  0.004  0.006  0.105
    4  0.000  0.000  0.000  0.000  0.000  0.009  0.000  0.000  0.001  0.011
    5  0.000  0.000  0.000  0.000  0.000  0.000  0.000  0.000  0.000  0.000
tot    0.000  0.000  0.000  0.000  0.002  0.909  0.000  0.042  0.037  0.990
 
band    24 # energy   -3.98704296 # occ.  2.00000000
 
ion      s     py     pz     px    dxy    dyz    dz2    dxz  x2-y2    tot
    1  0.000  0.000  0.000  0.000  0.007  0.025  0.000  0.547  0.000  0.580
    2  0.000  0.000  0.000  0.000  0.022  0.012  0.000  0.260  0.001  0.295
    3  0.000  0.000  0.000  0.000  0.006  0.004  0.000  0.094  0.000  0.104
    4  0.000  0.000  0.000  0.000  0.001  0.000  0.000  0.009  0.000  0.011
    5  0.000  0.000  0.000  0.000  0.000  0.000  0.000  0.000  0.000  0.000
tot    0.000  0.000  0.000  0.000  0.037  0.042  0.000  0.909  0.002  0.990
 
band    25 # energy   -2.92078400 # occ.  2.00000000
 
ion      s     py     pz     px    dxy    dyz    dz2    dxz  x2-y2    tot
    1  0.020  0.000  0.152  0.000  0.000  0.000  0.031  0.000  0.000  0.203
    2  0.015  0.000  0.079  0.000  0.000  0.000  0.023  0.000  0.000  0.117
    3  0.012  0.000  0.036  0.000  0.000  0.000  0.018  0.000  0.000  0.066
    4  0.009  0.000  0.012  0.000  0.000  0.000  0.008  0.000  0.000  0.030
    5  0.004  0.000  0.000  0.000  0.000  0.000  0.000  0.000  0.000  0.004
tot    0.060  0.000  0.280  0.000  0.000  0.000  0.081  0.000  0.000  0.420
 
band    26 # energy    1.60988183 # occ.  0.00000000
 
ion      s     py     pz     px    dxy    dyz    dz2    dxz  x2-y2    tot
    1  0.018  0.000  0.002  0.000  0.000  0.000  0.018  0.000  0.000  0.038
    2  0.025  0.000  0.001  0.000  0.000  0.000  0.023  0.000  0.000  0.050
    3  0.033  0.000  0.001  0.000  0.000  0.000  0.029  0.000  0.000  0.063
    4  0.035  0.000  0.000  0.000  0.000  0.000  0.037  0.000  0.000  0.072
    5  0.000  0.000  0.002  0.000  0.000  0.000  0.000  0.000  0.000  0.003
tot    0.112  0.000  0.007  0.000  0.000  0.000  0.107  0.000  0.000  0.225
 
band    27 # energy    1.93638198 # occ.  0.00000000
 
ion      s     py     pz     px    dxy    dyz    dz2    dxz  x2-y2    tot
    1  0.006  0.000  0.004  0.000  0.000  0.000  0.006  0.000  0.000  0.015
    2  0.001  0.000  0.004  0.000  0.000  0.000  0.001  0.000  0.000  0.006
    3  0.000  0.000  0.005  0.000  0.000  0.000  0.000  0.000  0.000  0.005
    4  0.003  0.000  0.003  0.000  0.000  0.000  0.005  0.000  0.000  0.011
    5  0.001  0.000  0.001  0.000  0.000  0.000  0.000  0.000  0.000  0.002
tot    0.011  0.000  0.016  0.000  0.000  0.000  0.012  0.000  0.000  0.039
 
band    28 # energy    2.36537638 # occ.  0.00000000
 
ion      s     py     pz     px    dxy    dyz    dz2    dxz  x2-y2    tot
    1  0.005  0.000  0.002  0.000  0.000  0.000  0.005  0.000  0.000  0.011
    2  0.001  0.000  0.003  0.000  0.000  0.000  0.001  0.000  0.000  0.005
    3  0.000  0.000  0.003  0.000  0.000  0.000  0.000  0.000  0.000  0.003
    4  0.002  0.000  0.002  0.000  0.000  0.000  0.003  0.000  0.000  0.007
    5  0.001  0.000  0.000  0.000  0.000  0.000  0.000  0.000  0.000  0.001
tot    0.008  0.000  0.010  0.000  0.000  0.000  0.009  0.000  0.000  0.027
 

 k-point     2 :    0.10000000 0.00000000 0.00000000     weight = 0.02000000

band     1 # energy  -11.31036562 # occ.  2.00000000
 
ion      s     py     pz     px    dxy    dyz    dz2    dxz  x2-y2    tot
    1  0.006  0.000  0.001  0.000  0.000  0.000  0.000  0.000  0.000  0.007
    2  0.040  0.000  0.001  0.001  0.000  0.000  0.000  0.000  0.000  0.042
    3  0.127  0.001  0.003  0.003  0.000  0.000  0.000  0.000  0.000  0.134
    4  0.297  0.002  0.000  0.007  0.001  0.000  0.008  0.000  0.000  0.316
    5  0.092  0.000  0.001  0.000  0.000  0.000  0.000  0.000  0.000  0.093
tot    0.561  0.004  0.007  0.011  0.001  0.000  0.008  0.001  0.000  0.593
 
band     2 # energy  -10.29947354 # occ.  2.00000000
 
ion      s     py     pz     px    dxy    dyz    dz2    dxz  x2-y2    tot
    1  0.112  0.001  0.010  0.002  0.000  0.000  0.000  0.001  0.000  0.127
    2  0.256  0.002  0.000  0.006  0.000  0.000  0.002  0.000  0.000  0.266
    3  0.052  0.000  0.017  0.001  0.000  0.000  0.000  0.001  0.000  0.073
    4  0.060  0.001  0.008  0.002  0.001  0.000  0.011  0.001  0.000  0.084
    5  0.039  0.000  0.000  0.000  0.000  0.000  0.000  0.000  0.000  0.040
tot    0.520  0.004  0.036  0.011  0.001  0.001  0.013  0.003  0.000  0.589
 
band     3 # energy   -8.72365033 # occ.  2.00000000
 
ion      s     py     pz     px    dxy    dyz    dz2    dxz  x2-y2    tot
    1  0.180  0.001  0.002  0.004  0.000  0.000  0.017  0.000  0.000  0.206
    2  0.005  0.000  0.045  0.000  0.000  0.002  0.001  0.005  0.000  0.057
    3  0.194  0.002  0.000  0.005  0.000  0.000  0.038  0.000  0.000  0.239
    4  0.007  0.000  0.031  0.000  0.001  0.002  0.026  0.005  0.000  0.072
    5  0.032  0.000  0.000  0.000  0.000  0.000  0.000  0.000  0.000  0.032
tot    0.418  0.003  0.079  0.010  0.002  0.003  0.082  0.010  0.000  0.607
 
band     4 # energy   -7.30835342 # occ.  2.00000000
 
ion      s     py     pz     px    dxy    dyz    dz2    dxz  x2-y2    tot
    1  0.104  0.001  0.004  0.004  0.001  0.000  0.133  0.000  0.000  0.248
    2  0.090  0.001  0.003  0.004  0.001  0.000  0.229  0.001  0.000  0.330
    3  0.026  0.000  0.015  0.001  0.000  0.001  0.089  0.003  0.000  0.136
    4  0.000  0.000  0.011  0.000  0.001  0.001  0.014  0.003  0.000  0.031
    5  0.005  0.000  0.000  0.000  0.000  0.000  0.000  0.000  0.000  0.005
tot    0.226  0.003  0.033  0.009  0.003  0.002  0.466  0.007  0.001  0.750
 
band     5 # energy   -6.08928601 # occ.  2.00000000
 
ion      s     py     pz     px    dxy    dyz    dz2    dxz  x2-y2    tot
    1  0.000  0.000  0.000  0.000  0.000  0.000  0.005  0.000  0.000  0.005
    2  0.001  0.000  0.000  0.000  0.002  0.000  0.001  0.000  0.001  0.005
    3  0.001  0.000  0.004  0.000  0.012  0.000  0.121  0.001  0.004  0.143
    4  0.006  0.000  0.039  0.001  0.013  0.022  0.452  0.078  0.003  0.614
    5  0.043  0.000  0.001  0.000  0.000  0.000  0.000  0.000  0.000  0.044
tot    0.051  0.000  0.044  0.001  0.027  0.022  0.579  0.080  0.008  0.812
 
band     6 # energy   -5.67096913 # occ.  2.00000000
 
ion      s     py     pz     px    dxy    dyz    dz2    dxz  x2-y2    tot
    1  0.001  0.000  0.001  0.000  0.002  0.000  0.015  0.000  0.001  0.019
    2  0.001  0.000  0.002  0.000  0.021  0.001  0.073  0.004  0.007  0.109
    3  0.000  0.000  0.013  0.000  0.003  0.022  0.098  0.067  0.001  0.204
    4  0.005  0.000  0.005  0.000  0.325  0.003  0.153  0.010  0.099  0.600
    5  0.001  0.000  0.000  0.000  0.000  0.000  0.000  0.000  0.000  0.002
tot    0.008  0.000  0.020  0.001  0.351  0.026  0.339  0.081  0.108  0.934
 
band     7 # energy   -5.60751410 # occ.  2.00000000
 
ion      s     py     pz     px    dxy    dyz    dz2    dxz  x2-y2    tot
    1  0.000  0.000  0.001  0.000  0.000  0.000  0.044  0.000  0.000  0.046
    2  0.001  0.000  0.002  0.000  0.023  0.004  0.018  0.011  0.008  0.066
    3  0.001  0.000  0.006  0.000  0.010  0.006  0.257  0.017  0.004  0.302
    4  0.001  0.000  0.009  0.000  0.244  0.007  0.133  0.020  0.111  0.525
    5  0.001  0.000  0.000  0.000  0.000  0.000  0.000  0.000  0.000  0.002
tot    0.004  0.000  0.017  0.001  0.277  0.017  0.452  0.048  0.123  0.940
 
band     8 # energy   -5.43206770 # occ.  2.00000000
 
ion      s     py     pz     px    dxy    dyz    dz2    dxz  x2-y2    tot
    1  0.000  0.000  0.000  0.000  0.000  0.000  0.001  0.000  0.000  0.002
    2  0.000  0.000  0.000  0.000  0.003  0.001  0.003  0.001  0.009  0.017
    3  0.000  0.000  0.000  0.000  0.011  0.024  0.004  0.008  0.011  0.058
    4  0.000  0.001  0.000  0.000  0.222  0.002  0.000  0.003  0.662  0.890
    5  0.000  0.001  0.000  0.000  0.000  0.000  0.000  0.000  0.000  0.001
tot    0.000  0.002  0.000  0.000  0.235  0.027  0.008  0.012  0.682  0.968
 
band     9 # energy   -5.37143035 # occ.  2.00000000
 
ion      s     py     pz     px    dxy    dyz    dz2    dxz  x2-y2    tot
    1  0.002  0.000  0.002  0.000  0.016  0.003  0.071  0.009  0.005  0.109
    2  0.001  0.000  0.003  0.000  0.015  0.015  0.168  0.048  0.005  0.255
    3  0.000  0.000  0.006  0.000  0.289  0.004  0.046  0.010  0.104  0.458
    4  0.001  0.000  0.002  0.000  0.035  0.008  0.040  0.028  0.004  0.118
    5  0.002  0.000  0.000  0.000  0.000  0.000  0.000  0.000  0.000  0.002
tot    0.006  0.000  0.013  0.001  0.355  0.029  0.326  0.094  0.118  0.942
 
band    10 # energy   -5.33041072 # occ.  2.00000000
 
ion      s     py     pz     px    dxy    dyz    dz2    dxz  x2-y2    tot
    1  0.004  0.000  0.001  0.000  0.036  0.004  0.024  0.011  0.012  0.091
    2  0.003  0.000  0.008  0.000  0.021  0.026  0.227  0.074  0.007  0.366
    3  0.000  0.000  0.022  0.000  0.127  0.003  0.081  0.007  0.043  0.283
    4  0.002  0.000  0.007  0.000  0.059  0.019  0.017  0.051  0.018  0.174
    5  0.002  0.000  0.000  0.000  0.000  0.000  0.000  0.000  0.000  0.003
tot    0.011  0.000  0.037  0.001  0.243  0.052  0.349  0.144  0.080  0.917
 
band    11 # energy   -5.28818554 # occ.  2.00000000
 
ion      s     py     pz     px    dxy    dyz    dz2    dxz  x2-y2    tot
    1  0.001  0.000  0.000  0.000  0.018  0.005  0.026  0.017  0.006  0.074
    2  0.000  0.000  0.000  0.001  0.519  0.000  0.017  0.001  0.170  0.709
    3  0.000  0.000  0.002  0.000  0.015  0.003  0.064  0.013  0.007  0.103
    4  0.001  0.000  0.001  0.000  0.012  0.004  0.027  0.020  0.006  0.072
    5  0.000  0.000  0.000  0.000  0.000  0.000  0.000  0.000  0.000  0.000
tot    0.003  0.000  0.004  0.001  0.564  0.013  0.134  0.050  0.189  0.957
 
band    12 # energy   -5.20616720 # occ.  2.00000000
 
ion      s     py     pz     px    dxy    dyz    dz2    dxz  x2-y2    tot
    1  0.000  0.000  0.000  0.000  0.003  0.004  0.001  0.001  0.008  0.017
    2  0.000  0.000  0.000  0.000  0.002  0.056  0.000  0.019  0.010  0.088
    3  0.000  0.000  0.000  0.000  0.149  0.044  0.000  0.016  0.455  0.665
    4  0.000  0.000  0.000  0.000  0.003  0.144  0.000  0.047  0.005  0.198
    5  0.000  0.000  0.000  0.000  0.000  0.000  0.000  0.000  0.000  0.000
tot    0.000  0.001  0.000  0.000  0.157  0.248  0.001  0.083  0.479  0.969
 
band    13 # energy   -5.12782855 # occ.  2.00000000
 
ion      s     py     pz     px    dxy    dyz    dz2    dxz  x2-y2    tot
    1  0.000  0.000  0.000  0.000  0.003  0.021  0.006  0.007  0.006  0.044
    2  0.000  0.001  0.000  0.000  0.201  0.004  0.001  0.001  0.590  0.798
    3  0.000  0.000  0.000  0.000  0.018  0.034  0.000  0.014  0.032  0.098
    4  0.000  0.000  0.000  0.000  0.007  0.001  0.000  0.001  0.019  0.027
    5  0.000  0.000  0.000  0.000  0.000  0.000  0.000  0.000  0.000  0.000
tot    0.000  0.001  0.001  0.000  0.229  0.060  0.007  0.022  0.647  0.967
 
band    14 # energy   -5.11543071 # occ.  2.00000000
 
ion      s     py     pz     px    dxy    dyz    dz2    dxz  x2-y2    tot
    1  0.003  0.000  0.003  0.000  0.026  0.003  0.368  0.007  0.009  0.420
    2  0.001  0.000  0.019  0.000  0.026  0.013  0.068  0.036  0.023  0.186
    3  0.000  0.000  0.011  0.000  0.169  0.014  0.001  0.038  0.057  0.290
    4  0.002  0.000  0.007  0.000  0.004  0.001  0.000  0.002  0.003  0.019
    5  0.003  0.000  0.000  0.000  0.000  0.000  0.000  0.000  0.000  0.003
tot    0.009  0.000  0.041  0.000  0.224  0.030  0.438  0.084  0.091  0.918
 
band    15 # energy   -4.99439392 # occ.  2.00000000
 
ion      s     py     pz     px    dxy    dyz    dz2    dxz  x2-y2    tot
    1  0.002  0.000  0.000  0.001  0.546  0.001  0.041  0.004  0.184  0.778
    2  0.000  0.000  0.008  0.000  0.005  0.003  0.015  0.009  0.002  0.041
    3  0.001  0.000  0.005  0.000  0.008  0.016  0.026  0.047  0.002  0.104
    4  0.000  0.000  0.001  0.000  0.011  0.003  0.000  0.009  0.003  0.028
    5  0.000  0.000  0.000  0.000  0.000  0.000  0.000  0.000  0.000  0.000
tot    0.003  0.000  0.013  0.001  0.569  0.024  0.082  0.069  0.191  0.951
 
band    16 # energy   -4.88908156 # occ.  2.00000000
 
ion      s     py     pz     px    dxy    dyz    dz2    dxz  x2-y2    tot
    1  0.000  0.001  0.000  0.000  0.174  0.012  0.000  0.004  0.508  0.699
    2  0.000  0.000  0.000  0.000  0.001  0.105  0.000  0.035  0.003  0.144
    3  0.000  0.000  0.000  0.000  0.008  0.012  0.000  0.004  0.019  0.044
    4  0.000  0.000  0.000  0.000  0.001  0.059  0.000  0.020  0.003  0.084
    5  0.000  0.000  0.000  0.000  0.000  0.000  0.000  0.000  0.000  0.000
tot    0.000  0.001  0.000  0.000  0.184  0.189  0.000  0.064  0.533  0.971
 
band    17 # energy   -4.77843241 # occ.  2.00000000
 
ion      s     py     pz     px    dxy    dyz    dz2    dxz  x2-y2    tot
    1  0.000  0.000  0.000  0.000  0.021  0.004  0.000  0.002  0.082  0.110
    2  0.000  0.000  0.000  0.000  0.014  0.006  0.000  0.001  0.023  0.044
    3  0.000  0.000  0.000  0.000  0.060  0.047  0.001  0.036  0.146  0.290
    4  0.000  0.000  0.000  0.000  0.001  0.375  0.000  0.158  0.002  0.536
    5  0.000  0.000  0.000  0.000  0.000  0.000  0.000  0.000  0.000  0.001
tot    0.000  0.001  0.000  0.000  0.098  0.431  0.001  0.197  0.253  0.981
 
band    18 # energy   -4.69964387 # occ.  2.00000000
 
ion      s     py     pz     px    dxy    dyz    dz2    dxz  x2-y2    tot
    1  0.000  0.000  0.000  0.000  0.033  0.007  0.004  0.019  0.008  0.072
    2  0.000  0.000  0.000  0.000  0.032  0.009  0.006  0.039  0.017  0.103
    3  0.002  0.000  0.000  0.000  0.048  0.097  0.021  0.201  0.029  0.400
    4  0.000  0.000  0.005  0.000  0.009  0.118  0.005  0.243  0.006  0.387
    5  0.004  0.000  0.000  0.000  0.000  0.000  0.000  0.000  0.000  0.004
tot    0.006  0.000  0.006  0.000  0.123  0.231  0.036  0.502  0.060  0.966
 
band    19 # energy   -4.48897015 # occ.  2.00000000
 
ion      s     py     pz     px    dxy    dyz    dz2    dxz  x2-y2    tot
    1  0.000  0.000  0.000  0.000  0.036  0.056  0.000  0.012  0.105  0.209
    2  0.000  0.000  0.000  0.000  0.016  0.271  0.000  0.094  0.049  0.430
    3  0.000  0.000  0.000  0.000  0.012  0.142  0.000  0.052  0.040  0.247
    4  0.000  0.000  0.000  0.000  0.003  0.064  0.000  0.023  0.008  0.098
    5  0.000  0.000  0.000  0.000  0.000  0.000  0.000  0.000  0.000  0.000
tot    0.000  0.000  0.000  0.000  0.067  0.533  0.000  0.182  0.201  0.984
 
band    20 # energy   -4.45266113 # occ.  2.00000000
 
ion      s     py     pz     px    dxy    dyz    dz2    dxz  x2-y2    tot
    1  0.000  0.000  0.004  0.000  0.030  0.096  0.003  0.306  0.011  0.450
    2  0.000  0.000  0.004  0.000  0.041  0.058  0.000  0.159  0.012  0.275
    3  0.003  0.000  0.001  0.000  0.010  0.015  0.024  0.052  0.002  0.107
    4  0.000  0.000  0.003  0.000  0.004  0.034  0.000  0.083  0.001  0.124
    5  0.002  0.000  0.000  0.000  0.000  0.000  0.000  0.000  0.000  0.002
tot    0.005  0.000  0.013  0.000  0.085  0.203  0.027  0.599  0.026  0.958
 
band    21 # energy   -4.28855724 # occ.  2.00000000
 
ion      s     py     pz     px    dxy    dyz    dz2    dxz  x2-y2    tot
    1  0.011  0.000  0.014  0.000  0.013  0.076  0.084  0.248  0.005  0.451
    2  0.001  0.000  0.001  0.000  0.009  0.090  0.002  0.243  0.004  0.350
    3  0.001  0.000  0.003  0.000  0.005  0.001  0.009  0.006  0.002  0.027
    4  0.000  0.000  0.005  0.000  0.000  0.016  0.000  0.049  0.000  0.072
    5  0.002  0.000  0.000  0.000  0.000  0.000  0.000  0.000  0.000  0.002
tot    0.016  0.000  0.023  0.001  0.027  0.183  0.096  0.546  0.010  0.903
 
band    22 # energy   -4.25563169 # occ.  2.00000000
 
ion      s     py     pz     px    dxy    dyz    dz2    dxz  x2-y2    tot
    1  0.000  0.000  0.000  0.000  0.004  0.245  0.000  0.075  0.009  0.334
    2  0.000  0.000  0.000  0.000  0.005  0.066  0.000  0.030  0.013  0.113
    3  0.000  0.000  0.000  0.000  0.002  0.332  0.000  0.112  0.005  0.451
    4  0.000  0.000  0.000  0.000  0.003  0.058  0.000  0.018  0.009  0.089
    5  0.000  0.000  0.000  0.000  0.000  0.000  0.000  0.000  0.000  0.000
tot    0.000  0.000  0.000  0.000  0.013  0.701  0.000  0.235  0.036  0.987
 
band    23 # energy   -3.98294790 # occ.  2.00000000
 
ion      s     py     pz     px    dxy    dyz    dz2    dxz  x2-y2    tot
    1  0.000  0.000  0.000  0.000  0.002  0.405  0.000  0.135  0.007  0.549
    2  0.000  0.000  0.000  0.000  0.005  0.222  0.000  0.075  0.016  0.318
    3  0.000  0.000  0.000  0.000  0.002  0.077  0.000  0.026  0.006  0.111