<?xml version="1.0" encoding="ISO-8859-1"?>
<modeling>
 <generator>
  <i name="program" type="string">vasp </i>
  <i name="version" type="string">5.4.4.18Apr17-6-g9f103f2a35  </i>
  <i name="subversion" type="string">(build Jun 30 2017 11:15:00) complex            parallel </i>
  <i name="platform" type="string">STALLO_VASP_5.4.4 </i>
  <i name="date" type="string">2019 10 11 </i>
  <i name="time" type="string">10:37:25 </i>
 </generator>
 <incar>
  <i type="string" name="PREC">normal    ! low/normal/accurate</i>
  <i type="string" name="ALGO"> Fast      ! Algorithm for electronic re</i>
  <i type="int" name="ISPIN">     1</i>
  <i type="int" name="NELMIN">     4</i>
  <i name="EDIFF">      0.00000100</i>
  <i type="int" name="NSW">     0</i>
  <i name="ENCUT">    250.00000000</i>
  <i type="int" name="NEDOS">  2401</i>
  <i type="string" name="LREAL"> Auto      ! Projection in reciprocal sp</i>
  <i name="EMIN">    -17.00000000</i>
  <i name="EMAX">      7.00000000</i>
  <i type="int" name="ISMEAR">     0</i>
  <i name="SIGMA">      0.10000000</i>
  <i type="logical" name="LWAVE"> F  </i>
  <i type="int" name="LORBIT">    11</i>
  <i type="logical" name="LELF"> T  </i>
  <v type="int" name="KPOINT_BSE">    -1     0     0     0</v>
 </incar>
 <structure name="primitive_cell" >
  <crystal>
   <varray name="basis" >
    <v>       2.57386868       0.00000000       0.00000000 </v>
    <v>       1.28693434       2.22903567       0.00000000 </v>
    <v>       0.00000000       0.00000000      30.30466494 </v>
   </varray>
   <i name="volume">    173.86529028 </i>
   <varray name="rec_basis" >
    <v>       0.38852021      -0.22431225       0.00000000 </v>
    <v>       0.00000000       0.44862450       0.00000000 </v>
    <v>       0.00000000       0.00000000       0.03299822 </v>
   </varray>
  </crystal>
  <varray name="positions" >
   <v>       0.00000000       0.00000000       0.39597864 </v>
   <v>       0.33333333       0.33333333       0.46532621 </v>
   <v>      -0.33333334      -0.33333333      -0.46532621 </v>
   <v>       0.00000000       0.00000000      -0.39597864 </v>
   <v>      -0.29448131      -0.33333333      -0.36298042 </v>
  </varray>
 </structure>
 <varray name="primitive_index" >
  <v type="int" >        1 </v>
  <v type="int" >        2 </v>
  <v type="int" >        3 </v>
  <v type="int" >        4 </v>
  <v type="int" >        5 </v>
 </varray>
 <kpoints>
  <generation param="Gamma">
   <v type="int" name="divisions">      10       10        1 </v>
   <v name="usershift">      0.00000000       0.00000000       0.00000000 </v>
   <v name="genvec1">      0.10000000       0.00000000       0.00000000 </v>
   <v name="genvec2">      0.00000000       0.10000000       0.00000000 </v>
   <v name="genvec3">      0.00000000       0.00000000       1.00000000 </v>
   <v name="shift">      0.00000000       0.00000000       0.00000000 </v>
  </generation>
  <varray name="kpointlist" >
   <v>       0.00000000       0.00000000       0.00000000 </v>
   <v>       0.10000000       0.00000000       0.00000000 </v>
   <v>       0.20000000      -0.00000000       0.00000000 </v>
   <v>       0.30000000      -0.00000000       0.00000000 </v>
   <v>       0.40000000      -0.00000000       0.00000000 </v>
   <v>       0.50000000      -0.00000000       0.00000000 </v>
   <v>       0.00000000       0.10000000       0.00000000 </v>
   <v>       0.10000000       0.10000000       0.00000000 </v>
   <v>       0.20000000       0.10000000       0.00000000 </v>
   <v>       0.30000000       0.10000000       0.00000000 </v>
   <v>       0.40000000       0.10000000       0.00000000 </v>
   <v>       0.50000000       0.10000000       0.00000000 </v>
   <v>      -0.40000000       0.10000000       0.00000000 </v>
   <v>      -0.30000000       0.10000000       0.00000000 </v>
   <v>      -0.20000000       0.10000000       0.00000000 </v>
   <v>      -0.10000000       0.10000000       0.00000000 </v>
   <v>       0.00000000       0.20000000       0.00000000 </v>
   <v>       0.10000000       0.20000000       0.00000000 </v>
   <v>       0.20000000       0.20000000       0.00000000 </v>
   <v>       0.30000000       0.20000000       0.00000000 </v>
   <v>       0.40000000       0.20000000       0.00000000 </v>
   <v>       0.50000000       0.20000000       0.00000000 </v>
   <v>      -0.40000000       0.20000000       0.00000000 </v>
   <v>      -0.30000000       0.20000000       0.00000000 </v>
   <v>      -0.20000000       0.20000000       0.00000000 </v>
   <v>      -0.10000000       0.20000000       0.00000000 </v>
   <v>       0.00000000       0.30000000       0.00000000 </v>
   <v>       0.10000000       0.30000000       0.00000000 </v>
   <v>       0.20000000       0.30000000       0.00000000 </v>
   <v>       0.30000000       0.30000000       0.00000000 </v>
   <v>       0.40000000       0.30000000       0.00000000 </v>
   <v>       0.50000000       0.30000000       0.00000000 </v>
   <v>      -0.40000000       0.30000000       0.00000000 </v>
   <v>      -0.30000000       0.30000000       0.00000000 </v>
   <v>      -0.20000000       0.30000000       0.00000000 </v>
   <v>      -0.10000000       0.30000000       0.00000000 </v>
   <v>       0.00000000       0.40000000       0.00000000 </v>
   <v>       0.10000000       0.40000000       0.00000000 </v>
   <v>       0.20000000       0.40000000       0.00000000 </v>
   <v>       0.30000000       0.40000000       0.00000000 </v>
   <v>       0.40000000       0.40000000       0.00000000 </v>
   <v>       0.50000000       0.40000000       0.00000000 </v>
   <v>      -0.40000000       0.40000000       0.00000000 </v>
   <v>      -0.30000000       0.40000000       0.00000000 </v>
   <v>      -0.20000000       0.40000000       0.00000000 </v>
   <v>      -0.10000000       0.40000000       0.00000000 </v>
   <v>       0.00000000       0.50000000       0.00000000 </v>
   <v>       0.10000000       0.50000000       0.00000000 </v>
   <v>       0.20000000       0.50000000       0.00000000 </v>
   <v>       0.30000000       0.50000000       0.00000000 </v>
   <v>       0.40000000       0.50000000       0.00000000 </v>
   <v>       0.50000000       0.50000000       0.00000000 </v>
  </varray>
  <varray name="weights" >
   <v>       0.01000000 </v>
   <v>       0.02000000 </v>
   <v>       0.02000000 </v>
   <v>       0.02000000 </v>
   <v>       0.02000000 </v>
   <v>       0.01000000 </v>
   <v>       0.02000000 </v>
   <v>       0.02000000 </v>
   <v>       0.02000000 </v>
   <v>       0.02000000 </v>
   <v>       0.02000000 </v>
   <v>       0.02000000 </v>
   <v>       0.02000000 </v>
   <v>       0.02000000 </v>
   <v>       0.02000000 </v>
   <v>       0.02000000 </v>
   <v>       0.02000000 </v>
   <v>       0.02000000 </v>
   <v>       0.02000000 </v>
   <v>       0.02000000 </v>
   <v>       0.02000000 </v>
   <v>       0.02000000 </v>
   <v>       0.02000000 </v>
   <v>       0.02000000 </v>
   <v>       0.02000000 </v>
   <v>       0.02000000 </v>
   <v>       0.02000000 </v>
   <v>       0.02000000 </v>
   <v>       0.02000000 </v>
   <v>       0.02000000 </v>
   <v>       0.02000000 </v>
   <v>       0.02000000 </v>
   <v>       0.02000000 </v>
   <v>       0.02000000 </v>
   <v>       0.02000000 </v>
   <v>       0.02000000 </v>
   <v>       0.02000000 </v>
   <v>       0.02000000 </v>
   <v>       0.02000000 </v>
   <v>       0.02000000 </v>
   <v>       0.02000000 </v>
   <v>       0.02000000 </v>
   <v>       0.02000000 </v>
   <v>       0.02000000 </v>
   <v>       0.02000000 </v>
   <v>       0.02000000 </v>
   <v>       0.01000000 </v>
   <v>       0.02000000 </v>
   <v>       0.02000000 </v>
   <v>       0.02000000 </v>
   <v>       0.02000000 </v>
   <v>       0.01000000 </v>
  </varray>
 </kpoints>
 <parameters>
  <separator name="general" >
   <i type="string" name="SYSTEM">unknown system</i>
   <i type="logical" name="LCOMPAT"> F  </i>
  </separator>
  <separator name="electronic" >
   <i type="string" name="PREC">normal</i>
   <i name="ENMAX">    250.00000000</i>
   <i name="ENAUG">    516.45600000</i>
   <i name="EDIFF">      0.00000100</i>
   <i type="int" name="IALGO">    68</i>
   <i type="int" name="IWAVPR">    10</i>
   <i type="int" name="NBANDS">    28</i>
   <i name="NELECT">     45.00000000</i>
   <i type="int" name="TURBO">     0</i>
   <i type="int" name="IRESTART">     0</i>
   <i type="int" name="NREBOOT">     0</i>
   <i type="int" name="NMIN">     0</i>
   <i name="EREF">      0.00000000</i>
   <separator name="electronic smearing" >
    <i type="int" name="ISMEAR">     0</i>
    <i name="SIGMA">      0.10000000</i>
    <i name="KSPACING">      0.50000000</i>
    <i type="logical" name="KGAMMA"> T  </i>
   </separator>
   <separator name="electronic projectors" >
    <i type="logical" name="LREAL"> T  </i>
    <v name="ROPT">     -0.00050000     -0.00050000</v>
    <i type="int" name="LMAXPAW">  -100</i>
    <i type="int" name="LMAXMIX">     2</i>
    <i type="logical" name="NLSPLINE"> F  </i>
   </separator>
   <separator name="electronic startup" >
    <i type="int" name="ISTART">     0</i>
    <i type="int" name="ICHARG">     2</i>
    <i type="int" name="INIWAV">     1</i>
   </separator>
   <separator name="electronic spin" >
    <i type="int" name="ISPIN">     1</i>
    <i type="logical" name="LNONCOLLINEAR"> F  </i>
    <v name="MAGMOM">      1.00000000      1.00000000      1.00000000      1.00000000      1.00000000</v>
    <i name="NUPDOWN">     -1.00000000</i>
    <i type="logical" name="LSORBIT"> F  </i>
    <v name="SAXIS">      0.00000000      0.00000000      1.00000000</v>
    <i type="logical" name="LSPIRAL"> F  </i>
    <v name="QSPIRAL">      0.00000000      0.00000000      0.00000000</v>
    <i type="logical" name="LZEROZ"> F  </i>
   </separator>
   <separator name="electronic exchange-correlation" >
    <i type="logical" name="LASPH"> F  </i>
    <i type="logical" name="LMETAGGA"> F  </i>
   </separator>
   <separator name="electronic convergence" >
    <i type="int" name="NELM">    60</i>
    <i type="int" name="NELMDL">    -5</i>
    <i type="int" name="NELMIN">     4</i>
    <i name="ENINI">    250.00000000</i>
    <separator name="electronic convergence detail" >
     <i type="logical" name="LDIAG"> T  </i>
     <i type="logical" name="LSUBROT"> F  </i>
     <i name="WEIMIN">      0.00000000</i>
     <i name="EBREAK">      0.00000001</i>
     <i name="DEPER">      0.30000000</i>
     <i type="int" name="NRMM">     4</i>
     <i name="TIME">      0.40000000</i>
    </separator>
   </separator>
   <separator name="electronic mixer" >
    <i name="AMIX">      0.40000000</i>
    <i name="BMIX">      1.00000000</i>
    <i name="AMIN">      0.10000000</i>
    <i name="AMIX_MAG">      1.60000000</i>
    <i name="BMIX_MAG">      1.00000000</i>
    <separator name="electronic mixer details" >
     <i type="int" name="IMIX">     4</i>
     <i type="logical" name="MIXFIRST"> F  </i>
     <i type="int" name="MAXMIX">   -45</i>
     <i name="WC">    100.00000000</i>
     <i type="int" name="INIMIX">     1</i>
     <i type="int" name="MIXPRE">     1</i>
     <i type="int" name="MREMOVE">     5</i>
    </separator>
   </separator>
   <separator name="electronic dipolcorrection" >
    <i type="logical" name="LDIPOL"> F  </i>
    <i type="logical" name="LMONO"> F  </i>
    <i type="int" name="IDIPOL">     0</i>
    <i name="EPSILON">      1.00000000</i>
    <v name="DIPOL">   -100.00000000   -100.00000000   -100.00000000</v>
    <i name="EFIELD">      0.00000000</i>
   </separator>
  </separator>
  <separator name="grids" >
   <i type="int" name="NGX">    10</i>
   <i type="int" name="NGY">    10</i>
   <i type="int" name="NGZ">   120</i>
   <i type="int" name="NGXF">    20</i>
   <i type="int" name="NGYF">    20</i>
   <i type="int" name="NGZF">   240</i>
   <i type="logical" name="ADDGRID"> F  </i>
  </separator>
  <separator name="ionic" >
   <i type="int" name="NSW">     0</i>
   <i type="int" name="IBRION">    -1</i>
   <i type="int" name="MDALGO">     0</i>
   <i type="int" name="ISIF">     2</i>
   <i name="PSTRESS">      0.00000000</i>
   <i name="EDIFFG">      0.00001000</i>
   <i type="int" name="NFREE">     0</i>
   <i name="POTIM">      0.50000000</i>
   <i name="SMASS">     -3.00000000</i>
   <i name="SCALEE">      1.00000000</i>
  </separator>
  <separator name="ionic md" >
   <i name="TEBEG">      0.00010000</i>
   <i name="TEEND">      0.00010000</i>
   <i type="int" name="NBLOCK">     1</i>
   <i type="int" name="KBLOCK">     1</i>
   <i type="int" name="NPACO">   256</i>
   <i name="APACO">     16.00000000</i>
  </separator>
  <separator name="symmetry" >
   <i type="int" name="ISYM">     2</i>
   <i name="SYMPREC">      0.00001000</i>
  </separator>
  <separator name="dos" >
   <i type="int" name="LORBIT">    11</i>
   <v name="RWIGS">     -1.00000000     -1.00000000</v>
   <i type="int" name="NEDOS">  2401</i>
   <i name="EMIN">    -17.00000000</i>
   <i name="EMAX">      7.00000000</i>
   <i name="EFERMI">      0.00000000</i>
  </separator>
  <separator name="writing" >
   <i type="int" name="NWRITE">     2</i>
   <i type="logical" name="LWAVE"> F  </i>
   <i type="logical" name="LDOWNSAMPLE"> F  </i>
   <i type="logical" name="LCHARG"> T  </i>
   <i type="logical" name="LPARD"> F  </i>
   <i type="logical" name="LVTOT"> F  </i>
   <i type="logical" name="LVHAR"> F  </i>
   <i type="logical" name="LELF"> T  </i>
   <i type="logical" name="LOPTICS"> F  </i>
   <v name="STM">      0.00000000      0.00000000      0.00000000      0.00000000      0.00000000      0.00000000      0.00000000</v>
  </separator>
  <separator name="performance" >
   <i type="int" name="NPAR">     2</i>
   <i type="int" name="NSIM">     4</i>
   <i type="int" name="NBLK">    -1</i>
   <i type="logical" name="LPLANE"> T  </i>
   <i type="logical" name="LSCALAPACK"> T  </i>
   <i type="logical" name="LSCAAWARE"> F  </i>
   <i type="logical" name="LSCALU"> F  </i>
   <i type="logical" name="LASYNC"> F  </i>
   <i type="logical" name="LORBITALREAL"> F  </i>
  </separator>
  <separator name="miscellaneous" >
   <i type="int" name="IDIOT">     3</i>
   <i type="int" name="ISPECIAL">     0</i>
   <i type="logical" name="LMUSIC"> F  </i>
   <v name="POMASS">     63.54600000      1.00000000</v>
   <v name="DARWINR">      0.00000000      0.00000000</v>
   <v name="DARWINV">      1.00000000      1.00000000</v>
   <i type="logical" name="LCORR"> T  </i>
  </separator>
  <i type="logical" name="GGA_COMPAT"> T  </i>
  <i type="logical" name="LBERRY"> F  </i>
  <i type="int" name="ICORELEVEL">     0</i>
  <i type="logical" name="LDAU"> F  </i>
  <i type="int" name="I_CONSTRAINED_M">     0</i>
  <separator name="electronic exchange-correlation" >
   <i type="string" name="GGA">--</i>
   <i type="int" name="VOSKOWN">     0</i>
   <i type="logical" name="LHFCALC"> F  </i>
   <i type="string" name="PRECFOCK"></i>
   <i type="logical" name="LSYMGRAD"> F  </i>
   <i type="logical" name="LHFONE"> F  </i>
   <i type="logical" name="LRHFCALC"> F  </i>
   <i type="logical" name="LTHOMAS"> F  </i>
   <i type="logical" name="LMODELHF"> F  </i>
   <i name="ENCUT4O">     -1.00000000</i>
   <i type="int" name="EXXOEP">     0</i>
   <i type="int" name="FOURORBIT">     0</i>
   <i name="AEXX">      0.00000000</i>
   <i name="HFALPHA">      0.00000000</i>
   <i name="MCALPHA">      0.00000000</i>
   <i name="ALDAX">      1.00000000</i>
   <i name="AGGAX">      1.00000000</i>
   <i name="ALDAC">      1.00000000</i>
   <i name="AGGAC">      1.00000000</i>
   <i type="int" name="NKREDX">     1</i>
   <i type="int" name="NKREDY">     1</i>
   <i type="int" name="NKREDZ">     1</i>
   <i type="logical" name="SHIFTRED"> F  </i>
   <i type="logical" name="ODDONLY"> F  </i>
   <i type="logical" name="EVENONLY"> F  </i>
   <i type="int" name="LMAXFOCK">     0</i>
   <i type="int" name="NMAXFOCKAE">     0</i>
   <i type="logical" name="LFOCKAEDFT"> F  </i>
   <i name="HFSCREEN">      0.00000000</i>
   <i name="HFSCREENC">      0.00000000</i>
   <i type="int" name="NBANDSGWLOW">     0</i>
  </separator>
  <separator name="vdW DFT" >
   <i type="logical" name="LUSE_VDW"> F  </i>
   <i name="Zab_VDW">     -0.84910000</i>
   <i name="PARAM1">      0.12340000</i>
   <i name="PARAM2">      1.00000000</i>
   <i name="PARAM3">      0.00000000</i>
  </separator>
  <separator name="model GW" >
   <i type="int" name="MODEL_GW">     0</i>
   <i name="MODEL_EPS0">     20.86383483</i>
   <i name="MODEL_ALPHA">      1.00000000</i>
  </separator>
  <separator name="linear response parameters" >
   <i type="logical" name="LEPSILON"> F  </i>
   <i type="logical" name="LRPA"> F  </i>
   <i type="logical" name="LNABLA"> F  </i>
   <i type="logical" name="LVEL"> F  </i>
   <i type="int" name="KINTER">     0</i>
   <i name="CSHIFT">      0.10000000</i>
   <i name="OMEGAMAX">     -1.00000000</i>
   <i name="DEG_THRESHOLD">      0.00200000</i>
   <i name="RTIME">     -0.10000000</i>
   <i name="WPLASMAI">      0.00000000</i>
   <v name="DFIELD">      0.00000000      0.00000000      0.00000000</v>
   <v name="WPLASMA">      0.00000000      0.00000000      0.00000000      0.00000000      0.00000000      0.00000000      0.00000000      0.00000000      0.00000000</v>
  </separator>
  <separator name="orbital magnetization" >
   <i type="logical" name="NUCIND"> F  </i>
   <v name="MAGPOS">      0.00000000      0.00000000      0.00000000</v>
   <i type="logical" name="LNICSALL"> T  </i>
   <i type="logical" name="ORBITALMAG"> F  </i>
   <i type="logical" name="LMAGBLOCH"> F  </i>
   <i type="logical" name="LCHIMAG"> F  </i>
   <i type="logical" name="LGAUGE"> T  </i>
   <i type="int" name="MAGATOM">     0</i>
   <v name="MAGDIPOL">      0.00000000      0.00000000      0.00000000</v>
   <v name="AVECCONST">      0.00000000      0.00000000      0.00000000</v>
  </separator>
  <separator name="response functions" >
   <i type="logical" name="LADDER"> F  </i>
   <i type="logical" name="LRPAFORCE"> F  </i>
   <i type="logical" name="LFXC"> F  </i>
   <i type="logical" name="LHARTREE"> T  </i>
   <i type="int" name="IBSE">     0</i>
   <v type="int" name="KPOINT">    -1     0     0     0</v>
   <i type="logical" name="LTCTE"> F  </i>
   <i type="logical" name="LTETE"> F  </i>
   <i type="logical" name="LTRIPLET"> F  </i>
   <i type="logical" name="LFXCEPS"> F  </i>
   <i type="logical" name="LFXHEG"> F  </i>
   <i type="int" name="NATURALO">     2</i>
   <i type="logical" name="L2ORDER"> F  </i>
   <i type="logical" name="LMP2LT"> F  </i>
   <i type="logical" name="LUSEW"> F  </i>
   <i name="ENCUTGW">     -2.00000000</i>
   <i name="ENCUTGWSOFT">     -2.00000000</i>
   <i name="ENCUTLF">     -1.00000000</i>
   <i type="int" name="LMAXMP2">    -1</i>
   <i name="SCISSOR">      0.00000000</i>
   <i type="int" name="NOMEGA">     0</i>
   <i type="int" name="NOMEGAR">     0</i>
   <i type="int" name="NBANDSGW">    -1</i>
   <i type="int" name="NBANDSO">    -1</i>
   <i type="int" name="NBANDSV">    -1</i>
   <i type="int" name="NELM">     1</i>
   <i type="int" name="NELMHF">     1</i>
   <i type="int" name="DIM">     3</i>
   <i type="int" name="ANTIRES">     0</i>
   <i name="OMEGAMAX">    -30.00000000</i>
   <i name="OMEGAMIN">    -30.00000000</i>
   <i name="OMEGATL">   -200.00000000</i>
   <i type="int" name="OMEGAGRID">   140</i>
   <i name="CSHIFT">     -0.10000000</i>
   <i type="logical" name="SELFENERGY"> F  </i>
   <i type="logical" name="LSPECTRAL"> F  </i>
   <i type="logical" name="LSPECTRALGW"> F  </i>
   <i type="logical" name="LSINGLES"> F  </i>
   <i type="logical" name="LFERMIGW"> F  </i>
   <i type="logical" name="ODDONLYGW"> F  </i>
   <i type="logical" name="EVENONLYGW"> F  </i>
   <i type="int" name="NKREDLFX">     1</i>
   <i type="int" name="NKREDLFY">     1</i>
   <i type="int" name="NKREDLFZ">     1</i>
   <i type="int" name="MAXMEM">  2800</i>
   <i type="int" name="TELESCOPE">     0</i>
   <i type="int" name="TAUPAR">     1</i>
   <i type="int" name="OMEGAPAR">    -1</i>
   <i name="LAMBDA">      1.00000000</i>
  </separator>
  <separator name="External order field" >
   <i name="OFIELD_KAPPA">      0.00000000</i>
   <v name="OFIELD_K">      0.00000000      0.00000000      0.00000000</v>
   <i name="OFIELD_Q6_NEAR">      0.00000000</i>
   <i name="OFIELD_Q6_FAR">      0.00000000</i>
   <i name="OFIELD_A">      0.00000000</i>
  </separator>
 </parameters>
 <atominfo>
  <atoms>       5 </atoms>
  <types>       2 </types>
  <array name="atoms" >
   <dimension dim="1">ion</dimension>
   <field type="string">element</field>
   <field type="int">atomtype</field>
   <set>
    <rc><c>Cu</c><c>   1</c></rc>
    <rc><c>Cu</c><c>   1</c></rc>
    <rc><c>Cu</c><c>   1</c></rc>
    <rc><c>Cu</c><c>   1</c></rc>
    <rc><c>H </c><c>   2</c></rc>
   </set>
  </array>
  <array name="atomtypes" >
   <dimension dim="1">type</dimension>
   <field type="int">atomspertype</field>
   <field type="string">element</field>
   <field>mass</field>
   <field>valence</field>
   <field type="string">pseudopotential</field>
   <set>
    <rc><c>   4</c><c>Cu</c><c>     63.54600000</c><c>     11.00000000</c><c> PAW_PBE Cu 05Jan2001                   </c></rc>
    <rc><c>   1</c><c>H </c><c>      1.00000000</c><c>      1.00000000</c><c> PAW_PBE H 15Jun2001                    </c></rc>
   </set>
  </array>
 </atominfo>
 <structure name="initialpos" >
  <crystal>
   <varray name="basis" >
    <v>       2.57386868       0.00000000       0.00000000 </v>
    <v>       1.28693434       2.22903567       0.00000000 </v>
    <v>       0.00000000       0.00000000      30.30466494 </v>
   </varray>
   <i name="volume">    173.86529028 </i>
   <varray name="rec_basis" >
    <v>       0.38852021      -0.22431225       0.00000000 </v>
    <v>       0.00000000       0.44862450       0.00000000 </v>
    <v>       0.00000000       0.00000000       0.03299822 </v>
   </varray>
  </crystal>
  <varray name="positions" >
   <v>       0.00000000       0.00000000       0.39597864 </v>
   <v>       0.33333333       0.33333333       0.46532621 </v>
   <v>       0.66666666       0.66666667       0.53467379 </v>
   <v>       0.00000000       0.00000000       0.60402136 </v>
   <v>       0.70551869       0.66666667       0.63701958 </v>
  </varray>
 </structure>
 <calculation>
  <scstep>
   <time name="dav">    1.10    1.10</time>
   <time name="total">    1.13    1.14</time>
   <energy>
    <i name="alphaZ">    120.87645803 </i>
    <i name="ewald">  38005.06287780 </i>
    <i name="hartreedc"> -43126.77415007 </i>
    <i name="XCdc">    177.39120150 </i>
    <i name="pawpsdc">   4328.99049516 </i>
    <i name="pawaedc">  -4905.09836044 </i>
    <i name="eentropy">     -0.01585930 </i>
    <i name="bandstr">     20.44956742 </i>
    <i name="atom">   5575.94961827 </i>
    <i name="e_fr_energy">    196.83184837 </i>
    <i name="e_wo_entrp">    196.84770767 </i>
    <i name="e_0_energy">    196.83977802 </i>
   </energy>
  </scstep>
  <scstep>
   <time name="dav">    1.16    1.16</time>
   <time name="total">    1.17    1.17</time>
   <energy>
    <i name="e_fr_energy">    -10.78302643 </i>
    <i name="e_wo_entrp">    -10.77026582 </i>
    <i name="e_0_energy">    -10.77664612 </i>
   </energy>
  </scstep>
  <scstep>
   <time name="dav">    1.29    1.29</time>
   <time name="total">    1.30    1.30</time>
   <energy>
    <i name="e_fr_energy">    -20.96253376 </i>
    <i name="e_wo_entrp">    -20.94833987 </i>
    <i name="e_0_energy">    -20.95543681 </i>
   </energy>
  </scstep>
  <scstep>
   <time name="dav">    1.27    1.27</time>
   <time name="total">    1.28    1.28</time>
   <energy>
    <i name="e_fr_energy">    -21.07705460 </i>
    <i name="e_wo_entrp">    -21.06307299 </i>
    <i name="e_0_energy">    -21.07006380 </i>
   </energy>
  </scstep>
  <scstep>
   <time name="dav">    1.31    1.32</time>
   <time name="total">    1.38    1.38</time>
   <energy>
    <i name="e_fr_energy">    -21.07821744 </i>
    <i name="e_wo_entrp">    -21.06423469 </i>
    <i name="e_0_energy">    -21.07122606 </i>
   </energy>
  </scstep>
  <scstep>
   <time name="diag">    0.22    0.23</time>
   <time name="diis">    0.67    0.67</time>
   <time name="orth">    0.02    0.02</time>
   <time name="total">    1.00    1.00</time>
   <energy>
    <i name="e_fr_energy">    -19.01034797 </i>
    <i name="e_wo_entrp">    -19.00035856 </i>
    <i name="e_0_energy">    -19.00535327 </i>
   </energy>
  </scstep>
  <scstep>
   <time name="diag">    0.21    0.21</time>
   <time name="diis">    0.67    0.67</time>
   <time name="orth">    0.02    0.03</time>
   <time name="total">    0.99    0.99</time>
   <energy>
    <i name="e_fr_energy">    -17.28504330 </i>
    <i name="e_wo_entrp">    -17.27349185 </i>
    <i name="e_0_energy">    -17.27926757 </i>
   </energy>
  </scstep>
  <scstep>
   <time name="diag">    0.21    0.21</time>
   <time name="diis">    0.72    0.72</time>
   <time name="orth">    0.02    0.03</time>
   <time name="total">    1.04    1.04</time>
   <energy>
    <i name="e_fr_energy">    -17.31493299 </i>
    <i name="e_wo_entrp">    -17.29892710 </i>
    <i name="e_0_energy">    -17.30693004 </i>
   </energy>
  </scstep>
  <scstep>
   <time name="diag">    0.22    0.23</time>
   <time name="diis">    0.74    0.74</time>
   <time name="orth">    0.02    0.03</time>
   <time name="total">    1.08    1.08</time>
   <energy>
    <i name="e_fr_energy">    -17.19924891 </i>
    <i name="e_wo_entrp">    -17.18241576 </i>
    <i name="e_0_energy">    -17.19083233 </i>
   </energy>
  </scstep>
  <scstep>
   <time name="diag">    0.23    0.23</time>
   <time name="diis">    0.75    0.75</time>
   <time name="orth">    0.02    0.03</time>
   <time name="total">    1.08    1.08</time>
   <energy>
    <i name="e_fr_energy">    -17.18903586 </i>
    <i name="e_wo_entrp">    -17.17003651 </i>
    <i name="e_0_energy">    -17.17953619 </i>
   </energy>
  </scstep>
  <scstep>
   <time name="diag">    0.22    0.23</time>
   <time name="diis">    0.75    0.75</time>
   <time name="orth">    0.02    0.03</time>
   <time name="total">    1.09    1.09</time>
   <energy>
    <i name="e_fr_energy">    -17.18361835 </i>
    <i name="e_wo_entrp">    -17.16554957 </i>
    <i name="e_0_energy">    -17.17458396 </i>
   </energy>
  </scstep>
  <scstep>
   <time name="diag">    0.23    0.23</time>
   <time name="diis">    0.75    0.75</time>
   <time name="orth">    0.02    0.03</time>
   <time name="total">    1.09    1.09</time>
   <energy>
    <i name="e_fr_energy">    -17.18244654 </i>
    <i name="e_wo_entrp">    -17.16469650 </i>
    <i name="e_0_energy">    -17.17357152 </i>
   </energy>
  </scstep>
  <scstep>
   <time name="diag">    0.21    0.21</time>
   <time name="diis">    0.67    0.67</time>
   <time name="orth">    0.02    0.03</time>
   <time name="total">    0.99    0.99</time>
   <energy>
    <i name="e_fr_energy">    -17.18203277 </i>
    <i name="e_wo_entrp">    -17.16412117 </i>
    <i name="e_0_energy">    -17.17307697 </i>
   </energy>
  </scstep>
  <scstep>
   <time name="diag">    0.21    0.21</time>
   <time name="diis">    0.68    0.68</time>
   <time name="orth">    0.02    0.03</time>
   <time name="total">    1.00    1.00</time>
   <energy>
    <i name="e_fr_energy">    -17.18184616 </i>
    <i name="e_wo_entrp">    -17.16344790 </i>
    <i name="e_0_energy">    -17.17264703 </i>
   </energy>
  </scstep>
  <scstep>
   <time name="diag">    0.23    0.23</time>
   <time name="diis">    0.70    0.70</time>
   <time name="orth">    0.03    0.03</time>
   <time name="total">    1.04    1.04</time>
   <energy>
    <i name="e_fr_energy">    -17.18190348 </i>
    <i name="e_wo_entrp">    -17.16361263 </i>
    <i name="e_0_energy">    -17.17275805 </i>
   </energy>
  </scstep>
  <scstep>
   <time name="diag">    0.22    0.22</time>
   <time name="diis">    0.68    0.68</time>
   <time name="orth">    0.02    0.03</time>
   <time name="total">    1.01    1.01</time>
   <energy>
    <i name="e_fr_energy">    -17.18225989 </i>
    <i name="e_wo_entrp">    -17.16389729 </i>
    <i name="e_0_energy">    -17.17307859 </i>
   </energy>
  </scstep>
  <scstep>
   <time name="diag">    0.22    0.22</time>
   <time name="diis">    0.67    0.67</time>
   <time name="orth">    0.02    0.03</time>
   <time name="total">    1.00    1.00</time>
   <energy>
    <i name="e_fr_energy">    -17.18238183 </i>
    <i name="e_wo_entrp">    -17.16398674 </i>
    <i name="e_0_energy">    -17.17318428 </i>
   </energy>
  </scstep>
  <scstep>
   <time name="diag">    0.22    0.22</time>
   <time name="diis">    0.54    0.54</time>
   <time name="orth">    0.02    0.03</time>
   <time name="total">    0.87    0.88</time>
   <energy>
    <i name="e_fr_energy">    -17.18249817 </i>
    <i name="e_wo_entrp">    -17.16409288 </i>
    <i name="e_0_energy">    -17.17329552 </i>
   </energy>
  </scstep>
  <scstep>
   <time name="diag">    0.22    0.22</time>
   <time name="diis">    0.49    0.49</time>
   <time name="orth">    0.02    0.03</time>
   <time name="total">    0.83    0.83</time>
   <energy>
    <i name="e_fr_energy">    -17.18253224 </i>
    <i name="e_wo_entrp">    -17.16415429 </i>
    <i name="e_0_energy">    -17.17334327 </i>
   </energy>
  </scstep>
  <scstep>
   <time name="diag">    0.21    0.21</time>
   <time name="diis">    0.42    0.42</time>
   <time name="orth">    0.02    0.03</time>
   <time name="total">    0.73    0.74</time>
   <energy>
    <i name="e_fr_energy">    -17.18256636 </i>
    <i name="e_wo_entrp">    -17.16416110 </i>
    <i name="e_0_energy">    -17.17336373 </i>
   </energy>
  </scstep>
  <scstep>
   <time name="diag">    0.21    0.21</time>
   <time name="diis">    0.43    0.43</time>
   <time name="orth">    0.02    0.03</time>
   <time name="total">    0.75    0.75</time>
   <energy>
    <i name="e_fr_energy">    -17.18258084 </i>
    <i name="e_wo_entrp">    -17.16418682 </i>
    <i name="e_0_energy">    -17.17338383 </i>
   </energy>
  </scstep>
  <scstep>
   <time name="diag">    0.21    0.22</time>
   <time name="diis">    0.45    0.45</time>
   <time name="orth">    0.02    0.03</time>
   <time name="total">    0.77    0.77</time>
   <energy>
    <i name="e_fr_energy">    -17.18258718 </i>
    <i name="e_wo_entrp">    -17.16418661 </i>
    <i name="e_0_energy">    -17.17338689 </i>
   </energy>
  </scstep>
  <scstep>
   <time name="diag">    0.22    0.23</time>
   <time name="diis">    0.45    0.45</time>
   <time name="orth">    0.03    0.03</time>
   <time name="total">    0.79    0.79</time>
   <energy>
    <i name="e_fr_energy">    -17.18258933 </i>
    <i name="e_wo_entrp">    -17.16419294 </i>
    <i name="e_0_energy">    -17.17339113 </i>
   </energy>
  </scstep>
  <scstep>
   <time name="diag">    0.22    0.22</time>
   <time name="diis">    0.36    0.36</time>
   <time name="orth">    0.02    0.03</time>
   <time name="total">    0.64    0.64</time>
   <energy>
    <i name="alphaZ">    120.87645803 </i>
    <i name="ewald">  38005.06287780 </i>
    <i name="hartreedc"> -43075.51091518 </i>
    <i name="XCdc">    173.35677548 </i>
    <i name="pawpsdc">   4390.44607682 </i>
    <i name="pawaedc">  -4966.19374738 </i>
    <i name="eentropy">     -0.01839757 </i>
    <i name="bandstr">   -241.15133608 </i>
    <i name="atom">   5575.94961827 </i>
    <i name="e_fr_energy">    -17.18258982 </i>
    <i name="e_wo_entrp">    -17.16419225 </i>
    <i name="e_0_energy">    -17.17339103 </i>
   </energy>
  </scstep>
  <structure>
   <crystal>
    <varray name="basis" >
     <v>       2.57386868       0.00000000       0.00000000 </v>
     <v>       1.28693434       2.22903567       0.00000000 </v>
     <v>       0.00000000       0.00000000      30.30466494 </v>
    </varray>
    <i name="volume">    173.86529028 </i>
    <varray name="rec_basis" >
     <v>       0.38852021      -0.22431225       0.00000000 </v>
     <v>       0.00000000       0.44862450       0.00000000 </v>
     <v>       0.00000000       0.00000000       0.03299822 </v>
    </varray>
   </crystal>
   <varray name="positions" >
    <v>       0.00000000       0.00000000       0.39597864 </v>
    <v>       0.33333333       0.33333333       0.46532621 </v>
    <v>       0.66666666       0.66666667       0.53467379 </v>
    <v>       0.00000000       0.00000000       0.60402136 </v>
    <v>       0.70551869       0.66666667       0.63701958 </v>
   </varray>
  </structure>
  <varray name="forces" >
   <v>       0.00091385      -0.00015958       0.15132963 </v>
   <v>      -0.00085586      -0.00008625      -0.02240883 </v>
   <v>       0.00766649       0.00006215      -0.29530612 </v>
   <v>       0.19327137       0.03679830       0.74832701 </v>
   <v>      -0.20099584      -0.03661463      -0.58194169 </v>
  </varray>
  <varray name="stress" >
   <v>     -48.46765620       0.49791108      -2.07116088 </v>
   <v>       0.49791115     -48.58856701      -0.32981214 </v>
   <v>      -2.07116088      -0.32981212     -51.57999135 </v>
  </varray>
  <energy>
   <i name="e_fr_energy">    -17.18258982 </i>
   <i name="e_wo_entrp">    -17.17339103 </i>
   <i name="e_0_energy">     -0.01839757 </i>
  </energy>
  <time name="totalsc">   25.53   25.60</time>
  <eigenvalues>
   <array>
    <dimension dim="1">band</dimension>
    <dimension dim="2">kpoint</dimension>
    <dimension dim="3">spin</dimension>
    <field>eigene</field>
    <field>occ</field>
    <set>
     <set comment="spin 1">
      <set comment="kpoint 1">
       <r>  -11.6124    1.0000 </r>
       <r>  -10.5972    1.0000 </r>
       <r>   -8.9886    1.0000 </r>
       <r>   -7.5302    1.0000 </r>
       <r>   -6.0830    1.0000 </r>
       <r>   -5.5634    1.0000 </r>
       <r>   -5.5400    1.0000 </r>
       <r>   -5.5136    1.0000 </r>
       <r>   -5.3199    1.0000 </r>
       <r>   -5.2819    1.0000 </r>
       <r>   -5.2802    1.0000 </r>
       <r>   -5.2269    1.0000 </r>
       <r>   -5.2265    1.0000 </r>
       <r>   -4.9712    1.0000 </r>
       <r>   -4.9708    1.0000 </r>
       <r>   -4.8792    1.0000 </r>
       <r>   -4.7657    1.0000 </r>
       <r>   -4.7309    1.0000 </r>
       <r>   -4.4776    1.0000 </r>
       <r>   -4.4772    1.0000 </r>
       <r>   -4.2592    1.0000 </r>
       <r>   -4.2584    1.0000 </r>
       <r>   -3.9872    1.0000 </r>
       <r>   -3.9870    1.0000 </r>
       <r>   -2.9208    1.0000 </r>
       <r>    1.6099    0.0000 </r>
       <r>    1.9364    0.0000 </r>
       <r>    2.3654    0.0000 </r>
      </set>
      <set comment="kpoint 2">
       <r>  -11.3104    1.0000 </r>
       <r>  -10.2995    1.0000 </r>
       <r>   -8.7237    1.0000 </r>
       <r>   -7.3084    1.0000 </r>
       <r>   -6.0893    1.0000 </r>
       <r>   -5.6710    1.0000 </r>
       <r>   -5.6075    1.0000 </r>
       <r>   -5.4321    1.0000 </r>
       <r>   -5.3714    1.0000 </r>
       <r>   -5.3304    1.0000 </r>
       <r>   -5.2882    1.0000 </r>
       <r>   -5.2062    1.0000 </r>
       <r>   -5.1278    1.0000 </r>
       <r>   -5.1154    1.0000 </r>
       <r>   -4.9944    1.0000 </r>
       <r>   -4.8891    1.0000 </r>
       <r>   -4.7784    1.0000 </r>
       <r>   -4.6996    1.0000 </r>
       <r>   -4.4890    1.0000 </r>
       <r>   -4.4527    1.0000 </r>
       <r>   -4.2886    1.0000 </r>
       <r>   -4.2556    1.0000 </r>
       <r>   -3.9829    1.0000 </r>
       <r>   -3.7705    1.0000 </r>
       <r>   -2.2364    0.1153 </r>
       <r>    1.8543    0.0000 </r>
       <r>    2.2401    0.0000 </r>
       <r>    2.6678    0.0000 </r>
      </set>
      <set comment="kpoint 3">
       <r>  -10.4488    1.0000 </r>
       <r>   -9.4563    1.0000 </r>
       <r>   -8.0300    1.0000 </r>
       <r>   -6.7850    1.0000 </r>
       <r>   -6.1891    1.0000 </r>
       <r>   -5.9309    1.0000 </r>
       <r>   -5.7326    1.0000 </r>
       <r>   -5.6318    1.0000 </r>
       <r>   -5.4764    1.0000 </r>
       <r>   -5.2596    1.0000 </r>
       <r>   -5.2058    1.0000 </r>
       <r>   -5.1706    1.0000 </r>
       <r>   -5.0953    1.0000 </r>
       <r>   -5.0118    1.0000 </r>
       <r>   -4.8715    1.0000 </r>
       <r>   -4.8237    1.0000 </r>
       <r>   -4.7920    1.0000 </r>
       <r>   -4.6073    1.0000 </r>
       <r>   -4.5703    1.0000 </r>
       <r>   -4.4358    1.0000 </r>
       <r>   -4.2564    1.0000 </r>
       <r>   -4.0909    1.0000 </r>
       <r>   -3.9781    1.0000 </r>
       <r>   -2.9335    1.0000 </r>
       <r>   -0.9198    0.0000 </r>
       <r>    2.5796    0.0000 </r>
       <r>    3.1497    0.0000 </r>
       <r>    3.5760    0.0000 </r>
      </set>
      <set comment="kpoint 4">
       <r>   -9.2254    1.0000 </r>
       <r>   -8.2893    1.0000 </r>
       <r>   -7.3249    1.0000 </r>
       <r>   -6.5204    1.0000 </r>
       <r>   -6.3330    1.0000 </r>
       <r>   -6.1311    1.0000 </r>
       <r>   -5.8451    1.0000 </r>
       <r>   -5.6391    1.0000 </r>
       <r>   -5.5115    1.0000 </r>
       <r>   -5.2774    1.0000 </r>
       <r>   -5.1850    1.0000 </r>
       <r>   -5.0552    1.0000 </r>
       <r>   -4.8944    1.0000 </r>
       <r>   -4.8260    1.0000 </r>
       <r>   -4.7318    1.0000 </r>
       <r>   -4.6167    1.0000 </r>
       <r>   -4.5060    1.0000 </r>
       <r>   -4.3710    1.0000 </r>
       <r>   -4.3348    1.0000 </r>
       <r>   -4.2448    1.0000 </r>
       <r>   -4.1273    1.0000 </r>
       <r>   -3.9650    1.0000 </r>
       <r>   -3.6346    1.0000 </r>
       <r>   -1.8063    0.0000 </r>
       <r>    0.7164    0.0000 </r>
       <r>    3.7253    0.0000 </r>
       <r>    4.6332    0.0000 </r>
       <r>    5.0166    0.0000 </r>
      </set>
      <set comment="kpoint 5">
       <r>   -8.2668    1.0000 </r>
       <r>   -7.3589    1.0000 </r>
       <r>   -7.0012    1.0000 </r>
       <r>   -6.5359    1.0000 </r>
       <r>   -6.5070    1.0000 </r>
       <r>   -6.2554    1.0000 </r>
       <r>   -5.9643    1.0000 </r>
       <r>   -5.4273    1.0000 </r>
       <r>   -5.3091    1.0000 </r>
       <r>   -5.2693    1.0000 </r>
       <r>   -5.1651    1.0000 </r>
       <r>   -4.9285    1.0000 </r>
       <r>   -4.8463    1.0000 </r>
       <r>   -4.4879    1.0000 </r>
       <r>   -4.3470    1.0000 </r>
       <r>   -4.3110    1.0000 </r>
       <r>   -4.1018    1.0000 </r>
       <r>   -4.0968    1.0000 </r>
       <r>   -4.0473    1.0000 </r>
       <r>   -3.9660    1.0000 </r>
       <r>   -3.8106    1.0000 </r>
       <r>   -3.5192    1.0000 </r>
       <r>   -2.5732    0.9998 </r>
       <r>   -0.4556    0.0000 </r>
       <r>    1.8149    0.0000 </r>
       <r>    2.4896    0.0000 </r>
       <r>    3.3396    0.0000 </r>
       <r>    4.6544    0.0000 </r>
      </set>
      <set comment="kpoint 6">
       <r>   -8.0283    1.0000 </r>
       <r>   -7.0986    1.0000 </r>
       <r>   -6.9104    1.0000 </r>
       <r>   -6.5873    1.0000 </r>
       <r>   -6.5248    1.0000 </r>
       <r>   -6.3009    1.0000 </r>
       <r>   -5.9871    1.0000 </r>
       <r>   -5.4069    1.0000 </r>
       <r>   -5.3089    1.0000 </r>
       <r>   -5.2431    1.0000 </r>
       <r>   -4.9530    1.0000 </r>
       <r>   -4.9324    1.0000 </r>
       <r>   -4.6108    1.0000 </r>
       <r>   -4.4503    1.0000 </r>
       <r>   -4.2536    1.0000 </r>
       <r>   -4.1137    1.0000 </r>
       <r>   -4.0441    1.0000 </r>
       <r>   -3.9492    1.0000 </r>
       <r>   -3.8908    1.0000 </r>
       <r>   -3.6936    1.0000 </r>
       <r>   -3.6268    1.0000 </r>
       <r>   -2.1889    0.0307 </r>
       <r>   -1.3730    0.0000 </r>
       <r>   -0.8226    0.0000 </r>
       <r>    0.5904    0.0000 </r>
       <r>    1.7389    0.0000 </r>
       <r>    2.8433    0.0000 </r>
       <r>    4.0797    0.0000 </r>
      </set>
      <set comment="kpoint 7">
       <r>  -11.3089    1.0000 </r>
       <r>  -10.2994    1.0000 </r>
       <r>   -8.7249    1.0000 </r>
       <r>   -7.3090    1.0000 </r>
       <r>   -6.1018    1.0000 </r>
       <r>   -5.6658    1.0000 </r>
       <r>   -5.6166    1.0000 </r>
       <r>   -5.4356    1.0000 </r>
       <r>   -5.3698    1.0000 </r>
       <r>   -5.3309    1.0000 </r>
       <r>   -5.2886    1.0000 </r>
       <r>   -5.2033    1.0000 </r>
       <r>   -5.1283    1.0000 </r>
       <r>   -5.1134    1.0000 </r>
       <r>   -4.9945    1.0000 </r>
       <r>   -4.8878    1.0000 </r>
       <r>   -4.7695    1.0000 </r>
       <r>   -4.6965    1.0000 </r>
       <r>   -4.4878    1.0000 </r>
       <r>   -4.4528    1.0000 </r>
       <r>   -4.2887    1.0000 </r>
       <r>   -4.2550    1.0000 </r>
       <r>   -3.9828    1.0000 </r>
       <r>   -3.7686    1.0000 </r>
       <r>   -2.2355    0.1128 </r>
       <r>    1.8542    0.0000 </r>
       <r>    2.2402    0.0000 </r>
       <r>    2.6677    0.0000 </r>
      </set>
      <set comment="kpoint 8">
       <r>  -11.3077    1.0000 </r>
       <r>  -10.2995    1.0000 </r>
       <r>   -8.7262    1.0000 </r>
       <r>   -7.3098    1.0000 </r>
       <r>   -6.1163    1.0000 </r>
       <r>   -5.6669    1.0000 </r>
       <r>   -5.6146    1.0000 </r>
       <r>   -5.4365    1.0000 </r>
       <r>   -5.3690    1.0000 </r>
       <r>   -5.3337    1.0000 </r>
       <r>   -5.2873    1.0000 </r>
       <r>   -5.2012    1.0000 </r>
       <r>   -5.1283    1.0000 </r>
       <r>   -5.1121    1.0000 </r>
       <r>   -4.9944    1.0000 </r>
       <r>   -4.8872    1.0000 </r>
       <r>   -4.7545    1.0000 </r>
       <r>   -4.6989    1.0000 </r>
       <r>   -4.4867    1.0000 </r>
       <r>   -4.4531    1.0000 </r>
       <r>   -4.2891    1.0000 </r>
       <r>   -4.2550    1.0000 </r>
       <r>   -3.9829    1.0000 </r>
       <r>   -3.7677    1.0000 </r>
       <r>   -2.2348    0.1109 </r>
       <r>    1.8540    0.0000 </r>
       <r>    2.2403    0.0000 </r>
       <r>    2.6678    0.0000 </r>
      </set>
      <set comment="kpoint 9">
       <r>  -10.7222    1.0000 </r>
       <r>   -9.7270    1.0000 </r>
       <r>   -8.2435    1.0000 </r>
       <r>   -6.9263    1.0000 </r>
       <r>   -6.1730    1.0000 </r>
       <r>   -5.8396    1.0000 </r>
       <r>   -5.7438    1.0000 </r>
       <r>   -5.5497    1.0000 </r>
       <r>   -5.4628    1.0000 </r>
       <r>   -5.3157    1.0000 </r>
       <r>   -5.2301    1.0000 </r>
       <r>   -5.1632    1.0000 </r>
       <r>   -5.1112    1.0000 </r>
       <r>   -5.0895    1.0000 </r>
       <r>   -4.9233    1.0000 </r>
       <r>   -4.8416    1.0000 </r>
       <r>   -4.7060    1.0000 </r>
       <r>   -4.6174    1.0000 </r>
       <r>   -4.5922    1.0000 </r>
       <r>   -4.4423    1.0000 </r>
       <r>   -4.3443    1.0000 </r>
       <r>   -4.0805    1.0000 </r>
       <r>   -4.0219    1.0000 </r>
       <r>   -3.1638    1.0000 </r>
       <r>   -1.3014    0.0000 </r>
       <r>    2.3401    0.0000 </r>
       <r>    2.8473    0.0000 </r>
       <r>    3.2732    0.0000 </r>
      </set>
      <set comment="kpoint 10">
       <r>   -9.6585    1.0000 </r>
       <r>   -8.6995    1.0000 </r>
       <r>   -7.5143    1.0000 </r>
       <r>   -6.5146    1.0000 </r>
       <r>   -6.2155    1.0000 </r>
       <r>   -6.0315    1.0000 </r>
       <r>   -5.8506    1.0000 </r>
       <r>   -5.7409    1.0000 </r>
       <r>   -5.5960    1.0000 </r>
       <r>   -5.2988    1.0000 </r>
       <r>   -5.2554    1.0000 </r>
       <r>   -5.1813    1.0000 </r>
       <r>   -5.0415    1.0000 </r>
       <r>   -4.9277    1.0000 </r>
       <r>   -4.8346    1.0000 </r>
       <r>   -4.7475    1.0000 </r>
       <r>   -4.5734    1.0000 </r>
       <r>   -4.4799    1.0000 </r>
       <r>   -4.3620    1.0000 </r>
       <r>   -4.2938    1.0000 </r>
       <r>   -4.1401    1.0000 </r>
       <r>   -4.0429    1.0000 </r>
       <r>   -3.7333    1.0000 </r>
       <r>   -2.2005    0.0440 </r>
       <r>    0.1310    0.0000 </r>
       <r>    3.3092    0.0000 </r>
       <r>    4.0554    0.0000 </r>
       <r>    4.5117    0.0000 </r>
      </set>
      <set comment="kpoint 11">
       <r>   -8.5043    1.0000 </r>
       <r>   -7.5950    1.0000 </r>
       <r>   -7.0187    1.0000 </r>
       <r>   -6.4845    1.0000 </r>
       <r>   -6.3576    1.0000 </r>
       <r>   -6.1345    1.0000 </r>
       <r>   -5.9191    1.0000 </r>
       <r>   -5.6173    1.0000 </r>
       <r>   -5.5281    1.0000 </r>
       <r>   -5.3289    1.0000 </r>
       <r>   -5.2301    1.0000 </r>
       <r>   -5.0853    1.0000 </r>
       <r>   -4.9092    1.0000 </r>
       <r>   -4.7304    1.0000 </r>
       <r>   -4.6350    1.0000 </r>
       <r>   -4.4927    1.0000 </r>
       <r>   -4.3670    1.0000 </r>
       <r>   -4.2252    1.0000 </r>
       <r>   -4.1600    1.0000 </r>
       <r>   -3.9867    1.0000 </r>
       <r>   -3.9332    1.0000 </r>
       <r>   -3.6195    1.0000 </r>
       <r>   -2.8687    1.0000 </r>
       <r>   -0.8391    0.0000 </r>
       <r>    1.8184    0.0000 </r>
       <r>    3.8224    0.0000 </r>
       <r>    4.4277    0.0000 </r>
       <r>    5.2790    0.0000 </r>
      </set>
      <set comment="kpoint 12">
       <r>   -7.9718    1.0000 </r>
       <r>   -7.0214    1.0000 </r>
       <r>   -6.8244    1.0000 </r>
       <r>   -6.4963    1.0000 </r>
       <r>   -6.4371    1.0000 </r>
       <r>   -6.2085    1.0000 </r>
       <r>   -5.9950    1.0000 </r>
       <r>   -5.5288    1.0000 </r>
       <r>   -5.3727    1.0000 </r>
       <r>   -5.2362    1.0000 </r>
       <r>   -5.1803    1.0000 </r>
       <r>   -5.0173    1.0000 </r>
       <r>   -4.7813    1.0000 </r>
       <r>   -4.5244    1.0000 </r>
       <r>   -4.3944    1.0000 </r>
       <r>   -4.2482    1.0000 </r>
       <r>   -4.1263    1.0000 </r>
       <r>   -4.0660    1.0000 </r>
       <r>   -4.0167    1.0000 </r>
       <r>   -3.8642    1.0000 </r>
       <r>   -3.3531    1.0000 </r>
       <r>   -2.3269    0.5321 </r>
       <r>   -1.3877    0.0000 </r>
       <r>    0.0278    0.0000 </r>
       <r>    1.2295    0.0000 </r>
       <r>    2.0174    0.0000 </r>
       <r>    3.1388    0.0000 </r>
       <r>    4.4858    0.0000 </r>
      </set>
      <set comment="kpoint 13">
       <r>   -7.9663    1.0000 </r>
       <r>   -7.0200    1.0000 </r>
       <r>   -6.8232    1.0000 </r>
       <r>   -6.4953    1.0000 </r>
       <r>   -6.4340    1.0000 </r>
       <r>   -6.2101    1.0000 </r>
       <r>   -5.9989    1.0000 </r>
       <r>   -5.5370    1.0000 </r>
       <r>   -5.3697    1.0000 </r>
       <r>   -5.2345    1.0000 </r>
       <r>   -5.1926    1.0000 </r>
       <r>   -5.0180    1.0000 </r>
       <r>   -4.7842    1.0000 </r>
       <r>   -4.5176    1.0000 </r>
       <r>   -4.3974    1.0000 </r>
       <r>   -4.2486    1.0000 </r>
       <r>   -4.1263    1.0000 </r>
       <r>   -4.0651    1.0000 </r>
       <r>   -4.0165    1.0000 </r>
       <r>   -3.8630    1.0000 </r>
       <r>   -3.3402    1.0000 </r>
       <r>   -2.3278    0.5376 </r>
       <r>   -1.3947    0.0000 </r>
       <r>    0.0237    0.0000 </r>
       <r>    1.2302    0.0000 </r>
       <r>    2.0169    0.0000 </r>
       <r>    3.1392    0.0000 </r>
       <r>    4.4839    0.0000 </r>
      </set>
      <set comment="kpoint 14">
       <r>   -8.5013    1.0000 </r>
       <r>   -7.5898    1.0000 </r>
       <r>   -7.0113    1.0000 </r>
       <r>   -6.4796    1.0000 </r>
       <r>   -6.3577    1.0000 </r>
       <r>   -6.1368    1.0000 </r>
       <r>   -5.9265    1.0000 </r>
       <r>   -5.6236    1.0000 </r>
       <r>   -5.5335    1.0000 </r>
       <r>   -5.3322    1.0000 </r>
       <r>   -5.2386    1.0000 </r>
       <r>   -5.0823    1.0000 </r>
       <r>   -4.9152    1.0000 </r>
       <r>   -4.7329    1.0000 </r>
       <r>   -4.6176    1.0000 </r>
       <r>   -4.4972    1.0000 </r>
       <r>   -4.3663    1.0000 </r>
       <r>   -4.2200    1.0000 </r>
       <r>   -4.1573    1.0000 </r>
       <r>   -3.9831    1.0000 </r>
       <r>   -3.9286    1.0000 </r>
       <r>   -3.6199    1.0000 </r>
       <r>   -2.8786    1.0000 </r>
       <r>   -0.8501    0.0000 </r>
       <r>    1.8117    0.0000 </r>
       <r>    3.8250    0.0000 </r>
       <r>    4.4268    0.0000 </r>
       <r>    5.2800    0.0000 </r>
      </set>
      <set comment="kpoint 15">
       <r>   -9.6624    1.0000 </r>
       <r>   -8.6965    1.0000 </r>
       <r>   -7.5029    1.0000 </r>
       <r>   -6.5071    1.0000 </r>
       <r>   -6.2062    1.0000 </r>
       <r>   -6.0347    1.0000 </r>
       <r>   -5.8581    1.0000 </r>
       <r>   -5.7426    1.0000 </r>
       <r>   -5.5968    1.0000 </r>
       <r>   -5.3007    1.0000 </r>
       <r>   -5.2574    1.0000 </r>
       <r>   -5.1903    1.0000 </r>
       <r>   -5.0398    1.0000 </r>
       <r>   -4.9156    1.0000 </r>
       <r>   -4.8343    1.0000 </r>
       <r>   -4.7482    1.0000 </r>
       <r>   -4.5695    1.0000 </r>
       <r>   -4.4842    1.0000 </r>
       <r>   -4.3675    1.0000 </r>
       <r>   -4.2932    1.0000 </r>
       <r>   -4.1393    1.0000 </r>
       <r>   -4.0420    1.0000 </r>
       <r>   -3.7416    1.0000 </r>
       <r>   -2.2103    0.0585 </r>
       <r>    0.1260    0.0000 </r>
       <r>    3.3089    0.0000 </r>
       <r>    4.0551    0.0000 </r>
       <r>    4.5108    0.0000 </r>
      </set>
      <set comment="kpoint 16">
       <r>  -10.7256    1.0000 </r>
       <r>   -9.7263    1.0000 </r>
       <r>   -8.2384    1.0000 </r>
       <r>   -6.9233    1.0000 </r>
       <r>   -6.1445    1.0000 </r>
       <r>   -5.8429    1.0000 </r>
       <r>   -5.7486    1.0000 </r>
       <r>   -5.5516    1.0000 </r>
       <r>   -5.4629    1.0000 </r>
       <r>   -5.3147    1.0000 </r>
       <r>   -5.2186    1.0000 </r>
       <r>   -5.1653    1.0000 </r>
       <r>   -5.1253    1.0000 </r>
       <r>   -5.0895    1.0000 </r>
       <r>   -4.9225    1.0000 </r>
       <r>   -4.8403    1.0000 </r>
       <r>   -4.7090    1.0000 </r>
       <r>   -4.6351    1.0000 </r>
       <r>   -4.5917    1.0000 </r>
       <r>   -4.4401    1.0000 </r>
       <r>   -4.3441    1.0000 </r>
       <r>   -4.0838    1.0000 </r>
       <r>   -4.0218    1.0000 </r>
       <r>   -3.1696    1.0000 </r>
       <r>   -1.3039    0.0000 </r>
       <r>    2.3404    0.0000 </r>
       <r>    2.8471    0.0000 </r>
       <r>    3.2726    0.0000 </r>
      </set>
      <set comment="kpoint 17">
       <r>  -10.4414    1.0000 </r>
       <r>   -9.4566    1.0000 </r>
       <r>   -8.0372    1.0000 </r>
       <r>   -6.7897    1.0000 </r>
       <r>   -6.2207    1.0000 </r>
       <r>   -5.9363    1.0000 </r>
       <r>   -5.7365    1.0000 </r>
       <r>   -5.6320    1.0000 </r>
       <r>   -5.4773    1.0000 </r>
       <r>   -5.2592    1.0000 </r>
       <r>   -5.2059    1.0000 </r>
       <r>   -5.1714    1.0000 </r>
       <r>   -5.0874    1.0000 </r>
       <r>   -5.0058    1.0000 </r>
       <r>   -4.8714    1.0000 </r>
       <r>   -4.8216    1.0000 </r>
       <r>   -4.7865    1.0000 </r>
       <r>   -4.6055    1.0000 </r>
       <r>   -4.5649    1.0000 </r>
       <r>   -4.4343    1.0000 </r>
       <r>   -4.2558    1.0000 </r>
       <r>   -4.0825    1.0000 </r>
       <r>   -3.9779    1.0000 </r>
       <r>   -2.9197    1.0000 </r>
       <r>   -0.9142    0.0000 </r>
       <r>    2.5796    0.0000 </r>
       <r>    3.1500    0.0000 </r>
       <r>    3.5767    0.0000 </r>
      </set>
      <set comment="kpoint 18">
       <r>  -10.7182    1.0000 </r>
       <r>   -9.7274    1.0000 </r>
       <r>   -8.2484    1.0000 </r>
       <r>   -6.9288    1.0000 </r>
       <r>   -6.1951    1.0000 </r>
       <r>   -5.8386    1.0000 </r>
       <r>   -5.7414    1.0000 </r>
       <r>   -5.5496    1.0000 </r>
       <r>   -5.4638    1.0000 </r>
       <r>   -5.3202    1.0000 </r>
       <r>   -5.2410    1.0000 </r>
       <r>   -5.1620    1.0000 </r>
       <r>   -5.1008    1.0000 </r>
       <r>   -5.0884    1.0000 </r>
       <r>   -4.9233    1.0000 </r>
       <r>   -4.8417    1.0000 </r>
       <r>   -4.7046    1.0000 </r>
       <r>   -4.6027    1.0000 </r>
       <r>   -4.5906    1.0000 </r>
       <r>   -4.4420    1.0000 </r>
       <r>   -4.3432    1.0000 </r>
       <r>   -4.0779    1.0000 </r>
       <r>   -4.0209    1.0000 </r>
       <r>   -3.1555    1.0000 </r>
       <r>   -1.2982    0.0000 </r>
       <r>    2.3398    0.0000 </r>
       <r>    2.8475    0.0000 </r>
       <r>    3.2728    0.0000 </r>
      </set>
      <set comment="kpoint 19">
       <r>  -10.4352    1.0000 </r>
       <r>   -9.4573    1.0000 </r>
       <r>   -8.0452    1.0000 </r>
       <r>   -6.7957    1.0000 </r>
       <r>   -6.2512    1.0000 </r>
       <r>   -5.9374    1.0000 </r>
       <r>   -5.7391    1.0000 </r>
       <r>   -5.6297    1.0000 </r>
       <r>   -5.4794    1.0000 </r>
       <r>   -5.2575    1.0000 </r>
       <r>   -5.2039    1.0000 </r>
       <r>   -5.1746    1.0000 </r>
       <r>   -5.0742    1.0000 </r>
       <r>   -5.0023    1.0000 </r>
       <r>   -4.8725    1.0000 </r>
       <r>   -4.8177    1.0000 </r>
       <r>   -4.7834    1.0000 </r>
       <r>   -4.6022    1.0000 </r>
       <r>   -4.5616    1.0000 </r>
       <r>   -4.4334    1.0000 </r>
       <r>   -4.2557    1.0000 </r>
       <r>   -4.0760    1.0000 </r>
       <r>   -3.9780    1.0000 </r>
       <r>   -2.9090    1.0000 </r>
       <r>   -0.9095    0.0000 </r>
       <r>    2.5797    0.0000 </r>
       <r>    3.1503    0.0000 </r>
       <r>    3.5750    0.0000 </r>
      </set>
      <set comment="kpoint 20">
       <r>   -9.6424    1.0000 </r>
       <r>   -8.7011    1.0000 </r>
       <r>   -7.5312    1.0000 </r>
       <r>   -6.5374    1.0000 </r>
       <r>   -6.2242    1.0000 </r>
       <r>   -6.0423    1.0000 </r>
       <r>   -5.8658    1.0000 </r>
       <r>   -5.7417    1.0000 </r>
       <r>   -5.5984    1.0000 </r>
       <r>   -5.3040    1.0000 </r>
       <r>   -5.2593    1.0000 </r>
       <r>   -5.1773    1.0000 </r>
       <r>   -5.0279    1.0000 </r>
       <r>   -4.9110    1.0000 </r>
       <r>   -4.8287    1.0000 </r>
       <r>   -4.7478    1.0000 </r>
       <r>   -4.5737    1.0000 </r>
       <r>   -4.4785    1.0000 </r>
       <r>   -4.3561    1.0000 </r>
       <r>   -4.2935    1.0000 </r>
       <r>   -4.1402    1.0000 </r>
       <r>   -4.0424    1.0000 </r>
       <r>   -3.7217    1.0000 </r>
       <r>   -2.1786    0.0219 </r>
       <r>    0.1431    0.0000 </r>
       <r>    3.3126    0.0000 </r>
       <r>    4.0556    0.0000 </r>
       <r>    4.5002    0.0000 </r>
      </set>
      <set comment="kpoint 21">
       <r>   -8.5781    1.0000 </r>
       <r>   -7.6800    1.0000 </r>
       <r>   -7.0026    1.0000 </r>
       <r>   -6.4653    1.0000 </r>
       <r>   -6.1361    1.0000 </r>
       <r>   -6.0442    1.0000 </r>
       <r>   -5.9000    1.0000 </r>
       <r>   -5.8361    1.0000 </r>
       <r>   -5.5710    1.0000 </r>
       <r>   -5.4121    1.0000 </r>
       <r>   -5.3636    1.0000 </r>
       <r>   -5.2939    1.0000 </r>
       <r>   -4.9750    1.0000 </r>
       <r>   -4.9013    1.0000 </r>
       <r>   -4.7572    1.0000 </r>
       <r>   -4.6173    1.0000 </r>
       <r>   -4.4087    1.0000 </r>
       <r>   -4.2626    1.0000 </r>
       <r>   -4.1877    1.0000 </r>
       <r>   -3.9788    1.0000 </r>
       <r>   -3.9177    1.0000 </r>
       <r>   -3.5707    1.0000 </r>
       <r>   -2.8576    1.0000 </r>
       <r>   -0.9315    0.0000 </r>
       <r>    1.6744    0.0000 </r>
       <r>    4.5154    0.0000 </r>
       <r>    5.3588    0.0000 </r>
       <r>    5.6553    0.0000 </r>
      </set>
      <set comment="kpoint 22">
       <r>   -7.8558    1.0000 </r>
       <r>   -6.8644    1.0000 </r>
       <r>   -6.6485    1.0000 </r>
       <r>   -6.3855    1.0000 </r>
       <r>   -6.2536    1.0000 </r>
       <r>   -6.0412    1.0000 </r>
       <r>   -5.9582    1.0000 </r>
       <r>   -5.7437    1.0000 </r>
       <r>   -5.5809    1.0000 </r>
       <r>   -5.5098    1.0000 </r>
       <r>   -5.3304    1.0000 </r>
       <r>   -5.0580    1.0000 </r>
       <r>   -4.9628    1.0000 </r>
       <r>   -4.8132    1.0000 </r>
       <r>   -4.6295    1.0000 </r>
       <r>   -4.5303    1.0000 </r>
       <r>   -4.3726    1.0000 </r>
       <r>   -4.1940    1.0000 </r>
       <r>   -4.0281    1.0000 </r>
       <r>   -3.8840    1.0000 </r>
       <r>   -3.1667    1.0000 </r>
       <r>   -2.3587    0.7023 </r>
       <r>   -1.2702    0.0000 </r>
       <r>    0.7114    0.0000 </r>
       <r>    2.8339    0.0000 </r>
       <r>    3.1029    0.0000 </r>
       <r>    4.0338    0.0000 </r>
       <r>    5.2223    0.0000 </r>
      </set>
      <set comment="kpoint 23">
       <r>   -7.6832    1.0000 </r>
       <r>   -6.6630    1.0000 </r>
       <r>   -6.5488    1.0000 </r>
       <r>   -6.3205    1.0000 </r>
       <r>   -6.1985    1.0000 </r>
       <r>   -6.1088    1.0000 </r>
       <r>   -5.9670    1.0000 </r>
       <r>   -5.8205    1.0000 </r>
       <r>   -5.5289    1.0000 </r>
       <r>   -5.4489    1.0000 </r>
       <r>   -5.2461    1.0000 </r>
       <r>   -5.0978    1.0000 </r>
       <r>   -4.8972    1.0000 </r>
       <r>   -4.6931    1.0000 </r>
       <r>   -4.5625    1.0000 </r>
       <r>   -4.4487    1.0000 </r>
       <r>   -4.2779    1.0000 </r>
       <r>   -4.1034    1.0000 </r>
       <r>   -4.0591    1.0000 </r>
       <r>   -3.9542    1.0000 </r>
       <r>   -2.3197    0.4919 </r>
       <r>   -0.7496    0.0000 </r>
       <r>   -0.2140    0.0000 </r>
       <r>    0.5411    0.0000 </r>
       <r>    1.7114    0.0000 </r>
       <r>    2.1858    0.0000 </r>
       <r>    3.5052    0.0000 </r>
       <r>    4.6781    0.0000 </r>
      </set>
      <set comment="kpoint 24">
       <r>   -7.8418    1.0000 </r>
       <r>   -6.8563    1.0000 </r>
       <r>   -6.6468    1.0000 </r>
       <r>   -6.3840    1.0000 </r>
       <r>   -6.2544    1.0000 </r>
       <r>   -6.0477    1.0000 </r>
       <r>   -5.9627    1.0000 </r>
       <r>   -5.7513    1.0000 </r>
       <r>   -5.5842    1.0000 </r>
       <r>   -5.5143    1.0000 </r>
       <r>   -5.3347    1.0000 </r>
       <r>   -5.0574    1.0000 </r>
       <r>   -4.9645    1.0000 </r>
       <r>   -4.8143    1.0000 </r>
       <r>   -4.6278    1.0000 </r>
       <r>   -4.5345    1.0000 </r>
       <r>   -4.3711    1.0000 </r>
       <r>   -4.1957    1.0000 </r>
       <r>   -4.0251    1.0000 </r>
       <r>   -3.8829    1.0000 </r>
       <r>   -3.1411    1.0000 </r>
       <r>   -2.3627    0.7217 </r>
       <r>   -1.2877    0.0000 </r>
       <r>    0.6899    0.0000 </r>
       <r>    2.8371    0.0000 </r>
       <r>    3.0986    0.0000 </r>
       <r>    4.0263    0.0000 </r>
       <r>    5.2000    0.0000 </r>
      </set>
      <set comment="kpoint 25">
       <r>   -8.5846    1.0000 </r>
       <r>   -7.6676    1.0000 </r>
       <r>   -6.9790    1.0000 </r>
       <r>   -6.4623    1.0000 </r>
       <r>   -6.1372    1.0000 </r>
       <r>   -6.0458    1.0000 </r>
       <r>   -5.9022    1.0000 </r>
       <r>   -5.8383    1.0000 </r>
       <r>   -5.5708    1.0000 </r>
       <r>   -5.4117    1.0000 </r>
       <r>   -5.3803    1.0000 </r>
       <r>   -5.2947    1.0000 </r>
       <r>   -4.9738    1.0000 </r>
       <r>   -4.8954    1.0000 </r>
       <r>   -4.7751    1.0000 </r>
       <r>   -4.6099    1.0000 </r>
       <r>   -4.4076    1.0000 </r>
       <r>   -4.2641    1.0000 </r>
       <r>   -4.1769    1.0000 </r>
       <r>   -3.9767    1.0000 </r>
       <r>   -3.9101    1.0000 </r>
       <r>   -3.5730    1.0000 </r>
       <r>   -2.8741    1.0000 </r>
       <r>   -0.9555    0.0000 </r>
       <r>    1.6567    0.0000 </r>
       <r>    4.5030    0.0000 </r>
       <r>    5.3566    0.0000 </r>
       <r>    5.6425    0.0000 </r>
      </set>
      <set comment="kpoint 26">
       <r>   -9.6536    1.0000 </r>
       <r>   -8.6970    1.0000 </r>
       <r>   -7.5107    1.0000 </r>
       <r>   -6.5179    1.0000 </r>
       <r>   -6.2128    1.0000 </r>
       <r>   -6.0430    1.0000 </r>
       <r>   -5.8656    1.0000 </r>
       <r>   -5.7435    1.0000 </r>
       <r>   -5.5970    1.0000 </r>
       <r>   -5.3034    1.0000 </r>
       <r>   -5.2593    1.0000 </r>
       <r>   -5.1870    1.0000 </r>
       <r>   -5.0338    1.0000 </r>
       <r>   -4.9081    1.0000 </r>
       <r>   -4.8316    1.0000 </r>
       <r>   -4.7480    1.0000 </r>
       <r>   -4.5696    1.0000 </r>
       <r>   -4.4833    1.0000 </r>
       <r>   -4.3639    1.0000 </r>
       <r>   -4.2929    1.0000 </r>
       <r>   -4.1393    1.0000 </r>
       <r>   -4.0418    1.0000 </r>
       <r>   -3.7351    1.0000 </r>
       <r>   -2.1984    0.0413 </r>
       <r>    0.1326    0.0000 </r>
       <r>    3.3107    0.0000 </r>
       <r>    4.0552    0.0000 </r>
       <r>    4.5091    0.0000 </r>
      </set>
      <set comment="kpoint 27">
       <r>   -9.1997    1.0000 </r>
       <r>   -8.2936    1.0000 </r>
       <r>   -7.3470    1.0000 </r>
       <r>   -6.5455    1.0000 </r>
       <r>   -6.3388    1.0000 </r>
       <r>   -6.1520    1.0000 </r>
       <r>   -5.8584    1.0000 </r>
       <r>   -5.6411    1.0000 </r>
       <r>   -5.5158    1.0000 </r>
       <r>   -5.2783    1.0000 </r>
       <r>   -5.1768    1.0000 </r>
       <r>   -5.0533    1.0000 </r>
       <r>   -4.8867    1.0000 </r>
       <r>   -4.8254    1.0000 </r>
       <r>   -4.7343    1.0000 </r>
       <r>   -4.6063    1.0000 </r>
       <r>   -4.5061    1.0000 </r>
       <r>   -4.3686    1.0000 </r>
       <r>   -4.3330    1.0000 </r>
       <r>   -4.2444    1.0000 </r>
       <r>   -4.1273    1.0000 </r>
       <r>   -3.9648    1.0000 </r>
       <r>   -3.6124    1.0000 </r>
       <r>   -1.7725    0.0000 </r>
       <r>    0.7395    0.0000 </r>
       <r>    3.7397    0.0000 </r>
       <r>    4.6314    0.0000 </r>
       <r>    5.0446    0.0000 </r>
      </set>
      <set comment="kpoint 28">
       <r>   -9.6451    1.0000 </r>
       <r>   -8.7031    1.0000 </r>
       <r>   -7.5330    1.0000 </r>
       <r>   -6.5308    1.0000 </r>
       <r>   -6.2282    1.0000 </r>
       <r>   -6.0361    1.0000 </r>
       <r>   -5.8529    1.0000 </r>
       <r>   -5.7409    1.0000 </r>
       <r>   -5.5961    1.0000 </r>
       <r>   -5.3002    1.0000 </r>
       <r>   -5.2567    1.0000 </r>
       <r>   -5.1725    1.0000 </r>
       <r>   -5.0385    1.0000 </r>
       <r>   -4.9310    1.0000 </r>
       <r>   -4.8348    1.0000 </r>
       <r>   -4.7462    1.0000 </r>
       <r>   -4.5766    1.0000 </r>
       <r>   -4.4743    1.0000 </r>
       <r>   -4.3534    1.0000 </r>
       <r>   -4.2935    1.0000 </r>
       <r>   -4.1404    1.0000 </r>
       <r>   -4.0427    1.0000 </r>
       <r>   -3.7184    1.0000 </r>
       <r>   -2.1762    0.0202 </r>
       <r>    0.1436    0.0000 </r>
       <r>    3.3113    0.0000 </r>
       <r>    4.0558    0.0000 </r>
       <r>    4.5077    0.0000 </r>
      </set>
      <set comment="kpoint 29">
       <r>   -9.6378    1.0000 </r>
       <r>   -8.7042    1.0000 </r>
       <r>   -7.5419    1.0000 </r>
       <r>   -6.5426    1.0000 </r>
       <r>   -6.2303    1.0000 </r>
       <r>   -6.0393    1.0000 </r>
       <r>   -5.8603    1.0000 </r>
       <r>   -5.7407    1.0000 </r>
       <r>   -5.5982    1.0000 </r>
       <r>   -5.3029    1.0000 </r>
       <r>   -5.2585    1.0000 </r>
       <r>   -5.1717    1.0000 </r>
       <r>   -5.0308    1.0000 </r>
       <r>   -4.9218    1.0000 </r>
       <r>   -4.8319    1.0000 </r>
       <r>   -4.7466    1.0000 </r>
       <r>   -4.5768    1.0000 </r>
       <r>   -4.4737    1.0000 </r>
       <r>   -4.3511    1.0000 </r>
       <r>   -4.2936    1.0000 </r>
       <r>   -4.1405    1.0000 </r>
       <r>   -4.0425    1.0000 </r>
       <r>   -3.7133    1.0000 </r>
       <r>   -2.1663    0.0143 </r>
       <r>    0.1491    0.0000 </r>
       <r>    3.3129    0.0000 </r>
       <r>    4.0559    0.0000 </r>
       <r>    4.5106    0.0000 </r>
      </set>
      <set comment="kpoint 30">
       <r>   -9.1786    1.0000 </r>
       <r>   -8.2995    1.0000 </r>
       <r>   -7.3724    1.0000 </r>
       <r>   -6.5721    1.0000 </r>
       <r>   -6.3390    1.0000 </r>
       <r>   -6.1628    1.0000 </r>
       <r>   -5.8665    1.0000 </r>
       <r>   -5.6429    1.0000 </r>
       <r>   -5.5188    1.0000 </r>
       <r>   -5.2795    1.0000 </r>
       <r>   -5.1697    1.0000 </r>
       <r>   -5.0519    1.0000 </r>
       <r>   -4.8755    1.0000 </r>
       <r>   -4.8249    1.0000 </r>
       <r>   -4.7345    1.0000 </r>
       <r>   -4.5993    1.0000 </r>
       <r>   -4.5070    1.0000 </r>
       <r>   -4.3663    1.0000 </r>
       <r>   -4.3323    1.0000 </r>
       <r>   -4.2447    1.0000 </r>
       <r>   -4.1278    1.0000 </r>
       <r>   -3.9650    1.0000 </r>
       <r>   -3.5946    1.0000 </r>
       <r>   -1.7443    0.0000 </r>
       <r>    0.7588    0.0000 </r>
       <r>    3.7521    0.0000 </r>
       <r>    4.6294    0.0000 </r>
       <r>    5.0627    0.0000 </r>
      </set>
      <set comment="kpoint 31">
       <r>   -8.4414    1.0000 </r>
       <r>   -7.6144    1.0000 </r>
       <r>   -7.0584    1.0000 </r>
       <r>   -6.5246    1.0000 </r>
       <r>   -6.3570    1.0000 </r>
       <r>   -6.1644    1.0000 </r>
       <r>   -5.9455    1.0000 </r>
       <r>   -5.6303    1.0000 </r>
       <r>   -5.5372    1.0000 </r>
       <r>   -5.3218    1.0000 </r>
       <r>   -5.2379    1.0000 </r>
       <r>   -5.0805    1.0000 </r>
       <r>   -4.9028    1.0000 </r>
       <r>   -4.7309    1.0000 </r>
       <r>   -4.6051    1.0000 </r>
       <r>   -4.4925    1.0000 </r>
       <r>   -4.3658    1.0000 </r>
       <r>   -4.2320    1.0000 </r>
       <r>   -4.1566    1.0000 </r>
       <r>   -3.9835    1.0000 </r>
       <r>   -3.9320    1.0000 </r>
       <r>   -3.6168    1.0000 </r>
       <r>   -2.8380    1.0000 </r>
       <r>   -0.7746    0.0000 </r>
       <r>    1.9058    0.0000 </r>
       <r>    3.9655    0.0000 </r>
       <r>    4.3917    0.0000 </r>
       <r>    5.2152    0.0000 </r>
      </set>
      <set comment="kpoint 32">
       <r>   -7.8263    1.0000 </r>
       <r>   -6.8786    1.0000 </r>
       <r>   -6.6544    1.0000 </r>
       <r>   -6.3955    1.0000 </r>
       <r>   -6.2519    1.0000 </r>
       <r>   -6.0747    1.0000 </r>
       <r>   -5.9586    1.0000 </r>
       <r>   -5.7547    1.0000 </r>
       <r>   -5.5772    1.0000 </r>
       <r>   -5.5099    1.0000 </r>
       <r>   -5.3412    1.0000 </r>
       <r>   -5.0570    1.0000 </r>
       <r>   -4.9587    1.0000 </r>
       <r>   -4.8084    1.0000 </r>
       <r>   -4.6234    1.0000 </r>
       <r>   -4.5283    1.0000 </r>
       <r>   -4.3705    1.0000 </r>
       <r>   -4.1930    1.0000 </r>
       <r>   -4.0308    1.0000 </r>
       <r>   -3.8839    1.0000 </r>
       <r>   -3.1824    1.0000 </r>
       <r>   -2.3550    0.6841 </r>
       <r>   -1.2502    0.0000 </r>
       <r>    0.7684    0.0000 </r>
       <r>    2.9739    0.0000 </r>
       <r>    3.2501    0.0000 </r>
       <r>    3.8891    0.0000 </r>
       <r>    5.0474    0.0000 </r>
      </set>
      <set comment="kpoint 33">
       <r>   -7.5481    1.0000 </r>
       <r>   -6.4479    1.0000 </r>
       <r>   -6.3588    1.0000 </r>
       <r>   -6.2270    1.0000 </r>
       <r>   -6.1270    1.0000 </r>
       <r>   -6.0472    1.0000 </r>
       <r>   -5.9519    1.0000 </r>
       <r>   -5.8869    1.0000 </r>
       <r>   -5.6902    1.0000 </r>
       <r>   -5.5385    1.0000 </r>
       <r>   -5.4174    1.0000 </r>
       <r>   -5.0379    1.0000 </r>
       <r>   -4.9870    1.0000 </r>
       <r>   -4.8032    1.0000 </r>
       <r>   -4.6522    1.0000 </r>
       <r>   -4.4949    1.0000 </r>
       <r>   -4.4441    1.0000 </r>
       <r>   -4.1476    1.0000 </r>
       <r>   -4.0701    1.0000 </r>
       <r>   -3.9784    1.0000 </r>
       <r>   -1.9628    0.0000 </r>
       <r>   -0.3997    0.0000 </r>
       <r>    0.6950    0.0000 </r>
       <r>    1.9873    0.0000 </r>
       <r>    2.3853    0.0000 </r>
       <r>    2.9302    0.0000 </r>
       <r>    3.1937    0.0000 </r>
       <r>    3.9049    0.0000 </r>
      </set>
      <set comment="kpoint 34">
       <r>   -7.5362    1.0000 </r>
       <r>   -6.4406    1.0000 </r>
       <r>   -6.3676    1.0000 </r>
       <r>   -6.2275    1.0000 </r>
       <r>   -6.1321    1.0000 </r>
       <r>   -6.0468    1.0000 </r>
       <r>   -5.9521    1.0000 </r>
       <r>   -5.8882    1.0000 </r>
       <r>   -5.6912    1.0000 </r>
       <r>   -5.5376    1.0000 </r>
       <r>   -5.4185    1.0000 </r>
       <r>   -5.0382    1.0000 </r>
       <r>   -4.9869    1.0000 </r>
       <r>   -4.8029    1.0000 </r>
       <r>   -4.6566    1.0000 </r>
       <r>   -4.4961    1.0000 </r>
       <r>   -4.4444    1.0000 </r>
       <r>   -4.1464    1.0000 </r>
       <r>   -4.0699    1.0000 </r>
       <r>   -3.9777    1.0000 </r>
       <r>   -1.9394    0.0000 </r>
       <r>   -0.4091    0.0000 </r>
       <r>    0.6666    0.0000 </r>
       <r>    1.9527    0.0000 </r>
       <r>    2.3888    0.0000 </r>
       <r>    2.9847    0.0000 </r>
       <r>    3.1912    0.0000 </r>
       <r>    3.7943    0.0000 </r>
      </set>
      <set comment="kpoint 35">
       <r>   -7.8220    1.0000 </r>
       <r>   -6.8639    1.0000 </r>
       <r>   -6.6501    1.0000 </r>
       <r>   -6.3901    1.0000 </r>
       <r>   -6.2553    1.0000 </r>
       <r>   -6.0697    1.0000 </r>
       <r>   -5.9618    1.0000 </r>
       <r>   -5.7572    1.0000 </r>
       <r>   -5.5820    1.0000 </r>
       <r>   -5.5145    1.0000 </r>
       <r>   -5.3391    1.0000 </r>
       <r>   -5.0571    1.0000 </r>
       <r>   -4.9623    1.0000 </r>
       <r>   -4.8119    1.0000 </r>
       <r>   -4.6259    1.0000 </r>
       <r>   -4.5323    1.0000 </r>
       <r>   -4.3701    1.0000 </r>
       <r>   -4.1949    1.0000 </r>
       <r>   -4.0263    1.0000 </r>
       <r>   -3.8829    1.0000 </r>
       <r>   -3.1504    1.0000 </r>
       <r>   -2.3604    0.7107 </r>
       <r>   -1.2763    0.0000 </r>
       <r>    0.7217    0.0000 </r>
       <r>    3.0001    0.0000 </r>
       <r>    3.0696    0.0000 </r>
       <r>    3.9573    0.0000 </r>
       <r>    5.1118    0.0000 </r>
      </set>
      <set comment="kpoint 36">
       <r>   -8.4656    1.0000 </r>
       <r>   -7.5981    1.0000 </r>
       <r>   -7.0302    1.0000 </r>
       <r>   -6.5010    1.0000 </r>
       <r>   -6.3602    1.0000 </r>
       <r>   -6.1576    1.0000 </r>
       <r>   -5.9416    1.0000 </r>
       <r>   -5.6306    1.0000 </r>
       <r>   -5.5385    1.0000 </r>
       <r>   -5.3277    1.0000 </r>
       <r>   -5.2416    1.0000 </r>
       <r>   -5.0803    1.0000 </r>
       <r>   -4.9114    1.0000 </r>
       <r>   -4.7328    1.0000 </r>
       <r>   -4.6047    1.0000 </r>
       <r>   -4.4965    1.0000 </r>
       <r>   -4.3652    1.0000 </r>
       <r>   -4.2232    1.0000 </r>
       <r>   -4.1554    1.0000 </r>
       <r>   -3.9814    1.0000 </r>
       <r>   -3.9280    1.0000 </r>
       <r>   -3.6181    1.0000 </r>
       <r>   -2.8612    1.0000 </r>
       <r>   -0.8147    0.0000 </r>
       <r>    1.8600    0.0000 </r>
       <r>    3.8977    0.0000 </r>
       <r>    4.4026    0.0000 </r>
       <r>    5.2493    0.0000 </r>
      </set>
      <set comment="kpoint 37">
       <r>   -8.2173    1.0000 </r>
       <r>   -7.3715    1.0000 </r>
       <r>   -7.0135    1.0000 </r>
       <r>   -6.5613    1.0000 </r>
       <r>   -6.5097    1.0000 </r>
       <r>   -6.2851    1.0000 </r>
       <r>   -5.9897    1.0000 </r>
       <r>   -5.4328    1.0000 </r>
       <r>   -5.3144    1.0000 </r>
       <r>   -5.2596    1.0000 </r>
       <r>   -5.1921    1.0000 </r>
       <r>   -4.9230    1.0000 </r>
       <r>   -4.8348    1.0000 </r>
       <r>   -4.4832    1.0000 </r>
       <r>   -4.3493    1.0000 </r>
       <r>   -4.3105    1.0000 </r>
       <r>   -4.1031    1.0000 </r>
       <r>   -4.0984    1.0000 </r>
       <r>   -4.0475    1.0000 </r>
       <r>   -3.9659    1.0000 </r>
       <r>   -3.8107    1.0000 </r>
       <r>   -3.5211    1.0000 </r>
       <r>   -2.5444    0.9992 </r>
       <r>   -0.3927    0.0000 </r>
       <r>    2.0273    0.0000 </r>
       <r>    2.4584    0.0000 </r>
       <r>    3.2933    0.0000 </r>
       <r>    4.5873    0.0000 </r>
      </set>
      <set comment="kpoint 38">
       <r>   -8.4728    1.0000 </r>
       <r>   -7.6088    1.0000 </r>
       <r>   -7.0430    1.0000 </r>
       <r>   -6.5072    1.0000 </r>
       <r>   -6.3597    1.0000 </r>
       <r>   -6.1502    1.0000 </r>
       <r>   -5.9284    1.0000 </r>
       <r>   -5.6192    1.0000 </r>
       <r>   -5.5289    1.0000 </r>
       <r>   -5.3224    1.0000 </r>
       <r>   -5.2268    1.0000 </r>
       <r>   -5.0842    1.0000 </r>
       <r>   -4.9026    1.0000 </r>
       <r>   -4.7291    1.0000 </r>
       <r>   -4.6356    1.0000 </r>
       <r>   -4.4897    1.0000 </r>
       <r>   -4.3669    1.0000 </r>
       <r>   -4.2345    1.0000 </r>
       <r>   -4.1600    1.0000 </r>
       <r>   -3.9875    1.0000 </r>
       <r>   -3.9354    1.0000 </r>
       <r>   -3.6173    1.0000 </r>
       <r>   -2.8426    1.0000 </r>
       <r>   -0.7918    0.0000 </r>
       <r>    1.8750    0.0000 </r>
       <r>    3.8882    0.0000 </r>
       <r>    4.4026    0.0000 </r>
       <r>    5.2462    0.0000 </r>
      </set>
      <set comment="kpoint 39">
       <r>   -8.5700    1.0000 </r>
       <r>   -7.6919    1.0000 </r>
       <r>   -7.0214    1.0000 </r>
       <r>   -6.4668    1.0000 </r>
       <r>   -6.1386    1.0000 </r>
       <r>   -6.0437    1.0000 </r>
       <r>   -5.9002    1.0000 </r>
       <r>   -5.8339    1.0000 </r>
       <r>   -5.5709    1.0000 </r>
       <r>   -5.4121    1.0000 </r>
       <r>   -5.3496    1.0000 </r>
       <r>   -5.2926    1.0000 </r>
       <r>   -4.9765    1.0000 </r>
       <r>   -4.9051    1.0000 </r>
       <r>   -4.7445    1.0000 </r>
       <r>   -4.6257    1.0000 </r>
       <r>   -4.4080    1.0000 </r>
       <r>   -4.2637    1.0000 </r>
       <r>   -4.1972    1.0000 </r>
       <r>   -3.9795    1.0000 </r>
       <r>   -3.9233    1.0000 </r>
       <r>   -3.5681    1.0000 </r>
       <r>   -2.8409    1.0000 </r>
       <r>   -0.9040    0.0000 </r>
       <r>    1.6957    0.0000 </r>
       <r>    4.5300    0.0000 </r>
       <r>    5.3489    0.0000 </r>
       <r>    5.6664    0.0000 </r>
      </set>
      <set comment="kpoint 40">
       <r>   -8.4457    1.0000 </r>
       <r>   -7.6197    1.0000 </r>
       <r>   -7.0634    1.0000 </r>
       <r>   -6.5259    1.0000 </r>
       <r>   -6.3570    1.0000 </r>
       <r>   -6.1603    1.0000 </r>
       <r>   -5.9395    1.0000 </r>
       <r>   -5.6250    1.0000 </r>
       <r>   -5.5326    1.0000 </r>
       <r>   -5.3196    1.0000 </r>
       <r>   -5.2314    1.0000 </r>
       <r>   -5.0815    1.0000 </r>
       <r>   -4.8999    1.0000 </r>
       <r>   -4.7297    1.0000 </r>
       <r>   -4.6190    1.0000 </r>
       <r>   -4.4901    1.0000 </r>
       <r>   -4.3667    1.0000 </r>
       <r>   -4.2381    1.0000 </r>
       <r>   -4.1587    1.0000 </r>
       <r>   -3.9860    1.0000 </r>
       <r>   -3.9348    1.0000 </r>
       <r>   -3.6163    1.0000 </r>
       <r>   -2.8292    1.0000 </r>
       <r>   -0.7627    0.0000 </r>
       <r>    1.9141    0.0000 </r>
       <r>    3.9585    0.0000 </r>
       <r>    4.3907    0.0000 </r>
       <r>    5.2132    0.0000 </r>
      </set>
      <set comment="kpoint 41">
       <r>   -8.1824    1.0000 </r>
       <r>   -7.3864    1.0000 </r>
       <r>   -7.0281    1.0000 </r>
       <r>   -6.5888    1.0000 </r>
       <r>   -6.5072    1.0000 </r>
       <r>   -6.3033    1.0000 </r>
       <r>   -6.0063    1.0000 </r>
       <r>   -5.4354    1.0000 </r>
       <r>   -5.3071    1.0000 </r>
       <r>   -5.2553    1.0000 </r>
       <r>   -5.2137    1.0000 </r>
       <r>   -4.9140    1.0000 </r>
       <r>   -4.8283    1.0000 </r>
       <r>   -4.4768    1.0000 </r>
       <r>   -4.3516    1.0000 </r>
       <r>   -4.3133    1.0000 </r>
       <r>   -4.1039    1.0000 </r>
       <r>   -4.1008    1.0000 </r>
       <r>   -4.0482    1.0000 </r>
       <r>   -3.9665    1.0000 </r>
       <r>   -3.8113    1.0000 </r>
       <r>   -3.5231    1.0000 </r>
       <r>   -2.5215    0.9977 </r>
       <r>   -0.3426    0.0000 </r>
       <r>    2.2174    0.0000 </r>
       <r>    2.4558    0.0000 </r>
       <r>    3.2445    0.0000 </r>
       <r>    4.5215    0.0000 </r>
      </set>
      <set comment="kpoint 42">
       <r>   -7.9091    1.0000 </r>
       <r>   -7.0394    1.0000 </r>
       <r>   -6.8227    1.0000 </r>
       <r>   -6.5043    1.0000 </r>
       <r>   -6.4660    1.0000 </r>
       <r>   -6.2570    1.0000 </r>
       <r>   -6.0329    1.0000 </r>
       <r>   -5.5214    1.0000 </r>
       <r>   -5.3693    1.0000 </r>
       <r>   -5.2562    1.0000 </r>
       <r>   -5.2078    1.0000 </r>
       <r>   -5.0061    1.0000 </r>
       <r>   -4.7833    1.0000 </r>
       <r>   -4.5106    1.0000 </r>
       <r>   -4.3893    1.0000 </r>
       <r>   -4.2436    1.0000 </r>
       <r>   -4.1272    1.0000 </r>
       <r>   -4.0708    1.0000 </r>
       <r>   -4.0207    1.0000 </r>
       <r>   -3.8637    1.0000 </r>
       <r>   -3.3998    1.0000 </r>
       <r>   -2.3222    0.5056 </r>
       <r>   -1.3527    0.0000 </r>
       <r>    0.0827    0.0000 </r>
       <r>    1.7962    0.0000 </r>
       <r>    1.9387    0.0000 </r>
       <r>    3.0292    0.0000 </r>
       <r>    4.3204    0.0000 </r>
      </set>
      <set comment="kpoint 43">
       <r>   -7.6727    1.0000 </r>
       <r>   -6.6698    1.0000 </r>
       <r>   -6.5502    1.0000 </r>
       <r>   -6.3212    1.0000 </r>
       <r>   -6.2012    1.0000 </r>
       <r>   -6.1479    1.0000 </r>
       <r>   -5.9626    1.0000 </r>
       <r>   -5.8066    1.0000 </r>
       <r>   -5.5482    1.0000 </r>
       <r>   -5.4492    1.0000 </r>
       <r>   -5.2585    1.0000 </r>
       <r>   -5.0953    1.0000 </r>
       <r>   -4.8856    1.0000 </r>
       <r>   -4.6929    1.0000 </r>
       <r>   -4.5581    1.0000 </r>
       <r>   -4.4377    1.0000 </r>
       <r>   -4.2774    1.0000 </r>
       <r>   -4.1085    1.0000 </r>
       <r>   -4.0593    1.0000 </r>
       <r>   -3.9546    1.0000 </r>
       <r>   -2.4120    0.9005 </r>
       <r>   -0.7227    0.0000 </r>
       <r>   -0.1705    0.0000 </r>
       <r>    0.5922    0.0000 </r>
       <r>    2.0375    0.0000 </r>
       <r>    2.2580    0.0000 </r>
       <r>    3.3899    0.0000 </r>
       <r>    4.5034    0.0000 </r>
      </set>
      <set comment="kpoint 44">
       <r>   -7.5565    1.0000 </r>
       <r>   -6.4518    1.0000 </r>
       <r>   -6.3523    1.0000 </r>
       <r>   -6.2269    1.0000 </r>
       <r>   -6.1238    1.0000 </r>
       <r>   -6.0479    1.0000 </r>
       <r>   -5.9516    1.0000 </r>
       <r>   -5.8887    1.0000 </r>
       <r>   -5.6922    1.0000 </r>
       <r>   -5.5359    1.0000 </r>
       <r>   -5.4165    1.0000 </r>
       <r>   -5.0377    1.0000 </r>
       <r>   -4.9871    1.0000 </r>
       <r>   -4.8031    1.0000 </r>
       <r>   -4.6496    1.0000 </r>
       <r>   -4.4932    1.0000 </r>
       <r>   -4.4440    1.0000 </r>
       <r>   -4.1488    1.0000 </r>
       <r>   -4.0702    1.0000 </r>
       <r>   -3.9785    1.0000 </r>
       <r>   -1.9831    0.0000 </r>
       <r>   -0.3926    0.0000 </r>
       <r>    0.7187    0.0000 </r>
       <r>    2.0251    0.0000 </r>
       <r>    2.3820    0.0000 </r>
       <r>    2.9119    0.0000 </r>
       <r>    3.1951    0.0000 </r>
       <r>    4.0215    0.0000 </r>
      </set>
      <set comment="kpoint 45">
       <r>   -7.6708    1.0000 </r>
       <r>   -6.6671    1.0000 </r>
[...]
        <r>  0.0003  0.0004  0.0009  0.0002  0.0370  0.0320  0.0971  0.0045  0.0362 </r>
        <r>  0.0002  0.0013  0.0006  0.0017  0.0486  0.0028  0.0262  0.0001  0.0476 </r>
        <r>  0.0009  0.0000  0.0000  0.0001  0.0000  0.0000  0.0000  0.0000  0.0000 </r>
       </set>
       <set comment="band 19">
        <r>  0.0010  0.0007  0.0009  0.0034  0.0159  0.0030  0.2199  0.0127  0.1412 </r>
        <r>  0.0002  0.0001  0.0001  0.0005  0.0428  0.0105  0.0546  0.0463  0.1437 </r>
        <r>  0.0002  0.0001  0.0003  0.0004  0.0720  0.0183  0.0296  0.0009  0.1065 </r>
        <r>  0.0001  0.0005  0.0000  0.0010  0.0189  0.0029  0.0018  0.0019  0.0263 </r>
        <r>  0.0007  0.0000  0.0000  0.0000  0.0000  0.0000  0.0000  0.0000  0.0000 </r>
       </set>
       <set comment="band 20">
        <r>  0.0016  0.0008  0.0002  0.0028  0.1532  0.0035  0.0468  0.0180  0.2933 </r>
        <r>  0.0000  0.0000  0.0004  0.0001  0.1161  0.0121  0.1432  0.0067  0.0540 </r>
        <r>  0.0000  0.0001  0.0001  0.0003  0.0284  0.0041  0.0128  0.0228  0.0483 </r>
        <r>  0.0001  0.0001  0.0002  0.0000  0.0050  0.0020  0.0052  0.0020  0.0013 </r>
        <r>  0.0001  0.0000  0.0000  0.0000  0.0000  0.0000  0.0000  0.0000  0.0000 </r>
       </set>
       <set comment="band 21">
        <r>  0.0002  0.0004  0.0004  0.0008  0.0124  0.0030  0.0139  0.0038  0.0106 </r>
        <r>  0.0005  0.0012  0.0006  0.0028  0.0066  0.0027  0.0123  0.0180  0.0185 </r>
        <r>  0.0044  0.0033  0.0047  0.0078  0.0797  0.0139  0.1051  0.0228  0.0268 </r>
        <r>  0.0130  0.0269  0.0010  0.0527  0.1332  0.0391  0.0035  0.0583  0.1120 </r>
        <r>  0.0538  0.0003  0.0000  0.0001  0.0000  0.0000  0.0000  0.0000  0.0000 </r>
       </set>
       <set comment="band 22">
        <r>  0.0202  0.0148  0.0051  0.0297  0.0644  0.0070  0.0384  0.0078  0.0118 </r>
        <r>  0.0422  0.0352  0.0011  0.0672  0.1104  0.0002  0.0313  0.0001  0.0160 </r>
        <r>  0.0232  0.0150  0.0057  0.0287  0.0553  0.0078  0.0372  0.0073  0.0093 </r>
        <r>  0.0047  0.0021  0.0033  0.0037  0.0141  0.0078  0.0148  0.0126  0.0068 </r>
        <r>  0.0079  0.0000  0.0000  0.0000  0.0000  0.0000  0.0000  0.0000  0.0000 </r>
       </set>
       <set comment="band 23">
        <r>  0.0350  0.0432  0.0004  0.0857  0.0500  0.0015  0.0018  0.0017  0.0148 </r>
        <r>  0.0124  0.0011  0.0332  0.0016  0.0118  0.0251  0.0159  0.0135  0.0022 </r>
        <r>  0.0167  0.0406  0.0031  0.0858  0.0218  0.0005  0.0022  0.0022  0.0179 </r>
        <r>  0.0148  0.0006  0.0132  0.0029  0.0176  0.0194  0.0199  0.0174  0.0100 </r>
        <r>  0.0165  0.0000  0.0000  0.0001  0.0000  0.0000  0.0000  0.0000  0.0000 </r>
       </set>
       <set comment="band 24">
        <r>  0.0139  0.0306  0.0181  0.0824  0.0086  0.0028  0.0185  0.0021  0.0188 </r>
        <r>  0.0045  0.0368  0.0137  0.1148  0.0016  0.0013  0.0342  0.0034  0.0323 </r>
        <r>  0.0101  0.0108  0.0199  0.0382  0.0045  0.0075  0.0166  0.0061  0.0136 </r>
        <r>  0.0235  0.0003  0.0059  0.0016  0.0128  0.0071  0.0058  0.0068  0.0054 </r>
        <r>  0.0096  0.0001  0.0001  0.0003  0.0000  0.0000  0.0000  0.0000  0.0000 </r>
       </set>
       <set comment="band 25">
        <r>  0.0073  0.0007  0.0024  0.0050  0.0025  0.0002  0.0021  0.0000  0.0025 </r>
        <r>  0.0034  0.0023  0.0007  0.0086  0.0013  0.0022  0.0016  0.0056  0.0022 </r>
        <r>  0.0568  0.0036  0.0117  0.0055  0.0191  0.0005  0.0035  0.0083  0.0054 </r>
        <r>  0.1561  0.0100  0.0480  0.0733  0.0534  0.0099  0.0143  0.0062  0.0397 </r>
        <r>  0.0122  0.0037  0.0008  0.0108  0.0000  0.0000  0.0000  0.0000  0.0000 </r>
       </set>
       <set comment="band 26">
        <r>  0.0332  0.0029  0.0039  0.0081  0.0111  0.0019  0.0036  0.0042  0.0049 </r>
        <r>  0.1183  0.0010  0.0070  0.0052  0.0398  0.0031  0.0079  0.0081  0.0152 </r>
        <r>  0.1020  0.0003  0.0187  0.0215  0.0351  0.0168  0.0111  0.0268  0.0211 </r>
        <r>  0.0396  0.0045  0.0259  0.0080  0.0085  0.0155  0.0010  0.0378  0.0018 </r>
        <r>  0.0406  0.0003  0.0007  0.0009  0.0000  0.0000  0.0000  0.0000  0.0000 </r>
       </set>
       <set comment="band 27">
        <r>  0.1856  0.0023  0.0155  0.0301  0.0500  0.0069  0.0088  0.0103  0.0266 </r>
        <r>  0.0309  0.0035  0.0193  0.0028  0.0092  0.0027  0.0002  0.0159  0.0023 </r>
        <r>  0.0259  0.0061  0.0100  0.0303  0.0068  0.0013  0.0040  0.0015  0.0083 </r>
        <r>  0.0480  0.0008  0.0008  0.0000  0.0078  0.0086  0.0008  0.0295  0.0021 </r>
        <r>  0.0185  0.0007  0.0003  0.0014  0.0000  0.0000  0.0000  0.0000  0.0000 </r>
       </set>
       <set comment="band 28">
        <r>  0.0503  0.0028  0.0774  0.0235  0.0101  0.0069  0.0019  0.0060  0.0086 </r>
        <r>  0.0483  0.0012  0.0116  0.0090  0.0137  0.0139  0.0001  0.0291  0.0071 </r>
        <r>  0.0156  0.0058  0.0492  0.0154  0.0037  0.0015  0.0012  0.0019  0.0024 </r>
        <r>  0.0309  0.0051  0.0021  0.0092  0.0033  0.0106  0.0013  0.0287  0.0006 </r>
        <r>  0.0221  0.0006  0.0014  0.0010  0.0000  0.0000  0.0000  0.0000  0.0000 </r>
       </set>
      </set>
      <set comment="kpoint 52">
       <set comment="band 1">
        <r>  0.0000  0.0000  0.0000  0.0000  0.0000  0.0000  0.0000  0.0000  0.0000 </r>
        <r>  0.0002  0.0000  0.0000  0.0000  0.0005  0.0000  0.0000  0.0000  0.0002 </r>
        <r>  0.0002  0.0006  0.0002  0.0017  0.0005  0.0049  0.0030  0.0154  0.0002 </r>
        <r>  0.0374  0.0109  0.0001  0.0285  0.2367  0.0654  0.0034  0.1601  0.0827 </r>
        <r>  0.1505  0.0000  0.0019  0.0000  0.0000  0.0000  0.0000  0.0000  0.0000 </r>
       </set>
       <set comment="band 2">
        <r>  0.0066  0.0003  0.0014  0.0008  0.0121  0.0022  0.0042  0.0065  0.0040 </r>
        <r>  0.0300  0.0005  0.0006  0.0016  0.0766  0.0192  0.0147  0.0575  0.0255 </r>
        <r>  0.0710  0.0001  0.0000  0.0003  0.1973  0.0040  0.0268  0.0121  0.0658 </r>
        <r>  0.0125  0.0007  0.0018  0.0023  0.0339  0.0333  0.0075  0.0967  0.0112 </r>
        <r>  0.0008  0.0001  0.0000  0.0002  0.0000  0.0000  0.0000  0.0000  0.0000 </r>
       </set>
       <set comment="band 3">
        <r>  0.0001  0.0017  0.0002  0.0050  0.0011  0.0184  0.0033  0.0553  0.0004 </r>
        <r>  0.0513  0.0003  0.0000  0.0009  0.2470  0.0236  0.0010  0.0707  0.0823 </r>
        <r>  0.0076  0.0014  0.0009  0.0043  0.0411  0.0400  0.0000  0.1196  0.0137 </r>
        <r>  0.0008  0.0017  0.0002  0.0050  0.0159  0.0033  0.0019  0.0115  0.0055 </r>
        <r>  0.0025  0.0000  0.0001  0.0000  0.0000  0.0000  0.0000  0.0000  0.0000 </r>
       </set>
       <set comment="band 4">
        <r>  0.0040  0.0000  0.0000  0.0001  0.0428  0.0001  0.0028  0.0004  0.0143 </r>
        <r>  0.0007  0.0002  0.0003  0.0005  0.0229  0.0004  0.0500  0.0012  0.0076 </r>
        <r>  0.0009  0.0000  0.0020  0.0001  0.1349  0.0121  0.0859  0.0373  0.0449 </r>
        <r>  0.0021  0.0001  0.0008  0.0003  0.1295  0.0519  0.0642  0.1420  0.0424 </r>
        <r>  0.0050  0.0001  0.0000  0.0003  0.0000  0.0000  0.0000  0.0000  0.0000 </r>
       </set>
       <set comment="band 5">
        <r>  0.0351  0.0001  0.0041  0.0004  0.1271  0.0021  0.0099  0.0064  0.0424 </r>
        <r>  0.0033  0.0008  0.0022  0.0024  0.0693  0.0645  0.0117  0.1935  0.0231 </r>
        <r>  0.0014  0.0000  0.0051  0.0000  0.0574  0.0180  0.0195  0.0535  0.0192 </r>
        <r>  0.0089  0.0004  0.0014  0.0011  0.0245  0.0122  0.0107  0.0326  0.0080 </r>
        <r>  0.0027  0.0000  0.0000  0.0002  0.0000  0.0000  0.0000  0.0000  0.0000 </r>
       </set>
       <set comment="band 6">
        <r>  0.0198  0.0000  0.0000  0.0001  0.2888  0.0005  0.0303  0.0015  0.0963 </r>
        <r>  0.0000  0.0019  0.0006  0.0058  0.0592  0.0032  0.0624  0.0099  0.0197 </r>
        <r>  0.0059  0.0000  0.0018  0.0000  0.0439  0.0187  0.0000  0.0540  0.0146 </r>
        <r>  0.0038  0.0035  0.0002  0.0097  0.0435  0.0146  0.0025  0.0336  0.0139 </r>
        <r>  0.0108  0.0000  0.0000  0.0002  0.0000  0.0000  0.0000  0.0000  0.0000 </r>
       </set>
       <set comment="band 7">
        <r>  0.0000  0.0017  0.0008  0.0051  0.0234  0.0673  0.0253  0.2021  0.0078 </r>
        <r>  0.0034  0.0025  0.0065  0.0076  0.0000  0.0212  0.0340  0.0628  0.0000 </r>
        <r>  0.0008  0.0026  0.0002  0.0076  0.0100  0.0654  0.0001  0.1904  0.0033 </r>
        <r>  0.0070  0.0062  0.0033  0.0176  0.0008  0.0003  0.0623  0.0000  0.0002 </r>
        <r>  0.0119  0.0000  0.0001  0.0001  0.0000  0.0000  0.0000  0.0000  0.0000 </r>
       </set>
       <set comment="band 8">
        <r>  0.0006  0.0000  0.0004  0.0001  0.0551  0.0611  0.0231  0.1813  0.0183 </r>
        <r>  0.0001  0.0016  0.0013  0.0046  0.0720  0.0397  0.1194  0.1144  0.0239 </r>
        <r>  0.0002  0.0009  0.0021  0.0026  0.0491  0.0048  0.0977  0.0112  0.0162 </r>
        <r>  0.0002  0.0002  0.0003  0.0005  0.0042  0.0002  0.0228  0.0023  0.0015 </r>
        <r>  0.0005  0.0000  0.0000  0.0000  0.0000  0.0000  0.0000  0.0000  0.0000 </r>
       </set>
       <set comment="band 9">
        <r>  0.0000  0.0001  0.0000  0.0000  0.0007  0.0160  0.0023  0.0034  0.0000 </r>
        <r>  0.0000  0.0000  0.0000  0.0004  0.0001  0.1198  0.0007  0.0274  0.0008 </r>
        <r>  0.0001  0.0000  0.0001  0.0001  0.0000  0.2553  0.0071  0.0891  0.0030 </r>
        <r>  0.0001  0.0000  0.0000  0.0012  0.0007  0.2971  0.0109  0.1251  0.0012 </r>
        <r>  0.0004  0.0005  0.0000  0.0001  0.0000  0.0000  0.0000  0.0000  0.0000 </r>
       </set>
       <set comment="band 10">
        <r>  0.0017  0.0000  0.0017  0.0000  0.0207  0.0010  0.1158  0.0002  0.0075 </r>
        <r>  0.0023  0.0038  0.0002  0.0104  0.0003  0.0002  0.0723  0.0375  0.0003 </r>
        <r>  0.0029  0.0029  0.0016  0.0085  0.0091  0.0040  0.1613  0.0122  0.0021 </r>
        <r>  0.0044  0.0049  0.0001  0.0123  0.0145  0.0098  0.3809  0.0000  0.0037 </r>
        <r>  0.0069  0.0000  0.0000  0.0000  0.0000  0.0000  0.0000  0.0000  0.0000 </r>
       </set>
       <set comment="band 11">
        <r>  0.0012  0.0005  0.0001  0.0011  0.0041  0.0265  0.0083  0.1433  0.0011 </r>
        <r>  0.0024  0.0000  0.0089  0.0001  0.0026  0.0005  0.1409  0.0200  0.0005 </r>
        <r>  0.0042  0.0112  0.0002  0.0305  0.0012  0.0151  0.2016  0.0151  0.0003 </r>
        <r>  0.0061  0.0127  0.0002  0.0352  0.0508  0.0005  0.0833  0.0037  0.0140 </r>
        <r>  0.0141  0.0001  0.0000  0.0004  0.0000  0.0000  0.0000  0.0000  0.0000 </r>
       </set>
       <set comment="band 12">
        <r>  0.0001  0.0003  0.0000  0.0003  0.0001  0.1440  0.0021  0.0271  0.0007 </r>
        <r>  0.0000  0.0003  0.0001  0.0001  0.0003  0.3315  0.0010  0.0985  0.0010 </r>
        <r>  0.0001  0.0007  0.0000  0.0011  0.0000  0.0061  0.0059  0.0038  0.0000 </r>
        <r>  0.0001  0.0001  0.0000  0.0006  0.0002  0.2452  0.0008  0.0951  0.0010 </r>
        <r>  0.0001  0.0005  0.0000  0.0001  0.0000  0.0000  0.0000  0.0000  0.0000 </r>
       </set>
       <set comment="band 13">
        <r>  0.0084  0.0001  0.0005  0.0005  0.0008  0.0082  0.3948  0.0030  0.0002 </r>
        <r>  0.0002  0.0082  0.0011  0.0268  0.0007  0.0156  0.0460  0.0245  0.0003 </r>
        <r>  0.0009  0.0019  0.0100  0.0060  0.0113  0.0021  0.0166  0.0376  0.0036 </r>
        <r>  0.0003  0.0086  0.0025  0.0230  0.0000  0.0099  0.1649  0.0259  0.0008 </r>
        <r>  0.0173  0.0000  0.0001  0.0000  0.0000  0.0000  0.0000  0.0000  0.0000 </r>
       </set>
       <set comment="band 14">
        <r>  0.0000  0.0001  0.0000  0.0000  0.0000  0.2476  0.0019  0.0954  0.0002 </r>
        <r>  0.0000  0.0016  0.0000  0.0002  0.0000  0.0050  0.0008  0.0045  0.0000 </r>
        <r>  0.0000  0.0000  0.0000  0.0001  0.0001  0.3213  0.0000  0.0893  0.0000 </r>
        <r>  0.0000  0.0002  0.0000  0.0006  0.0112  0.1251  0.0013  0.0428  0.0299 </r>
        <r>  0.0000  0.0003  0.0000  0.0001  0.0000  0.0000  0.0000  0.0000  0.0000 </r>
       </set>
       <set comment="band 15">
        <r>  0.0000  0.0000  0.0000  0.0000  0.0000  0.0237  0.0000  0.0060  0.0000 </r>
        <r>  0.0000  0.0001  0.0000  0.0000  0.0001  0.0026  0.0002  0.0012  0.0000 </r>
        <r>  0.0000  0.0000  0.0000  0.0000  0.0009  0.0080  0.0000  0.0041  0.0031 </r>
        <r>  0.0000  0.0000  0.0000  0.0000  0.2401  0.0041  0.0001  0.0009  0.6980 </r>
        <r>  0.0000  0.0001  0.0000  0.0000  0.0000  0.0000  0.0000  0.0000  0.0000 </r>
       </set>
       <set comment="band 16">
        <r>  0.0018  0.0035  0.0003  0.0103  0.0183  0.0208  0.1284  0.0515  0.0060 </r>
        <r>  0.0011  0.0015  0.0002  0.0045  0.0468  0.0033  0.3051  0.0070  0.0150 </r>
        <r>  0.0003  0.0000  0.0042  0.0000  0.0155  0.0213  0.0479  0.0640  0.0050 </r>
        <r>  0.0000  0.0049  0.0013  0.0141  0.0249  0.0020  0.0841  0.0032  0.0143 </r>
        <r>  0.0050  0.0001  0.0000  0.0001  0.0000  0.0000  0.0000  0.0000  0.0000 </r>
       </set>
       <set comment="band 17">
        <r>  0.0000  0.0002  0.0000  0.0001  0.0004  0.2745  0.0001  0.0918  0.0017 </r>
        <r>  0.0000  0.0000  0.0000  0.0000  0.0137  0.2457  0.0000  0.0865  0.0441 </r>
        <r>  0.0000  0.0002  0.0000  0.0001  0.0100  0.1192  0.0001  0.0395  0.0331 </r>
        <r>  0.0000  0.0001  0.0000  0.0001  0.0016  0.0155  0.0000  0.0059  0.0046 </r>
        <r>  0.0000  0.0000  0.0000  0.0000  0.0000  0.0000  0.0000  0.0000  0.0000 </r>
       </set>
       <set comment="band 18">
        <r>  0.0000  0.0000  0.0000  0.0000  0.0004  0.0001  0.0000  0.0000  0.0012 </r>
        <r>  0.0000  0.0000  0.0000  0.0000  0.0802  0.0026  0.0000  0.0009  0.2414 </r>
        <r>  0.0000  0.0000  0.0000  0.0000  0.1659  0.0001  0.0000  0.0000  0.4964 </r>
        <r>  0.0000  0.0000  0.0000  0.0000  0.0009  0.0008  0.0000  0.0003  0.0027 </r>
        <r>  0.0000  0.0000  0.0000  0.0000  0.0000  0.0000  0.0000  0.0000  0.0000 </r>
       </set>
       <set comment="band 19">
        <r>  0.0000  0.0000  0.0000  0.0000  0.0035  0.0312  0.0000  0.0101  0.0110 </r>
        <r>  0.0000  0.0000  0.0000  0.0000  0.1507  0.0206  0.0000  0.0075  0.4501 </r>
        <r>  0.0000  0.0000  0.0000  0.0000  0.0714  0.0149  0.0000  0.0047  0.2108 </r>
        <r>  0.0000  0.0000  0.0000  0.0000  0.0007  0.0035  0.0000  0.0014  0.0021 </r>
        <r>  0.0000  0.0000  0.0000  0.0000  0.0000  0.0000  0.0000  0.0000  0.0000 </r>
       </set>
       <set comment="band 20">
        <r>  0.0000  0.0000  0.0000  0.0000  0.2459  0.0008  0.0001  0.0002  0.7289 </r>
        <r>  0.0000  0.0000  0.0000  0.0000  0.0030  0.0033  0.0000  0.0016  0.0087 </r>
        <r>  0.0000  0.0000  0.0000  0.0000  0.0002  0.0010  0.0001  0.0002  0.0003 </r>
        <r>  0.0000  0.0000  0.0000  0.0000  0.0000  0.0000  0.0000  0.0001  0.0000 </r>
        <r>  0.0000  0.0000  0.0000  0.0000  0.0000  0.0000  0.0000  0.0000  0.0000 </r>
       </set>
       <set comment="band 21">
        <r>  0.0000  0.0020  0.0020  0.0062  0.0118  0.0047  0.1394  0.0159  0.0068 </r>
        <r>  0.0001  0.0037  0.0015  0.0111  0.0002  0.0225  0.0074  0.0600  0.0002 </r>
        <r>  0.0005  0.0050  0.0049  0.0155  0.0355  0.0069  0.2006  0.0293  0.0127 </r>
        <r>  0.0001  0.0205  0.0020  0.0579  0.0069  0.0357  0.0006  0.0728  0.0040 </r>
        <r>  0.0452  0.0000  0.0001  0.0000  0.0000  0.0000  0.0000  0.0000  0.0000 </r>
       </set>
       <set comment="band 22">
        <r>  0.0050  0.0211  0.0056  0.0634  0.0120  0.0040  0.0370  0.0120  0.0040 </r>
        <r>  0.0000  0.0335  0.0109  0.1006  0.0000  0.0000  0.0000  0.0000  0.0000 </r>
        <r>  0.0162  0.0213  0.0011  0.0637  0.0320  0.0040  0.0724  0.0126  0.0107 </r>
        <r>  0.0120  0.0027  0.0038  0.0072  0.0269  0.0090  0.0297  0.0231  0.0095 </r>
        <r>  0.0111  0.0000  0.0000  0.0000  0.0000  0.0000  0.0000  0.0000  0.0000 </r>
       </set>
       <set comment="band 23">
        <r>  0.0009  0.0235  0.0006  0.0705  0.0012  0.0006  0.0020  0.0019  0.0004 </r>
        <r>  0.0635  0.0067  0.0020  0.0202  0.0682  0.0037  0.0988  0.0112  0.0227 </r>
        <r>  0.0020  0.0384  0.0106  0.1151  0.0018  0.0005  0.0034  0.0013  0.0006 </r>
        <r>  0.0325  0.0003  0.0089  0.0006  0.0344  0.0027  0.0308  0.0072  0.0118 </r>
        <r>  0.0033  0.0000  0.0000  0.0001  0.0000  0.0000  0.0000  0.0000  0.0000 </r>
       </set>
       <set comment="band 24">
        <r>  0.0343  0.0456  0.0159  0.1367  0.0330  0.0000  0.0365  0.0000  0.0110 </r>
        <r>  0.0122  0.0288  0.0457  0.0863  0.0095  0.0005  0.0108  0.0014  0.0032 </r>
        <r>  0.0202  0.0065  0.0141  0.0194  0.0162  0.0008  0.0171  0.0024  0.0054 </r>
        <r>  0.0079  0.0000  0.0013  0.0000  0.0064  0.0004  0.0042  0.0011  0.0022 </r>
        <r>  0.0006  0.0000  0.0000  0.0000  0.0000  0.0000  0.0000  0.0000  0.0000 </r>
       </set>
       <set comment="band 25">
        <r>  0.0005  0.0004  0.0000  0.0013  0.0002  0.0001  0.0001  0.0003  0.0001 </r>
        <r>  0.0130  0.0003  0.0056  0.0010  0.0049  0.0000  0.0015  0.0001  0.0016 </r>
        <r>  0.0048  0.0049  0.0119  0.0150  0.0013  0.0045  0.0008  0.0131  0.0004 </r>
        <r>  0.1803  0.0150  0.0653  0.0496  0.0750  0.0036  0.0067  0.0081  0.0263 </r>
        <r>  0.0313  0.0045  0.0009  0.0129  0.0000  0.0000  0.0000  0.0000  0.0000 </r>
       </set>
       <set comment="band 26">
        <r>  0.0539  0.0027  0.0016  0.0082  0.0200  0.0007  0.0055  0.0020  0.0067 </r>
        <r>  0.0677  0.0007  0.0030  0.0021  0.0261  0.0098  0.0045  0.0293  0.0087 </r>
        <r>  0.2031  0.0001  0.0023  0.0004  0.0740  0.0074  0.0150  0.0228  0.0246 </r>
        <r>  0.0429  0.0003  0.0181  0.0014  0.0078  0.0165  0.0046  0.0452  0.0025 </r>
        <r>  0.0262  0.0000  0.0004  0.0000  0.0000  0.0000  0.0000  0.0000  0.0000 </r>
       </set>
       <set comment="band 27">
        <r>  0.2301  0.0039  0.0107  0.0118  0.0675  0.0020  0.0068  0.0059  0.0225 </r>
        <r>  0.0141  0.0070  0.0030  0.0210  0.0049  0.0063  0.0001  0.0191  0.0016 </r>
        <r>  0.0155  0.0016  0.0383  0.0048  0.0046  0.0012  0.0002  0.0037  0.0015 </r>
        <r>  0.0405  0.0008  0.0032  0.0032  0.0060  0.0134  0.0014  0.0371  0.0019 </r>
        <r>  0.0214  0.0001  0.0006  0.0004  0.0000  0.0000  0.0000  0.0000  0.0000 </r>
       </set>
       <set comment="band 28">
        <r>  0.0577  0.0033  0.0683  0.0098  0.0129  0.0034  0.0003  0.0102  0.0043 </r>
        <r>  0.1453  0.0013  0.0002  0.0040  0.0376  0.0021  0.0001  0.0062  0.0125 </r>
        <r>  0.0001  0.0074  0.0278  0.0219  0.0000  0.0051  0.0000  0.0151  0.0000 </r>
        <r>  0.0197  0.0011  0.0102  0.0045  0.0018  0.0130  0.0002  0.0365  0.0006 </r>
        <r>  0.0165  0.0007  0.0007  0.0019  0.0000  0.0000  0.0000  0.0000  0.0000 </r>
       </set>
      </set>
     </set>
    </set>
   </array>
  </projected>
 </calculation>
 <structure name="finalpos" >
  <crystal>
   <varray name="basis" >
    <v>       2.57386868       0.00000000       0.00000000 </v>
    <v>       1.28693434       2.22903567       0.00000000 </v>
    <v>       0.00000000       0.00000000      30.30466494 </v>
   </varray>
   <i name="volume">    173.86529028 </i>
   <varray name="rec_basis" >
    <v>       0.38852021      -0.22431225       0.00000000 </v>
    <v>       0.00000000       0.44862450       0.00000000 </v>
    <v>       0.00000000       0.00000000       0.03299822 </v>
   </varray>
  </crystal>
  <varray name="positions" >
   <v>       0.00000000       0.00000000       0.39597864 </v>
   <v>       0.33333333       0.33333333       0.46532621 </v>
   <v>       0.66666666       0.66666667       0.53467379 </v>
   <v>       0.00000000       0.00000000       0.60402136 </v>
   <v>       0.70551869       0.66666667       0.63701958 </v>
  </varray>
 </structure>
</modeling>
