unknown system                          
   1.00000000000000     
     2.573869    0.000000    0.000000
     1.286934    2.229036    0.000000
     0.000000    0.000000   30.304665
   Cu   H 
     4     1
Direct
  0.999706  0.000588  0.396567
  0.333186  0.333624  0.465140
  0.665829  0.668343  0.533594
  0.000801  0.998398  0.604216
  0.500476  0.999044  0.634203
 
   20   20  240
 -.18896E-01 -.17555E-01 -.13537E-01 -.81349E-02 -.31371E-02 -.99008E-04 0.20045E-03 -.20715E-02 -.58809E-02 -.95722E-02
 -.11402E-01 -.10365E-01 -.68738E-02 -.26851E-02 0.44273E-04 -.76326E-04 -.30967E-02 -.79735E-02 -.13190E-01 -.17237E-01
 -.17506E-01 -.14678E-01 -.96685E-02 -.42059E-02 -.35355E-03 0.42003E-03 -.20648E-02 -.65785E-02 -.10998E-01 -.13259E-01
 -.12345E-01 -.87792E-02 -.43232E-02 -.10146E-02 -.17956E-03 -.20113E-02 -.58081E-02 -.10456E-01 -.14731E-01 -.17413E-01
 -.13619E-01 -.10131E-01 -.54748E-02 -.14435E-02 0.54656E-04 -.21147E-02 -.75124E-02 -.14035E-01 -.18837E-01 -.19830E-01
 -.16772E-01 -.11247E-01 -.56422E-02 -.19384E-02 -.10413E-02 -.27906E-02 -.63053E-02 -.10335E-01 -.13548E-01 -.14833E-01
 -.86691E-02 -.57441E-02 -.27173E-02 -.10863E-02 -.24633E-02 -.76803E-02 -.15832E-01 -.24201E-01 -.29468E-01 -.29485E-01
 -.24382E-01 -.16318E-01 -.82526E-02 -.26308E-02 -.59825E-03 -.18602E-02 -.50375E-02 -.83498E-02 -.10361E-01 -.10425E-01
 -.39152E-02 -.22581E-02 -.14803E-02 -.29495E-02 -.80224E-02 -.16974E-01 -.28064E-01 -.37755E-01 -.42302E-01 -.39750E-01
 -.31006E-01 -.19324E-01 -.86397E-02 -.18020E-02 0.40436E-03 -.86852E-03 -.35007E-02 -.55955E-02 -.62347E-02 -.54836E-02
 -.15608E-03 0.13977E-03 -.18016E-02 -.74025E-02 -.17307E-01 -.30377E-01 -.43372E-01 -.51944E-01 -.52694E-01 -.45086E-01
 -.31879E-01 -.17704E-01 -.67195E-02 -.83383E-03 0.54758E-03 -.54437E-03 -.20545E-02 -.27733E-02 -.24261E-02 -.13367E-02
 0.17528E-02 0.73024E-03 -.43214E-02 -.14456E-01 -.28815E-01 -.44276E-01 -.56238E-01 -.60496E-01 -.55361E-01 -.42718E-01
 -.27127E-01 -.13431E-01 -.44918E-02 -.45780E-03 0.28455E-03 -.37820E-03 -.11498E-02 -.13427E-02 -.66272E-03 0.69686E-03
 0.12712E-02 -.85430E-03 -.84315E-02 -.21546E-01 -.37691E-01 -.52323E-01 -.60606E-01 -.59626E-01 -.49892E-01 -.35094E-01
 -.20154E-01 -.88336E-02 -.24336E-02 -.16670E-03 -.43282E-03 -.17802E-02 -.30763E-02 -.33832E-02 -.21969E-02 -.35727E-04
 -.87280E-03 -.34147E-02 -.11798E-01 -.25082E-01 -.39832E-01 -.51284E-01 -.55414E-01 -.50846E-01 -.39456E-01 -.25313E-01
 -.12698E-01 -.44005E-02 -.11208E-02 -.18962E-02 -.49128E-02 -.81806E-02 -.99966E-02 -.93698E-02 -.64555E-02 -.27695E-02
 -.30051E-02 -.51971E-02 -.12776E-01 -.24063E-01 -.35494E-01 -.42963E-01 -.43662E-01 -.37355E-01 -.26385E-01 -.14576E-01
 -.56945E-02 -.21317E-02 -.41677E-02 -.99940E-02 -.16536E-01 -.20784E-01 -.21020E-01 -.17342E-01 -.11404E-01 -.57385E-02
 -.38924E-02 -.55539E-02 -.11696E-01 -.20040E-01 -.27357E-01 -.30694E-01 -.28612E-01 -.21805E-01 -.12862E-01 -.53611E-02
 -.25720E-02 -.60909E-02 -.14924E-01 -.25667E-01 -.33976E-01 -.36625E-01 -.32919E-01 -.24678E-01 -.15098E-01 -.73931E-02
 -.32736E-02 -.46559E-02 -.92294E-02 -.14343E-01 -.17550E-01 -.17371E-01 -.13755E-01 -.81649E-02 -.32254E-02 -.19427E-02
 -.65316E-02 -.17177E-01 -.31393E-01 -.44636E-01 -.52173E-01 -.51297E-01 -.42575E-01 -.29413E-01 -.16329E-01 -.70357E-02
 -.14277E-02 -.25948E-02 -.55326E-02 -.78687E-02 -.82724E-02 -.65401E-02 -.34864E-02 -.79044E-03 -.68316E-03 -.53088E-02
 -.15761E-01 -.31099E-01 -.47947E-01 -.61263E-01 -.66326E-01 -.61064E-01 -.47290E-01 -.29913E-01 -.14514E-01 -.47979E-02
 0.80454E-03 -.76943E-04 -.17804E-02 -.27394E-02 -.24464E-02 -.11612E-02 0.22690E-03 0.20678E-03 -.31500E-02 -.11554E-01
 -.25479E-01 -.43172E-01 -.60418E-01 -.71703E-01 -.72650E-01 -.62465E-01 -.44671E-01 -.25387E-01 -.10199E-01 -.17112E-02
 0.18214E-02 0.95555E-03 -.35163E-03 -.11674E-02 -.11447E-02 -.41447E-03 0.19669E-03 -.10052E-02 -.62109E-02 -.17033E-01
 -.33123E-01 -.51346E-01 -.66372E-01 -.72840E-01 -.68087E-01 -.53719E-01 -.34852E-01 -.17427E-01 -.53941E-02 0.47915E-03
 0.23050E-03 -.10490E-02 -.22910E-02 -.27978E-02 -.22348E-02 -.85502E-03 0.93527E-04 -.16434E-02 -.84357E-02 -.21151E-01
 -.37804E-01 -.53681E-01 -.63273E-01 -.63049E-01 -.53297E-01 -.37830E-01 -.21852E-01 -.94607E-02 -.22655E-02 0.38704E-03
 -.38159E-02 -.54851E-02 -.61573E-02 -.54413E-02 -.34422E-02 -.98378E-03 0.16299E-03 -.23688E-02 -.10284E-01 -.23043E-01
 -.37262E-01 -.47958E-01 -.51104E-01 -.45783E-01 -.34476E-01 -.21463E-01 -.10618E-01 -.39685E-02 -.15319E-02 -.20334E-02
 -.88969E-02 -.10480E-01 -.10094E-01 -.79237E-02 -.47039E-02 -.16971E-02 -.66088E-03 -.33508E-02 -.10444E-01 -.20549E-01
 -.30310E-01 -.35915E-01 -.35127E-01 -.28460E-01 -.18732E-01 -.94862E-02 -.33825E-02 -.13681E-02 -.27572E-02 -.58787E-02
 -.13701E-01 -.14735E-01 -.13284E-01 -.10010E-01 -.60230E-02 -.26514E-02 -.12709E-02 -.29373E-02 -.77807E-02 -.14522E-01
 -.20664E-01 -.23544E-01 -.21736E-01 -.15903E-01 -.85019E-02 -.25230E-02 -.59190E-04 -.14881E-02 -.55795E-02 -.10285E-01
 -.17365E-01 -.17445E-01 -.14843E-01 -.10487E-01 -.57481E-02 -.20240E-02 -.40494E-03 -.14538E-02 -.49663E-02 -.97554E-02
 -.13808E-01 -.15094E-01 -.12744E-01 -.77489E-02 -.25375E-02 0.37053E-03 -.30938E-03 -.41596E-02 -.95395E-02 -.14469E-01
 -.76674E-02 -.69929E-02 -.54970E-02 -.37216E-02 -.20894E-02 -.72284E-03 0.48252E-03 0.16292E-02 0.26346E-02 0.32448E-02
 0.32337E-02 0.26159E-02 0.16760E-02 0.75954E-03 -.11197E-04 -.84193E-03 -.20688E-02 -.38036E-02 -.57230E-02 -.71966E-02
 -.70006E-02 -.58254E-02 -.38599E-02 -.18291E-02 -.42946E-03 0.91766E-04 0.73929E-04 0.17198E-03 0.84406E-03 0.19789E-02
 0.29686E-02 0.31758E-02 0.24041E-02 0.98067E-03 -.58307E-03 -.20059E-02 -.33479E-02 -.47557E-02 -.61294E-02 -.70425E-02
 -.56067E-02 -.42827E-02 -.24299E-02 -.83763E-03 -.93568E-04 -.19388E-03 -.56025E-03 -.48150E-03 0.33511E-03 0.15328E-02
 0.23847E-02 0.23528E-02 0.14586E-02 0.17598E-03 -.10151E-02 -.19920E-02 -.29595E-02 -.40983E-02 -.52456E-02 -.59077E-02
 -.38719E-02 -.28554E-02 -.17173E-02 -.82638E-03 -.30040E-03 -.27982E-04 0.15507E-03 0.30376E-03 0.34921E-03 0.21858E-03
 -.44385E-04 -.28449E-03 -.37087E-03 -.34419E-03 -.43505E-03 -.91197E-03 -.18576E-02 -.30425E-02 -.40098E-02 -.43324E-02
 -.19178E-02 -.15122E-02 -.12126E-02 -.83063E-03 -.23035E-03 0.41402E-03 0.66226E-03 0.17096E-03 -.93287E-03 -.20358E-02
 -.24478E-02 -.19186E-02 -.83185E-03 0.72479E-04 0.21530E-03 -.46164E-03 -.15219E-02 -.23733E-02 -.26518E-02 -.23949E-02
 -.20577E-03 -.33786E-03 -.67191E-03 -.86995E-03 -.80329E-03 -.69219E-03 -.90020E-03 -.15496E-02 -.23217E-02 -.26615E-02
 -.22330E-02 -.12266E-02 -.24407E-03 0.14228E-03 -.20848E-03 -.94392E-03 -.15071E-02 -.15327E-02 -.10684E-02 -.49181E-03
 0.60613E-03 0.29973E-03 -.45739E-03 -.14612E-02 -.23876E-02 -.29440E-02 -.29946E-02 -.25947E-02 -.19337E-02 -.12395E-02
 -.69662E-03 -.40284E-03 -.36126E-03 -.49699E-03 -.68696E-03 -.79577E-03 -.71586E-03 -.41153E-03 0.43331E-04 0.46219E-03
 0.53470E-03 0.37247E-03 -.49934E-03 -.19116E-02 -.32377E-02 -.37935E-02 -.33289E-02 -.22097E-02 -.11336E-02 -.61376E-03
 -.65296E-03 -.84546E-03 -.77404E-03 -.34733E-03 0.17943E-03 0.46951E-03 0.40524E-03 0.17681E-03 0.96442E-04 0.29189E-03
 0.19281E-03 0.23170E-03 -.28409E-03 -.12645E-02 -.22455E-02 -.27517E-02 -.26610E-02 -.22487E-02 -.18860E-02 -.16936E-02
 -.14697E-02 -.93439E-03 -.39824E-04 0.93232E-03 0.15544E-02 0.15555E-02 0.10150E-02 0.31772E-03 -.10311E-03 -.71454E-04
 -.15759E-03 -.72613E-04 -.22729E-04 -.28720E-03 -.94935E-03 -.18334E-02 -.26011E-02 -.29295E-02 -.26648E-02 -.18788E-02
 -.81187E-03 0.25698E-03 0.11324E-02 0.17380E-02 0.20591E-02 0.20724E-02 0.17533E-02 0.11608E-02 0.49043E-03 0.12424E-05
 -.61865E-03 -.71397E-03 -.44408E-03 -.38335E-03 -.86427E-03 -.16907E-02 -.22871E-02 -.21642E-02 -.13094E-02 -.17570E-03
 0.70506E-03 0.11382E-02 0.13596E-02 0.17505E-02 0.24389E-02 0.31355E-02 0.33375E-02 0.27346E-02 0.14920E-02 0.17866E-03
 -.84075E-03 -.12830E-02 -.12663E-02 -.11490E-02 -.11024E-02 -.10103E-02 -.66549E-03 -.53890E-04 0.57742E-03 0.94820E-03
 0.10411E-02 0.11609E-02 0.16822E-02 0.27045E-02 0.39067E-02 0.47134E-02 0.46425E-02 0.35995E-02 0.19430E-02 0.28759E-03
 -.27593E-03 -.10199E-02 -.13302E-02 -.11356E-02 -.54637E-03 0.14563E-03 0.60151E-03 0.65159E-03 0.44884E-03 0.41292E-03
 0.95372E-03 0.21555E-02 0.36709E-02 0.49229E-02 0.54579E-02 0.51772E-02 0.42975E-02 0.31334E-02 0.19120E-02 0.74629E-03
 0.68206E-03 -.74718E-04 -.51629E-03 -.44530E-03 -.68010E-04 0.16083E-03 -.41240E-04 -.46522E-03 -.49901E-03 0.40881E-03
 0.22680E-02 0.44403E-02 0.60105E-02 0.63649E-02 0.55538E-02 0.41867E-02 0.29677E-02 0.22333E-02 0.18289E-02 0.13767E-02
 0.85804E-03 0.36601E-03 -.11528E-03 -.43382E-03 -.62798E-03 -.80927E-03 -.93277E-03 -.71869E-03 0.16272E-03 0.17871E-02
 0.38089E-02 0.55745E-02 0.64489E-02 0.61547E-02 0.49225E-02 0.33578E-02 0.20931E-02 0.14362E-02 0.12513E-02 0.11549E-02
 -.23442E-03 -.49751E-03 -.97062E-03 -.13631E-02 -.13925E-02 -.97624E-03 -.24543E-03 0.59597E-03 0.14437E-02 0.23562E-02
 0.34379E-02 0.46232E-02 0.55615E-02 0.57666E-02 0.49675E-02 0.33789E-02 0.16280E-02 0.35734E-03 -.18294E-03 -.22859E-03
 -.19884E-02 -.22926E-02 -.25583E-02 -.23955E-02 -.16138E-02 -.45240E-03 0.57470E-03 0.10989E-02 0.12253E-02 0.14695E-02
 0.23185E-02 0.37594E-02 0.51746E-02 0.57228E-02 0.49343E-02 0.30581E-02 0.89360E-03 -.75591E-03 -.15778E-02 -.18296E-02
 -.38121E-02 -.42696E-02 -.41445E-02 -.33552E-02 -.21560E-02 -.10092E-02 -.24717E-03 0.18707E-03 0.67451E-03 0.15699E-02
 0.28616E-02 0.41255E-02 0.47978E-02 0.45400E-02 0.34266E-02 0.18540E-02 0.27330E-03 -.10535E-02 -.21190E-02 -.30338E-02
 -.56263E-02 -.60031E-02 -.54899E-02 -.44576E-02 -.33450E-02 -.23305E-02 -.12497E-02 0.15325E-03 0.18548E-02 0.34169E-02
 0.42531E-02 0.40829E-02 0.31635E-02 0.20816E-02 0.12867E-02 0.77014E-03 0.14498E-03 -.97300E-03 -.26084E-02 -.43568E-02
 -.71379E-02 -.70764E-02 -.61499E-02 -.48846E-02 -.36048E-02 -.22454E-02 -.56399E-03 0.14452E-02 0.33296E-02 0.43929E-02
 0.42086E-02 0.29974E-02 0.15194E-02 0.53026E-03 0.23018E-03 0.14975E-03 -.44193E-03 -.19370E-02 -.40604E-02 -.60434E-02
 0.19131E-01 0.17993E-01 0.13996E-01 0.84512E-02 0.33562E-02 0.46005E-03 0.52757E-03 0.31592E-02 0.70410E-02 0.10393E-01
 0.11591E-01 0.99280E-02 0.61154E-02 0.20292E-02 -.30834E-03 0.19773E-03 0.33589E-02 0.81281E-02 0.13197E-01 0.17267E-01
 0.17786E-01 0.15217E-01 0.10798E-01 0.59625E-02 0.21732E-02 0.49505E-03 0.13847E-02 0.45558E-02 0.88634E-02 0.12463E-01
 0.13528E-01 0.11310E-01 0.67656E-02 0.21478E-02 -.25526E-03 0.67860E-03 0.45281E-02 0.97933E-02 0.14661E-01 0.17609E-01
 0.13493E-01 0.10182E-01 0.62415E-02 0.28355E-02 0.11010E-02 0.19712E-02 0.57106E-02 0.11409E-01 0.16991E-01 0.20030E-01
 0.19024E-01 0.14291E-01 0.78824E-02 0.25397E-02 0.35590E-03 0.18720E-02 0.60103E-02 0.10755E-01 0.14146E-01 0.15070E-01
 0.80761E-02 0.49880E-02 0.21512E-02 0.92513E-03 0.27285E-02 0.82408E-02 0.16487E-01 0.24762E-01 0.29807E-01 0.29562E-01
 0.24245E-01 0.16095E-01 0.81299E-02 0.28104E-02 0.12191E-02 0.29026E-02 0.62758E-02 0.94160E-02 0.10914E-01 0.10333E-01
 0.37597E-02 0.14492E-02 0.28657E-03 0.22710E-02 0.88432E-02 0.19524E-01 0.31387E-01 0.40169E-01 0.42506E-01 0.37750E-01
 0.28108E-01 0.17206E-01 0.82547E-02 0.29279E-02 0.12574E-02 0.21614E-02 0.41379E-02 0.58502E-02 0.64630E-02 0.56946E-02
 0.11340E-02 -.34759E-04 0.12125E-02 0.69964E-02 0.17948E-01 0.32131E-01 0.45333E-01 0.52904E-01 0.52111E-01 0.43525E-01
 0.30549E-01 0.17497E-01 0.75630E-02 0.18723E-02 -.18286E-03 0.47894E-04 0.12775E-02 0.25404E-02 0.31212E-02 0.25885E-02
 -.22771E-03 0.28663E-03 0.44367E-02 0.13609E-01 0.27334E-01 0.42770E-01 0.55358E-01 0.60668E-01 0.56604E-01 0.44624E-01
 0.29029E-01 0.14701E-01 0.48004E-02 -.11709E-03 -.13445E-02 -.64464E-03 0.61874E-03 0.15666E-02 0.16507E-02 0.79632E-03
 -.17504E-03 0.22060E-02 0.89803E-02 0.20491E-01 0.35266E-01 0.49849E-01 0.59661E-01 0.60920E-01 0.52740E-01 0.37918E-01
 0.21617E-01 0.86912E-02 0.14946E-02 -.49968E-03 0.54042E-03 0.23702E-02 0.35173E-02 0.33693E-02 0.20444E-02 0.36974E-03
 0.13047E-02 0.47798E-02 0.13186E-01 0.25714E-01 0.39670E-01 0.50970E-01 0.55597E-01 0.51537E-01 0.40012E-01 0.25087E-01
 0.11715E-01 0.34332E-02 0.10864E-02 0.31009E-02 0.67741E-02 0.96233E-02 0.10202E-01 0.83380E-02 0.50035E-02 0.19683E-02
 0.27833E-02 0.61329E-02 0.14836E-01 0.26649E-01 0.37679E-01 0.43929E-01 0.43091E-01 0.35576E-01 0.24214E-01 0.12925E-01
 0.51516E-02 0.27366E-02 0.54909E-02 0.11440E-01 0.17638E-01 0.21307E-01 0.20904E-01 0.16645E-01 0.10355E-01 0.48022E-02
 0.27593E-02 0.52100E-02 0.12765E-01 0.22031E-01 0.28991E-01 0.30905E-01 0.27401E-01 0.20234E-01 0.12200E-01 0.60939E-02
 0.40862E-02 0.72454E-02 0.14995E-01 0.24891E-01 0.33283E-01 0.36828E-01 0.34021E-01 0.25867E-01 0.15432E-01 0.66284E-02
 0.16755E-02 0.29895E-02 0.82197E-02 0.14071E-01 0.17676E-01 0.17681E-01 0.14452E-01 0.95813E-02 0.52801E-02 0.39228E-02
 0.74822E-02 0.16601E-01 0.29686E-01 0.42903E-01 0.51565E-01 0.52303E-01 0.44718E-01 0.31538E-01 0.17315E-01 0.64781E-02
 0.90024E-03 0.11303E-02 0.38146E-02 0.68012E-02 0.84849E-02 0.80356E-02 0.56328E-02 0.26701E-02 0.16061E-02 0.51700E-02
 0.15003E-01 0.30328E-01 0.47522E-01 0.61198E-01 0.66509E-01 0.61509E-01 0.48120E-01 0.31100E-01 0.15674E-01 0.53258E-02
 0.55966E-03 0.27129E-03 0.13266E-02 0.25754E-02 0.30374E-02 0.20620E-02 0.34048E-04 -.11382E-02 0.14746E-02 0.10330E-01
 0.25716E-01 0.44847E-01 0.62429E-01 0.72685E-01 0.72011E-01 0.60832E-01 0.43403E-01 0.25556E-01 0.11816E-01 0.37879E-02
 0.20331E-03 0.45738E-03 0.10945E-02 0.13931E-02 0.86333E-03 -.52316E-03 -.17558E-02 -.65274E-03 0.53263E-02 0.17588E-01
 0.35045E-01 0.53760E-01 0.68079E-01 0.73013E-01 0.66743E-01 0.51700E-01 0.33341E-01 0.17278E-01 0.66867E-02 0.16125E-02
 0.75259E-03 0.21853E-02 0.29207E-02 0.26422E-02 0.15804E-02 0.35389E-03 0.12178E-03 0.26415E-02 0.97326E-02 0.22087E-01
 0.38070E-01 0.53538E-01 0.63263E-01 0.63448E-01 0.53840E-01 0.37974E-01 0.21330E-01 0.85838E-02 0.17055E-02 -.13794E-03
 0.36821E-02 0.58260E-02 0.63924E-02 0.55746E-02 0.40567E-02 0.26016E-02 0.22233E-02 0.44452E-02 0.10826E-01 0.21661E-01
 0.34855E-01 0.46206E-01 0.51315E-01 0.47955E-01 0.37298E-01 0.23259E-01 0.10499E-01 0.23352E-02 -.38910E-03 0.89502E-03
 0.86735E-02 0.10591E-01 0.10454E-01 0.86140E-02 0.58152E-02 0.30416E-02 0.16993E-02 0.34867E-02 0.94739E-02 0.18896E-01
 0.28839E-01 0.35455E-01 0.36012E-01 0.30347E-01 0.20795E-01 0.10879E-01 0.36930E-02 0.79334E-03 0.18805E-02 0.52333E-02
 0.13799E-01 0.14975E-01 0.13655E-01 0.10137E-01 0.55130E-02 0.15254E-02 0.10873E-03 0.25433E-02 0.85571E-02 0.16057E-01
 0.21954E-01 0.23747E-01 0.20849E-01 0.14771E-01 0.81445E-02 0.33642E-02 0.16870E-02 0.30772E-02 0.65423E-02 0.10613E-01
 0.17541E-01 0.17743E-01 0.14969E-01 0.98907E-02 0.43114E-02 0.45662E-03 -.74827E-04 0.28910E-02 0.79726E-02 0.12826E-01
 0.15212E-01 0.14075E-01 0.10066E-01 0.51546E-02 0.15419E-02 0.57547E-03 0.23491E-02 0.60598E-02 0.10593E-01 0.14807E-01
 0.81208E-02 0.81607E-02 0.66989E-02 0.43869E-02 0.23626E-02 0.12184E-02 0.59323E-03 -.19719E-03 -.13108E-02 -.22943E-02
 -.27115E-02 -.25928E-02 -.22030E-02 -.15908E-02 -.58947E-03 0.81088E-03 0.23489E-02 0.38245E-02 0.53274E-02 0.69108E-02
 0.76242E-02 0.68010E-02 0.52309E-02 0.35665E-02 0.21756E-02 0.89814E-03 -.55302E-03 -.20042E-02 -.28048E-02 -.24852E-02
 -.13423E-02 -.24122E-03 0.18256E-03 0.62302E-04 0.68466E-04 0.76221E-03 0.22181E-02 0.41194E-02 0.59917E-02 0.73124E-02
 0.53680E-02 0.40851E-02 0.29777E-02 0.20613E-02 0.10790E-02 -.86773E-04 -.12056E-02 -.18403E-02 -.16775E-02 -.79105E-03
 0.33932E-03 0.10901E-02 0.11204E-02 0.68155E-03 0.51114E-03 0.12890E-02 0.30451E-02 0.50461E-02 0.63124E-02 0.63349E-02
 0.28915E-02 0.18865E-02 0.12333E-02 0.77367E-03 0.50664E-03 0.57077E-03 0.88347E-03 0.10726E-02 0.88770E-03 0.52742E-03
 0.38598E-03 0.53854E-03 0.69499E-03 0.71785E-03 0.97184E-03 0.19303E-02 0.34636E-02 0.47418E-02 0.49698E-02 0.41292E-02
 0.18371E-02 0.10634E-02 0.48433E-03 0.46000E-03 0.12573E-02 0.25986E-02 0.36060E-02 0.34704E-02 0.22437E-02 0.83810E-03
 0.15568E-03 0.29511E-03 0.68325E-03 0.87110E-03 0.99670E-03 0.14357E-02 0.21972E-02 0.28473E-02 0.29758E-02 0.25573E-02
 0.15360E-02 0.71438E-03 0.27679E-03 0.71222E-03 0.19343E-02 0.33004E-02 0.40604E-02 0.38901E-02 0.30742E-02 0.22035E-02
 0.16778E-02 0.14532E-02 0.12181E-02 0.77966E-03 0.28646E-03 0.10143E-03 0.46157E-03 0.12262E-02 0.19228E-02 0.20673E-02
 0.72374E-03 0.33055E-03 0.42935E-03 0.95034E-03 0.16348E-02 0.24194E-02 0.33750E-02 0.43326E-02 0.48069E-02 0.44230E-02
 0.33324E-02 0.20749E-02 0.10598E-02 0.32001E-03 -.21578E-03 -.41006E-03 -.64396E-04 0.66787E-03 0.12398E-02 0.12130E-02
 0.89475E-07 0.59683E-03 0.12227E-02 0.15348E-02 0.17290E-02 0.24121E-02 0.38000E-02 0.52011E-02 0.55366E-02 0.44105E-02
 0.25263E-02 0.99044E-03 0.32290E-03 0.23632E-03 0.22946E-03 0.13458E-03 0.46035E-04 -.21114E-04 -.14373E-03 -.22621E-03
 0.25810E-03 0.14199E-02 0.22772E-02 0.27488E-02 0.31286E-02 0.36940E-02 0.42782E-02 0.43260E-02 0.34525E-02 0.19241E-02
 0.52110E-03 -.10639E-03 0.55552E-04 0.47390E-03 0.57781E-03 0.16892E-03 -.54553E-03 -.11628E-02 -.13052E-02 -.78819E-03
 0.46724E-03 0.13947E-02 0.24948E-02 0.35844E-02 0.41998E-02 0.39905E-02 0.30826E-02 0.19737E-02 0.10921E-02 0.52823E-03
 0.17122E-03 -.41678E-04 -.11748E-03 -.17193E-03 -.41982E-03 -.91842E-03 -.14053E-02 -.15052E-02 -.10925E-02 -.36171E-03
 -.43001E-03 0.16936E-03 0.15322E-02 0.29345E-02 0.33958E-02 0.27020E-02 0.16357E-02 0.11199E-02 0.12673E-02 0.13989E-02
 0.89968E-03 -.15074E-03 -.12058E-02 -.18668E-02 -.20976E-02 -.19730E-02 -.15209E-02 -.89705E-03 -.46352E-03 -.42415E-03
 -.11450E-02 -.70676E-03 0.33957E-03 0.13518E-02 0.17744E-02 0.16924E-02 0.16290E-02 0.18503E-02 0.20156E-02 0.15619E-02
 0.33611E-03 -.12364E-02 -.25360E-02 -.31772E-02 -.30943E-02 -.24273E-02 -.14893E-02 -.75062E-03 -.59057E-03 -.91865E-03
 -.19819E-03 -.25807E-03 -.14617E-03 0.30990E-03 0.97891E-03 0.14965E-02 0.15585E-02 0.11515E-02 0.49042E-03 -.23988E-03
 -.10297E-02 -.19255E-02 -.28244E-02 -.34505E-02 -.35497E-02 -.30869E-02 -.22596E-02 -.13609E-02 -.64580E-03 -.26183E-03
 0.12302E-02 0.54794E-03 0.49124E-04 0.26759E-03 0.81506E-03 0.84438E-03 0.40731E-04 -.10186E-02 -.15425E-02 -.14101E-02
 -.12396E-02 -.16491E-02 -.26273E-02 -.36445E-02 -.41796E-02 -.39957E-02 -.30617E-02 -.15240E-02 0.14301E-03 0.12096E-02
 0.13152E-02 0.84700E-03 0.59276E-03 0.68453E-03 0.64530E-03 0.62551E-04 -.81369E-03 -.13161E-02 -.11611E-02 -.81891E-03
 -.10105E-02 -.19492E-02 -.31831E-02 -.40869E-02 -.43251E-02 -.38472E-02 -.27009E-02 -.10883E-02 0.47194E-03 0.13433E-02
 0.87650E-03 0.13681E-02 0.15247E-02 0.13604E-02 0.10532E-02 0.81996E-03 0.73130E-03 0.61276E-03 0.15260E-03 -.82559E-03
 -.21448E-02 -.33270E-02 -.39048E-02 -.37380E-02 -.30669E-02 -.22784E-02 -.16134E-02 -.10604E-02 -.48028E-03 0.19636E-03
 0.19087E-02 0.28621E-02 0.28830E-02 0.24610E-02 0.22820E-02 0.24190E-02 0.22836E-02 0.13167E-02 -.40988E-03 -.22730E-02
 -.36097E-02 -.40671E-02 -.36218E-02 -.25337E-02 -.13428E-02 -.66966E-03 -.73470E-03 -.10501E-02 -.78978E-03 0.38325E-03
 0.42237E-02 0.47829E-02 0.43846E-02 0.36468E-02 0.30460E-02 0.24347E-02 0.14051E-02 -.80066E-04 -.16025E-02 -.27423E-02
 -.33820E-02 -.35283E-02 -.30866E-02 -.20463E-02 -.80067E-03 0.29567E-04 0.24706E-03 0.39871E-03 0.12207E-02 0.27597E-02
 0.61798E-02 0.64285E-02 0.57546E-02 0.43467E-02 0.26227E-02 0.10347E-02 -.85617E-04 -.67488E-03 -.10072E-02 -.15127E-02
 -.23712E-02 -.32442E-02 -.34939E-02 -.27502E-02 -.12605E-02 0.35503E-03 0.16787E-02 0.27797E-02 0.39428E-02 0.51974E-02
 0.73787E-02 0.77230E-02 0.67273E-02 0.45457E-02 0.21529E-02 0.59494E-03 0.14583E-03 0.19109E-03 -.11461E-03 -.11143E-02
 -.24730E-02 -.35343E-02 -.37594E-02 -.29505E-02 -.12904E-02 0.73449E-03 0.25772E-02 0.39817E-02 0.51250E-02 0.62978E-02
 -.18927E-01 -.16530E-01 -.12394E-01 -.76483E-02 -.31018E-02 0.18289E-03 0.88569E-03 -.15411E-02 -.59350E-02 -.98931E-02
 -.11395E-01 -.10024E-01 -.67926E-02 -.31976E-02 -.64358E-03 -.36943E-03 -.31316E-02 -.84503E-02 -.14340E-01 -.18305E-01
 -.17258E-01 -.14183E-01 -.94515E-02 -.43756E-02 -.52237E-03 0.56918E-03 -.17704E-02 -.65227E-02 -.11220E-01 -.13408E-01
 -.12187E-01 -.85377E-02 -.43588E-02 -.13052E-02 -.34276E-03 -.18560E-02 -.56380E-02 -.10671E-01 -.15246E-01 -.17706E-01
 -.14206E-01 -.10908E-01 -.60751E-02 -.18349E-02 -.30860E-03 -.25154E-02 -.78146E-02 -.14126E-01 -.18805E-01 -.19832E-01
 -.16803E-01 -.11147E-01 -.53359E-02 -.15502E-02 -.70106E-03 -.24155E-02 -.57077E-02 -.95577E-02 -.12970E-01 -.14840E-01
 -.96856E-02 -.63260E-02 -.26189E-02 -.90576E-03 -.27282E-02 -.81529E-02 -.15929E-01 -.23865E-01 -.29241E-01 -.29716E-01
 -.24722E-01 -.16227E-01 -.77941E-02 -.23876E-02 -.80178E-03 -.19738E-02 -.44578E-02 -.73240E-02 -.98351E-02 -.10935E-01
 -.38766E-02 -.15833E-02 -.57444E-03 -.24702E-02 -.80606E-02 -.17009E-01 -.27726E-01 -.37331E-01 -.42305E-01 -.40179E-01
 -.31348E-01 -.19297E-01 -.86176E-02 -.23028E-02 -.51997E-03 -.15511E-02 -.35345E-02 -.53201E-02 -.62261E-02 -.57450E-02
 0.54256E-03 0.69566E-03 -.14957E-02 -.72884E-02 -.17251E-01 -.30294E-01 -.43275E-01 -.51901E-01 -.52741E-01 -.45182E-01
 -.31958E-01 -.17759E-01 -.68414E-02 -.11508E-02 -.15241E-04 -.12434E-02 -.26451E-02 -.30047E-02 -.21921E-02 -.74335E-03
 0.14021E-02 -.50429E-04 -.48502E-02 -.14519E-01 -.28820E-01 -.44572E-01 -.56605E-01 -.60491E-01 -.54987E-01 -.42419E-01
 -.27119E-01 -.13362E-01 -.39544E-02 0.32996E-03 0.63761E-03 -.74478E-03 -.16964E-02 -.13445E-02 -.11940E-03 0.10617E-02
 0.16312E-03 -.17164E-02 -.85402E-02 -.21279E-01 -.37749E-01 -.52784E-01 -.60880E-01 -.59336E-01 -.49425E-01 -.35038E-01
 -.20422E-01 -.87168E-02 -.15534E-02 0.96125E-03 0.14365E-03 -.18710E-02 -.32390E-02 -.32264E-02 -.21045E-02 -.59956E-03
 -.89517E-03 -.30530E-02 -.11230E-01 -.24688E-01 -.39797E-01 -.51412E-01 -.55411E-01 -.50714E-01 -.39490E-01 -.25712E-01
 -.13272E-01 -.47589E-02 -.10797E-02 -.16219E-02 -.46759E-02 -.80854E-02 -.10001E-01 -.94655E-02 -.66746E-02 -.30171E-02
 -.20818E-02 -.47142E-02 -.12668E-01 -.23953E-01 -.35253E-01 -.42825E-01 -.43802E-01 -.37601E-01 -.26503E-01 -.14692E-01
 -.61804E-02 -.30514E-02 -.50484E-02 -.10318E-01 -.16349E-01 -.20617E-01 -.21186E-01 -.17524E-01 -.11072E-01 -.48499E-02
 -.38981E-02 -.62453E-02 -.12301E-01 -.20012E-01 -.27022E-01 -.30693E-01 -.28950E-01 -.21844E-01 -.12266E-01 -.46703E-02
 -.25654E-02 -.67822E-02 -.15546E-01 -.25664E-01 -.33656E-01 -.36619E-01 -.33236E-01 -.24696E-01 -.14495E-01 -.67116E-02
 -.41917E-02 -.55153E-02 -.95246E-02 -.14134E-01 -.17376E-01 -.17547E-01 -.13963E-01 -.78651E-02 -.23594E-02 -.10238E-02
 -.60379E-02 -.17056E-01 -.31275E-01 -.44392E-01 -.52032E-01 -.51436E-01 -.42831E-01 -.29556E-01 -.16476E-01 -.75424E-02
 -.13851E-02 -.23233E-02 -.52991E-02 -.77750E-02 -.82783E-02 -.66385E-02 -.37099E-02 -.10434E-02 -.71212E-03 -.49534E-02
 -.15192E-01 -.30692E-01 -.47889E-01 -.61374E-01 -.66330E-01 -.60962E-01 -.47362E-01 -.30337E-01 -.15095E-01 -.51534E-02
 0.19133E-02 0.46561E-03 -.19018E-02 -.29159E-02 -.22829E-02 -.10464E-02 -.31129E-03 -.88678E-03 -.40167E-02 -.11680E-01
 -.25227E-01 -.43233E-01 -.60875E-01 -.71982E-01 -.72380E-01 -.62019E-01 -.44618E-01 -.25637E-01 -.10060E-01 -.82527E-03
 0.21576E-02 0.55947E-03 -.92374E-03 -.11748E-02 -.58601E-03 -.27372E-04 -.14075E-03 -.17865E-02 -.67489E-02 -.17109E-01
 -.33146E-01 -.51666E-01 -.66761E-01 -.72846E-01 -.67707E-01 -.53400E-01 -.34821E-01 -.17336E-01 -.48419E-02 0.12681E-02
 -.45506E-03 -.16324E-02 -.25258E-02 -.25751E-02 -.16558E-02 -.16921E-03 0.64270E-03 -.13347E-02 -.83124E-02 -.21090E-01
 -.37729E-01 -.53602E-01 -.63243E-01 -.63093E-01 -.53378E-01 -.37897E-01 -.21908E-01 -.95898E-02 -.25841E-02 -.16648E-03
 -.38114E-02 -.51871E-02 -.61581E-02 -.57369E-02 -.34392E-02 -.32569E-03 0.10767E-02 -.18655E-02 -.10295E-01 -.23059E-01
 -.36917E-01 -.47536E-01 -.51112E-01 -.46215E-01 -.34824E-01 -.21451E-01 -.10621E-01 -.44912E-02 -.24567E-02 -.26891E-02
 -.78577E-02 -.99550E-02 -.10616E-01 -.89532E-02 -.52910E-02 -.15934E-02 -.46669E-03 -.35973E-02 -.10897E-01 -.20633E-01
 -.29970E-01 -.35692E-01 -.35367E-01 -.28809E-01 -.18651E-01 -.90406E-02 -.31512E-02 -.15746E-02 -.28605E-02 -.52809E-02
 -.13141E-01 -.14744E-01 -.13850E-01 -.10755E-01 -.65992E-02 -.30399E-02 -.16481E-02 -.33532E-02 -.80884E-02 -.14612E-01
 -.20633E-01 -.23555E-01 -.21777E-01 -.15803E-01 -.81816E-02 -.21111E-02 0.30333E-03 -.11034E-02 -.49898E-02 -.95283E-02
 -.17669E-01 -.17184E-01 -.14313E-01 -.10234E-01 -.59033E-02 -.22082E-02 -.28769E-03 -.11849E-02 -.49175E-02 -.99747E-02
 -.13958E-01 -.14946E-01 -.12507E-01 -.77705E-02 -.27951E-02 0.24295E-03 -.13496E-03 -.39952E-02 -.97783E-02 -.15011E-01
 -.81720E-02 -.64092E-02 -.47061E-02 -.34529E-02 -.21302E-02 -.42773E-03 0.11585E-02 0.20007E-02 0.21970E-02 0.23420E-02
 0.25810E-02 0.23770E-02 0.13737E-02 0.82921E-04 -.71435E-03 -.11228E-02 -.21759E-02 -.44955E-02 -.72265E-02 -.87094E-02
 -.72009E-02 -.57150E-02 -.39151E-02 -.21331E-02 -.62007E-03 0.24272E-03 0.26310E-03 -.96711E-04 0.50912E-04 0.11000E-02
 0.23999E-02 0.28533E-02 0.20461E-02 0.58092E-03 -.74953E-03 -.18740E-02 -.33116E-02 -.52441E-02 -.70339E-02 -.77850E-02
 -.65627E-02 -.53449E-02 -.31957E-02 -.12841E-02 -.47732E-03 -.71657E-03 -.12317E-02 -.12678E-02 -.60593E-03 0.44908E-03
 0.13842E-02 0.17634E-02 0.13994E-02 0.44330E-03 -.69641E-03 -.16739E-02 -.25288E-02 -.36063E-02 -.50357E-02 -.63131E-02
 -.51377E-02 -.35978E-02 -.16860E-02 -.68171E-03 -.70902E-03 -.93123E-03 -.79771E-03 -.64816E-03 -.98605E-03 -.15753E-02
 -.16726E-02 -.10489E-02 -.34175E-03 -.24261E-03 -.67256E-03 -.10906E-02 -.14357E-02 -.22632E-02 -.37813E-02 -.51407E-02
 -.19946E-02 -.88404E-03 -.33171E-03 -.48699E-03 -.71603E-03 -.57503E-03 -.54209E-03 -.14267E-02 -.31445E-02 -.44912E-02
 -.43388E-02 -.28488E-02 -.12566E-02 -.56242E-03 -.73297E-03 -.11894E-02 -.16685E-02 -.22676E-02 -.28347E-02 -.28283E-02
 0.48492E-03 0.23127E-03 -.44685E-03 -.11370E-02 -.16687E-02 -.22304E-02 -.30972E-02 -.42171E-02 -.50803E-02 -.50556E-02
 -.39356E-02 -.22019E-02 -.74609E-03 -.25756E-03 -.76233E-03 -.16542E-02 -.21573E-02 -.18552E-02 -.92548E-03 0.42851E-04
 0.29332E-03 -.48782E-03 -.12261E-02 -.22571E-02 -.38506E-02 -.54973E-02 -.62467E-02 -.57136E-02 -.44425E-02 -.31921E-02
 -.21437E-02 -.10656E-02 -.64256E-04 0.28169E-03 -.29971E-03 -.11697E-02 -.13179E-02 -.48652E-03 0.53414E-03 0.82394E-03
 -.56109E-03 -.58623E-03 -.10628E-02 -.27300E-02 -.51829E-02 -.68975E-02 -.67066E-02 -.50224E-02 -.33059E-02 -.24421E-02
 -.20065E-02 -.11841E-02 0.10397E-04 0.79547E-03 0.72655E-03 0.25664E-03 0.55931E-04 0.14682E-03 0.65707E-04 -.30375E-03
 0.10813E-03 0.38299E-03 -.35557E-03 -.21779E-02 -.42609E-02 -.55175E-02 -.55202E-02 -.47555E-02 -.39729E-02 -.34012E-02
 -.26858E-02 -.15038E-02 -.58687E-04 0.10777E-02 0.14880E-02 0.11855E-02 0.47953E-03 -.24688E-03 -.63126E-03 -.45312E-03
 0.62509E-03 0.12150E-03 -.62772E-03 -.14856E-02 -.25948E-02 -.39372E-02 -.49824E-02 -.50623E-02 -.40939E-02 -.27110E-02
 -.15890E-02 -.80266E-03 -.94699E-05 0.85595E-03 0.13626E-02 0.11504E-02 0.50021E-03 0.97870E-04 0.26362E-03 0.62725E-03
 -.79962E-03 -.16953E-02 -.16897E-02 -.14436E-02 -.19851E-02 -.32863E-02 -.40793E-02 -.32896E-02 -.13545E-02 0.22493E-03
 0.53729E-03 0.94034E-04 -.42202E-04 0.44411E-03 0.10158E-02 0.12342E-02 0.12835E-02 0.14146E-02 0.13180E-02 0.50716E-03
 -.19027E-02 -.23561E-02 -.20203E-02 -.16771E-02 -.18447E-02 -.21046E-02 -.16123E-02 -.21107E-03 0.12351E-02 0.17276E-02
 0.11793E-02 0.41210E-03 0.22247E-03 0.68230E-03 0.13542E-02 0.18802E-02 0.21197E-02 0.18807E-02 0.92904E-03 -.57424E-03
 -.29846E-03 -.85182E-03 -.13460E-02 -.14287E-02 -.99525E-03 -.34357E-03 0.12655E-03 0.29808E-03 0.35907E-03 0.50374E-03
 0.73466E-03 0.97731E-03 0.12575E-02 0.16373E-02 0.20087E-02 0.20975E-02 0.17471E-02 0.11242E-02 0.54599E-03 0.12572E-03
 0.18018E-02 0.44995E-03 -.73318E-03 -.76938E-03 -.51315E-04 0.18107E-03 -.59770E-03 -.15502E-02 -.15000E-02 -.28419E-03
 0.11973E-02 0.20962E-02 0.23633E-02 0.23421E-02 0.20789E-02 0.14408E-02 0.73500E-03 0.65992E-03 0.14034E-02 0.21314E-02
 0.12309E-02 -.28989E-04 -.72970E-03 -.49830E-03 -.10803E-03 -.41879E-03 -.12358E-02 -.15291E-02 -.68428E-03 0.81335E-03
 0.20174E-02 0.25214E-02 0.25650E-02 0.23650E-02 0.18104E-02 0.94611E-03 0.35593E-03 0.62895E-03 0.14972E-02 0.19194E-02
 -.92689E-03 -.11354E-02 -.12901E-02 -.12240E-02 -.86649E-03 -.29767E-03 0.30884E-03 0.79216E-03 0.10954E-02 0.12961E-02
 0.15427E-02 0.19133E-02 0.22973E-02 0.24316E-02 0.21012E-02 0.13428E-02 0.44966E-03 -.24562E-03 -.61381E-03 -.77535E-03
 -.20919E-02 -.21580E-02 -.27424E-02 -.28539E-02 -.17191E-02 0.16088E-03 0.14534E-02 0.14267E-02 0.66254E-03 0.29128E-03
 0.78859E-03 0.17258E-02 0.24886E-02 0.28380E-02 0.27128E-02 0.19048E-02 0.33400E-03 -.14580E-02 -.25382E-02 -.25292E-02
 -.30100E-02 -.40324E-02 -.49553E-02 -.46232E-02 -.28938E-02 -.97051E-03 -.10377E-03 -.24965E-03 -.31055E-03 0.45260E-03
 0.16527E-02 0.24692E-02 0.26789E-02 0.26421E-02 0.24744E-02 0.17692E-02 0.31397E-03 -.13131E-02 -.22895E-02 -.25869E-02
 -.54256E-02 -.64029E-02 -.64193E-02 -.54806E-02 -.40801E-02 -.27736E-02 -.16623E-02 -.42503E-03 0.11008E-02 0.25093E-02
 0.31440E-02 0.28010E-02 0.19769E-02 0.13608E-02 0.11659E-02 0.10281E-02 0.47527E-03 -.64633E-03 -.21809E-02 -.38762E-02
 -.78851E-02 -.72596E-02 -.60050E-02 -.49032E-02 -.38909E-02 -.24500E-02 -.45399E-03 0.15836E-02 0.30101E-02 0.35411E-02
 0.32506E-02 0.23352E-02 0.11182E-02 0.13827E-03 -.15532E-03 0.19213E-04 -.28586E-03 -.19033E-02 -.45699E-02 -.69684E-02
 0.19117E-01 0.19032E-01 0.15143E-01 0.89369E-02 0.33941E-02 0.75111E-03 0.12216E-02 0.36902E-02 0.69794E-02 0.10063E-01
 0.11592E-01 0.10262E-01 0.61879E-02 0.15102E-02 -.99445E-03 -.86332E-04 0.33323E-02 0.76539E-02 0.12049E-01 0.16208E-01
 0.18045E-01 0.15723E-01 0.11021E-01 0.57971E-02 0.20116E-02 0.65490E-03 0.16880E-02 0.46133E-02 0.86362E-02 0.12309E-01
 0.13687E-01 0.11557E-01 0.67363E-02 0.18629E-02 -.41319E-03 0.83865E-03 0.47011E-02 0.95800E-02 0.14148E-01 0.17325E-01