unknown system                          
   1.00000000000000     
     2.573869    0.000000    0.000000
     1.286934    2.229036    0.000000
     0.000000    0.000000   30.304665
   Cu   H 
     4     1
Direct
  0.999706  0.000588  0.396567
  0.333186  0.333624  0.465140
  0.665829  0.668343  0.533594
  0.000801  0.998398  0.604216
  0.500476  0.999044  0.634203
 
   20   20  240
 -.18895872084E-01 -.17554525906E-01 -.13536922756E-01 -.81349460173E-02 -.31371426439E-02
 -.99008114574E-04 0.20045341779E-03 -.20715200764E-02 -.58808891641E-02 -.95722057449E-02
 -.11401975706E-01 -.10364770896E-01 -.68738238548E-02 -.26851130466E-02 0.44272939078E-04
 -.76325896487E-04 -.30966682533E-02 -.79735431874E-02 -.13190223895E-01 -.17236833114E-01
 -.17505712744E-01 -.14678440352E-01 -.96684686647E-02 -.42059384524E-02 -.35355390040E-03
 0.42002730515E-03 -.20647960625E-02 -.65784788604E-02 -.10997648826E-01 -.13259408778E-01
 -.12344739023E-01 -.87791603584E-02 -.43231644304E-02 -.10146034652E-02 -.17956364842E-03
 -.20113228568E-02 -.58081420455E-02 -.10455796657E-01 -.14730654547E-01 -.17413321418E-01
 -.13618696844E-01 -.10130812893E-01 -.54748426164E-02 -.14435369507E-02 0.54655724057E-04
 -.21147179244E-02 -.75123960977E-02 -.14034810074E-01 -.18837381631E-01 -.19829901119E-01
 -.16772060671E-01 -.11247047116E-01 -.56422196066E-02 -.19383798080E-02 -.10413455461E-02
 -.27905741940E-02 -.63053246533E-02 -.10335155269E-01 -.13548322082E-01 -.14832998679E-01
 -.86690590875E-02 -.57440801456E-02 -.27172739936E-02 -.10863313645E-02 -.24632698511E-02
 -.76803310978E-02 -.15831720924E-01 -.24200950135E-01 -.29467879385E-01 -.29485376187E-01
 -.24382465906E-01 -.16318034401E-01 -.82526333730E-02 -.26307601482E-02 -.59825239751E-03
 -.18602224496E-02 -.50375127276E-02 -.83498068460E-02 -.10360641204E-01 -.10424816075E-01
 -.39152428110E-02 -.22580573612E-02 -.14803249876E-02 -.29495154249E-02 -.80223815911E-02
 -.16974197347E-01 -.28063502755E-01 -.37754746230E-01 -.42302292537E-01 -.39750469697E-01
 -.31006120053E-01 -.19323886921E-01 -.86396868570E-02 -.18020470513E-02 0.40436104322E-03
 -.86852490486E-03 -.35006880591E-02 -.55955203985E-02 -.62347051027E-02 -.54836183741E-02
 -.15608023148E-03 0.13977115026E-03 -.18016087266E-02 -.74025214275E-02 -.17306934087E-01
 -.30377330916E-01 -.43372280339E-01 -.51943662954E-01 -.52693959863E-01 -.45086284323E-01
 -.31878574367E-01 -.17703800404E-01 -.67195001008E-02 -.83382789518E-03 0.54757574699E-03
 -.54437403062E-03 -.20545461067E-02 -.27733484043E-02 -.24261327026E-02 -.13366615734E-02
 0.17527864239E-02 0.73024120770E-03 -.43214242352E-02 -.14456425196E-01 -.28815175506E-01
 -.44275946716E-01 -.56238480877E-01 -.60495567187E-01 -.55360651224E-01 -.42718434320E-01
 -.27126609307E-01 -.13431348110E-01 -.44918397309E-02 -.45780188864E-03 0.28455404333E-03
 -.37820371655E-03 -.11498044336E-02 -.13427427544E-02 -.66272409566E-03 0.69685973914E-03
 0.12711530893E-02 -.85429594197E-03 -.84314881308E-02 -.21545841829E-01 -.37690525716E-01
 -.52323202316E-01 -.60605803896E-01 -.59625520472E-01 -.49891703136E-01 -.35093502265E-01
 -.20153856921E-01 -.88336375048E-02 -.24335576842E-02 -.16670251514E-03 -.43281986120E-03
 -.17801884530E-02 -.30762822366E-02 -.33832126446E-02 -.21969468742E-02 -.35727425256E-04
 -.87279948809E-03 -.34147141663E-02 -.11797990038E-01 -.25081637837E-01 -.39832410052E-01
 -.51284087548E-01 -.55413576887E-01 -.50845975033E-01 -.39455628136E-01 -.25313350598E-01
 -.12698390947E-01 -.44005290221E-02 -.11208144710E-02 -.18962398973E-02 -.49127687137E-02
 -.81806217121E-02 -.99965821727E-02 -.93698421094E-02 -.64555077339E-02 -.27694707157E-02
 -.30050822636E-02 -.51971114924E-02 -.12775974426E-01 -.24063024176E-01 -.35493891870E-01
 -.42962834501E-01 -.43662345736E-01 -.37354903974E-01 -.26385253851E-01 -.14576343092E-01
 -.56944985209E-02 -.21316946989E-02 -.41676592861E-02 -.99940197645E-02 -.16535557654E-01
 -.20784087463E-01 -.21020345456E-01 -.17341923875E-01 -.11403856388E-01 -.57385224127E-02
 -.38924315094E-02 -.55539035088E-02 -.11696447628E-01 -.20040158973E-01 -.27357101067E-01
 -.30694118560E-01 -.28612439526E-01 -.21805256145E-01 -.12862271615E-01 -.53611078485E-02
 -.25719968354E-02 -.60909497399E-02 -.14924193646E-01 -.25667310298E-01 -.33976033534E-01
 -.36625037064E-01 -.32918526875E-01 -.24678084498E-01 -.15097607189E-01 -.73931227919E-02
 -.32735681652E-02 -.46558963108E-02 -.92293929906E-02 -.14342923728E-01 -.17550493499E-01
 -.17370911636E-01 -.13755289786E-01 -.81649020896E-02 -.32254174796E-02 -.19426575828E-02
 -.65315875468E-02 -.17177102736E-01 -.31393173556E-01 -.44635549690E-01 -.52172620105E-01
 -.51297134065E-01 -.42575119859E-01 -.29412757339E-01 -.16328882130E-01 -.70357099399E-02
 -.14276874048E-02 -.25948231001E-02 -.55326047116E-02 -.78687038802E-02 -.82723501673E-02
 -.65400854994E-02 -.34864433518E-02 -.79043576691E-03 -.68315590860E-03 -.53087753806E-02
 -.15760714959E-01 -.31098983778E-01 -.47946968437E-01 -.61262777524E-01 -.66326042146E-01
 -.61063880322E-01 -.47289741207E-01 -.29913441621E-01 -.14514097956E-01 -.47978993776E-02
 0.80454090892E-03 -.76942836351E-04 -.17803990228E-02 -.27393820747E-02 -.24464414003E-02
 -.11611517308E-02 0.22689620556E-03 0.20678049560E-03 -.31500096397E-02 -.11553758942E-01
 -.25478575944E-01 -.43172104899E-01 -.60418213060E-01 -.71702563250E-01 -.72649676420E-01
 -.62465241859E-01 -.44671050297E-01 -.25386756729E-01 -.10199418307E-01 -.17112251517E-02
 0.18214359881E-02 0.95555186252E-03 -.35163124997E-03 -.11674403946E-02 -.11447185695E-02
 -.41446752272E-03 0.19669238641E-03 -.10052379846E-02 -.62108912657E-02 -.17032758733E-01
 -.33122982797E-01 -.51346136134E-01 -.66372088413E-01 -.72839966394E-01 -.68086552788E-01
 -.53718942521E-01 -.34852348659E-01 -.17426970131E-01 -.53941364706E-02 0.47914611454E-03
 0.23050202029E-03 -.10489922436E-02 -.22909524405E-02 -.27977839178E-02 -.22347793059E-02
 -.85501728657E-03 0.93526748074E-04 -.16433657283E-02 -.84357293952E-02 -.21150614049E-01
 -.37804478530E-01 -.53680969968E-01 -.63272635113E-01 -.63049447884E-01 -.53297371219E-01
 -.37829714573E-01 -.21852151532E-01 -.94607218620E-02 -.22655178836E-02 0.38704086148E-03
 -.38159480569E-02 -.54851207053E-02 -.61572700104E-02 -.54413092192E-02 -.34421892561E-02
 -.98378110079E-03 0.16298896375E-03 -.23687691079E-02 -.10283614545E-01 -.23043129010E-01
 -.37262002579E-01 -.47957618591E-01 -.51104015902E-01 -.45783410858E-01 -.34475793365E-01
 -.21462870663E-01 -.10618187424E-01 -.39685135097E-02 -.15318781935E-02 -.20333876022E-02
 -.88969455950E-02 -.10480491142E-01 -.10094269389E-01 -.79237197701E-02 -.47038543909E-02
 -.16970505211E-02 -.66088331462E-03 -.33508142273E-02 -.10443554399E-01 -.20548574005E-01
 -.30310262900E-01 -.35914662403E-01 -.35127247879E-01 -.28459956891E-01 -.18731507595E-01
 -.94862459303E-02 -.33825296703E-02 -.13680593757E-02 -.27572087371E-02 -.58786896051E-02
 -.13701068309E-01 -.14735325174E-01 -.13283731816E-01 -.10010433492E-01 -.60230228621E-02
 -.26513908607E-02 -.12709279851E-02 -.29373376298E-02 -.77806656196E-02 -.14521825164E-01
 -.20663889952E-01 -.23543859585E-01 -.21736046678E-01 -.15903311122E-01 -.85019147123E-02
 -.25230211625E-02 -.59189899758E-04 -.14881410486E-02 -.55795289028E-02 -.10285341500E-01
 -.17365272027E-01 -.17445010429E-01 -.14843362265E-01 -.10486640645E-01 -.57480919720E-02
 -.20239984932E-02 -.40493560758E-03 -.14538372895E-02 -.49662856724E-02 -.97554383897E-02
 -.13807704147E-01 -.15093962521E-01 -.12743913113E-01 -.77489263853E-02 -.25374696255E-02
 0.37052952385E-03 -.30938170667E-03 -.41595707949E-02 -.95394728473E-02 -.14469033561E-01
 -.76673607435E-02 -.69929050458E-02 -.54969949115E-02 -.37215775009E-02 -.20893722217E-02
 -.72284043370E-03 0.48251828852E-03 0.16291806759E-02 0.26345595791E-02 0.32448245713E-02
 0.32337374326E-02 0.26159384803E-02 0.16759725569E-02 0.75954338097E-03 -.11196697500E-04
 -.84192614185E-03 -.20687781268E-02 -.38036014291E-02 -.57230430674E-02 -.71965944697E-02
 -.70006108290E-02 -.58253964003E-02 -.38598784093E-02 -.18291106552E-02 -.42946234373E-03
 0.91766353364E-04 0.73928905884E-04 0.17198000595E-03 0.84405574099E-03 0.19789361639E-02
 0.29686436545E-02 0.31758032122E-02 0.24041396482E-02 0.98066826943E-03 -.58306892845E-03
 -.20059349913E-02 -.33478517710E-02 -.47557039413E-02 -.61293547772E-02 -.70424671267E-02
 -.56067093046E-02 -.42826704820E-02 -.24298564982E-02 -.83763400534E-03 -.93568249866E-04
 -.19387865635E-03 -.56025196127E-03 -.48150032427E-03 0.33511431832E-03 0.15327923892E-02
 0.23847363552E-02 0.23528012261E-02 0.14585549811E-02 0.17598008195E-03 -.10151238345E-02
 -.19920449969E-02 -.29594948927E-02 -.40983264814E-02 -.52456072092E-02 -.59077250471E-02
 -.38718666697E-02 -.28553848992E-02 -.17173039292E-02 -.82638431056E-03 -.30040124920E-03
 -.27982170486E-04 0.15507355099E-03 0.30376319609E-03 0.34921434053E-03 0.21858417036E-03
 -.44385271543E-04 -.28449125776E-03 -.37086708294E-03 -.34419265939E-03 -.43505031127E-03
 -.91197311187E-03 -.18575917746E-02 -.30425368776E-02 -.40098464750E-02 -.43324269521E-02
 -.19178044862E-02 -.15121777668E-02 -.12126487890E-02 -.83062529604E-03 -.23034852559E-03
 0.41402417779E-03 0.66226243793E-03 0.17096203629E-03 -.93287155255E-03 -.20357686999E-02
 -.24478486376E-02 -.19185779153E-02 -.83184877028E-03 0.72479434969E-04 0.21530037770E-03
 -.46164046415E-03 -.15218847182E-02 -.23733151988E-02 -.26518234418E-02 -.23948764133E-02
 -.20576818298E-03 -.33785815509E-03 -.67191174467E-03 -.86995442115E-03 -.80329247453E-03
 -.69219071085E-03 -.90020069604E-03 -.15496045060E-02 -.23216935880E-02 -.26614621913E-02
 -.22329780244E-02 -.12266371360E-02 -.24406878237E-03 0.14228483349E-03 -.20848285207E-03
 -.94392499878E-03 -.15071040360E-02 -.15327008404E-02 -.10683537466E-02 -.49180600206E-03
 0.60613102799E-03 0.29972590441E-03 -.45739260904E-03 -.14611716010E-02 -.23876338140E-02
 -.29440366213E-02 -.29946487226E-02 -.25946933968E-02 -.19336636690E-02 -.12394553396E-02
 -.69662198084E-03 -.40284079103E-03 -.36125787214E-03 -.49699317724E-03 -.68695597516E-03
 -.79577478861E-03 -.71586425405E-03 -.41152934784E-03 0.43330706163E-04 0.46219199621E-03
 0.53470324992E-03 0.37247367602E-03 -.49934248013E-03 -.19115669180E-02 -.32376560365E-02
 -.37935159011E-02 -.33288883696E-02 -.22096886936E-02 -.11335719874E-02 -.61376062440E-03
 -.65296266764E-03 -.84546289302E-03 -.77403594028E-03 -.34732988440E-03 0.17943329109E-03
 0.46950628851E-03 0.40524219245E-03 0.17681421215E-03 0.96441704216E-04 0.29189369393E-03
 0.19281294420E-03 0.23169503142E-03 -.28408725854E-03 -.12644580132E-02 -.22455018575E-02
 -.27516681024E-02 -.26610227816E-02 -.22486918657E-02 -.18859875272E-02 -.16935640566E-02
 -.14697152000E-02 -.93439498098E-03 -.39824063172E-04 0.93231835165E-03 0.15544372065E-02
 0.15555026108E-02 0.10150046875E-02 0.31772296004E-03 -.10310778238E-03 -.71453566708E-04
 -.15758821547E-03 -.72612674156E-04 -.22729106210E-04 -.28719667948E-03 -.94935141645E-03
 -.18334191714E-02 -.26010537629E-02 -.29294861863E-02 -.26648460311E-02 -.18787955666E-02
 -.81187217501E-03 0.25698471116E-03 0.11323691638E-02 0.17379923212E-02 0.20591450440E-02
 0.20723721268E-02 0.17533328764E-02 0.11607514685E-02 0.49042637728E-03 0.12424050979E-05
 -.61865059396E-03 -.71397468436E-03 -.44407807630E-03 -.38334588717E-03 -.86427404609E-03
 -.16906939205E-02 -.22870570900E-02 -.21641813147E-02 -.13094250695E-02 -.17569623235E-03
 0.70506351221E-03 0.11381613421E-02 0.13596382058E-02 0.17504799309E-02 0.24388762133E-02
 0.31354579165E-02 0.33374662381E-02 0.27346396406E-02 0.14919501752E-02 0.17866267767E-03
 -.84074750951E-03 -.12829689097E-02 -.12663128841E-02 -.11489609688E-02 -.11024002609E-02
 -.10102727426E-02 -.66548623451E-03 -.53890023217E-04 0.57742261745E-03 0.94820292050E-03
 0.10410867097E-02 0.11608695103E-02 0.16822206801E-02 0.27045049201E-02 0.39066867085E-02
 0.47133830941E-02 0.46424971630E-02 0.35995265023E-02 0.19430183906E-02 0.28759107796E-03
 -.27592912415E-03 -.10199320129E-02 -.13302432271E-02 -.11356398590E-02 -.54636947607E-03
 0.14562772915E-03 0.60150715985E-03 0.65158933956E-03 0.44883849509E-03 0.41292022096E-03
 0.95371952304E-03 0.21554568735E-02 0.36708620547E-02 0.49228522860E-02 0.54579235740E-02
 0.51771875434E-02 0.42974787007E-02 0.31334124273E-02 0.19119736208E-02 0.74628675293E-03
 0.68206193379E-03 -.74718348792E-04 -.51628737463E-03 -.44530305362E-03 -.68009908894E-04
 0.16082523288E-03 -.41239998389E-04 -.46522185428E-03 -.49901419942E-03 0.40881410657E-03
 0.22680027284E-02 0.44403103904E-02 0.60104769468E-02 0.63649393643E-02 0.55538325525E-02
 0.41867137639E-02 0.29676706826E-02 0.22333251000E-02 0.18288775467E-02 0.13766862080E-02
 0.85803506835E-03 0.36601220437E-03 -.11527656180E-03 -.43381972199E-03 -.62798306530E-03
 -.80926527586E-03 -.93277120280E-03 -.71869202213E-03 0.16271585456E-03 0.17870851160E-02
 0.38089184077E-02 0.55745075002E-02 0.64488546108E-02 0.61546986568E-02 0.49225025092E-02
 0.33577842272E-02 0.20930976249E-02 0.14361893920E-02 0.12513469410E-02 0.11549401098E-02
 -.23442067967E-03 -.49750522533E-03 -.97061632010E-03 -.13631113888E-02 -.13924932159E-02
 -.97624202996E-03 -.24542832426E-03 0.59597134411E-03 0.14437437759E-02 0.23561959561E-02
 0.34379029949E-02 0.46232002779E-02 0.55615481431E-02 0.57666330023E-02 0.49674983665E-02
 0.33789469841E-02 0.16280409995E-02 0.35733731991E-03 -.18293769440E-03 -.22858819443E-03
 -.19883623257E-02 -.22926207599E-02 -.25583213378E-02 -.23955258360E-02 -.16138018760E-02
 -.45240369093E-03 0.57469588080E-03 0.10988849563E-02 0.12253375028E-02 0.14694980415E-02
 0.23184596179E-02 0.37594487146E-02 0.51745568707E-02 0.57227692349E-02 0.49342761050E-02
 0.30581408123E-02 0.89360233677E-03 -.75591031690E-03 -.15777777572E-02 -.18296161388E-02
 -.38120770633E-02 -.42695874562E-02 -.41444780898E-02 -.33552109534E-02 -.21559954563E-02
 -.10092179484E-02 -.24717229820E-03 0.18706772869E-03 0.67451301171E-03 0.15698741912E-02
 0.28616029262E-02 0.41254795173E-02 0.47977958544E-02 0.45400155323E-02 0.34266122472E-02
 0.18539881152E-02 0.27329877487E-03 -.10535491980E-02 -.21190296645E-02 -.30337892871E-02
 -.56263380239E-02 -.60031402235E-02 -.54898717544E-02 -.44576049629E-02 -.33450066633E-02
 -.23304698798E-02 -.12496881725E-02 0.15325235541E-03 0.18547568700E-02 0.34168538283E-02
 0.42531453106E-02 0.40829424594E-02 0.31635044539E-02 0.20816492933E-02 0.12867459473E-02
 0.77014413959E-03 0.14498059937E-03 -.97299578252E-03 -.26084340948E-02 -.43568367554E-02
 -.71378615953E-02 -.70764294412E-02 -.61499106858E-02 -.48846033349E-02 -.36047974324E-02
 -.22453555848E-02 -.56398893635E-03 0.14452194284E-02 0.33295511206E-02 0.43929007125E-02
 0.42085534655E-02 0.29973865761E-02 0.15194343976E-02 0.53026177504E-03 0.23017930759E-03
 0.14975358717E-03 -.44192691081E-03 -.19369778822E-02 -.40604335711E-02 -.60433566772E-02
 0.19131491009E-01 0.17992902610E-01 0.13995565217E-01 0.84511960776E-02 0.33562142294E-02
 0.46004704237E-03 0.52757306727E-03 0.31592150357E-02 0.70409511495E-02 0.10392669010E-01
 0.11591161036E-01 0.99280090358E-02 0.61153560199E-02 0.20292259436E-02 -.30833590153E-03
 0.19772692815E-03 0.33589356726E-02 0.81281034737E-02 0.13196984662E-01 0.17266801004E-01
 0.17785633325E-01 0.15216967837E-01 0.10797508498E-01 0.59624818221E-02 0.21731986023E-02
 0.49505050612E-03 0.13846864125E-02 0.45557870007E-02 0.88634069533E-02 0.12462879061E-01
 0.13528441429E-01 0.11310000336E-01 0.67656428436E-02 0.21477635155E-02 -.25525780464E-03
 0.67859721653E-03 0.45280614448E-02 0.97932822487E-02 0.14660564634E-01 0.17609076793E-01
 0.13493407003E-01 0.10182141248E-01 0.62415477169E-02 0.28355385907E-02 0.11010339999E-02
 0.19712304123E-02 0.57105852128E-02 0.11409380490E-01 0.16990915987E-01 0.20030356777E-01
 0.19024009430E-01 0.14291297982E-01 0.78823627137E-02 0.25396616106E-02 0.35589602997E-03
 0.18720391187E-02 0.60103301875E-02 0.10754659843E-01 0.14146011501E-01 0.15069793710E-01
 0.80761091409E-02 0.49880087167E-02 0.21512358165E-02 0.92512605377E-03 0.27284846188E-02
 0.82408230575E-02 0.16487484406E-01 0.24762080684E-01 0.29807063569E-01 0.29562047005E-01
 0.24245287674E-01 0.16094809832E-01 0.81298515478E-02 0.28104475737E-02 0.12191253838E-02
 0.29026289658E-02 0.62757679272E-02 0.94159504511E-02 0.10914143522E-01 0.10332631267E-01
 0.37596851724E-02 0.14492472567E-02 0.28657428589E-03 0.22709510210E-02 0.88431746942E-02
 0.19524090810E-01 0.31387078236E-01 0.40168831059E-01 0.42506313870E-01 0.37750326765E-01
 0.28107702211E-01 0.17205908995E-01 0.82547188792E-02 0.29278805677E-02 0.12573951890E-02
 0.21614295912E-02 0.41378559458E-02 0.58502031621E-02 0.64629986389E-02 0.56946278949E-02
 0.11340106862E-02 -.34758912250E-04 0.12124997683E-02 0.69964328132E-02 0.17948461167E-01
 0.32130636181E-01 0.45333461385E-01 0.52904399876E-01 0.52110807359E-01 0.43525186104E-01
 0.30549424751E-01 0.17496512562E-01 0.75630059326E-02 0.18723082058E-02 -.18285704532E-03
 0.47893574163E-04 0.12774889940E-02 0.25404025599E-02 0.31212452795E-02 0.25885353131E-02
 -.22771420774E-03 0.28662707995E-03 0.44366544983E-02 0.13609162070E-01 0.27334491441E-01
 0.42769983830E-01 0.55357884162E-01 0.60667619539E-01 0.56603789129E-01 0.44623634640E-01
 0.29028995098E-01 0.14701253944E-01 0.48004059405E-02 -.11709141322E-03 -.13444982766E-02
 -.64464289849E-03 0.61873636662E-03 0.15665545338E-02 0.16506731881E-02 0.79631601619E-03
 -.17504066623E-03 0.22059973853E-02 0.89803138163E-02 0.20491145838E-01 0.35265760722E-01
 0.49849150733E-01 0.59660908300E-01 0.60920312844E-01 0.52740007799E-01 0.37917921853E-01
 0.21616619376E-01 0.86912145032E-02 0.14945998895E-02 -.49968038379E-03 0.54041940025E-03
 0.23702305662E-02 0.35173173560E-02 0.33692555142E-02 0.20443842086E-02 0.36974134930E-03
 0.13046560062E-02 0.47798043579E-02 0.13185540454E-01 0.25713617631E-01 0.39670382141E-01
 0.50969534609E-01 0.55597185840E-01 0.51536597364E-01 0.40011735080E-01 0.25086710048E-01
 0.11714674946E-01 0.34331759619E-02 0.10863579357E-02 0.31009217862E-02 0.67741050449E-02
 0.96232944539E-02 0.10201869962E-01 0.83380303245E-02 0.50034948393E-02 0.19683157145E-02
 0.27832979449E-02 0.61328507673E-02 0.14836086817E-01 0.26648966808E-01 0.37678891657E-01
 0.43928591971E-01 0.43091051778E-01 0.35576292656E-01 0.24214331353E-01 0.12924843172E-01
 0.51515588833E-02 0.27365943128E-02 0.54909027180E-02 0.11440338565E-01 0.17637518479E-01
 0.21307107960E-01 0.20903741332E-01 0.16644540530E-01 0.10354949049E-01 0.48022032693E-02
 0.27593363160E-02 0.52099759962E-02 0.12764972673E-01 0.22030944134E-01 0.28991434777E-01
 0.30905031372E-01 0.27400525472E-01 0.20233790663E-01 0.12200091895E-01 0.60938893264E-02
 0.40862191791E-02 0.72454380975E-02 0.14995202582E-01 0.24890797314E-01 0.33283377664E-01
 0.36828220634E-01 0.34020758871E-01 0.25867130433E-01 0.15431729454E-01 0.66284309136E-02
 0.16754547225E-02 0.29894511909E-02 0.82197155326E-02 0.14071132679E-01 0.17675530533E-01
 0.17680996207E-01 0.14452101449E-01 0.95812795517E-02 0.52801412752E-02 0.39228349378E-02
 0.74822007356E-02 0.16601256309E-01 0.29685796386E-01 0.42902983389E-01 0.51565147616E-01
 0.52302831790E-01 0.44717664579E-01 0.31538321771E-01 0.17315422162E-01 0.64780871664E-02
 0.90023826335E-03 0.11303482374E-02 0.38146113731E-02 0.68012303234E-02 0.84849265077E-02
 0.80356113735E-02 0.56328480029E-02 0.26701050656E-02 0.16060638838E-02 0.51700104231E-02
 0.15003071878E-01 0.30327666516E-01 0.47522404782E-01 0.61198040432E-01 0.66509181608E-01
 0.61508758616E-01 0.48119957540E-01 0.31099580512E-01 0.15673878115E-01 0.53258304564E-02
 0.55965520023E-03 0.27129353885E-03 0.13266349127E-02 0.25754374947E-02 0.30374149197E-02
 0.20620304348E-02 0.34048258485E-04 -.11381527442E-02 0.14745635277E-02 0.10330011141E-01
 0.25715720471E-01 0.44846658906E-01 0.62428797794E-01 0.72684614346E-01 0.72011161666E-01
 0.60831911724E-01 0.43403361022E-01 0.25555843004E-01 0.11816227157E-01 0.37879370832E-02
 0.20331117202E-03 0.45738302748E-03 0.10945333566E-02 0.13930782576E-02 0.86332741566E-03
 -.52315871385E-03 -.17557659839E-02 -.65273939651E-03 0.53262922514E-02 0.17587707328E-01
 0.35044664639E-01 0.53759760406E-01 0.68078996241E-01 0.73013041572E-01 0.66742667107E-01
 0.51700168637E-01 0.33340866757E-01 0.17277820623E-01 0.66866947187E-02 0.16125259333E-02
 0.75259430324E-03 0.21853129441E-02 0.29207316655E-02 0.26422052741E-02 0.15803506562E-02
 0.35388999044E-03 0.12177508981E-03 0.26415071498E-02 0.97326419795E-02 0.22087035441E-01
 0.38070317171E-01 0.53538199214E-01 0.63262553077E-01 0.63448086395E-01 0.53839762351E-01
 0.37974119261E-01 0.21329952851E-01 0.85837680966E-02 0.17055065891E-02 -.13793803248E-03
 0.36821005917E-02 0.58259643608E-02 0.63923670653E-02 0.55745835287E-02 0.40567175040E-02
 0.26016466870E-02 0.22233207899E-02 0.44451561143E-02 0.10826222817E-01 0.21661407079E-01
 0.34854997438E-01 0.46205760482E-01 0.51315125906E-01 0.47954984603E-01 0.37297656913E-01
 0.23258718009E-01 0.10499073997E-01 0.23352380860E-02 -.38910138916E-03 0.89502268258E-03
 0.86735209304E-02 0.10590592585E-01 0.10454361832E-01 0.86140084296E-02 0.58151616176E-02
 0.30416222343E-02 0.16992726723E-02 0.34867013103E-02 0.94738752137E-02 0.18895590407E-01
 0.28838638338E-01 0.35454742926E-01 0.36012337411E-01 0.30346708504E-01 0.20795081696E-01
 0.10879091142E-01 0.36929596109E-02 0.79334105311E-03 0.18805002455E-02 0.52333109752E-02
 0.13799232653E-01 0.14974650511E-01 0.13655291296E-01 0.10137324028E-01 0.55129563062E-02
 0.15253933019E-02 0.10872761135E-03 0.25432733177E-02 0.85570600658E-02 0.16057163575E-01
 0.21954330624E-01 0.23747193481E-01 0.20848901209E-01 0.14770731541E-01 0.81445108429E-02
 0.33641680163E-02 0.16870024849E-02 0.30772137898E-02 0.65422923452E-02 0.10613193876E-01
 0.17540508394E-01 0.17743328634E-01 0.14968569279E-01 0.98906884486E-02 0.43114045233E-02
 0.45661940885E-03 -.74827341393E-04 0.28910209237E-02 0.79725970995E-02 0.12825525851E-01
 0.15211617651E-01 0.14075475999E-01 0.10066344610E-01 0.51546238467E-02 0.15418544780E-02
 0.57546890504E-03 0.23490726670E-02 0.60598295529E-02 0.10592713227E-01 0.14807273016E-01
 0.81208363531E-02 0.81607344507E-02 0.66988542609E-02 0.43868704619E-02 0.23626408054E-02
 0.12184133894E-02 0.59322847247E-03 -.19719467950E-03 -.13108312329E-02 -.22943286828E-02
 -.27114649493E-02 -.25928200296E-02 -.22030171970E-02 -.15907770985E-02 -.58947034784E-03
 0.81088214944E-03 0.23488837766E-02 0.38244704466E-02 0.53273650695E-02 0.69107746028E-02
 0.76242091556E-02 0.68010376718E-02 0.52308966774E-02 0.35665331796E-02 0.21756292739E-02
 0.89814422435E-03 -.55302023293E-03 -.20041910599E-02 -.28048200901E-02 -.24851678156E-02
 -.13423038071E-02 -.24122002747E-03 0.18256440348E-03 0.62302172594E-04 0.68466255627E-04
 0.76221261637E-03 0.22181292743E-02 0.41193957635E-02 0.59916731239E-02 0.73123773078E-02
 0.53680082341E-02 0.40851124159E-02 0.29776993226E-02 0.20612858813E-02 0.10790189615E-02
 -.86773402366E-04 -.12056268339E-02 -.18402599001E-02 -.16775350213E-02 -.79105027623E-03
 0.33931918833E-03 0.10900662858E-02 0.11204060716E-02 0.68155089259E-03 0.51113664446E-03
 0.12890010101E-02 0.30450651154E-02 0.50461237306E-02 0.63124350393E-02 0.63348700837E-02
 0.28914687528E-02 0.18865289383E-02 0.12332772277E-02 0.77367105985E-03 0.50663915682E-03
 0.57077496212E-03 0.88346800897E-03 0.10726342070E-02 0.88769543423E-03 0.52742078840E-03
 0.38598291310E-03 0.53854132769E-03 0.69499359434E-03 0.71784654812E-03 0.97184160074E-03
 0.19303182249E-02 0.34635562048E-02 0.47417819059E-02 0.49697833925E-02 0.41291883235E-02
 0.18371222668E-02 0.10634213264E-02 0.48433087660E-03 0.46000383805E-03 0.12572740846E-02
 0.25985820880E-02 0.36060175506E-02 0.34703649556E-02 0.22437134855E-02 0.83810163814E-03
 0.15568343340E-03 0.29511404439E-03 0.68324830906E-03 0.87109984564E-03 0.99670189400E-03
 0.14357049018E-02 0.21971570746E-02 0.28473103225E-02 0.29757814660E-02 0.25573274812E-02
 0.15360080826E-02 0.71437834996E-03 0.27679179517E-03 0.71221753072E-03 0.19343251808E-02
 0.33004240467E-02 0.40603705375E-02 0.38900600003E-02 0.30741797402E-02 0.22035450211E-02
 0.16777817642E-02 0.14532211843E-02 0.12181326872E-02 0.77965965095E-03 0.28645742273E-03
 0.10142570109E-03 0.46157044666E-03 0.12262090682E-02 0.19228146175E-02 0.20672917208E-02
 0.72374104251E-03 0.33055293541E-03 0.42934875301E-03 0.95033988427E-03 0.16347672798E-02
 0.24193696850E-02 0.33749944399E-02 0.43326370040E-02 0.48069016452E-02 0.44229665027E-02
 0.33323678666E-02 0.20748758653E-02 0.10597581194E-02 0.32001454464E-03 -.21578442866E-03
 -.41006425902E-03 -.64396281729E-04 0.66786813736E-03 0.12398451741E-02 0.12129833104E-02
 0.89475406639E-07 0.59682673442E-03 0.12226774638E-02 0.15347891265E-02 0.17290091431E-02
 0.24121469608E-02 0.37999772717E-02 0.52010686475E-02 0.55366300993E-02 0.44104892920E-02
 0.25262823034E-02 0.99044003592E-03 0.32290253914E-03 0.23631767870E-03 0.22945704124E-03
 0.13457768813E-03 0.46035182656E-04 -.21114226229E-04 -.14372764068E-03 -.22620905876E-03
 0.25810234758E-03 0.14199328209E-02 0.22772466679E-02 0.27488203816E-02 0.31285837594E-02
 0.36940252966E-02 0.42781760379E-02 0.43260242344E-02 0.34524709262E-02 0.19240901430E-02
 0.52109599133E-03 -.10639438510E-03 0.55552496164E-04 0.47390418031E-03 0.57781339758E-03
 0.16891664690E-03 -.54553414068E-03 -.11627770517E-02 -.13051567058E-02 -.78819148852E-03
 0.46724194389E-03 0.13946722099E-02 0.24948120246E-02 0.35844105204E-02 0.41997654348E-02
 0.39905479118E-02 0.30826191596E-02 0.19736844730E-02 0.10920514184E-02 0.52823297206E-03
 0.17121861340E-03 -.41678027809E-04 -.11748146243E-03 -.17193094283E-03 -.41982020812E-03
 -.91841940706E-03 -.14052867242E-02 -.15052315401E-02 -.10925389790E-02 -.36170694766E-03
 -.43000917079E-03 0.16935670596E-03 0.15321946563E-02 0.29344586502E-02 0.33957595802E-02
 0.27020384348E-02 0.16357366565E-02 0.11198861653E-02 0.12673059987E-02 0.13988753416E-02
 0.89968316746E-03 -.15074034580E-03 -.12057500963E-02 -.18667734653E-02 -.20976431346E-02
 -.19730014848E-02 -.15208576997E-02 -.89704840500E-03 -.46352273386E-03 -.42415437280E-03
 -.11449579849E-02 -.70675863795E-03 0.33956961794E-03 0.13518179427E-02 0.17744296590E-02
 0.16924194617E-02 0.16289663835E-02 0.18502802310E-02 0.20155885699E-02 0.15619272679E-02
 0.33611272814E-03 -.12363553630E-02 -.25360042573E-02 -.31771915857E-02 -.30943038310E-02
 -.24273188652E-02 -.14892826043E-02 -.75062312328E-03 -.59057151635E-03 -.91865056283E-03
 -.19818505773E-03 -.25807146764E-03 -.14616985842E-03 0.30990162801E-03 0.97890755758E-03
 0.14964965880E-02 0.15584742956E-02 0.11514725722E-02 0.49041782292E-03 -.23988103832E-03
 -.10296544141E-02 -.19254533509E-02 -.28243560345E-02 -.34505107324E-02 -.35496773747E-02
 -.30869199430E-02 -.22596107291E-02 -.13608597904E-02 -.64579908899E-03 -.26182734678E-03
 0.12302431187E-02 0.54793617291E-03 0.49123515282E-04 0.26758561696E-03 0.81506383792E-03
 0.84437946442E-03 0.40730962713E-04 -.10186420187E-02 -.15425025238E-02 -.14100790063E-02
 -.12395668355E-02 -.16491006110E-02 -.26273324301E-02 -.36445418675E-02 -.41795511786E-02
 -.39956746016E-02 -.30617294346E-02 -.15239521950E-02 0.14300610414E-03 0.12095741824E-02
 0.13151598364E-02 0.84700241379E-03 0.59275874335E-03 0.68452983091E-03 0.64529900894E-03
 0.62550571791E-04 -.81368540164E-03 -.13161131505E-02 -.11610699600E-02 -.81891099222E-03
 -.10104759644E-02 -.19491521273E-02 -.31830830008E-02 -.40869365915E-02 -.43250853450E-02
 -.38471548427E-02 -.27008573069E-02 -.10882568242E-02 0.47193654504E-03 0.13433388669E-02
 0.87650307992E-03 0.13680944180E-02 0.15247280436E-02 0.13603900131E-02 0.10531882662E-02
 0.81995542763E-03 0.73130101253E-03 0.61275863175E-03 0.15259800388E-03 -.82559496678E-03
 -.21448462818E-02 -.33270063889E-02 -.39047839626E-02 -.37379689513E-02 -.30668503388E-02
 -.22784433221E-02 -.16134496554E-02 -.10604301953E-02 -.48027670333E-03 0.19635679804E-03
 0.19086611825E-02 0.28621011158E-02 0.28829593732E-02 0.24610208212E-02 0.22820228190E-02
 0.24190352875E-02 0.22836158933E-02 0.13167398437E-02 -.40987861416E-03 -.22730451489E-02
 -.36097113985E-02 -.40670862824E-02 -.36218393439E-02 -.25336875198E-02 -.13428126697E-02
 -.66966168687E-03 -.73469931557E-03 -.10501370069E-02 -.78978447023E-03 0.38325403213E-03
 0.42237173783E-02 0.47829047587E-02 0.43846044093E-02 0.36467582364E-02 0.30459742107E-02
 0.24347321777E-02 0.14050701755E-02 -.80066414498E-04 -.16025141382E-02 -.27423435919E-02
 -.33820346901E-02 -.35282992367E-02 -.30865573488E-02 -.20463199539E-02 -.80067337638E-03
 0.29566891055E-04 0.24706196796E-03 0.39870867927E-03 0.12207155514E-02 0.27597225931E-02
 0.61797719050E-02 0.64284633477E-02 0.57545739862E-02 0.43466844756E-02 0.26226783770E-02
 0.10347229999E-02 -.85616751889E-04 -.67488274494E-03 -.10072032503E-02 -.15127119153E-02
 -.23711780486E-02 -.32441876519E-02 -.34938884218E-02 -.27501900048E-02 -.12605487197E-02
 0.35503212412E-03 0.16786524365E-02 0.27797266185E-02 0.39427805807E-02 0.51973648429E-02
 0.73786859377E-02 0.77229854493E-02 0.67273160067E-02 0.45457426271E-02 0.21529280705E-02
 0.59493630134E-03 0.14583107987E-03 0.19108760213E-03 -.11461471429E-03 -.11143243885E-02
 -.24729618362E-02 -.35343208708E-02 -.37594028606E-02 -.29504786981E-02 -.12903934716E-02
 0.73448969034E-03 0.25771982716E-02 0.39816760402E-02 0.51250029263E-02 0.62977956558E-02
 -.18926537502E-01 -.16529519682E-01 -.12394305930E-01 -.76482500327E-02 -.31018323503E-02
 0.18288758173E-03 0.88569022790E-03 -.15410521130E-02 -.59350438170E-02 -.98930840234E-02
 -.11395427318E-01 -.10024285138E-01 -.67925747160E-02 -.31976233897E-02 -.64358314043E-03
 -.36943490255E-03 -.31316052120E-02 -.84502540840E-02 -.14339967436E-01 -.18304571411E-01
 -.17258247863E-01 -.14182837404E-01 -.94514975989E-02 -.43755703857E-02 -.52236868687E-03