    5    5    1    1
  0.3477306E+02  0.2573869E-09  0.2573869E-09  0.3030466E-08  0.5000000E-15
  1.000000000000000E-004
  CAR 
 unknown system                          
     45     31     28
 
  0.0000000E+00  0.0000000E+00  0.0000000E+00  0.1000000E-01
    1      -11.757489   1.000000
    2      -10.698403   1.000000
    3       -9.029090   1.000000
    4       -7.543388   1.000000
    5       -6.235792   1.000000
    6       -5.771336   1.000000
    7       -5.600774   1.000000
    8       -5.446869   1.000000
    9       -5.325559   1.000000
   10       -5.291053   1.000000
   11       -5.280006   1.000000
   12       -5.257109   1.000000
   13       -5.252031   1.000000
   14       -5.005248   1.000000
   15       -4.988867   1.000000
   16       -4.943700   1.000000
   17       -4.798790   1.000000
   18       -4.746640   1.000000
   19       -4.498014   1.000000
   20       -4.497004   1.000000
   21       -4.285665   1.000000
   22       -4.275172   1.000000
   23       -3.988193   1.000000
   24       -3.985339   1.000000
   25       -2.885987   1.000000
   26        1.660379   0.000000
   27        1.919045   0.000000
   28        2.336713   0.000000
 
  0.1000000E+00  0.6938894E-17  0.0000000E+00  0.4000000E-01
    1      -11.453644   1.000000
    2      -10.400692   1.000000
    3       -8.769616   1.000000
    4       -7.325983   1.000000
    5       -6.277271   1.000000
    6       -5.784593   1.000000
    7       -5.677737   1.000000
    8       -5.520746   1.000000
    9       -5.405492   1.000000
   10       -5.347558   1.000000
   11       -5.305295   1.000000
   12       -5.207098   1.000000
   13       -5.158929   1.000000
   14       -5.098472   1.000000
   15       -5.008871   1.000000
   16       -4.910411   1.000000
   17       -4.805668   1.000000
   18       -4.715070   1.000000
   19       -4.513040   1.000000
   20       -4.473612   1.000000
   21       -4.293027   1.000000
   22       -4.271278   1.000000
   23       -3.981035   1.000000
   24       -3.748720   1.000000
   25       -2.192184   0.018268
   26        1.910486   0.000000
   27        2.222510   0.000000
   28        2.639656   0.000000
 
  0.2000000E+00 -0.1387779E-16  0.0000000E+00  0.4000000E-01
    1      -10.583524   1.000000
    2       -9.559051   1.000000
    3       -8.103431   1.000000
    4       -6.826518   1.000000
    5       -6.422379   1.000000
    6       -5.986755   1.000000
    7       -5.836912   1.000000
    8       -5.681953   1.000000
    9       -5.518529   1.000000
   10       -5.305630   1.000000
   11       -5.275146   1.000000
   12       -5.209646   1.000000
   13       -5.102855   1.000000
   14       -5.006415   1.000000
   15       -4.915363   1.000000
   16       -4.852361   1.000000
   17       -4.788845   1.000000
   18       -4.621084   1.000000
   19       -4.563668   1.000000
   20       -4.453703   1.000000
   21       -4.272490   1.000000
   22       -4.064621   1.000000
   23       -3.974242   1.000000
   24       -2.829812   1.000000
   25       -0.840524   0.000000
   26        2.652446   0.000000
   27        3.131341   0.000000
   28        3.547240   0.000000
 
  0.3000000E+00 -0.2775558E-16  0.0000000E+00  0.4000000E-01
    1       -9.324735   1.000000
    2       -8.401941   1.000000
    3       -7.466249   1.000000
    4       -6.702533   1.000000
    5       -6.407649   1.000000
    6       -6.247530   1.000000
    7       -5.934339   1.000000
    8       -5.699626   1.000000
    9       -5.587129   1.000000
   10       -5.299019   1.000000
   11       -5.197369   1.000000
   12       -5.065887   1.000000
   13       -4.926847   1.000000
   14       -4.866776   1.000000
   15       -4.833772   1.000000
   16       -4.632426   1.000000
   17       -4.544706   1.000000
   18       -4.364276   1.000000
   19       -4.343385   1.000000
   20       -4.261830   1.000000
   21       -4.134864   1.000000
   22       -3.959622   1.000000
   23       -3.556022   1.000000
   24       -1.609088   0.000000
   25        0.877282   0.000000
   26        3.856656   0.000000
   27        4.596308   0.000000
   28        4.994653   0.000000
 
  0.4000000E+00 -0.2775558E-16  0.0000000E+00  0.4000000E-01
    1       -8.310430   1.000000
    2       -7.449282   1.000000
    3       -7.142557   1.000000
    4       -6.813832   1.000000
    5       -6.523155   1.000000
    6       -6.399347   1.000000
    7       -6.050762   1.000000
    8       -5.521922   1.000000
    9       -5.411123   1.000000
   10       -5.280872   1.000000
   11       -5.237999   1.000000
   12       -4.961697   1.000000
   13       -4.845382   1.000000
   14       -4.550570   1.000000
   15       -4.443825   1.000000
   16       -4.338986   1.000000
   17       -4.117503   1.000000
   18       -4.102981   1.000000
   19       -4.053362   1.000000
   20       -3.965217   1.000000
   21       -3.817915   1.000000
   22       -3.548563   1.000000
   23       -2.490577   0.983373
   24       -0.200260   0.000000
   25        2.130611   0.000000
   26        2.925363   0.000000
   27        3.289527   0.000000
   28        4.479134   0.000000
 
  0.5000000E+00 -0.2775558E-16  0.0000000E+00  0.2000000E-01
    1       -8.074187   1.000000
    2       -7.157578   1.000000
    3       -6.956625   1.000000
    4       -6.885593   1.000000
    5       -6.583526   1.000000
    6       -6.435896   1.000000
    7       -6.081467   1.000000
    8       -5.426211   1.000000
    9       -5.409273   1.000000
   10       -5.257847   1.000000
   11       -5.165723   1.000000
   12       -4.951564   1.000000
   13       -4.593193   1.000000
   14       -4.454809   1.000000
   15       -4.401027   1.000000
   16       -4.215569   1.000000
   17       -4.043928   1.000000
   18       -3.956501   1.000000
   19       -3.896704   1.000000
   20       -3.703094   1.000000
   21       -3.674342   1.000000
   22       -2.234797   0.068340
   23       -1.367142   0.000000
   24       -0.815833   0.000000
   25        1.277442   0.000000
   26        2.232779   0.000000
   27        3.013327   0.000000
   28        3.772556   0.000000
 
  0.0000000E+00  0.1000000E+00  0.0000000E+00  0.2000000E-01
    1      -11.472835   1.000000
    2      -10.401722   1.000000
    3       -8.760734   1.000000
    4       -7.321302   1.000000
    5       -6.201382   1.000000
    6       -5.815736   1.000000
    7       -5.554146   1.000000
    8       -5.497838   1.000000
    9       -5.378070   1.000000
   10       -5.338817   1.000000
   11       -5.298099   1.000000
   12       -5.273785   1.000000
   13       -5.156316   1.000000
   14       -5.093020   1.000000
   15       -5.008972   1.000000
   16       -4.977684   1.000000
   17       -4.870739   1.000000
   18       -4.730638   1.000000
   19       -4.517195   1.000000
   20       -4.464624   1.000000
   21       -4.295934   1.000000
   22       -4.280703   1.000000
   23       -3.983151   1.000000
   24       -3.772178   1.000000
   25       -2.202508   0.025894
   26        1.911715   0.000000
   27        2.222248   0.000000
   28        2.639221   0.000000
 
  0.2000000E+00  0.1000000E+00  0.0000000E+00  0.2000000E-01
    1      -10.852339   1.000000
    2       -9.830759   1.000000
    3       -8.313847   1.000000
    4       -6.959133   1.000000
    5       -6.388619   1.000000
    6       -5.875406   1.000000
    7       -5.831195   1.000000
    8       -5.617245   1.000000
    9       -5.509162   1.000000
   10       -5.436666   1.000000
   11       -5.321791   1.000000
   12       -5.164049   1.000000
   13       -5.106974   1.000000
   14       -5.090788   1.000000
   15       -4.953536   1.000000
   16       -4.863263   1.000000
   17       -4.712804   1.000000
   18       -4.609789   1.000000
   19       -4.589712   1.000000
   20       -4.457268   1.000000
   21       -4.344002   1.000000
   22       -4.087722   1.000000
   23       -4.010240   1.000000
   24       -3.068207   1.000000
   25       -1.228083   0.000000
   26        2.406174   0.000000
   27        2.829204   0.000000
   28        3.245513   0.000000
 
  0.3000000E+00  0.1000000E+00  0.0000000E+00  0.4000000E-01
    1       -9.778993   1.000000
    2       -8.818652   1.000000
    3       -7.649944   1.000000
    4       -6.617466   1.000000
    5       -6.332602   1.000000
    6       -6.091806   1.000000
    7       -5.930716   1.000000
    8       -5.785290   1.000000
    9       -5.636928   1.000000
   10       -5.328951   1.000000
   11       -5.281941   1.000000
   12       -5.201833   1.000000
   13       -5.114342   1.000000
   14       -5.009773   1.000000
   15       -4.900037   1.000000
   16       -4.763207   1.000000
   17       -4.631966   1.000000
   18       -4.472863   1.000000
   19       -4.357958   1.000000
   20       -4.302889   1.000000
   21       -4.146339   1.000000
   22       -4.037199   1.000000
   23       -3.674079   1.000000
   24       -2.015985   0.000002
   25        0.263985   0.000000
   26        3.399934   0.000000
   27        4.034344   0.000000
   28        4.449430   0.000000
 
  0.4000000E+00  0.1000000E+00  0.0000000E+00  0.4000000E-01
    1       -8.646183   1.000000
    2       -7.719336   1.000000
    3       -7.159906   1.000000
    4       -6.652323   1.000000
    5       -6.389911   1.000000
    6       -6.246494   1.000000
    7       -5.964321   1.000000
    8       -5.658382   1.000000
    9       -5.593555   1.000000
   10       -5.315548   1.000000
   11       -5.253404   1.000000
   12       -5.095860   1.000000
   13       -4.945681   1.000000
   14       -4.763598   1.000000
   15       -4.728311   1.000000
   16       -4.547951   1.000000
   17       -4.442531   1.000000
   18       -4.289634   1.000000
   19       -4.173529   1.000000
   20       -3.992539   1.000000
   21       -3.944451   1.000000
   22       -3.627253   1.000000
   23       -2.774277   1.000000
   24       -0.581762   0.000000
   25        2.090204   0.000000
   26        3.888301   0.000000
   27        4.518680   0.000000
   28        5.213557   0.000000
 
  0.5000000E+00  0.1000000E+00  0.0000000E+00  0.4000000E-01
    1       -8.117026   1.000000
    2       -7.072993   1.000000
    3       -6.905593   1.000000
    4       -6.731650   1.000000
    5       -6.490039   1.000000
    6       -6.327978   1.000000
    7       -6.047040   1.000000
    8       -5.553776   1.000000
    9       -5.430357   1.000000
   10       -5.335933   1.000000
   11       -5.204223   1.000000
   12       -5.037582   1.000000
   13       -4.823877   1.000000
   14       -4.559799   1.000000
   15       -4.444392   1.000000
   16       -4.275696   1.000000
   17       -4.155563   1.000000
   18       -4.109482   1.000000
   19       -4.025879   1.000000
   20       -3.871026   1.000000
   21       -3.515365   1.000000
   22       -2.345486   0.530734
   23       -1.320850   0.000000
   24        0.131208   0.000000
   25        1.585714   0.000000
   26        2.600797   0.000000
   27        3.142783   0.000000
   28        4.302244   0.000000
 
 -0.4000000E+00  0.1000000E+00  0.0000000E+00  0.4000000E-01
    1       -8.041914   1.000000
    2       -7.070792   1.000000
    3       -6.899559   1.000000
    4       -6.765247   1.000000
    5       -6.491241   1.000000
    6       -6.359648   1.000000
    7       -6.069604   1.000000
    8       -5.624019   1.000000
    9       -5.421901   1.000000
   10       -5.351351   1.000000
   11       -5.238824   1.000000
   12       -5.046630   1.000000
   13       -4.845865   1.000000
   14       -4.535891   1.000000
   15       -4.431713   1.000000
   16       -4.271332   1.000000
   17       -4.153686   1.000000
   18       -4.081689   1.000000
   19       -4.027864   1.000000
   20       -3.866590   1.000000
   21       -3.426964   1.000000
   22       -2.344916   0.527528
   23       -1.339934   0.000000
   24        0.124018   0.000000
   25        1.579896   0.000000
   26        2.575804   0.000000
   27        3.177625   0.000000
   28        4.269532   0.000000
 
 -0.3000000E+00  0.1000000E+00  0.0000000E+00  0.4000000E-01
    1       -8.606814   1.000000
    2       -7.693204   1.000000
    3       -7.143912   1.000000
    4       -6.679349   1.000000
    5       -6.405490   1.000000
    6       -6.284183   1.000000
    7       -6.010552   1.000000
    8       -5.708317   1.000000
    9       -5.609979   1.000000
   10       -5.362562   1.000000
   11       -5.280952   1.000000
   12       -5.111270   1.000000
   13       -4.939663   1.000000
   14       -4.752407   1.000000
   15       -4.646287   1.000000
   16       -4.520044   1.000000
   17       -4.404155   1.000000
   18       -4.249962   1.000000
   19       -4.150913   1.000000
   20       -3.977372   1.000000
   21       -3.930142   1.000000
   22       -3.623785   1.000000
   23       -2.820404   1.000000
   24       -0.679062   0.000000
   25        2.010016   0.000000
   26        3.989858   0.000000
   27        4.573100   0.000000
   28        5.210666   0.000000
 
 -0.2000000E+00  0.1000000E+00  0.0000000E+00  0.4000000E-01
    1       -9.840895   1.000000
    2       -8.795317   1.000000
    3       -7.570079   1.000000
    4       -6.586932   1.000000
    5       -6.328208   1.000000
    6       -6.121013   1.000000
    7       -5.950780   1.000000
    8       -5.789359   1.000000
    9       -5.632193   1.000000
   10       -5.345399   1.000000
   11       -5.284229   1.000000
   12       -5.224294   1.000000
   13       -5.060338   1.000000
   14       -4.931540   1.000000
   15       -4.878830   1.000000
   16       -4.774751   1.000000
   17       -4.615465   1.000000
   18       -4.503736   1.000000
   19       -4.375752   1.000000
   20       -4.299471   1.000000
   21       -4.144170   1.000000
   22       -4.042553   1.000000
   23       -3.720244   1.000000
   24       -2.128643   0.001397
   25        0.203948   0.000000
   26        3.399221   0.000000
   27        4.034670   0.000000
   28        4.453129   0.000000
 
 -0.1000000E+00  0.1000000E+00  0.0000000E+00  0.4000000E-01
    1      -10.905661   1.000000
    2       -9.828565   1.000000
    3       -8.276946   1.000000
    4       -6.939550   1.000000
    5       -6.265105   1.000000
    6       -5.887385   1.000000
    7       -5.795441   1.000000
    8       -5.606376   1.000000
    9       -5.477184   1.000000
   10       -5.352252   1.000000
   11       -5.287626   1.000000
   12       -5.193343   1.000000
   13       -5.142039   1.000000
   14       -5.110778   1.000000
   15       -4.960213   1.000000
   16       -4.903936   1.000000
   17       -4.720382   1.000000
   18       -4.659264   1.000000
   19       -4.607940   1.000000
   20       -4.484813   1.000000
   21       -4.356265   1.000000
   22       -4.089521   1.000000
   23       -4.025161   1.000000
   24       -3.154327   1.000000
   25       -1.261810   0.000000
   26        2.408878   0.000000
   27        2.828585   0.000000
   28        3.244563   0.000000
 
  0.0000000E+00  0.2000000E+00  0.0000000E+00  0.2000000E-01
    1      -10.681792   1.000000
    2       -9.558973   1.000000
    3       -8.051272   1.000000
    4       -6.790938   1.000000
    5       -6.178684   1.000000
    6       -5.912209   1.000000
    7       -5.733830   1.000000
    8       -5.669055   1.000000
    9       -5.504242   1.000000
   10       -5.312253   1.000000
   11       -5.285365   1.000000
   12       -5.203750   1.000000
   13       -5.185680   1.000000
   14       -5.047117   1.000000
   15       -4.951522   1.000000
   16       -4.863044   1.000000
   17       -4.828047   1.000000
   18       -4.636789   1.000000
   19       -4.593082   1.000000
   20       -4.463369   1.000000
   21       -4.277353   1.000000
   22       -4.131779   1.000000
   23       -3.976766   1.000000
   24       -2.963018   1.000000
   25       -0.896084   0.000000
   26        2.652765   0.000000
   27        3.130612   0.000000
   28        3.545399   0.000000
 
  0.4000000E+00  0.2000000E+00  0.0000000E+00  0.2000000E-01
    1       -8.792018   1.000000
    2       -7.814171   1.000000
    3       -7.115130   1.000000
    4       -6.495082   1.000000
    5       -6.245748   1.000000
    6       -6.078901   1.000000
    7       -5.964086   1.000000
    8       -5.885712   1.000000
    9       -5.593375   1.000000
   10       -5.452786   1.000000
   11       -5.331759   1.000000
   12       -5.291338   1.000000
   13       -5.020279   1.000000
   14       -4.940554   1.000000
   15       -4.775413   1.000000
   16       -4.726070   1.000000
   17       -4.485597   1.000000
   18       -4.348123   1.000000
   19       -4.218734   1.000000
   20       -3.980421   1.000000
   21       -3.952477   1.000000
   22       -3.572641   1.000000
   23       -2.776718   1.000000
   24       -0.710081   0.000000
   25        1.871306   0.000000
   26        4.652839   0.000000
   27        5.055049   0.000000
   28        5.647471   0.000000
 
  0.5000000E+00  0.2000000E+00  0.0000000E+00  0.4000000E-01
    1       -8.182669   1.000000
    2       -6.911567   1.000000
    3       -6.698852   1.000000
    4       -6.489175   1.000000
    5       -6.299665   1.000000
    6       -6.166023   1.000000
    7       -5.959933   1.000000
    8       -5.796976   1.000000
    9       -5.592348   1.000000
   10       -5.508406   1.000000
   11       -5.386437   1.000000
   12       -5.066774   1.000000
   13       -4.983178   1.000000
   14       -4.841114   1.000000
   15       -4.678344   1.000000
   16       -4.557728   1.000000
   17       -4.397018   1.000000
   18       -4.224357   1.000000
   19       -4.072632   1.000000
   20       -3.887105   1.000000
   21       -3.374759   1.000000
   22       -2.359568   0.608826
   23       -1.164402   0.000000
   24        0.948679   0.000000
   25        2.723570   0.000000
   26        3.640338   0.000000
   27        3.949347   0.000000
   28        5.007898   0.000000
 
 -0.4000000E+00  0.2000000E+00  0.0000000E+00  0.4000000E-01
    1       -7.946268   1.000000
    2       -6.693556   1.000000
    3       -6.611496   1.000000
    4       -6.464439   1.000000
    5       -6.302193   1.000000
    6       -6.175624   1.000000
    7       -5.982847   1.000000
    8       -5.846955   1.000000
    9       -5.609880   1.000000
   10       -5.480661   1.000000
   11       -5.356317   1.000000
   12       -5.107723   1.000000
   13       -4.925369   1.000000
   14       -4.708751   1.000000
   15       -4.581746   1.000000
   16       -4.516303   1.000000
   17       -4.277717   1.000000
   18       -4.138550   1.000000
   19       -4.056988   1.000000
   20       -3.955216   1.000000
   21       -2.566052   0.999304
   22       -0.719350   0.000000
   23       -0.140382   0.000000
   24        0.635572   0.000000
   25        1.692710   0.000000
   26        2.856682   0.000000
   27        3.558883   0.000000
   28        4.318642   0.000000
 
 -0.3000000E+00  0.2000000E+00  0.0000000E+00  0.4000000E-01
    1       -8.084588   1.000000
    2       -6.921650   1.000000
    3       -6.708302   1.000000
    4       -6.499815   1.000000
    5       -6.322543   1.000000
    6       -6.203852   1.000000
    7       -5.982121   1.000000
    8       -5.828215   1.000000
    9       -5.620683   1.000000
   10       -5.543948   1.000000
   11       -5.440441   1.000000
   12       -5.070777   1.000000
   13       -4.984136   1.000000
   14       -4.837318   1.000000
   15       -4.693632   1.000000
   16       -4.553763   1.000000
   17       -4.382243   1.000000
   18       -4.206868   1.000000
   19       -4.036519   1.000000
   20       -3.887191   1.000000
   21       -3.173053   1.000000
   22       -2.366444   0.645616
   23       -1.249739   0.000000
   24        0.790176   0.000000
   25        2.729807   0.000000
   26        3.688710   0.000000
   27        3.863901   0.000000
   28        4.876496   0.000000
 
 -0.2000000E+00  0.2000000E+00  0.0000000E+00  0.4000000E-01
    1       -8.911194   1.000000
    2       -7.740996   1.000000
    3       -6.999769   1.000000
    4       -6.472284   1.000000
    5       -6.211274   1.000000
    6       -6.085344   1.000000
    7       -5.964097   1.000000
    8       -5.891097   1.000000
    9       -5.596814   1.000000
   10       -5.476605   1.000000
   11       -5.440942   1.000000
   12       -5.312161   1.000000
   13       -5.014565   1.000000
   14       -4.941398   1.000000
   15       -4.824653   1.000000
   16       -4.616131   1.000000
   17       -4.460705   1.000000
   18       -4.282986   1.000000
   19       -4.168524   1.000000
   20       -3.984091   1.000000
   21       -3.912284   1.000000
   22       -3.579672   1.000000
   23       -2.884453   1.000000
   24       -0.948854   0.000000
   25        1.668580   0.000000
   26        4.543158   0.000000
   27        5.285571   0.000000
   28        5.605984   0.000000
 
 -0.1000000E+00  0.2000000E+00  0.0000000E+00  0.4000000E-01
    1       -9.954079   1.000000
    2       -8.792411   1.000000
    3       -7.513915   1.000000
    4       -6.487603   1.000000
    5       -6.232812   1.000000
    6       -6.005465   1.000000
    7       -5.882315   1.000000
    8       -5.780483   1.000000
    9       -5.635748   1.000000
   10       -5.327228   1.000000
   11       -5.302566   1.000000
   12       -5.276451   1.000000
   13       -5.113830   1.000000
   14       -4.955794   1.000000
   15       -4.886287   1.000000
   16       -4.780047   1.000000
   17       -4.616350   1.000000
   18       -4.516943   1.000000
   19       -4.408171   1.000000
   20       -4.301710   1.000000
   21       -4.144211   1.000000
   22       -4.043240   1.000000
   23       -3.778834   1.000000
   24       -2.238345   0.075205
   25        0.141991   0.000000
   26        3.385260   0.000000
   27        4.035508   0.000000
   28        4.452161   0.000000
 
  0.0000000E+00  0.3000000E+00  0.0000000E+00  0.2000000E-01
    1       -9.645490   1.000000
    2       -8.368096   1.000000
    3       -7.303804   1.000000
    4       -6.486967   1.000000
    5       -6.331058   1.000000
    6       -6.026920   1.000000
    7       -5.738371   1.000000
    8       -5.651145   1.000000
    9       -5.476941   1.000000
   10       -5.333458   1.000000
   11       -5.309412   1.000000
   12       -5.096843   1.000000
   13       -4.979246   1.000000
   14       -4.847903   1.000000
   15       -4.817869   1.000000
   16       -4.742610   1.000000
   17       -4.549449   1.000000
   18       -4.382095   1.000000
   19       -4.357070   1.000000
   20       -4.263778   1.000000
   21       -4.135008   1.000000
   22       -3.961870   1.000000
   23       -3.739573   1.000000
   24       -1.915724   0.000000
   25        0.660730   0.000000
   26        3.737216   0.000000
   27        4.620931   0.000000
   28        4.830670   0.000000
 
 -0.4000000E+00  0.3000000E+00  0.0000000E+00  0.2000000E-01
    1       -7.927432   1.000000
    2       -6.469371   1.000000
    3       -6.387893   1.000000
    4       -6.283982   1.000000
    5       -6.216263   1.000000
    6       -6.059009   1.000000
    7       -5.992800   1.000000
    8       -5.931792   1.000000
    9       -5.771989   1.000000
   10       -5.585330   1.000000
   11       -5.444005   1.000000
   12       -5.048475   1.000000
   13       -4.999078   1.000000
   14       -4.861550   1.000000
   15       -4.689244   1.000000
   16       -4.542421   1.000000
   17       -4.447917   1.000000
   18       -4.175937   1.000000
   19       -4.076018   1.000000
   20       -3.977089   1.000000
   21       -2.180689   0.012115
   22       -0.386923   0.000000
   23        0.808033   0.000000
   24        2.233249   0.000000
   25        2.244008   0.000000
   26        2.574628   0.000000
   27        3.301486   0.000000
   28        4.025547   0.000000
 
 -0.3000000E+00  0.3000000E+00  0.0000000E+00  0.4000000E-01
    1       -7.922604   1.000000
    2       -6.478493   1.000000
    3       -6.402721   1.000000
    4       -6.276190   1.000000
    5       -6.208110   1.000000
    6       -6.058754   1.000000
    7       -5.995590   1.000000
    8       -5.913941   1.000000
    9       -5.752468   1.000000
   10       -5.636131   1.000000
   11       -5.445881   1.000000
   12       -5.049699   1.000000
   13       -4.998764   1.000000
   14       -4.881422   1.000000
   15       -4.694484   1.000000
   16       -4.546185   1.000000
   17       -4.445040   1.000000
   18       -4.159338   1.000000
   19       -4.074499   1.000000
   20       -3.978329   1.000000
   21       -1.979587   0.000000
   22       -0.403901   0.000000
   23        0.668543   0.000000
   24        1.780427   0.000000
   25        2.353370   0.000000
   26        2.538201   0.000000
   27        3.254393   0.000000
   28        3.842860   0.000000
 
 -0.2000000E+00  0.3000000E+00  0.0000000E+00  0.4000000E-01
    1       -8.343329   1.000000
    2       -6.867727   1.000000
    3       -6.667568   1.000000
    4       -6.405599   1.000000
    5       -6.263953   1.000000
    6       -6.047172   1.000000
    7       -5.944909   1.000000
    8       -5.777739   1.000000
    9       -5.622483   1.000000
   10       -5.564889   1.000000
   11       -5.418318   1.000000
   12       -5.081266   1.000000
   13       -5.016758   1.000000
   14       -4.860998   1.000000
   15       -4.675060   1.000000
   16       -4.581160   1.000000
   17       -4.384631   1.000000
   18       -4.211137   1.000000
   19       -4.028540   1.000000
   20       -3.887352   1.000000
   21       -3.048993   1.000000
   22       -2.380428   0.716092
   23       -1.348497   0.000000
   24        0.462935   0.000000
   25        2.144173   0.000000
   26        3.307546   0.000000
   27        4.326035   0.000000
   28        5.579819   0.000000
 
 -0.1000000E+00  0.3000000E+00  0.0000000E+00  0.4000000E-01
    1       -9.029327   1.000000
    2       -7.630731   1.000000
    3       -6.991667   1.000000
    4       -6.464200   1.000000
    5       -6.350373   1.000000
    6       -6.073516   1.000000
    7       -5.820181   1.000000
    8       -5.626099   1.000000
    9       -5.524710   1.000000
   10       -5.442861   1.000000
   11       -5.264597   1.000000
   12       -5.138893   1.000000
   13       -4.994673   1.000000
   14       -4.757585   1.000000
   15       -4.696712   1.000000
   16       -4.541023   1.000000
   17       -4.399772   1.000000
   18       -4.222214   1.000000
   19       -4.173044   1.000000
   20       -3.985114   1.000000
   21       -3.929321   1.000000
   22       -3.642081   1.000000
   23       -2.975004   1.000000
   24       -1.007214   0.000000
   25        1.578536   0.000000
   26        3.609353   0.000000
   27        4.596930   0.000000
   28        5.406739   0.000000
 
  0.0000000E+00  0.4000000E+00  0.0000000E+00  0.2000000E-01
    1       -8.916447   1.000000
    2       -7.367786   1.000000
    3       -7.009124   1.000000
    4       -6.544946   1.000000
    5       -6.488914   1.000000
    6       -6.174507   1.000000
    7       -5.788034   1.000000
    8       -5.460524   1.000000
    9       -5.409941   1.000000
   10       -5.317983   1.000000
   11       -5.073701   1.000000
   12       -5.029218   1.000000
   13       -4.674798   1.000000
   14       -4.541172   1.000000
   15       -4.444000   1.000000
   16       -4.361309   1.000000
   17       -4.113063   1.000000
   18       -4.052431   1.000000
   19       -4.019889   1.000000
   20       -3.967511   1.000000
   21       -3.818172   1.000000
   22       -3.542397   1.000000
   23       -2.774859   1.000000
   24       -0.829583   0.000000
   25        1.039200   0.000000
   26        2.648960   0.000000
   27        3.551181   0.000000
   28        5.014250   0.000000
 
 -0.2000000E+00  0.4000000E+00  0.0000000E+00  0.2000000E-01
    1       -8.210690   1.000000
    2       -6.659787   1.000000
    3       -6.594353   1.000000
    4       -6.324405   1.000000
    5       -6.262314   1.000000
    6       -6.038230   1.000000
    7       -5.981974   1.000000
    8       -5.892585   1.000000
    9       -5.520390   1.000000
   10       -5.473558   1.000000
   11       -5.310277   1.000000
   12       -5.116607   1.000000
   13       -4.980940   1.000000
   14       -4.711816   1.000000
   15       -4.601821   1.000000
   16       -4.529366   1.000000
   17       -4.279176   1.000000
   18       -4.119933   1.000000
   19       -4.055585   1.000000
   20       -3.955822   1.000000
   21       -1.891177   0.000000
   22       -0.808861   0.000000
   23       -0.455626   0.000000
   24        0.127731   0.000000
   25        0.812095   0.000000
   26        2.470729   0.000000
   27        3.814750   0.000000
   28        5.063672   0.000000
 
 -0.1000000E+00  0.4000000E+00  0.0000000E+00  0.4000000E-01
    1       -8.609151   1.000000
    2       -7.009662   1.000000
    3       -6.873760   1.000000
    4       -6.501843   1.000000
    5       -6.434754   1.000000
    6       -6.159914   1.000000
    7       -5.825255   1.000000
    8       -5.650604   1.000000
    9       -5.415527   1.000000
   10       -5.273438   1.000000
   11       -5.226436   1.000000
   12       -4.943369   1.000000
   13       -4.813396   1.000000
   14       -4.609920   1.000000
   15       -4.437202   1.000000
   16       -4.276568   1.000000
   17       -4.138472   1.000000
   18       -4.076966   1.000000
   19       -4.015430   1.000000
   20       -3.868631   1.000000
   21       -2.898073   1.000000
   22       -2.385583   0.740267
   23       -1.609115   0.000000
   24       -0.519340   0.000000
   25        0.317547   0.000000
   26        2.235579   0.000000
   27        3.389339   0.000000
   28        4.956330   0.000000
 
  0.0000000E+00  0.5000000E+00  0.0000000E+00  0.1000000E-01
    1       -8.713780   1.000000
    2       -7.081765   1.000000
    3       -6.973603   1.000000
    4       -6.591385   1.000000