unknown system                          
   1.00000000000000     
     2.573869    0.000000    0.000000
     1.286934    2.229036    0.000000
     0.000000    0.000000   30.304665
   Cu   H 
     4     1
Direct
  0.999706  0.000588  0.396567
  0.333186  0.333624  0.465140
  0.665829  0.668343  0.533594
  0.000801  0.998398  0.604216
  0.500476  0.999044  0.634203
 
   10   10  120
 0.12594E-14 -.10408E-16 0.25223E-13 0.16933E-11 0.36915E-14 0.22177E-13 0.41453E-13 0.29604E-12 0.49918E-13 0.14922E-13
 0.13722E-13 0.32317E-12 0.32552E-12 0.66769E-11 0.22329E-13 0.29531E-12 0.77410E-13 0.34490E-11 0.86910E-15 0.10009E-14
 0.33553E-13 0.10295E-12 0.20886E-12 0.23221E-11 0.14766E-13 0.62561E-13 0.94869E-13 0.31421E-11 0.79277E-13 0.60334E-13
 0.17698E-10 0.12318E-10 0.10364E-12 0.42313E-13 0.52708E-13 0.31222E-12 0.55650E-14 0.19255E-11 0.53401E-12 0.16015E-10
 0.18277E-13 0.22704E-13 0.84932E-14 0.22510E-13 0.19332E-13 0.19040E-13 0.62172E-14 0.21122E-13 0.53568E-13 0.52153E-13
 0.81158E-11 0.11333E-09 0.18932E-12 0.43644E-12 0.13725E-13 0.64787E-11 0.42466E-13 0.72164E-13 0.87985E-14 0.79207E-12
 0.38650E-13 -.41633E-16 0.59897E-13 0.14051E-12 0.43854E-14 0.63977E-14 0.23453E-14 0.15821E-14 0.42188E-14 0.82115E-13
 0.16378E-10 0.10552E-10 0.12235E-12 0.15772E-11 0.89692E-13 0.66364E-13 0.13878E-14 0.25119E-14 0.24147E-14 0.16256E-11
 0.50026E-13 0.38683E-13 0.16979E-13 0.27075E-12 0.90483E-14 0.27617E-14 0.14294E-14 0.18402E-13 0.26336E-12 0.11894E-12
 0.22586E-14 0.95306E-14 0.47278E-13 0.21223E-10 0.36735E-13 0.28422E-13 0.28866E-14 0.34614E-12 0.32564E-12 0.19835E-13
 0.12490E-14 0.48572E-15 0.22000E-13 0.11666E-12 0.21094E-14 0.16431E-13 0.52680E-13 0.15071E-13 0.12997E-13 0.84203E-14
 0.10780E-13 0.20906E-12 0.32829E-12 0.46221E-11 0.14960E-13 0.99248E-12 0.32808E-12 0.33087E-11 0.61270E-14 0.24442E-14
 0.57232E-13 0.24630E-12 0.26600E-12 0.23074E-11 0.75911E-14 0.39344E-13 0.18181E-12 0.25970E-11 0.72047E-13 0.57607E-13
 0.24137E-11 0.45586E-11 0.60896E-13 0.44686E-14 0.18985E-13 0.22723E-12 0.46282E-13 0.24209E-11 0.44254E-12 0.21652E-10
 0.51070E-14 0.14003E-13 0.50931E-14 0.68695E-14 0.64809E-14 0.95757E-14 0.72858E-14 0.14128E-13 0.35444E-13 0.28491E-13
 0.32216E-12 0.29792E-10 0.14380E-12 0.10843E-12 0.86459E-14 0.11596E-10 0.92690E-13 0.35334E-12 0.25341E-13 0.29827E-10
 0.23050E-12 0.22343E-14 0.13235E-12 0.41653E-12 0.57593E-14 0.26590E-13 0.10436E-13 0.58564E-14 0.10714E-13 0.17152E-12
 0.44258E-11 0.92411E-11 0.13899E-12 0.20193E-11 0.41647E-13 0.24064E-12 0.44964E-14 0.10145E-13 0.12546E-13 0.32856E-10
 0.15831E-13 0.40103E-13 0.23707E-13 0.39266E-12 0.11602E-13 0.71054E-14 0.35527E-14 0.41245E-13 0.35799E-12 0.70485E-13
 0.30184E-14 0.88575E-14 0.37227E-13 0.23240E-10 0.21483E-13 0.59702E-13 0.73275E-14 0.14720E-11 0.29921E-12 0.43472E-13
 0.51348E-15 0.32266E-15 0.90691E-14 0.23551E-13 0.69389E-15 0.68279E-14 0.15293E-13 0.83267E-15 0.32890E-14 0.27409E-14
 0.41946E-14 0.11094E-12 0.24727E-12 0.19886E-11 0.78271E-14 0.19208E-11 0.16161E-11 0.31270E-11 0.94647E-14 0.19464E-14
 0.16757E-13 0.55005E-12 0.20882E-12 0.52966E-12 0.37192E-14 0.39135E-14 0.20639E-12 0.16467E-11 0.55525E-13 0.53277E-13
 0.46421E-13 0.17409E-11 0.16417E-13 0.77716E-15 0.70777E-14 0.84641E-13 0.20292E-12 0.27418E-11 0.38161E-12 0.26448E-10
 0.13045E-14 0.90344E-14 0.29837E-14 0.24147E-14 0.24980E-14 0.48156E-14 0.62450E-14 0.68834E-14 0.19346E-13 0.14266E-13
 0.23898E-13 0.19373E-11 0.61645E-13 0.22413E-13 0.52597E-14 0.34522E-10 0.20814E-12 0.21228E-11 0.38913E-13 0.10593E-10
 0.55983E-13 0.36082E-14 0.19108E-12 0.13026E-11 0.53429E-14 0.10801E-12 0.58162E-13 0.28449E-13 0.24744E-13 0.36246E-12
 0.12146E-12 0.71222E-11 0.17342E-12 0.15839E-11 0.17319E-13 0.69530E-12 0.19151E-13 0.56760E-13 0.30587E-13 0.10918E-09
 0.37539E-14 0.32863E-13 0.27055E-13 0.52185E-12 0.89373E-14 0.13184E-13 0.86597E-14 0.59786E-13 0.33883E-12 0.35680E-13
 0.16029E-14 0.50689E-14 0.25709E-13 0.11964E-10 0.91593E-14 0.12407E-12 0.16320E-13 0.74067E-11 0.26068E-12 0.76210E-13
 0.33307E-15 0.49960E-15 0.40801E-14 0.93259E-14 0.38858E-15 0.22760E-14 0.44409E-14 0.22204E-15 0.99920E-15 0.11935E-14
 0.21788E-14 0.75190E-13 0.20206E-12 0.13053E-11 0.51625E-14 0.58152E-11 0.63709E-07 0.28310E-11 0.17431E-13 0.29282E-14
 0.44686E-14 0.14173E-11 0.21298E-12 0.35361E-12 0.22204E-14 0.48850E-14 0.26329E-12 0.11333E-11 0.42438E-13 0.42411E-13
 0.81740E-14 0.10628E-11 0.12129E-13 0.49960E-15 0.38580E-14 0.64421E-13 0.34110E-11 0.29505E-11 0.24375E-12 0.33045E-10
 0.54123E-15 0.71054E-14 0.20539E-14 0.12906E-14 0.11657E-14 0.27894E-14 0.56899E-14 0.51625E-14 0.10519E-13 0.85904E-14
 0.42744E-14 0.69696E-12 0.44589E-13 0.18707E-13 0.41633E-14 0.72082E-10 0.83053E-12 0.18856E-10 0.11333E-12 0.17803E-11
 0.83128E-14 0.60438E-13 0.26057E-12 0.13905E-10 0.52597E-14 0.57500E-12 0.24448E-11 0.63827E-12 0.85709E-13 0.10645E-11
 0.24022E-13 0.60492E-11 0.18924E-12 0.21039E-11 0.92565E-14 0.25422E-10 0.47246E-12 0.37171E-11 0.12164E-12 0.62525E-11
 0.87430E-15 0.31003E-13 0.29726E-13 0.56449E-12 0.82573E-14 0.36027E-13 0.35527E-13 0.15665E-12 0.34148E-12 0.13045E-13
 0.13739E-14 0.40523E-14 0.16723E-13 0.53211E-11 0.58287E-14 0.62078E-12 0.59730E-13 0.38187E-10 0.21788E-12 0.10736E-12
 0.22204E-15 0.36082E-15 0.21649E-14 0.41911E-14 0.22204E-15 0.10547E-14 0.12490E-14 -.27756E-16 0.33307E-15 0.40246E-15
 0.88818E-15 0.42494E-13 0.87985E-13 0.47581E-12 0.30809E-14 0.31337E-11 0.10848E-10 0.25786E-11 0.22385E-13 0.29976E-14
 0.17902E-14 0.57764E-11 0.16639E-12 0.10930E-12 0.11380E-14 0.13878E-15 0.11027E-12 0.63255E-12 0.32432E-13 0.43104E-13
 0.21094E-14 0.55204E-12 0.26923E-14 0.27756E-16 0.17764E-14 0.29032E-13 0.18595E-08 0.31303E-11 0.26082E-12 0.49827E-10
 0.22204E-15 0.51209E-14 0.12074E-14 0.45797E-15 0.37470E-15 0.15404E-14 0.42188E-14 0.28727E-14 0.60923E-14 0.45658E-14
 0.14988E-14 0.23617E-12 0.19387E-13 0.55789E-14 0.31086E-14 0.40385E-09 0.24647E-11 0.23011E-10 0.82878E-13 0.14605E-11
 0.17347E-14 0.16706E-12 0.18703E-12 0.86297E-08 0.42050E-14 0.97466E-12 0.51381E-10 0.16542E-11 0.13761E-12 0.14924E-11
 0.76467E-14 0.49236E-11 0.20660E-12 0.21351E-11 0.39968E-14 0.22756E-10 0.24942E-11 0.11365E-10 0.10114E-12 0.29948E-11
 0.19429E-15 0.26174E-13 0.33751E-13 0.76007E-12 0.56621E-14 0.38303E-13 0.81601E-13 0.11627E-12 0.23168E-12 0.56899E-14
 0.84655E-15 0.26923E-14 0.11463E-13 0.16843E-11 0.23315E-14 0.39832E-11 0.16298E-12 0.54539E-11 0.20101E-12 0.20452E-12
 0.55511E-16 0.24980E-15 0.14155E-14 0.23870E-14 0.19429E-15 0.22204E-15 0.44409E-15 -.55511E-16 0.83267E-16 0.11102E-15
 0.30531E-15 0.30934E-13 0.50016E-13 0.26118E-12 0.17486E-14 0.19061E-11 0.49432E-11 0.23123E-11 0.35374E-13 0.33584E-14
 0.10131E-14 0.44965E-08 0.15576E-12 0.72942E-13 0.74940E-15 0.83267E-16 0.61479E-13 0.43265E-12 0.29088E-13 0.36013E-13
 0.66613E-15 0.36854E-12 0.17486E-14 0.11102E-15 0.12212E-14 0.20650E-13 0.53511E-10 0.30824E-11 0.20323E-12 0.68740E-10
 0.55511E-16 0.38580E-14 0.91593E-15 0.23592E-15 0.19429E-15 0.79103E-15 0.35250E-14 0.20262E-14 0.44686E-14 0.30184E-14
 0.56899E-15 0.12002E-12 0.13572E-13 0.41495E-14 0.24564E-14 0.41939E-08 0.43031E-11 0.24129E-09 0.67696E-13 0.10865E-11
 0.56899E-15 0.70138E-12 0.13223E-12 0.41931E-10 0.37331E-14 0.97686E-12 0.22294E-11 0.15170E-12 0.14037E-12 0.12414E-11
 0.33307E-14 0.42327E-11 0.29275E-12 0.18192E-11 0.20400E-14 0.99993E-11 0.92537E-13 0.50004E-12 0.98227E-13 0.15507E-11
 0.13878E-16 0.30087E-13 0.43049E-13 0.91367E-12 0.57176E-14 0.56705E-13 0.19817E-12 0.10714E-12 0.24256E-12 0.27756E-16
 0.49960E-15 0.17070E-14 0.45658E-14 0.20364E-12 0.13045E-14 0.41055E-11 0.58381E-12 0.16828E-11 0.17428E-12 0.30972E-12
 0.12490E-15 0.30531E-15 0.83267E-15 0.13600E-14 0.11102E-15 0.24980E-15 0.19429E-15 -.27756E-16  0.0000     0.13878E-16
 0.16653E-15 0.12115E-13 0.19984E-14 0.31752E-13 0.11380E-14 0.63227E-12 0.11868E-10 0.20553E-11 0.33043E-13 0.37331E-14
 0.45797E-15 0.12965E-10 0.12540E-12 0.34084E-13 0.38858E-15  0.0000     0.15932E-13 0.15185E-12 0.16612E-13 0.28894E-13
 0.27756E-15 0.21196E-12 0.36082E-15 -.13878E-16 0.69389E-15 0.12559E-13 0.86142E-10 0.30368E-11 0.17845E-12 0.99975E-10
 0.97145E-16 0.29698E-14 0.58287E-15 0.16653E-15 0.13878E-15 0.43021E-15 0.24425E-14 0.13531E-14 0.27062E-14 0.18735E-14
 0.28449E-15 0.53665E-13 0.71748E-14 0.19290E-14 0.18180E-14 0.78299E-09 0.65459E-12 0.83714E-12 0.24883E-13 0.15383E-11
 0.19429E-15 0.23073E-12 0.67939E-13 0.69260E-08 0.28380E-14 0.31901E-12 0.86445E-13 0.12892E-13 0.27589E-13 0.32001E-12
 0.15543E-14 0.33781E-11 0.26594E-12 0.99244E-12 0.86042E-15 0.35236E-12 0.49405E-14 0.33973E-13 0.38483E-13 0.11205E-11
  0.0000     0.19970E-13 0.40731E-13 0.10749E-11 0.40523E-14 0.34250E-13 0.53457E-13 0.33473E-13 0.13212E-12 0.23037E-14
 0.31919E-15 0.12768E-14 0.62450E-15 0.99087E-14 0.66613E-15 0.13619E-11 0.48184E-12 0.10879E-11 0.15279E-12 0.49802E-12
  0.0000     0.22204E-15 0.68001E-15 0.13323E-14 0.16653E-15 0.83267E-16 0.83267E-16 0.55511E-16 0.27756E-16 -.27756E-16
 0.55511E-16 0.79312E-14 -.55511E-16 0.96589E-14 0.77716E-15 0.31408E-12 0.32456E-09 0.18356E-11 0.44922E-13 0.41356E-14
 0.34694E-15 0.26987E-11 0.11068E-12 0.23176E-13 0.27756E-15 0.83267E-16 0.51903E-14 0.85557E-13 0.14391E-13 0.27159E-13
 0.15266E-15 0.14414E-12 0.19429E-15 0.11102E-15 0.44409E-15 0.88124E-14 0.49402E-11 0.28330E-11 0.17281E-12 0.19529E-09
 0.27756E-16 0.23870E-14 0.43021E-15 0.97145E-16 0.69389E-17 0.26368E-15 0.19082E-14 0.94369E-15 0.18874E-14 0.12768E-14
 0.18735E-15 0.30122E-13 0.48017E-14 0.12525E-14 0.15127E-14 0.69912E-10 0.15203E-12 0.17787E-12 0.13156E-13 0.17296E-11
 0.13878E-15 0.10619E-12 0.37505E-13 0.94033E-11 0.24286E-14 0.15754E-12 0.21816E-13 0.34278E-14 0.81046E-14 0.97762E-13
 0.91593E-15 0.29212E-11 0.47487E-12 0.26504E-07 0.44409E-15 0.75523E-13 0.12212E-14 0.95479E-14 0.24675E-13 0.76783E-12
 -.27756E-16 0.21996E-13 0.49294E-13 0.16603E-11 0.34972E-14 0.27200E-13 0.18874E-13 0.14488E-13 0.83766E-13 0.11893E-13
 0.24286E-15 0.90206E-15 -.69389E-16 0.18838E-12 0.30531E-15 0.61956E-12 0.23706E-12 0.67646E-12 0.14011E-12 0.10461E-11
 0.41633E-16 0.24980E-15 0.40246E-15 0.11102E-14  0.0000     0.13878E-15 0.13878E-15 -.55511E-16 0.55511E-16 -.62450E-16
 0.55511E-16 0.18319E-14 0.18791E-13 0.11803E-13 0.47184E-15 0.14630E-12 0.54248E-11 0.16683E-11 0.47615E-13 0.39690E-14
 0.23592E-15 0.13381E-11 0.91042E-13 0.17097E-13 0.13878E-15 0.11102E-15 0.16098E-14 0.97145E-15 0.94230E-14 0.23592E-13
 0.41633E-16 0.85716E-13 0.19429E-15 0.46838E-16 0.30531E-15 0.63456E-14 0.94072E-12 0.26419E-11 0.10193E-12 0.17319E-09
 0.41633E-16 0.20262E-14 0.35822E-15 0.11102E-15 -.29490E-16 0.16653E-15 0.14988E-14 0.68695E-15 0.12768E-14 0.75634E-15
 0.12490E-15 0.15179E-13 0.33515E-14 0.89338E-15 0.12768E-14 0.35650E-09 0.32016E-13 0.50904E-13 0.79242E-14 0.41684E-11
 0.34694E-16 0.35416E-13 0.21240E-13 0.10177E-11 0.20886E-14 0.74780E-13 0.77993E-14 0.11657E-14 0.24564E-14 0.26722E-13
 0.55511E-15 0.22964E-11 0.44091E-12 0.82001E-11 0.16653E-15 0.20692E-13 0.20817E-15 0.34139E-14 0.14315E-13 0.62075E-12
 -.13878E-16 0.16917E-13 0.50376E-13 0.19092E-11 0.29143E-14 0.16875E-13 0.59119E-14 0.56621E-14 0.40051E-13 0.60001E-13
 0.13878E-15 0.31919E-15 0.54123E-15 0.72026E-12 0.23592E-15 0.72939E-12 0.74940E-13 0.55192E-12 0.13398E-12 0.27021E-11
  0.0000     0.15959E-15 0.45103E-15 0.11657E-14 0.11102E-15 0.16653E-15 0.11102E-15 0.13878E-16 0.55511E-16 -.41633E-16
 0.13878E-16 0.12559E-14 0.31253E-13 0.90108E-13 0.37817E-15 0.92527E-13 0.11805E-11 0.20867E-11 0.61590E-13 0.47184E-14
 0.17347E-15 0.77965E-12 0.80293E-13 0.14780E-13 0.14225E-15 0.55511E-16 0.34694E-15 0.49891E-14 0.84446E-14 0.26382E-13
 0.19429E-15 0.49721E-13 0.97145E-16 -.86736E-17 0.19429E-15 0.49925E-14 0.32718E-12 0.24196E-11 0.10551E-12 0.10716E-08
 0.34694E-16 0.17764E-14 0.26194E-15 0.10408E-15 -.46838E-16 0.13878E-15 0.12143E-14 0.56899E-15 0.99920E-15 0.60368E-15
 0.97145E-16 0.10773E-13 0.22794E-14 0.64705E-15 0.10963E-14 0.43364E-10 0.11685E-13 0.20581E-13 0.40176E-14 0.71387E-11
 0.27756E-16 0.14225E-13 0.12528E-13 0.28345E-12 0.18041E-14 0.44416E-13 0.39690E-14 0.40939E-15 0.10963E-14 0.10887E-13
 0.42327E-15 0.19804E-11 0.57275E-12 0.10230E-10 0.11796E-15 0.73969E-14 0.69389E-17 0.16168E-14 0.85765E-14 0.47206E-12
 -.27756E-16 0.20428E-13 0.59397E-13 0.32104E-11 0.25258E-14 0.11061E-13 0.27756E-14 0.24217E-14 0.19526E-13 0.89276E-13
 0.13878E-15 0.29143E-15 0.99920E-15 0.74857E-12 0.55511E-16 0.86664E-12 0.33674E-13 0.41377E-12 0.17576E-12 0.67684E-10
 0.27756E-16 0.20123E-15 0.33307E-15 0.93675E-15 0.69389E-16 0.18041E-15  0.0000     0.34694E-16 0.20817E-16 -.10408E-15
 -.69389E-17 0.83267E-15 0.53089E-13 0.95889E-13 0.20123E-15 0.47393E-13 0.51768E-12 0.22369E-11 0.57794E-13 0.43854E-14
 0.13184E-15 0.69635E-12 0.63893E-13 0.11012E-13 0.11102E-15 0.38164E-16 -.62450E-16 0.62471E-13 0.42327E-14 0.16744E-13
 -.27756E-16 0.24883E-13 -.52042E-16 -.34694E-17 0.16653E-15 0.37539E-14 0.16897E-12 0.21881E-11 0.71457E-13 0.47433E-09
 -.27756E-16 0.14155E-14 0.22551E-15 0.79797E-16 -.90206E-16  0.0000     0.83267E-15 0.44409E-15 0.62450E-15 0.33307E-15
 -.13878E-16 0.42050E-14 0.16168E-14 0.51348E-15 0.86042E-15 0.92086E-09 0.26645E-14 0.89234E-14 0.23662E-14 0.55064E-09
  0.0000     0.86597E-14 0.65573E-14 0.10847E-12 0.12768E-14 0.25147E-13 0.18457E-14 0.19429E-15 0.27756E-15 0.29421E-14
 0.34001E-15 0.15645E-11 0.58198E-12 0.86009E-11 0.48572E-16 0.24425E-14 -.27756E-16 0.10478E-14 0.55164E-14 0.40139E-12
 -.13878E-16 0.12712E-13 0.58085E-13 0.40623E-11 0.19984E-14 0.68071E-14 0.10547E-14 0.81879E-15 0.54748E-14 0.26476E-12
 0.34694E-16 0.83267E-16 0.68626E-14 0.93991E-12 0.55511E-16 0.80568E-11 0.14266E-13 0.36694E-12 0.17908E-12 0.37402E-07
 0.27756E-16 0.24286E-15 0.48572E-15 0.79797E-15 0.11796E-15 -.27756E-16 0.27756E-16 0.27756E-16 0.83267E-16 -.13878E-16
 0.69389E-17 0.29352E-14 0.61166E-13 0.24968E-12 0.18735E-15 0.34542E-13 0.28462E-12 0.24786E-11 0.10363E-12 0.49127E-14
 0.83267E-16 0.66787E-12 0.57010E-13 0.11588E-13 0.69389E-16 0.20817E-16 -.48572E-16 0.13831E-12 0.41842E-14 0.18069E-13
 0.13878E-16 0.93051E-14  0.0000     0.69389E-16 0.83267E-16 0.39066E-14 0.93869E-13 0.19569E-11 0.70458E-13 0.95710E-08
 0.34694E-16 0.13184E-14 0.21511E-15 0.11796E-15 0.69389E-17 -.13878E-16 0.73552E-15 0.40246E-15 0.56899E-15 0.33307E-15
 0.27756E-16 0.33862E-14 0.14086E-14 0.45797E-15 0.91593E-15 0.23986E-09 0.18111E-14 0.60299E-14 0.20609E-14 0.30144E-10
 -.20817E-16 0.53429E-14 0.47948E-14 0.52520E-13 0.11657E-14 0.18700E-13 0.14502E-14 0.26368E-15 0.29143E-15 0.16376E-14
 0.22898E-15 0.13353E-11 0.68090E-12 0.85949E-11 -.69389E-17 0.17486E-14  0.0000     0.85348E-15 0.45033E-14 0.32227E-12
 0.41633E-16 0.14148E-13 0.70402E-13 0.59705E-11 0.18666E-14 0.53776E-14 0.80491E-15 0.69389E-15 0.30739E-14 0.50038E-12
 0.13184E-15 0.20817E-16 0.90761E-14 0.93647E-12 -.41633E-16 0.27045E-10 0.88818E-14 0.30038E-12 0.22135E-12 0.16615E-10
 -.69389E-17 0.28449E-15 0.36776E-15 0.96451E-15 -.55511E-16 0.13878E-16 -.62450E-16  0.0000     0.20817E-16 -.20817E-16
  0.0000     0.90206E-14 0.69181E-13 0.26305E-12 0.69389E-16 0.21337E-13 0.18438E-12 0.27027E-11 0.13738E-12 0.51140E-14
 0.15266E-15 0.63591E-12 0.58530E-13 0.90067E-14 0.90206E-16 0.27756E-16  0.0000     0.23347E-12 0.23731E-14 0.15578E-13
 0.69389E-17 0.26645E-14 0.27756E-16 -.69389E-17 0.13184E-15 0.33237E-14 0.58564E-13 0.17959E-11 0.50238E-13 0.12224E-06
 0.76328E-16 0.10061E-14 0.14572E-15 0.69389E-16 -.20817E-16  0.0000     0.55511E-15 0.36776E-15 0.38858E-15 0.21511E-15
 -.27756E-16 0.16445E-14 0.82573E-15 0.30531E-15 0.67307E-15 0.32605E-08 0.46491E-15 0.30531E-14 0.10963E-14 0.26067E-11
 -.27756E-16 0.36221E-14 0.31641E-14 0.26742E-13 0.97145E-15 0.12219E-13 0.83961E-15 0.41633E-16 0.12490E-15 0.49266E-15
 0.27756E-15 0.10970E-11 0.69967E-12 0.14916E-10 0.69389E-17 0.58287E-15 -.69389E-16 0.35388E-15 0.28519E-14 0.32278E-12
 0.20817E-16 0.12004E-13 0.83190E-13 0.68962E-11 0.15890E-14 0.34001E-14 0.36776E-15 0.28449E-15 0.47184E-15 0.17570E-11
 0.48572E-16 -.34694E-16 0.16064E-13 0.93141E-12 -.48572E-16 0.49258E-12 0.46560E-14 0.27354E-12 0.21805E-12 0.60841E-11
 -.69389E-16 0.37470E-15 0.45797E-15 0.63144E-15 0.55511E-16 0.27756E-16 -.11102E-15 0.16653E-15 0.69389E-17 -.34694E-16
 0.13878E-16 0.17014E-13 0.72345E-13 0.52150E-12 0.62450E-16 0.15744E-13 0.12115E-12 0.30007E-11 0.18564E-12 0.51556E-14
 0.76328E-16 0.60944E-12 0.65961E-13 0.84377E-14 0.69389E-16 0.13878E-16 0.13184E-15 0.34651E-12 0.13323E-14 0.16515E-13
 0.13878E-16 0.43021E-15  0.0000     0.34694E-16 0.13878E-16 0.35111E-14 0.45623E-13 0.15290E-11 0.40579E-13 0.20934E-08
 0.69389E-17 0.12212E-14 0.13184E-15 0.69389E-17 0.69389E-17 0.69389E-17 0.34694E-15 0.26368E-15 0.38858E-15 0.90206E-16
 0.55511E-16 0.94369E-15 0.74940E-15 0.24980E-15 0.61756E-15 0.62226E-09 0.10408E-15 0.19984E-14 0.93675E-15 0.12648E-11
 -.41633E-16 0.23731E-14 0.22829E-14 0.15148E-13 0.76328E-15 0.92426E-14 0.58287E-15 0.97145E-16 0.76328E-16 0.83267E-16
 0.15266E-15 0.92838E-12 0.74808E-12 0.10652E-10 -.62450E-16 0.43021E-15 -.13878E-15 0.36082E-15 0.23315E-14 0.32791E-12
 -.69389E-17 0.11657E-13 0.93647E-13 0.87756E-11 0.14502E-14 0.26437E-14 0.16653E-15 0.83267E-16 0.15959E-15 0.42212E-10
 0.69389E-16 -.34694E-16 0.19970E-13 0.89122E-12 -.20817E-16 0.14810E-12 0.29074E-14 0.25407E-12 0.24244E-12 0.36664E-11
 0.55511E-16 0.48572E-15 0.52042E-15 0.92287E-15 0.13878E-16 0.10408E-15 0.41633E-16 0.41633E-16 0.27756E-16 -.20817E-16
 0.34694E-16 0.34396E-13 0.67009E-13 0.73418E-12 -.34694E-16 0.11539E-13 0.10800E-12 0.34236E-11 0.27429E-12 0.55927E-14
 0.13878E-15 0.65176E-12 0.70374E-13 0.80144E-14 0.10408E-15 0.97145E-16 0.16653E-15 0.40848E-12 0.12004E-14 0.16050E-13
 0.55511E-16 0.98532E-14 0.13878E-16 0.13878E-16 0.12490E-15 0.33445E-14 0.45332E-13 0.14048E-11 0.43555E-13 0.43848E-09
 0.41633E-16 0.16098E-14 0.18041E-15 0.13878E-16 0.41633E-16 0.55511E-16 0.34694E-15 0.20123E-15 0.26368E-15 0.16653E-15
 0.13878E-16 0.67307E-15 0.58287E-15 0.16653E-15 0.63144E-15 0.77349E-09 0.55511E-16 0.14329E-14 0.71471E-15 0.64971E-12
 -.69389E-17 0.17694E-14 0.16653E-14 0.95410E-14 0.70777E-15 0.69944E-14 0.53083E-15 0.90206E-16 0.65919E-16 0.62450E-16
 0.24980E-15 0.78035E-12 0.12326E-11 0.15957E-10 0.69389E-17 0.24286E-15 -.46838E-16 0.26541E-15 0.18111E-14 0.35484E-12
 0.13878E-16 0.10998E-13 0.14082E-12 0.11890E-10 0.13184E-14 0.20053E-14 0.29143E-15 0.20123E-15 0.83267E-16 0.43952E-10
 0.90206E-16  0.0000     0.24938E-13 0.80876E-12 0.41633E-16 0.56809E-13 0.22135E-14 0.29693E-12 0.28313E-12 0.27123E-11
 0.27756E-16 0.45797E-15 0.39552E-15 0.61756E-15 0.76328E-16 -.83267E-16 -.62450E-16 -.20817E-16 0.20817E-16 -.27756E-16
 -.69389E-17 0.97242E-13 0.64559E-13 0.78303E-12 -.11796E-15 0.73969E-14 0.79235E-13 0.38446E-11 0.29005E-12 0.58564E-14
 0.83267E-16 0.68622E-12 0.66135E-13 0.55789E-14 -.20817E-16 0.11796E-15 0.27756E-15 0.50274E-12 0.22204E-15 0.11949E-13
 -.20817E-16 0.37408E-13 -.41633E-16 -.20817E-16 0.48572E-16 0.25188E-14 0.37297E-13 0.12024E-11 0.30836E-13 0.33736E-09
 -.34694E-16 0.10686E-14 0.48572E-16 -.34694E-16  0.0000     0.41633E-16 0.20817E-15 0.15266E-15 0.25674E-15 0.55511E-16
 -.69389E-16 0.13878E-16 0.30531E-15 0.10408E-15 0.45103E-15 0.26913E-10 -.55511E-16 0.77369E-15 0.41980E-15 0.32235E-12
 -.83267E-16 0.12074E-14 0.10408E-14 0.57385E-14 0.58981E-15 0.53117E-14 0.28449E-15 0.36429E-16 -.27756E-16 -.20817E-16
 0.55511E-16 0.68026E-12 0.14065E-11 0.13036E-10 0.13878E-16 0.74593E-16 -.12230E-15 0.30358E-15 0.12386E-14 0.37157E-12
 0.20817E-16 0.83267E-14 0.12811E-12 0.13054E-10 0.11935E-14 0.12681E-14 0.12056E-15 -.65919E-16 0.41286E-15 0.32323E-11
 0.76328E-16 0.83267E-16 0.41758E-13 0.75062E-12 -.48572E-16 0.21649E-13 0.12178E-14 0.30893E-12 0.28989E-12 0.21965E-11
 0.83267E-16 0.67307E-15 0.56899E-15 0.92287E-15 0.11102E-15 0.11102E-15 0.83267E-16 0.55511E-16 0.62450E-16 0.13878E-16
 0.11796E-15 0.10587E-12 0.60715E-13 0.96522E-12 0.15959E-15 0.68209E-14 0.60243E-13 0.40958E-11 0.47154E-12 0.10811E-13
 0.11102E-15 0.69358E-12 0.70589E-13 0.74107E-14 0.76328E-16 0.83267E-16 0.30531E-15 0.60112E-12 0.56899E-15 0.14405E-13
 0.62450E-16 0.97256E-13 0.41633E-16  0.0000     0.17347E-15 0.35250E-14 0.31503E-13 0.12874E-11 0.28179E-13 0.88215E-10
 0.55511E-16 0.17555E-14 0.12490E-15 0.83267E-16 0.27756E-16 0.62450E-16 0.23592E-15 0.18041E-15 0.17000E-15 0.76328E-16
 0.27756E-16 0.22898E-15 0.37470E-15 0.19429E-15 0.72164E-15 0.69036E-10 0.83267E-16 0.88341E-15 0.47531E-15 0.52492E-12
 0.62450E-16 0.90206E-15 0.83267E-15 0.38441E-14 0.55511E-15 0.80769E-14 0.31138E-15 0.11102E-15 0.32526E-17 0.34694E-17
 0.23592E-15 0.55253E-12 0.13156E-11 0.21176E-10 0.69389E-16 0.70256E-16 -.27756E-16 0.30184E-15 0.12594E-14 0.46367E-12
 0.62450E-16 0.10353E-13 0.22143E-12 0.17030E-10 0.17000E-14 0.15196E-14 0.22660E-15 0.97145E-16 0.64879E-15 0.16802E-11
 0.76328E-16 0.97145E-16 0.44048E-13 0.66107E-12 0.16306E-15 0.18662E-13 0.11588E-14 0.40329E-12 0.32961E-12 0.19276E-11
 0.97145E-16 0.64532E-15 0.54123E-15 0.74246E-15 0.13878E-16 -.11102E-15 -.62450E-16 -.13878E-16 0.62450E-16 0.11102E-15
  0.0000     0.37012E-12 0.55879E-13 0.13938E-11 -.13878E-16 0.46629E-14 0.60056E-13 0.43148E-11 0.60588E-12 0.97977E-14
 0.11102E-15 0.72777E-12 0.86708E-13 0.63005E-14  0.0000     -.83267E-16 0.33307E-15 0.66337E-12 0.97145E-16 0.13101E-13
  0.0000     0.23402E-12 -.34694E-16 -.55511E-16 -.41633E-16 0.29976E-14 0.34354E-13 0.11838E-11 0.21746E-13 0.82205E-10
 0.97145E-16 0.14919E-14 0.97145E-16 0.13878E-16  0.0000     0.83267E-16 0.13184E-15 0.19429E-15 0.19429E-15 0.55511E-16
 0.13878E-16 0.55511E-16 0.24980E-15 0.16653E-15 0.48572E-15 0.12581E-10 -.55511E-16 0.46838E-15 0.33307E-15 0.22644E-12
 -.27756E-16 0.72164E-15 0.74940E-15 0.26368E-14 0.46491E-15 0.51903E-14 0.14225E-15 -.27756E-16 -.31225E-16 -.10408E-16
 0.18041E-15 0.47029E-12 0.17006E-11 0.20622E-10 0.13878E-16 -.69389E-16 -.27756E-16 0.23245E-15 0.92981E-15 0.43877E-12
 0.55511E-16 0.84446E-14 0.20813E-12 0.17942E-10 0.19741E-14 0.11519E-14 -.48572E-16 0.83267E-16 0.64532E-15 0.75723E-12
 0.83267E-16 0.23592E-15 0.53832E-13 0.62516E-12 0.13878E-16 0.75634E-14 0.53776E-15 0.38136E-12 0.34749E-12 0.17489E-11
 0.97145E-16 0.83267E-15 0.66613E-15 0.87430E-15 0.41633E-16 0.27756E-16 0.55511E-16 0.55511E-16 0.11102E-15 0.27756E-16
 -.27756E-16 0.73974E-12 0.50654E-13 0.13900E-11 0.13184E-15 0.38303E-14 0.55261E-13 0.46766E-11 0.83004E-12 0.14211E-13
 0.69389E-16 0.75692E-12 0.80075E-13 0.58634E-14 0.11102E-15 0.13878E-16 0.29143E-15 0.69663E-12 0.12490E-15 0.14100E-13
 0.13878E-16 0.30967E-12 0.55511E-16 -.27756E-16 0.83267E-16 0.30809E-14 0.35125E-13 0.14498E-11 0.24328E-13 0.37863E-10
 0.27756E-16 0.17694E-14 0.11102E-15 0.97145E-16 0.27756E-16 0.83267E-16 0.12490E-15 0.16653E-15 0.11102E-15 0.83267E-16
 -.41633E-16 0.55511E-16 0.19429E-15 0.97145E-16 0.63838E-15 0.96810E-11 -.41633E-16 0.47184E-15 0.33307E-15 0.31294E-12
 0.13878E-16 0.59674E-15 0.47184E-15 0.20053E-14 0.43021E-15 0.68695E-14 0.20817E-15  0.0000     0.10755E-15 0.55511E-16
 0.18041E-15 0.39571E-12 0.23407E-11 0.39167E-10 0.55511E-16 0.13184E-15  0.0000     0.13878E-15 0.12212E-14 0.50985E-12
 0.55511E-16 0.88679E-14 0.34010E-12 0.24024E-10 0.21025E-14 0.12490E-14 0.18735E-15 0.11102E-15 0.86736E-15 0.56283E-12
 0.83267E-16 0.30531E-15 0.59786E-13 0.54427E-12 0.16653E-15 0.62866E-14 0.66613E-15 0.44360E-12 0.39596E-12 0.16827E-11
 -.27756E-16 0.94369E-15 0.54123E-15 0.80491E-15 -.27756E-16 -.13878E-15 -.13878E-15 -.13878E-16 0.55511E-16 -.41633E-16
 -.27756E-16 0.60533E-11 0.46102E-13 0.13437E-11 0.34694E-16 0.30531E-14 0.51584E-13 0.52270E-11 0.98135E-12 0.25424E-13
 0.13878E-16 0.81150E-12 0.99393E-13 0.60368E-14 -.27756E-16 -.15266E-15 0.19429E-15 0.72341E-12 -.27756E-16 0.12712E-13
 0.27756E-16 0.50257E-12 0.97145E-16 -.13878E-15 0.13878E-15 0.33723E-14 0.35305E-13 0.14139E-11 0.16834E-13 0.28626E-10
 0.27756E-16 0.18666E-14 0.97145E-16 0.97145E-16 0.55511E-16 0.13878E-16 0.69389E-16 0.11102E-15 0.12490E-15 0.11102E-15
 -.41633E-16 0.27756E-16 0.16653E-15 0.55511E-16 0.58287E-15 0.62397E-11 0.13878E-16 0.36082E-15 0.24980E-15 0.24334E-12
 -.13878E-16 0.61062E-15 0.45797E-15 0.14433E-14 0.31919E-15 0.59397E-14 0.18041E-15 0.69389E-16 0.27756E-16 0.83267E-16
 0.12490E-15 0.34525E-12 0.29863E-11 0.38690E-10 0.83267E-16 -.13878E-16 -.69389E-16 0.30531E-15 0.94369E-15 0.55471E-12
 0.41633E-16 0.78271E-14 0.32180E-12 0.25775E-10 0.20400E-14 0.91593E-15 -.41633E-16 0.83267E-16 0.88818E-15 0.36091E-12
 0.13878E-15 0.12490E-15 0.81671E-13 0.48595E-12 -.55511E-16 0.39066E-14 0.33307E-15 0.47899E-12 0.39890E-12 0.16277E-11
  0.0000     0.10408E-14 0.73552E-15 0.10270E-14 0.83267E-16  0.0000     -.83267E-16 0.55511E-16 0.69389E-16 0.55511E-16
 -.27756E-16 0.25700E-10 0.41495E-13 0.10336E-11 -.41633E-16 0.24980E-14 0.53318E-13 0.58896E-11 0.12737E-11 0.27783E-13
 0.55511E-16 0.90054E-12 0.94758E-13 0.60507E-14 0.13878E-16  0.0000     0.27756E-15 0.73025E-12 0.27756E-16 0.12254E-13
 -.13878E-16 0.63705E-12  0.0000     0.97145E-16  0.0000     0.32752E-14 0.37248E-13 0.17919E-11 0.16043E-13 0.18318E-10
 0.55511E-16 0.19013E-14 0.12490E-15 0.13878E-16 -.27756E-16 0.27756E-16 0.69389E-16 0.16653E-15 0.97145E-16 0.55511E-16
 0.41633E-16 0.27756E-16 0.15266E-15 0.55511E-16 0.66613E-15 0.24390E-11 0.83267E-16 0.23592E-15 0.22204E-15 0.24573E-12
 0.27756E-16 0.52736E-15 0.31919E-15 0.11657E-14 0.29143E-15 0.68973E-14 0.16653E-15 0.11102E-15 -.13878E-16 0.83267E-16
 0.16653E-15 0.30302E-12 0.42012E-11 0.18395E-09 0.83267E-16 0.69389E-16 0.13878E-16 0.15266E-15 0.10686E-14 0.59856E-12
 0.13878E-16 0.75356E-14 0.51271E-12 0.29747E-10 0.25813E-14 0.10270E-14 0.13878E-16 0.83267E-16 0.10270E-14 0.29882E-12
 0.11102E-15 0.29143E-15 0.94577E-13 0.43518E-12 0.69389E-16 0.29005E-14 0.30531E-15 0.53416E-12 0.45382E-12 0.15428E-11
 0.13878E-16 0.12559E-14 0.73552E-15 0.10963E-14 -.41633E-16 -.83267E-16 -.27756E-16 0.83267E-16 0.41633E-16 -.27756E-16
 -.20817E-16 0.19118E-11 0.37526E-13 0.18256E-11 0.69389E-16 0.21094E-14 0.49072E-13 0.59626E-11 0.16867E-11 0.42494E-13
 0.41633E-16 0.92272E-12 0.11346E-12 0.58842E-14 0.55511E-16 0.55511E-16 0.16653E-15 0.75075E-12 0.27756E-16 0.13628E-13
 -.27756E-16 0.38362E-11 0.12490E-15 0.55511E-16 0.16653E-15 0.31086E-14 0.37942E-13 0.17327E-11 0.12781E-13 0.12973E-10
 -.41633E-16 0.22343E-14 0.97145E-16  0.0000     0.13878E-16 0.13878E-16 0.41633E-16 0.11102E-15 0.19429E-15  0.0000    
  0.0000      0.0000     0.55511E-16 0.13878E-16 0.79103E-15 0.29985E-11  0.0000     0.19429E-15 0.13878E-15 0.24718E-12
 -.55511E-16 0.36082E-15 0.30531E-15 0.86042E-15 0.26368E-15 0.70777E-14 0.16653E-15 0.97145E-16 -.27756E-16  0.0000    
 0.12490E-15 0.25432E-12 0.52364E-11 0.10314E-09 0.55511E-16  0.0000     -.27756E-16 0.19429E-15 0.11796E-14 0.63705E-12
 0.41633E-16 0.78548E-14 0.58122E-12 0.30873E-10 0.28866E-14 0.11380E-14 0.55511E-16 0.97145E-16 0.92981E-15 0.24084E-12
 0.13878E-15 0.24980E-15 0.10106E-12 0.38584E-12 -.83267E-16 0.22482E-14 0.16653E-15 0.58570E-12 0.47741E-12 0.15779E-11
 0.24286E-16 0.13080E-14 0.73552E-15 0.94369E-15 -.27756E-16 0.55511E-16 -.27756E-16 -.13878E-16 0.41633E-16 0.79797E-16
 -.27756E-16 0.56559E-12 0.33806E-13 0.76641E-12 -.55511E-16 0.19151E-14 0.52652E-13 0.66585E-11 0.20602E-11 0.53076E-13
 0.69389E-16 0.10067E-11 0.12754E-12 0.80352E-14 -.27756E-16 -.27756E-16 0.20817E-15 0.75169E-12  0.0000     0.12927E-13
 0.13878E-16 0.20350E-11 0.41633E-16  0.0000     0.55511E-16 0.48572E-14 0.41162E-13 0.19077E-11 0.87153E-14 0.10457E-10
  0.0000     0.24564E-14 0.16653E-15 -.27756E-16 -.13878E-16  0.0000     0.41633E-16 0.12490E-15 0.69389E-16 0.55511E-16
 -.13878E-16 0.55511E-16 0.97145E-16 0.12490E-15 0.86042E-15 0.15597E-11 0.13878E-16 0.19429E-15 0.97145E-16 0.24698E-12
 -.41633E-16 0.26368E-15 0.24980E-15 0.73552E-15 0.18041E-15 0.78271E-14 0.19429E-15  0.0000      0.0000      0.0000    
 0.16653E-15 0.22304E-12 0.56850E-11 0.20821E-09  0.0000      0.0000     -.55511E-16 0.16653E-15 0.13323E-14 0.69617E-12
 -.13878E-16 0.72720E-14 0.61029E-12 0.31259E-10 0.34001E-14 0.14710E-14 0.27756E-16 -.27756E-16 0.69389E-15 0.18879E-12
 0.18735E-15 0.35735E-15 0.12857E-12 0.34663E-12 -.41633E-16 0.18735E-14 0.19429E-15 0.65384E-12 0.49691E-12 0.15323E-11
 -.90206E-16 0.13288E-14 0.10235E-14 0.11935E-14 0.13878E-16 -.83267E-16 -.11102E-15 0.55511E-16 -.69389E-17 -.20817E-16
 -.19082E-16 0.32000E-12 0.29809E-13 0.35992E-12 0.13878E-16 0.24425E-14 0.54859E-13 0.77444E-11 0.28022E-11 0.71422E-13
 0.55511E-16 0.11300E-11 0.14107E-12 0.69389E-14  0.0000     -.41633E-16 0.97145E-16 0.68487E-12 -.69389E-17 0.15585E-13
 0.27756E-16 0.90181E-12 -.13878E-16 0.83267E-16 0.55511E-16 0.40246E-14 0.44131E-13 0.24299E-11 0.13017E-13 0.76376E-11
 0.13878E-16 0.29421E-14 0.13878E-15 0.55511E-16 0.27756E-16 0.55511E-16 0.41633E-16 0.55511E-16 0.27756E-16 0.83267E-16
 -.41633E-16  0.0000     0.83267E-16 0.83267E-16 0.10270E-14 0.33875E-11 -.55511E-16 0.15266E-15 0.55511E-16 0.31947E-12
 -.55511E-16 0.34694E-15 0.22204E-15 0.69389E-15 0.36082E-15 0.93536E-14 0.15266E-15  0.0000      0.0000     0.41633E-16
 0.19429E-15 0.20277E-12 0.14298E-10 0.47826E-09 0.13878E-16 -.27756E-16 -.83267E-16 0.13878E-15 0.14294E-14 0.81164E-12
 -.52042E-16 0.81116E-14 0.10223E-11 0.40522E-10 0.39274E-14 0.14155E-14 -.69389E-16 0.83267E-16 0.83267E-15 0.18710E-12
 0.12143E-15 0.40246E-15 0.13592E-12 0.29350E-12 -.55511E-16 0.16237E-14 0.83267E-16 0.75864E-12 0.60481E-12 0.16703E-11
 -.13010E-17 0.16930E-14 0.98668E-15 0.13054E-14 -.24937E-17 -.17347E-16 -.14745E-16 -.10354E-16 0.40414E-16 0.78645E-16
 -.60468E-16 0.16749E-12 0.26712E-13 0.18981E-12 0.38598E-16 0.31052E-14 0.71514E-13 0.82745E-11 0.36196E-11 0.11160E-12
 0.68305E-16 0.12430E-11 0.17814E-12 0.10141E-13 0.29490E-16 -.45076E-16 0.13824E-15 0.66379E-12 -.43368E-16 0.14904E-13
 -.47705E-17 0.51035E-12 0.14311E-16 0.17347E-15 0.24720E-15 0.60915E-14 0.63268E-13 0.27276E-11 0.11383E-13 0.70125E-11