 vasp.5.4.4.18Apr17-6-g9f103f2a35 (build Jun 30 2017 11:15:00) complex          
  
 executed on    STALLO_VASP_5.4.4 date 2019.10.11  11:53:53
 running on    4 total cores
 distrk:  each k-point on    4 cores,    1 groups
 distr:  one band on NCORES_PER_BAND=   2 cores,    2 groups


--------------------------------------------------------------------------------------------------------


 INCAR:
 POTCAR:   PAW_PBE Cu 05Jan2001                   
 POTCAR:   PAW_PBE H 15Jun2001                    
 POTCAR:   PAW_PBE Cu 05Jan2001                   
   VRHFIN =Cu: d10 p1                                                           
   LEXCH  = PE                                                                  
   EATOM  =  1390.9800 eV,  102.2341 Ry                                         
                                                                                
   TITEL  = PAW_PBE Cu 05Jan2001                                                
   LULTRA =        F    use ultrasoft PP ?                                      
   IUNSCR =        1    unscreen: 0-lin 1-nonlin 2-no                           
   RPACOR =    2.000    partial core radius                                     
   POMASS =   63.546; ZVAL   =   11.000    mass and valenz                      
   RCORE  =    2.300    outmost cutoff radius                                   
   RWIGS  =    2.480; RWIGS  =    1.312    wigner-seitz radius (au A)           
   ENMAX  =  273.214; ENMIN  =  204.910 eV                                      
   RCLOC  =    1.712    cutoff for local pot                                    
   LCOR   =        T    correct aug charges                                     
   LPAW   =        T    paw PP                                                  
   EAUG   =  516.456                                                            
   DEXC   =    -.008                                                            
   RMAX   =    2.789    core radius for proj-oper                               
   RAUG   =    1.300    factor for augmentation sphere                          
   RDEP   =    2.302    radius for radial grids                                 
   QCUT   =   -4.481; QGAM   =    8.962    optimization parameters              
                                                                                
   Description                                                                  
     l     E      TYP  RCUT    TYP  RCUT                                        
     2   .000     23  2.300                                                     
     2   .000     23  2.300                                                     
     0   .000     23  2.300                                                     
     0   .000     23  2.300                                                     
     1  -.200     23  2.300                                                     
     1   .000     23  2.300                                                     
     3   .000      7   .000                                                     
  local pseudopotential read in
  partial core-charges read in
  atomic valenz-charges read in
  non local Contribution for L=           2  read in
    real space projection operators read in
  non local Contribution for L=           2  read in
    real space projection operators read in
  non local Contribution for L=           0  read in
    real space projection operators read in
  non local Contribution for L=           0  read in
    real space projection operators read in
  non local Contribution for L=           1  read in
    real space projection operators read in
  non local Contribution for L=           1  read in
    real space projection operators read in
    PAW grid and wavefunctions read in
 
   number of l-projection  operators is LMAX  =           6
   number of lm-projection operators is LMMAX =          18
 
 POTCAR:   PAW_PBE H 15Jun2001                    
   VRHFIN =H: ultrasoft test                                                    
   LEXCH  = PE                                                                  
   EATOM  =    12.4884 eV,     .9179 Ry                                         
                                                                                
   TITEL  = PAW_PBE H 15Jun2001                                                 
   LULTRA =        F    use ultrasoft PP ?                                      
   IUNSCR =        0    unscreen: 0-lin 1-nonlin 2-no                           
   RPACOR =     .000    partial core radius                                     
   POMASS =    1.000; ZVAL   =    1.000    mass and valenz                      
   RCORE  =    1.100    outmost cutoff radius                                   
   RWIGS  =     .700; RWIGS  =     .370    wigner-seitz radius (au A)           
   ENMAX  =  250.000; ENMIN  =  200.000 eV                                      
   RCLOC  =     .701    cutoff for local pot                                    
   LCOR   =        T    correct aug charges                                     
   LPAW   =        T    paw PP                                                  
   EAUG   =  400.000                                                            
   RMAX   =    2.174    core radius for proj-oper                               
   RAUG   =    1.200    factor for augmentation sphere                          
   RDEP   =    1.112    radius for radial grids                                 
   QCUT   =   -5.749; QGAM   =   11.498    optimization parameters              
                                                                                
   Description                                                                  
     l     E      TYP  RCUT    TYP  RCUT                                        
     0   .000     23  1.100                                                     
     0   .500     23  1.100                                                     
     1  -.300     23  1.100                                                     
  local pseudopotential read in
  atomic valenz-charges read in
  non local Contribution for L=           0  read in
    real space projection operators read in
  non local Contribution for L=           0  read in
    real space projection operators read in
  non local Contribution for L=           1  read in
    real space projection operators read in
    PAW grid and wavefunctions read in
 
   number of l-projection  operators is LMAX  =           3
   number of lm-projection operators is LMMAX =           5
 

 ----------------------------------------------------------------------------- 
|                                                                             |
|  ADVICE TO THIS USER RUNNING 'VASP/VAMP'   (HEAR YOUR MASTER'S VOICE ...):  |
|                                                                             |
|      You have a (more or less) 'small supercell' and for smaller cells      |
|      it is recommended  to use the reciprocal-space projection scheme!      |
|      The real space optimization is not  efficient for small cells and it   |
|      is also less accurate ...                                              |
|      Therefore set LREAL=.FALSE. in the  INCAR file                         |
|                                                                             |
 ----------------------------------------------------------------------------- 

 Optimization of the real space projectors (new method)

 maximal supplied QI-value         = 16.25
 optimisation between [QCUT,QGAM] = [  7.96, 16.09] = [ 17.76, 72.49] Ry 
 Optimized for a Real-space Cutoff    1.70 Angstroem

   l    n(q)    QCUT    max X(q) W(low)/X(q) W(high)/X(q)  e(spline) 
   2      7     7.963     4.977    0.65E-04    0.90E-04    0.59E-07
   2      7     7.963    13.467    0.48E-03    0.73E-03    0.12E-06
   0      8     7.963    13.303    0.22E-04    0.12E-04    0.51E-08
   0      8     7.963    44.613    0.10E-03    0.16E-03    0.47E-07
   1      8     7.963     5.276    0.66E-04    0.10E-04    0.22E-07
   1      8     7.963     7.322    0.38E-03    0.18E-03    0.17E-06
 Optimization of the real space projectors (new method)

 maximal supplied QI-value         = 34.20
 optimisation between [QCUT,QGAM] = [  7.87, 16.08] = [ 17.33, 72.37] Ry 
 Optimized for a Real-space Cutoff    1.85 Angstroem

   l    n(q)    QCUT    max X(q) W(low)/X(q) W(high)/X(q)  e(spline) 
   0      9     7.867     4.436    0.44E-04    0.71E-04    0.23E-06
   0      9     7.867    15.341    0.29E-03    0.73E-03    0.99E-06
   1      8     7.867     4.196    0.27E-03    0.13E-02    0.91E-06
 PAW_PBE Cu 05Jan2001                   :
 energy of atom  1       EATOM=-1390.9800
 kinetic energy error for atom=    0.0930 (will be added to EATOM!!)
 PAW_PBE H 15Jun2001                    :
 energy of atom  2       EATOM=  -12.4884
 kinetic energy error for atom=    0.0868 (will be added to EATOM!!)
 
 
 POSCAR: Cu  H                                   
  positions in cartesian coordinates
  velocities in cartesian coordinates
 exchange correlation table for  LEXCH =        8
   RHO(1)=    0.500       N(1)  =     2000
   RHO(2)=  100.500       N(2)  =     4000
 


--------------------------------------------------------------------------------------------------------


 ion  position               nearest neighbor table
   1  1.000  0.001  0.397-   2 2.55   2 2.55   2 2.56
   2  0.333  0.334  0.465-   3 2.55   3 2.55   3 2.55   1 2.55   1 2.55   1 2.56
   3  0.666  0.668  0.534-   2 2.55   2 2.55   2 2.55   4 2.60   4 2.60   4 2.61
   4  0.001  0.998  0.604-   5 1.58   5 1.58   3 2.60   3 2.60   3 2.61
   5  0.500  0.999  0.634-   4 1.58   4 1.58
 
  LATTYP: Found a hexagonal cell.
 ALAT       =     2.5738686835
 C/A-ratio  =    11.7739747694
  
  Lattice vectors:
  
 A1 = (   1.2869343418,  -2.2290356659,   0.0000000000)
 A2 = (  -2.5738686835,   0.0000000000,   0.0000000000)
 A3 = (   0.0000000000,   0.0000000000, -30.3046649396)


Analysis of symmetry for initial positions (statically):
=====================================================================
 Subroutine PRICEL returns:
 Original cell was already a primitive cell.
 

 Routine SETGRP: Setting up the symmetry group for a 
 hexagonal supercell.


 Subroutine GETGRP returns: Found  2 space group operations
 (whereof  2 operations were pure point group operations)
 out of a pool of 24 trial point group operations.


The static configuration has the point symmetry C_1h.


Analysis of symmetry for dynamics (positions and initial velocities):
=====================================================================
 Subroutine PRICEL returns:
 Original cell was already a primitive cell.
 

 Routine SETGRP: Setting up the symmetry group for a 
 hexagonal supercell.


 Subroutine GETGRP returns: Found  2 space group operations
 (whereof  2 operations were pure point group operations)
 out of a pool of 24 trial point group operations.


The dynamic configuration has the point symmetry C_1h.


 Subroutine INISYM returns: Found  2 space group operations
 (whereof  2 operations are pure point group operations),
 and found     1 'primitive' translations

 
 
 KPOINTS: k-density: 4.0                          

Automatic generation of k-mesh.
Space group operators:
 irot       det(A)        alpha          n_x          n_y          n_z        tau_x        tau_y        tau_z
    1     1.000000     0.000001     1.000000     0.000000     0.000000     0.000000     0.000000     0.000000
    2    -1.000000   180.000000     1.000000     0.000000     0.000000     0.000000     0.000000     0.000000
 
 Subroutine IBZKPT returns following result:
 ===========================================
 
 Found     31 irreducible k-points:
 
 Following reciprocal coordinates:
            Coordinates               Weight
  0.000000  0.000000  0.000000      1.000000
  0.100000  0.000000  0.000000      4.000000
  0.200000 -0.000000  0.000000      4.000000
  0.300000 -0.000000  0.000000      4.000000
  0.400000 -0.000000  0.000000      4.000000
  0.500000 -0.000000  0.000000      2.000000
  0.000000  0.100000  0.000000      2.000000
  0.200000  0.100000  0.000000      2.000000
  0.300000  0.100000  0.000000      4.000000
  0.400000  0.100000  0.000000      4.000000
  0.500000  0.100000  0.000000      4.000000
 -0.400000  0.100000  0.000000      4.000000
 -0.300000  0.100000  0.000000      4.000000
 -0.200000  0.100000  0.000000      4.000000
 -0.100000  0.100000  0.000000      4.000000
  0.000000  0.200000  0.000000      2.000000
  0.400000  0.200000  0.000000      2.000000
  0.500000  0.200000  0.000000      4.000000
 -0.400000  0.200000  0.000000      4.000000
 -0.300000  0.200000  0.000000      4.000000
 -0.200000  0.200000  0.000000      4.000000
 -0.100000  0.200000  0.000000      4.000000
  0.000000  0.300000  0.000000      2.000000
 -0.400000  0.300000  0.000000      2.000000
 -0.300000  0.300000  0.000000      4.000000
 -0.200000  0.300000  0.000000      4.000000
 -0.100000  0.300000  0.000000      4.000000
  0.000000  0.400000  0.000000      2.000000
 -0.200000  0.400000  0.000000      2.000000
 -0.100000  0.400000  0.000000      4.000000
  0.000000  0.500000  0.000000      1.000000
 
 Following cartesian coordinates:
            Coordinates               Weight
  0.000000  0.000000  0.000000      1.000000
  0.038852 -0.022431  0.000000      4.000000
  0.077704 -0.044862  0.000000      4.000000
  0.116556 -0.067294  0.000000      4.000000
  0.155408 -0.089725  0.000000      4.000000
  0.194260 -0.112156  0.000000      2.000000
  0.000000  0.044862  0.000000      2.000000
  0.077704 -0.000000  0.000000      2.000000
  0.116556 -0.022431  0.000000      4.000000
  0.155408 -0.044862  0.000000      4.000000
  0.194260 -0.067294  0.000000      4.000000
 -0.155408  0.134587  0.000000      4.000000
 -0.116556  0.112156  0.000000      4.000000
 -0.077704  0.089725  0.000000      4.000000
 -0.038852  0.067294  0.000000      4.000000
  0.000000  0.089725  0.000000      2.000000
  0.155408  0.000000  0.000000      2.000000
  0.194260 -0.022431  0.000000      4.000000
 -0.155408  0.179450  0.000000      4.000000
 -0.116556  0.157019  0.000000      4.000000
 -0.077704  0.134587  0.000000      4.000000
 -0.038852  0.112156  0.000000      4.000000
  0.000000  0.134587  0.000000      2.000000
 -0.155408  0.224312  0.000000      2.000000
 -0.116556  0.201881  0.000000      4.000000
 -0.077704  0.179450  0.000000      4.000000
 -0.038852  0.157019  0.000000      4.000000
  0.000000  0.179450  0.000000      2.000000
 -0.077704  0.224312  0.000000      2.000000
 -0.038852  0.201881  0.000000      4.000000
  0.000000  0.224312  0.000000      1.000000
 


--------------------------------------------------------------------------------------------------------




 Dimension of arrays:
   k-points           NKPTS =     31   k-points in BZ     NKDIM =     31   number of bands    NBANDS=     28
   number of dos      NEDOS =   2401   number of ions     NIONS =      5
   non local maximal  LDIM  =      6   non local SUM 2l+1 LMDIM =     18
   total plane-waves  NPLWV =  12000
   max r-space proj   IRMAX =   1888   max aug-charges    IRDMAX=   2622
   dimension x,y,z NGX =    10 NGY =   10 NGZ =  120
   dimension x,y,z NGXF=    20 NGYF=   20 NGZF=  240
   support grid    NGXF=    20 NGYF=   20 NGZF=  240
   ions per type =               4   1
   NGX,Y,Z   is equivalent  to a cutoff of   6.46,  6.46,  6.58 a.u.
   NGXF,Y,Z  is equivalent  to a cutoff of  12.92, 12.92, 13.17 a.u.

 SYSTEM =  unknown system                          
 POSCAR =  Cu  H                                   

 Startparameter for this run:
   NWRITE =      2    write-flag & timer
   PREC   = normal    normal or accurate (medium, high low for compatibility)
   ISTART =      0    job   : 0-new  1-cont  2-samecut
   ICHARG =      2    charge: 1-file 2-atom 10-const
   ISPIN  =      1    spin polarized calculation?
   LNONCOLLINEAR =      F non collinear calculations
   LSORBIT =      F    spin-orbit coupling
   INIWAV =      1    electr: 0-lowe 1-rand  2-diag
   LASPH  =      F    aspherical Exc in radial PAW
   METAGGA=      F    non-selfconsistent MetaGGA calc.

 Electronic Relaxation 1
   ENCUT  =  250.0 eV  18.37 Ry    4.29 a.u.   3.32  3.32 39.07*2*pi/ulx,y,z
   ENINI  =  250.0     initial cutoff
   ENAUG  =  516.5 eV  augmentation charge cutoff
   NELM   =     60;   NELMIN=  4; NELMDL=  0     # of ELM steps 
   EDIFF  = 0.1E-05   stopping-criterion for ELM
   LREAL  =      T    real-space projection
   NLSPLINE    = F    spline interpolate recip. space projectors
   LCOMPAT=      F    compatible to vasp.4.4
   GGA_COMPAT  = T    GGA compatible to vasp.4.4-vasp.4.6
   LMAXPAW     = -100 max onsite density
   LMAXMIX     =    2 max onsite mixed and CHGCAR
   VOSKOWN=      0    Vosko Wilk Nusair interpolation
   ROPT   =   -0.00050  -0.00050
 Ionic relaxation
   EDIFFG = 0.1E-04   stopping-criterion for IOM
   NSW    =      0    number of steps for IOM
   NBLOCK =      1;   KBLOCK =      1    inner block; outer block 
   IBRION =     -1    ionic relax: 0-MD 1-quasi-New 2-CG
   NFREE  =      0    steps in history (QN), initial steepest desc. (CG)
   ISIF   =      2    stress and relaxation
   IWAVPR =     10    prediction:  0-non 1-charg 2-wave 3-comb
   ISYM   =      2    0-nonsym 1-usesym 2-fastsym
   LCORR  =      T    Harris-Foulkes like correction to forces

   POTIM  = 0.5000    time-step for ionic-motion
   TEIN   =    0.0    initial temperature
   TEBEG  =    0.0;   TEEND  =   0.0 temperature during run
   SMASS  =  -3.00    Nose mass-parameter (am)
   estimated Nose-frequenzy (Omega)   =  0.10E-29 period in steps =****** mass=  -0.151E-27a.u.
   SCALEE = 1.0000    scale energy and forces
   NPACO  =    256;   APACO  = 16.0  distance and # of slots for P.C.
   PSTRESS=    0.0 pullay stress

  Mass of Ions in am
   POMASS =  63.55  1.00
  Ionic Valenz
   ZVAL   =  11.00  1.00
  Atomic Wigner-Seitz radii
   RWIGS  =  -1.00 -1.00
  virtual crystal weights 
   VCA    =   1.00  1.00
   NELECT =      45.0000    total number of electrons
   NUPDOWN=      -1.0000    fix difference up-down

 DOS related values:
   EMIN   = -17.00;   EMAX   =  7.00  energy-range for DOS
   EFERMI =   0.00
   ISMEAR =     0;   SIGMA  =   0.10  broadening in eV -4-tet -1-fermi 0-gaus

 Electronic relaxation 2 (details)
   IALGO  =     68    algorithm
   LDIAG  =      T    sub-space diagonalisation (order eigenvalues)
   LSUBROT=      F    optimize rotation matrix (better conditioning)
   TURBO    =      0    0=normal 1=particle mesh
   IRESTART =      0    0=no restart 2=restart with 2 vectors
   NREBOOT  =      0    no. of reboots
   NMIN     =      0    reboot dimension
   EREF     =   0.00    reference energy to select bands
   IMIX   =      4    mixing-type and parameters
     AMIX     =   0.40;   BMIX     =  1.00
     AMIX_MAG =   1.60;   BMIX_MAG =  1.00
     AMIN     =   0.10
     WC   =   100.;   INIMIX=   1;  MIXPRE=   1;  MAXMIX= -45

 Intra band minimization:
   WEIMIN = 0.0000     energy-eigenvalue tresh-hold
   EBREAK =  0.89E-08  absolut break condition
   DEPER  =   0.30     relativ break condition  

   TIME   =   0.40     timestep for ELM

  volume/ion in A,a.u.               =      34.77       234.66
  Fermi-wavevector in a.u.,A,eV,Ry     =   1.043297  1.971546 14.809520  1.088469
  Thomas-Fermi vector in A             =   2.178000
 
 Write flags
   LWAVE        =      F    write WAVECAR
   LDOWNSAMPLE  =      F    k-point downsampling of WAVECAR
   LCHARG       =      T    write CHGCAR
   LVTOT        =      F    write LOCPOT, total local potential
   LVHAR        =      F    write LOCPOT, Hartree potential only
   LELF         =      T    write electronic localiz. function (ELF)
   LORBIT       =     11    0 simple, 1 ext, 2 COOP (PROOUT), +10 PAW based schemes


 Dipole corrections
   LMONO  =      F    monopole corrections only (constant potential shift)
   LDIPOL =      F    correct potential (dipole corrections)
   IDIPOL =      0    1-x, 2-y, 3-z, 4-all directions 
   EPSILON=  1.0000000 bulk dielectric constant

 Exchange correlation treatment:
   GGA     =    --    GGA type
   LEXCH   =     8    internal setting for exchange type
   VOSKOWN=      0    Vosko Wilk Nusair interpolation
   LHFCALC =     F    Hartree Fock is set to
   LHFONE  =     F    Hartree Fock one center treatment
   AEXX    =    0.0000 exact exchange contribution

 Linear response parameters
   LEPSILON=     F    determine dielectric tensor
   LRPA    =     F    only Hartree local field effects (RPA)
   LNABLA  =     F    use nabla operator in PAW spheres
   LVEL    =     F    velocity operator in full k-point grid
   LINTERFAST=   F  fast interpolation
   KINTER  =     0    interpolate to denser k-point grid
   CSHIFT  =0.1000    complex shift for real part using Kramers Kronig
   OMEGAMAX=  -1.0    maximum frequency
   DEG_THRESHOLD= 0.2000000E-02 threshold for treating states as degnerate
   RTIME   =   -0.100 relaxation time in fs
  (WPLASMAI=    0.000 imaginary part of plasma frequency in eV, 0.658/RTIME)
   DFIELD  = 0.0000000 0.0000000 0.0000000 field for delta impulse in time
 
 Orbital magnetization related:
   ORBITALMAG=     F  switch on orbital magnetization
   LCHIMAG   =     F  perturbation theory with respect to B field
   DQ        =  0.001000  dq finite difference perturbation B field
   LLRAUG    =     F  two centre corrections for induced B field



--------------------------------------------------------------------------------------------------------


 Static calculation
 charge density and potential will be updated during run
 non-spin polarized calculation
 RMM-DIIS sequential band-by-band and
  variant of blocked Davidson during initial phase
 perform sub-space diagonalisation
    before iterative eigenvector-optimisation
 modified Broyden-mixing scheme, WC =      100.0
 initial mixing is a Kerker type mixing with AMIX =  0.4000 and BMIX =      1.0000
 Hartree-type preconditioning will be used
 using additional bands            5
 real space projection scheme for non local part
 use partial core corrections
 calculate Harris-corrections to forces 
   (improved forces if not selfconsistent)
 use gradient corrections 
 use of overlap-Matrix (Vanderbilt PP)
 Gauss-broadening in eV      SIGMA  =   0.10


--------------------------------------------------------------------------------------------------------


  energy-cutoff  :      250.00
  volume of cell :      173.87
      direct lattice vectors                 reciprocal lattice vectors
     2.573868684  0.000000000  0.000000000     0.388520209 -0.224312248  0.000000000
     1.286934342  2.229035666  0.000000000     0.000000000  0.448624495  0.000000000
     0.000000000  0.000000000 30.304664940     0.000000000  0.000000000  0.032998220

  length of vectors
     2.573868684  2.573868684 30.304664940     0.448624495  0.448624495  0.032998220


 
 k-points in units of 2pi/SCALE and weight: k-density: 4.0                          
   0.00000000  0.00000000  0.00000000       0.010
   0.03885202 -0.02243122  0.00000000       0.040
   0.07770404 -0.04486245  0.00000000       0.040
   0.11655606 -0.06729367  0.00000000       0.040
   0.15540808 -0.08972490  0.00000000       0.040
   0.19426010 -0.11215612  0.00000000       0.020
   0.00000000  0.04486245  0.00000000       0.020
   0.07770404 -0.00000000  0.00000000       0.020
   0.11655606 -0.02243122  0.00000000       0.040
   0.15540808 -0.04486245  0.00000000       0.040
   0.19426010 -0.06729367  0.00000000       0.040
  -0.15540808  0.13458735  0.00000000       0.040
  -0.11655606  0.11215612  0.00000000       0.040
  -0.07770404  0.08972490  0.00000000       0.040
  -0.03885202  0.06729367  0.00000000       0.040
   0.00000000  0.08972490  0.00000000       0.020
   0.15540808  0.00000000  0.00000000       0.020
   0.19426010 -0.02243122  0.00000000       0.040
  -0.15540808  0.17944980  0.00000000       0.040
  -0.11655606  0.15701857  0.00000000       0.040
  -0.07770404  0.13458735  0.00000000       0.040
  -0.03885202  0.11215612  0.00000000       0.040
   0.00000000  0.13458735  0.00000000       0.020
  -0.15540808  0.22431225  0.00000000       0.020
  -0.11655606  0.20188102  0.00000000       0.040
  -0.07770404  0.17944980  0.00000000       0.040
  -0.03885202  0.15701857  0.00000000       0.040
   0.00000000  0.17944980  0.00000000       0.020
  -0.07770404  0.22431225  0.00000000       0.020
  -0.03885202  0.20188102  0.00000000       0.040
   0.00000000  0.22431225  0.00000000       0.010
 
 k-points in reciprocal lattice and weights: k-density: 4.0                          
   0.00000000  0.00000000  0.00000000       0.010
   0.10000000  0.00000000  0.00000000       0.040
   0.20000000 -0.00000000  0.00000000       0.040
   0.30000000 -0.00000000  0.00000000       0.040
   0.40000000 -0.00000000  0.00000000       0.040
   0.50000000 -0.00000000  0.00000000       0.020
   0.00000000  0.10000000  0.00000000       0.020
   0.20000000  0.10000000  0.00000000       0.020
   0.30000000  0.10000000  0.00000000       0.040
   0.40000000  0.10000000  0.00000000       0.040
   0.50000000  0.10000000  0.00000000       0.040
  -0.40000000  0.10000000  0.00000000       0.040
  -0.30000000  0.10000000  0.00000000       0.040
  -0.20000000  0.10000000  0.00000000       0.040
  -0.10000000  0.10000000  0.00000000       0.040
   0.00000000  0.20000000  0.00000000       0.020
   0.40000000  0.20000000  0.00000000       0.020
   0.50000000  0.20000000  0.00000000       0.040
  -0.40000000  0.20000000  0.00000000       0.040
  -0.30000000  0.20000000  0.00000000       0.040
  -0.20000000  0.20000000  0.00000000       0.040
  -0.10000000  0.20000000  0.00000000       0.040
   0.00000000  0.30000000  0.00000000       0.020
  -0.40000000  0.30000000  0.00000000       0.020
  -0.30000000  0.30000000  0.00000000       0.040
  -0.20000000  0.30000000  0.00000000       0.040
  -0.10000000  0.30000000  0.00000000       0.040
   0.00000000  0.40000000  0.00000000       0.020
  -0.20000000  0.40000000  0.00000000       0.020
  -0.10000000  0.40000000  0.00000000       0.040
   0.00000000  0.50000000  0.00000000       0.010
 
 position of ions in fractional coordinates (direct lattice) 
   0.99970615  0.00058770  0.39656700
   0.33318627  0.33362409  0.46513961
   0.66582910  0.66834283  0.53359442
   0.00080079  0.99839841  0.60421589
   0.50047610  0.99904443  0.63420302
 
 position of ions in cartesian coordinates  (Angst):
   2.57386868  0.00131000 12.01783000
   1.28693000  0.74366000 14.09590000
   2.57387000  1.48976000 16.17040000
   1.28693434  2.22546567 18.31056000
   2.57386434  2.22690567 19.21931000
 


--------------------------------------------------------------------------------------------------------


 k-point  1 :   0.0000 0.0000 0.0000  plane waves:    1609
 k-point  2 :   0.1000 0.0000 0.0000  plane waves:    1589
 k-point  3 :   0.2000-0.0000 0.0000  plane waves:    1586
 k-point  4 :   0.3000-0.0000 0.0000  plane waves:    1542
 k-point  5 :   0.4000-0.0000 0.0000  plane waves:    1568
 k-point  6 :   0.5000-0.0000 0.0000  plane waves:    1570
 k-point  7 :   0.0000 0.1000 0.0000  plane waves:    1589
 k-point  8 :   0.2000 0.1000 0.0000  plane waves:    1579
 k-point  9 :   0.3000 0.1000 0.0000  plane waves:    1569
 k-point 10 :   0.4000 0.1000 0.0000  plane waves:    1552
 k-point 11 :   0.5000 0.1000 0.0000  plane waves:    1549
 k-point 12 :  -0.4000 0.1000 0.0000  plane waves:    1549
 k-point 13 :  -0.3000 0.1000 0.0000  plane waves:    1552
 k-point 14 :  -0.2000 0.1000 0.0000  plane waves:    1569
 k-point 15 :  -0.1000 0.1000 0.0000  plane waves:    1579
 k-point 16 :   0.0000 0.2000 0.0000  plane waves:    1586
 k-point 17 :   0.4000 0.2000 0.0000  plane waves:    1545
 k-point 18 :   0.5000 0.2000 0.0000  plane waves:    1549
 k-point 19 :  -0.4000 0.2000 0.0000  plane waves:    1546
 k-point 20 :  -0.3000 0.2000 0.0000  plane waves:    1549
 k-point 21 :  -0.2000 0.2000 0.0000  plane waves:    1545
 k-point 22 :  -0.1000 0.2000 0.0000  plane waves:    1569
 k-point 23 :   0.0000 0.3000 0.0000  plane waves:    1542
 k-point 24 :  -0.4000 0.3000 0.0000  plane waves:    1547
 k-point 25 :  -0.3000 0.3000 0.0000  plane waves:    1547
 k-point 26 :  -0.2000 0.3000 0.0000  plane waves:    1549
 k-point 27 :  -0.1000 0.3000 0.0000  plane waves:    1552
 k-point 28 :   0.0000 0.4000 0.0000  plane waves:    1568
 k-point 29 :  -0.2000 0.4000 0.0000  plane waves:    1546
 k-point 30 :  -0.1000 0.4000 0.0000  plane waves:    1549
 k-point 31 :   0.0000 0.5000 0.0000  plane waves:    1570

 maximum and minimum number of plane-waves per node :       808      767

 maximum number of plane-waves:      1609
 maximum index in each direction: 
   IXMAX=    3   IYMAX=    3   IZMAX=   39
   IXMIN=   -3   IYMIN=   -3   IZMIN=  -39


 real space projection operators:
  total allocation   :        839.93 KBytes
  max/ min on nodes  :        424.25        415.68


 parallel 3D FFT for wavefunctions:
    minimum data exchange during FFTs selected (reduces bandwidth)
 parallel 3D FFT for charge:
    minimum data exchange during FFTs selected (reduces bandwidth)


 total amount of memory used by VASP MPI-rank0    39169. kBytes
=======================================================================

   base      :      30000. kBytes
   nonlr-proj:        676. kBytes
   fftplans  :        995. kBytes
   grid      :       1592. kBytes
   one-center:         46. kBytes
   wavefun   :       5860. kBytes
 
     INWAV:  cpu time    0.0000: real time    0.0000
 Broyden mixing: mesh for mixing (old mesh)
   NGX =  7   NGY =  7   NGZ = 79
  (NGX  = 20   NGY  = 20   NGZ  =240)
  gives a total of   3871 points

 initial charge density was supplied:
 charge density of overlapping atoms calculated
 number of electron      45.0000000 magnetization 
 keeping initial charge density in first step


--------------------------------------------------------------------------------------------------------


 Maximum index for non-local projection operator          896
 Maximum index for augmentation-charges          589 (set IRDMAX)


--------------------------------------------------------------------------------------------------------


 First call to EWALD:  gamma=   0.318
 Maximum number of real-space cells 6x 6x 1
 Maximum number of reciprocal cells 2x 2x13

    FEWALD:  cpu time    0.0020: real time    0.0015


--------------------------------------- Iteration      1(   1)  ---------------------------------------


    POTLOK:  cpu time    0.0160: real time    0.0198
    SETDIJ:  cpu time    0.0040: real time    0.0041
     EDDAV:  cpu time    0.6129: real time    0.6191
       DOS:  cpu time    0.0060: real time    0.0054
    --------------------------------------------
      LOOP:  cpu time    0.6389: real time    0.6484

 eigenvalue-minimisations  :  1808
 total energy-change (2. order) : 0.1971314E+03  (-0.1395975E+04)
 number of electron      45.0000000 magnetization 
 augmentation part       45.0000000 magnetization 

 Free energy of the ion-electron system (eV)
  ---------------------------------------------------
  alpha Z        PSCENC =       120.87645803
  Ewald energy   TEWEN  =     38132.63899555
  -Hartree energ DENC   =    -43251.58372181
  -exchange      EXHF   =         0.00000000
  -V(xc)+E(xc)   XCENC  =       177.54418449
  PAW double counting   =      4328.99049516    -4905.09836044
  entropy T*S    EENTRO =        -0.00993320
  eigenvalues    EBANDS =        17.82367012
  atomic energy  EATOM  =      5575.94961827
  Solvation  Ediel_sol  =         0.00000000
  ---------------------------------------------------
  free energy    TOTEN  =       197.13140617 eV

  energy without entropy =      197.14133937  energy(sigma->0) =      197.13637277


--------------------------------------------------------------------------------------------------------




--------------------------------------- Iteration      1(   2)  ---------------------------------------


     EDDAV:  cpu time    0.6119: real time    0.6153
       DOS:  cpu time    0.0050: real time    0.0058
    --------------------------------------------
      LOOP:  cpu time    0.6169: real time    0.6211

 eigenvalue-minimisations  :  1824
 total energy-change (2. order) :-0.2076708E+03  (-0.2016965E+03)
 number of electron      45.0000000 magnetization 
 augmentation part       45.0000000 magnetization 

 Free energy of the ion-electron system (eV)
  ---------------------------------------------------
  alpha Z        PSCENC =       120.87645803
  Ewald energy   TEWEN  =     38132.63899555
  -Hartree energ DENC   =    -43251.58372181
  -exchange      EXHF   =         0.00000000
  -V(xc)+E(xc)   XCENC  =       177.54418449
  PAW double counting   =      4328.99049516    -4905.09836044
  entropy T*S    EENTRO =        -0.01590486
  eigenvalues    EBANDS =      -189.84117136
  atomic energy  EATOM  =      5575.94961827
  Solvation  Ediel_sol  =         0.00000000
  ---------------------------------------------------
  free energy    TOTEN  =       -10.53940697 eV

  energy without entropy =      -10.52350211  energy(sigma->0) =      -10.53145454


--------------------------------------------------------------------------------------------------------




--------------------------------------- Iteration      1(   3)  ---------------------------------------


     EDDAV:  cpu time    0.6309: real time    0.6312
       DOS:  cpu time    0.0060: real time    0.0059
    --------------------------------------------
      LOOP:  cpu time    0.6369: real time    0.6371

 eigenvalue-minimisations  :  1896
 total energy-change (2. order) :-0.1033324E+02  (-0.1011200E+02)
 number of electron      45.0000000 magnetization 
 augmentation part       45.0000000 magnetization 

 Free energy of the ion-electron system (eV)
  ---------------------------------------------------
  alpha Z        PSCENC =       120.87645803
  Ewald energy   TEWEN  =     38132.63899555
  -Hartree energ DENC   =    -43251.58372181
  -exchange      EXHF   =         0.00000000
  -V(xc)+E(xc)   XCENC  =       177.54418449
  PAW double counting   =      4328.99049516    -4905.09836044
  entropy T*S    EENTRO =        -0.01103751
  eigenvalues    EBANDS =      -200.17927900
  atomic energy  EATOM  =      5575.94961827
  Solvation  Ediel_sol  =         0.00000000
  ---------------------------------------------------
  free energy    TOTEN  =       -20.87264726 eV

  energy without entropy =      -20.86160975  energy(sigma->0) =      -20.86712851


--------------------------------------------------------------------------------------------------------




--------------------------------------- Iteration      1(   4)  ---------------------------------------


     EDDAV:  cpu time    0.6299: real time    0.6331
       DOS:  cpu time    0.0060: real time    0.0059
    --------------------------------------------
      LOOP:  cpu time    0.6359: real time    0.6390

 eigenvalue-minimisations  :  1892
 total energy-change (2. order) :-0.1318247E+00  (-0.1311990E+00)
 number of electron      45.0000000 magnetization 
 augmentation part       45.0000000 magnetization 

 Free energy of the ion-electron system (eV)
  ---------------------------------------------------
  alpha Z        PSCENC =       120.87645803
  Ewald energy   TEWEN  =     38132.63899555
  -Hartree energ DENC   =    -43251.58372181
  -exchange      EXHF   =         0.00000000
  -V(xc)+E(xc)   XCENC  =       177.54418449
  PAW double counting   =      4328.99049516    -4905.09836044
  entropy T*S    EENTRO =        -0.01026497
  eigenvalues    EBANDS =      -200.31187628
  atomic energy  EATOM  =      5575.94961827
  Solvation  Ediel_sol  =         0.00000000
  ---------------------------------------------------
  free energy    TOTEN  =       -21.00447199 eV

  energy without entropy =      -20.99420703  energy(sigma->0) =      -20.99933951


--------------------------------------------------------------------------------------------------------




--------------------------------------- Iteration      1(   5)  ---------------------------------------


     EDDAV:  cpu time    0.6469: real time    0.6478
       DOS:  cpu time    0.0060: real time    0.0058
    CHARGE:  cpu time    0.0350: real time    0.0349
    MIXING:  cpu time    0.0010: real time    0.0008
    --------------------------------------------
      LOOP:  cpu time    0.6889: real time    0.6892

 eigenvalue-minimisations  :  1960
 total energy-change (2. order) :-0.1360907E-02  (-0.1360877E-02)
 number of electron      44.9999935 magnetization 
 augmentation part       26.6721286 magnetization 

 Broyden mixing:
  rms(total) = 0.14792E+01    rms(broyden)= 0.14788E+01
  rms(prec ) = 0.15310E+01
  weight for this iteration     100.00

 Free energy of the ion-electron system (eV)
  ---------------------------------------------------
  alpha Z        PSCENC =       120.87645803
  Ewald energy   TEWEN  =     38132.63899555
  -Hartree energ DENC   =    -43251.58372181
  -exchange      EXHF   =         0.00000000
  -V(xc)+E(xc)   XCENC  =       177.54418449
  PAW double counting   =      4328.99049516    -4905.09836044
  entropy T*S    EENTRO =        -0.01026257
  eigenvalues    EBANDS =      -200.31323958
  atomic energy  EATOM  =      5575.94961827
  Solvation  Ediel_sol  =         0.00000000
  ---------------------------------------------------
  free energy    TOTEN  =       -21.00583290 eV

  energy without entropy =      -20.99557033  energy(sigma->0) =      -21.00070162


--------------------------------------------------------------------------------------------------------




--------------------------------------- Iteration      1(   6)  ---------------------------------------


    POTLOK:  cpu time    0.0110: real time    0.0143
    SETDIJ:  cpu time    0.0040: real time    0.0032
    EDDIAG:  cpu time    0.1240: real time    0.1254
  RMM-DIIS:  cpu time    0.3629: real time    0.3623
    ORTHCH:  cpu time    0.0160: real time    0.0162
       DOS:  cpu time    0.0060: real time    0.0059
    CHARGE:  cpu time    0.0340: real time    0.0339
    MIXING:  cpu time    0.0000: real time    0.0007
    --------------------------------------------
      LOOP:  cpu time    0.5579: real time    0.5619

 eigenvalue-minimisations  :  1899
 total energy-change (2. order) : 0.2132177E+01  (-0.4390387E+01)
 number of electron      44.9999932 magnetization 
 augmentation part       30.0115396 magnetization 

 Broyden mixing:
  rms(total) = 0.73422E+00    rms(broyden)= 0.73397E+00
  rms(prec ) = 0.76231E+00
  weight for this iteration     100.00

 eigenvalues of (default mixing * dielectric matrix)
  average eigenvalue GAMMA=   0.6723
  0.6723

 Free energy of the ion-electron system (eV)
  ---------------------------------------------------
  alpha Z        PSCENC =       120.87645803
  Ewald energy   TEWEN  =     38132.63899555
  -Hartree energ DENC   =    -43131.84964959
  -exchange      EXHF   =         0.00000000
  -V(xc)+E(xc)   XCENC  =       172.38834183
  PAW double counting   =      4218.54195331    -4759.43600419
  entropy T*S    EENTRO =        -0.00607461
  eigenvalues    EBANDS =      -347.97729429
  atomic energy  EATOM  =      5575.94961827
  Solvation  Ediel_sol  =         0.00000000
  ---------------------------------------------------
  free energy    TOTEN  =       -18.87365569 eV

  energy without entropy =      -18.86758108  energy(sigma->0) =      -18.87061838


--------------------------------------------------------------------------------------------------------




--------------------------------------- Iteration      1(   7)  ---------------------------------------


    POTLOK:  cpu time    0.0120: real time    0.0115
    SETDIJ:  cpu time    0.0030: real time    0.0032
    EDDIAG:  cpu time    0.1240: real time    0.1252
  RMM-DIIS:  cpu time    0.3459: real time    0.3460
    ORTHCH:  cpu time    0.0160: real time    0.0162
       DOS:  cpu time    0.0060: real time    0.0060
    CHARGE:  cpu time    0.0340: real time    0.0343
    MIXING:  cpu time    0.0010: real time    0.0005
    --------------------------------------------
      LOOP:  cpu time    0.5419: real time    0.5430

 eigenvalue-minimisations  :  1807
 total energy-change (2. order) : 0.1798145E+01  (-0.7258867E+00)
 number of electron      44.9999934 magnetization 
 augmentation part       28.7242801 magnetization 

 Broyden mixing:
  rms(total) = 0.13568E+00    rms(broyden)= 0.13556E+00
  rms(prec ) = 0.14722E+00
  weight for this iteration     100.00

 eigenvalues of (default mixing * dielectric matrix)
  average eigenvalue GAMMA=   0.9163
  1.2162  0.6163

 Free energy of the ion-electron system (eV)
  ---------------------------------------------------
  alpha Z        PSCENC =       120.87645803
  Ewald energy   TEWEN  =     38132.63899555
  -Hartree energ DENC   =    -43183.23114886
  -exchange      EXHF   =         0.00000000
  -V(xc)+E(xc)   XCENC  =       174.06385972
  PAW double counting   =      4320.24993385    -4886.05914265
  entropy T*S    EENTRO =        -0.01542524
  eigenvalues    EBANDS =      -271.54865910
  atomic energy  EATOM  =      5575.94961827
  Solvation  Ediel_sol  =         0.00000000
  ---------------------------------------------------
  free energy    TOTEN  =       -17.07551042 eV

  energy without entropy =      -17.06008519  energy(sigma->0) =      -17.06779781


--------------------------------------------------------------------------------------------------------




--------------------------------------- Iteration      1(   8)  ---------------------------------------


    POTLOK:  cpu time    0.0120: real time    0.0134
    SETDIJ:  cpu time    0.0030: real time    0.0032
    EDDIAG:  cpu time    0.1240: real time    0.1244
  RMM-DIIS:  cpu time    0.3679: real time    0.3677
    ORTHCH:  cpu time    0.0160: real time    0.0163
       DOS:  cpu time    0.0050: real time    0.0058
    CHARGE:  cpu time    0.0350: real time    0.0339
    MIXING:  cpu time    0.0000: real time    0.0005
    --------------------------------------------
      LOOP:  cpu time    0.5629: real time    0.5653

 eigenvalue-minimisations  :  1925
 total energy-change (2. order) :-0.4049980E-01  (-0.1577685E-01)
 number of electron      44.9999935 magnetization 
 augmentation part       28.6727421 magnetization 

 Broyden mixing:
  rms(total) = 0.20511E+00    rms(broyden)= 0.20497E+00
  rms(prec ) = 0.27105E+00
  weight for this iteration     100.00

 eigenvalues of (default mixing * dielectric matrix)
  average eigenvalue GAMMA=   0.9156
  1.8553  0.6216  0.2698

 Free energy of the ion-electron system (eV)
  ---------------------------------------------------
  alpha Z        PSCENC =       120.87645803
  Ewald energy   TEWEN  =     38132.63899555
  -Hartree energ DENC   =    -43184.92115794
  -exchange      EXHF   =         0.00000000
  -V(xc)+E(xc)   XCENC  =       173.88138842
  PAW double counting   =      4357.01881484    -4928.16886933
  entropy T*S    EENTRO =        -0.00889954
  eigenvalues    EBANDS =      -264.38235853
  atomic energy  EATOM  =      5575.94961827
  Solvation  Ediel_sol  =         0.00000000
  ---------------------------------------------------
  free energy    TOTEN  =       -17.11601023 eV

  energy without entropy =      -17.10711069  energy(sigma->0) =      -17.11156046


--------------------------------------------------------------------------------------------------------




--------------------------------------- Iteration      1(   9)  ---------------------------------------


    POTLOK:  cpu time    0.0110: real time    0.0115
    SETDIJ:  cpu time    0.0040: real time    0.0032
    EDDIAG:  cpu time    0.1230: real time    0.1244
  RMM-DIIS:  cpu time    0.3709: real time    0.3706
    ORTHCH:  cpu time    0.0160: real time    0.0163
       DOS:  cpu time    0.0060: real time    0.0060
    CHARGE:  cpu time    0.0350: real time    0.0342
    MIXING:  cpu time    0.0000: real time    0.0006
    --------------------------------------------
      LOOP:  cpu time    0.5659: real time    0.5667

 eigenvalue-minimisations  :  1924
 total energy-change (2. order) : 0.1006831E+00  (-0.6041074E-02)
 number of electron      44.9999935 magnetization 
 augmentation part       28.6981662 magnetization 

 Broyden mixing:
  rms(total) = 0.80067E-01    rms(broyden)= 0.79863E-01
  rms(prec ) = 0.91690E-01
  weight for this iteration     100.00

 eigenvalues of (default mixing * dielectric matrix)
  average eigenvalue GAMMA=   0.7866
  1.8694  0.5607  0.5227  0.1935

 Free energy of the ion-electron system (eV)
  ---------------------------------------------------
  alpha Z        PSCENC =       120.87645803
  Ewald energy   TEWEN  =     38132.63899555
  -Hartree energ DENC   =    -43187.36357465
  -exchange      EXHF   =         0.00000000
  -V(xc)+E(xc)   XCENC  =       173.71753839
  PAW double counting   =      4381.43965657    -4955.87759341
  entropy T*S    EENTRO =        -0.01558122
  eigenvalues    EBANDS =      -258.38084466
  atomic energy  EATOM  =      5575.94961827
  Solvation  Ediel_sol  =         0.00000000
  ---------------------------------------------------
  free energy    TOTEN  =       -17.01532713 eV

  energy without entropy =      -16.99974591  energy(sigma->0) =      -17.00753652


--------------------------------------------------------------------------------------------------------




--------------------------------------- Iteration      1(  10)  ---------------------------------------


    POTLOK:  cpu time    0.0120: real time    0.0146
    SETDIJ:  cpu time    0.0030: real time    0.0032
    EDDIAG:  cpu time    0.1240: real time    0.1242
  RMM-DIIS:  cpu time    0.3649: real time    0.3654
    ORTHCH:  cpu time    0.0160: real time    0.0163
       DOS:  cpu time    0.0060: real time    0.0059
    CHARGE:  cpu time    0.0350: real time    0.0342
    MIXING:  cpu time    0.0000: real time    0.0006
    --------------------------------------------
      LOOP:  cpu time    0.5609: real time    0.5645

 eigenvalue-minimisations  :  1903
 total energy-change (2. order) : 0.1188714E-01  (-0.2011420E-02)
 number of electron      44.9999935 magnetization 
 augmentation part       28.7310491 magnetization 

 Broyden mixing:
  rms(total) = 0.42764E-01    rms(broyden)= 0.42754E-01
  rms(prec ) = 0.45758E-01
  weight for this iteration     100.00

 eigenvalues of (default mixing * dielectric matrix)
  average eigenvalue GAMMA=   0.9162
  2.2495  1.0894  0.6529  0.3844  0.2048

 Free energy of the ion-electron system (eV)
  ---------------------------------------------------
  alpha Z        PSCENC =       120.87645803
  Ewald energy   TEWEN  =     38132.63899555
  -Hartree energ DENC   =    -43188.00531418
  -exchange      EXHF   =         0.00000000
  -V(xc)+E(xc)   XCENC  =       173.62037397
  PAW double counting   =      4388.34230657    -4963.34135359
  entropy T*S    EENTRO =        -0.01541422
  eigenvalues    EBANDS =      -257.06911039
  atomic energy  EATOM  =      5575.94961827
  Solvation  Ediel_sol  =         0.00000000
  ---------------------------------------------------
  free energy    TOTEN  =       -17.00343999 eV

  energy without entropy =      -16.98802577  energy(sigma->0) =      -16.99573288


--------------------------------------------------------------------------------------------------------




--------------------------------------- Iteration      1(  11)  ---------------------------------------


    POTLOK:  cpu time    0.0120: real time    0.0117
    SETDIJ:  cpu time    0.0030: real time    0.0032
    EDDIAG:  cpu time    0.1240: real time    0.1244
  RMM-DIIS:  cpu time    0.3649: real time    0.3650
    ORTHCH:  cpu time    0.0160: real time    0.0162
       DOS:  cpu time    0.0060: real time    0.0060
    CHARGE:  cpu time    0.0340: real time    0.0343
    MIXING:  cpu time    0.0010: real time    0.0006
    --------------------------------------------
      LOOP:  cpu time    0.5609: real time    0.5614

 eigenvalue-minimisations  :  1886
 total energy-change (2. order) : 0.5269808E-02  (-0.8837864E-03)
 number of electron      44.9999935 magnetization 
 augmentation part       28.7701139 magnetization 

 Broyden mixing:
  rms(total) = 0.12159E-01    rms(broyden)= 0.12134E-01
  rms(prec ) = 0.15832E-01
  weight for this iteration     100.00

 eigenvalues of (default mixing * dielectric matrix)
  average eigenvalue GAMMA=   0.9568
  2.1943  1.4243  0.8714  0.6598  0.3821  0.2091

 Free energy of the ion-electron system (eV)
  ---------------------------------------------------
  alpha Z        PSCENC =       120.87645803
  Ewald energy   TEWEN  =     38132.63899555
  -Hartree energ DENC   =    -43188.23412807
  -exchange      EXHF   =         0.00000000
  -V(xc)+E(xc)   XCENC  =       173.50595205
  PAW double counting   =      4398.16745472    -4973.99129345
  entropy T*S    EENTRO =        -0.01445723
  eigenvalues    EBANDS =      -255.89677005
  atomic energy  EATOM  =      5575.94961827
  Solvation  Ediel_sol  =         0.00000000
  ---------------------------------------------------
  free energy    TOTEN  =       -16.99817018 eV

  energy without entropy =      -16.98371295  energy(sigma->0) =      -16.99094157


--------------------------------------------------------------------------------------------------------




--------------------------------------- Iteration      1(  12)  ---------------------------------------


    POTLOK:  cpu time    0.0110: real time    0.0131
    SETDIJ:  cpu time    0.0040: real time    0.0032
    EDDIAG:  cpu time    0.1230: real time    0.1245
  RMM-DIIS:  cpu time    0.3639: real time    0.3633
    ORTHCH:  cpu time    0.0160: real time    0.0162
       DOS:  cpu time    0.0060: real time    0.0060
    CHARGE:  cpu time    0.0350: real time    0.0343
    MIXING:  cpu time    0.0000: real time    0.0007
    --------------------------------------------
      LOOP:  cpu time    0.5589: real time    0.5614

 eigenvalue-minimisations  :  1890
 total energy-change (2. order) : 0.9870311E-03  (-0.8552241E-04)
 number of electron      44.9999935 magnetization 
 augmentation part       28.7665052 magnetization 

 Broyden mixing:
  rms(total) = 0.79879E-02    rms(broyden)= 0.79674E-02
  rms(prec ) = 0.10337E-01
  weight for this iteration     100.00

 eigenvalues of (default mixing * dielectric matrix)
  average eigenvalue GAMMA=   1.0055
  2.1687  2.1687  0.9960  0.6510  0.2089  0.3682  0.4773

 Free energy of the ion-electron system (eV)
  ---------------------------------------------------
  alpha Z        PSCENC =       120.87645803
  Ewald energy   TEWEN  =     38132.63899555
  -Hartree energ DENC   =    -43190.98316225
  -exchange      EXHF   =         0.00000000
  -V(xc)+E(xc)   XCENC  =       173.50014288
  PAW double counting   =      4401.62346590    -4977.71931867
  entropy T*S    EENTRO =        -0.01470109
  eigenvalues    EBANDS =      -252.86868178
  atomic energy  EATOM  =      5575.94961827
  Solvation  Ediel_sol  =         0.00000000
  ---------------------------------------------------
  free energy    TOTEN  =       -16.99718315 eV

  energy without entropy =      -16.98248206  energy(sigma->0) =      -16.98983261


--------------------------------------------------------------------------------------------------------




--------------------------------------- Iteration      1(  13)  ---------------------------------------


    POTLOK:  cpu time    0.0110: real time    0.0114
    SETDIJ:  cpu time    0.0040: real time    0.0032
    EDDIAG:  cpu time    0.1240: real time    0.1245
  RMM-DIIS:  cpu time    0.3649: real time    0.3649
    ORTHCH:  cpu time    0.0160: real time    0.0162
       DOS:  cpu time    0.0060: real time    0.0060
    CHARGE:  cpu time    0.0340: real time    0.0343
    MIXING:  cpu time    0.0010: real time    0.0012
    --------------------------------------------
      LOOP:  cpu time    0.5609: real time    0.5617

 eigenvalue-minimisations  :  1876
 total energy-change (2. order) : 0.4116580E-03  (-0.5579215E-04)
 number of electron      44.9999935 magnetization 
 augmentation part       28.7671175 magnetization 

 Broyden mixing:
  rms(total) = 0.46908E-02    rms(broyden)= 0.46585E-02
  rms(prec ) = 0.59811E-02
  weight for this iteration     100.00

 eigenvalues of (default mixing * dielectric matrix)
  average eigenvalue GAMMA=   1.0089
  2.3166  2.3166  1.0890  0.6908  0.6908  0.2087  0.3949  0.3636

 Free energy of the ion-electron system (eV)
  ---------------------------------------------------
  alpha Z        PSCENC =       120.87645803
  Ewald energy   TEWEN  =     38132.63899555
  -Hartree energ DENC   =    -43192.75720655
  -exchange      EXHF   =         0.00000000
  -V(xc)+E(xc)   XCENC  =       173.49647095
  PAW double counting   =      4403.17358473    -4979.35004239
  entropy T*S    EENTRO =        -0.01489707
  eigenvalues    EBANDS =      -251.00975301
  atomic energy  EATOM  =      5575.94961827
  Solvation  Ediel_sol  =         0.00000000
  ---------------------------------------------------
  free energy    TOTEN  =       -16.99677149 eV

  energy without entropy =      -16.98187442  energy(sigma->0) =      -16.98932296


--------------------------------------------------------------------------------------------------------




--------------------------------------- Iteration      1(  14)  ---------------------------------------


    POTLOK:  cpu time    0.0120: real time    0.0143
    SETDIJ:  cpu time    0.0030: real time    0.0032
    EDDIAG:  cpu time    0.1240: real time    0.1243
  RMM-DIIS:  cpu time    0.3559: real time    0.3559
    ORTHCH:  cpu time    0.0150: real time    0.0162
       DOS:  cpu time    0.0060: real time    0.0060
    CHARGE:  cpu time    0.0350: real time    0.0344
    MIXING:  cpu time    0.0010: real time    0.0007
    --------------------------------------------
      LOOP:  cpu time    0.5519: real time    0.5549

 eigenvalue-minimisations  :  1838
 total energy-change (2. order) : 0.4881620E-04  (-0.1942512E-04)
 number of electron      44.9999935 magnetization 
 augmentation part       28.7689127 magnetization 

 Broyden mixing:
  rms(total) = 0.25132E-02    rms(broyden)= 0.24540E-02
  rms(prec ) = 0.37417E-02
  weight for this iteration     100.00

 eigenvalues of (default mixing * dielectric matrix)
  average eigenvalue GAMMA=   1.1718
  2.6720  2.6720  1.4727  1.0884  0.9964  0.6609  0.2088  0.3701  0.4047

 Free energy of the ion-electron system (eV)
  ---------------------------------------------------
  alpha Z        PSCENC =       120.87645803
  Ewald energy   TEWEN  =     38132.63899555
  -Hartree energ DENC   =    -43194.81752426
  -exchange      EXHF   =         0.00000000
  -V(xc)+E(xc)   XCENC  =       173.49565336
  PAW double counting   =      4403.78238421    -4979.95389823
  entropy T*S    EENTRO =        -0.01495691
  eigenvalues    EBANDS =      -248.95345269
  atomic energy  EATOM  =      5575.94961827
  Solvation  Ediel_sol  =         0.00000000
  ---------------------------------------------------
  free energy    TOTEN  =       -16.99672268 eV

  energy without entropy =      -16.98176577  energy(sigma->0) =      -16.98924422


--------------------------------------------------------------------------------------------------------




--------------------------------------- Iteration      1(  15)  ---------------------------------------


    POTLOK:  cpu time    0.0110: real time    0.0114
    SETDIJ:  cpu time    0.0040: real time    0.0032
    EDDIAG:  cpu time    0.1240: real time    0.1246
  RMM-DIIS:  cpu time    0.3369: real time    0.3368
    ORTHCH:  cpu time    0.0160: real time    0.0163
       DOS:  cpu time    0.0060: real time    0.0059
    CHARGE:  cpu time    0.0340: real time    0.0344
    MIXING:  cpu time    0.0010: real time    0.0008
    --------------------------------------------
      LOOP:  cpu time    0.5329: real time    0.5333

 eigenvalue-minimisations  :  1765
 total energy-change (2. order) :-0.3071081E-03  (-0.1307090E-04)
 number of electron      44.9999935 magnetization 
 augmentation part       28.7679574 magnetization 

 Broyden mixing:
  rms(total) = 0.16521E-02    rms(broyden)= 0.15624E-02
  rms(prec ) = 0.21372E-02
  weight for this iteration     100.00

 eigenvalues of (default mixing * dielectric matrix)
  average eigenvalue GAMMA=   1.2893
  3.5205  2.7109  1.7357  1.3493  0.9910  0.9367  0.6623  0.2088  0.3709  0.4066

 Free energy of the ion-electron system (eV)
  ---------------------------------------------------
  alpha Z        PSCENC =       120.87645803
  Ewald energy   TEWEN  =     38132.63899555
  -Hartree energ DENC   =    -43197.32251596
  -exchange      EXHF   =         0.00000000
  -V(xc)+E(xc)   XCENC  =       173.50344300
  PAW double counting   =      4403.43670500    -4979.56274450
  entropy T*S    EENTRO =        -0.01502198
  eigenvalues    EBANDS =      -246.50196720
  atomic energy  EATOM  =      5575.94961827
  Solvation  Ediel_sol  =         0.00000000
  ---------------------------------------------------
  free energy    TOTEN  =       -16.99702979 eV

  energy without entropy =      -16.98200780  energy(sigma->0) =      -16.98951879


--------------------------------------------------------------------------------------------------------




--------------------------------------- Iteration      1(  16)  ---------------------------------------


    POTLOK:  cpu time    0.0110: real time    0.0138
    SETDIJ:  cpu time    0.0040: real time    0.0032
    EDDIAG:  cpu time    0.1240: real time    0.1251
  RMM-DIIS:  cpu time    0.3379: real time    0.3377
    ORTHCH:  cpu time    0.0160: real time    0.0162
       DOS:  cpu time    0.0060: real time    0.0060
    CHARGE:  cpu time    0.0340: real time    0.0343
    MIXING:  cpu time    0.0010: real time    0.0009
    --------------------------------------------
      LOOP:  cpu time    0.5339: real time    0.5372

 eigenvalue-minimisations  :  1775
 total energy-change (2. order) :-0.2590263E-03  (-0.8138915E-05)
 number of electron      44.9999935 magnetization 
 augmentation part       28.7689178 magnetization 

 Broyden mixing:
  rms(total) = 0.10943E-02    rms(broyden)= 0.95381E-03
  rms(prec ) = 0.12937E-02
  weight for this iteration     100.00
  WARNING: grid for Broyden might be to small

 eigenvalues of (default mixing * dielectric matrix)
  average eigenvalue GAMMA=   1.4003
  4.4178  2.8782  2.2052  1.2642  1.2642  0.8628  0.8628  0.6615  0.2088  0.3711
  0.4069

 Free energy of the ion-electron system (eV)
  ---------------------------------------------------
  alpha Z        PSCENC =       120.87645803
  Ewald energy   TEWEN  =     38132.63899555
  -Hartree energ DENC   =    -43198.69219645
  -exchange      EXHF   =         0.00000000
  -V(xc)+E(xc)   XCENC  =       173.50594557
  PAW double counting   =      4402.83524567    -4978.91922558
  entropy T*S    EENTRO =        -0.01500620
  eigenvalues    EBANDS =      -245.17712369
  atomic energy  EATOM  =      5575.94961827
  Solvation  Ediel_sol  =         0.00000000
  ---------------------------------------------------
  free energy    TOTEN  =       -16.99728881 eV

  energy without entropy =      -16.98228262  energy(sigma->0) =      -16.98978571


--------------------------------------------------------------------------------------------------------




--------------------------------------- Iteration      1(  17)  ---------------------------------------


    POTLOK:  cpu time    0.0110: real time    0.0114
    SETDIJ:  cpu time    0.0040: real time    0.0032
    EDDIAG:  cpu time    0.1230: real time    0.1244
  RMM-DIIS:  cpu time    0.3389: real time    0.3384
    ORTHCH:  cpu time    0.0160: real time    0.0162
       DOS:  cpu time    0.0060: real time    0.0060
    CHARGE:  cpu time    0.0350: real time    0.0342
    MIXING:  cpu time    0.0000: real time    0.0009
    --------------------------------------------
      LOOP:  cpu time    0.5339: real time    0.5347

 eigenvalue-minimisations  :  1774
 total energy-change (2. order) :-0.1032129E-03  (-0.4342852E-05)
 number of electron      44.9999935 magnetization 
 augmentation part       28.7671610 magnetization 

 Broyden mixing:
  rms(total) = 0.94858E-03    rms(broyden)= 0.78281E-03
  rms(prec ) = 0.95551E-03
  weight for this iteration     100.00
  WARNING: grid for Broyden might be to small

 eigenvalues of (default mixing * dielectric matrix)
  average eigenvalue GAMMA=   1.5174
  5.3793  3.0262  2.3502  1.8368  1.3035  1.0250  0.9066  0.2088  0.6622  0.7321
  0.3711  0.4069

 Free energy of the ion-electron system (eV)
  ---------------------------------------------------
  alpha Z        PSCENC =       120.87645803
  Ewald energy   TEWEN  =     38132.63899555
  -Hartree energ DENC   =    -43199.69492089
  -exchange      EXHF   =         0.00000000
  -V(xc)+E(xc)   XCENC  =       173.50920492
  PAW double counting   =      4402.73150010    -4978.84194962
  entropy T*S    EENTRO =        -0.01504145
  eigenvalues    EBANDS =      -244.15125694
  atomic energy  EATOM  =      5575.94961827
  Solvation  Ediel_sol  =         0.00000000
  ---------------------------------------------------
  free energy    TOTEN  =       -16.99739203 eV

  energy without entropy =      -16.98235057  energy(sigma->0) =      -16.98987130


--------------------------------------------------------------------------------------------------------




--------------------------------------- Iteration      1(  18)  ---------------------------------------


    POTLOK:  cpu time    0.0120: real time    0.0145
    SETDIJ:  cpu time    0.0030: real time    0.0032
    EDDIAG:  cpu time    0.1240: real time    0.1246
  RMM-DIIS:  cpu time    0.3339: real time    0.3336
    ORTHCH:  cpu time    0.0160: real time    0.0162
       DOS:  cpu time    0.0060: real time    0.0059
    CHARGE:  cpu time    0.0340: real time    0.0342
    MIXING:  cpu time    0.0010: real time    0.0009
    --------------------------------------------
      LOOP:  cpu time    0.5299: real time    0.5332

 eigenvalue-minimisations  :  1756
 total energy-change (2. order) :-0.6044000E-04  (-0.1166479E-05)
 number of electron      44.9999935 magnetization 
 augmentation part       28.7682690 magnetization 

 Broyden mixing:
  rms(total) = 0.64430E-03    rms(broyden)= 0.35792E-03
  rms(prec ) = 0.47004E-03
  weight for this iteration     100.00
  WARNING: grid for Broyden might be to small

 eigenvalues of (default mixing * dielectric matrix)
  average eigenvalue GAMMA=   1.6649
  5.8602  3.9536  2.3995  2.3995  1.3730  1.3730  0.9980  0.9089  0.2088  0.6622
  0.7289  0.3711  0.4069

 Free energy of the ion-electron system (eV)
  ---------------------------------------------------
  alpha Z        PSCENC =       120.87645803
  Ewald energy   TEWEN  =     38132.63899555
  -Hartree energ DENC   =    -43200.13377362
  -exchange      EXHF   =         0.00000000
  -V(xc)+E(xc)   XCENC  =       173.50727585
  PAW double counting   =      4402.72313726    -4978.82863823
  entropy T*S    EENTRO =        -0.01503402
  eigenvalues    EBANDS =      -243.71549156
  atomic energy  EATOM  =      5575.94961827
  Solvation  Ediel_sol  =         0.00000000
  ---------------------------------------------------
  free energy    TOTEN  =       -16.99745247 eV

  energy without entropy =      -16.98241844  energy(sigma->0) =      -16.98993545


--------------------------------------------------------------------------------------------------------




--------------------------------------- Iteration      1(  19)  ---------------------------------------


    POTLOK:  cpu time    0.0110: real time    0.0113
    SETDIJ:  cpu time    0.0030: real time    0.0032
    EDDIAG:  cpu time    0.1240: real time    0.1244
  RMM-DIIS:  cpu time    0.2460: real time    0.2450
    ORTHCH:  cpu time    0.0150: real time    0.0162
       DOS:  cpu time    0.0060: real time    0.0058
    CHARGE:  cpu time    0.0350: real time    0.0342
    MIXING:  cpu time    0.0000: real time    0.0010
    --------------------------------------------
      LOOP:  cpu time    0.4399: real time    0.4412

 eigenvalue-minimisations  :  1176
 total energy-change (2. order) :-0.4732589E-04  (-0.2019075E-06)
 number of electron      44.9999935 magnetization 
 augmentation part       28.7681036 magnetization 

 Broyden mixing:
  rms(total) = 0.58019E-03    rms(broyden)= 0.22300E-03
  rms(prec ) = 0.26609E-03
  weight for this iteration     100.00
  WARNING: grid for Broyden might be to small

 eigenvalues of (default mixing * dielectric matrix)
  average eigenvalue GAMMA=   1.7486
  6.3961  4.5172  2.4647  2.4647  1.8645  1.2429  1.2429  0.2088  0.9896  0.9192
  0.6623  0.7294  0.3711  0.4069

 Free energy of the ion-electron system (eV)
  ---------------------------------------------------
  alpha Z        PSCENC =       120.87645803
  Ewald energy   TEWEN  =     38132.63899555
  -Hartree energ DENC   =    -43200.39375490
  -exchange      EXHF   =         0.00000000
  -V(xc)+E(xc)   XCENC  =       173.50723185
  PAW double counting   =      4402.81886251    -4978.92807292
  entropy T*S    EENTRO =        -0.01503438
  eigenvalues    EBANDS =      -243.45180379
  atomic energy  EATOM  =      5575.94961827
  Solvation  Ediel_sol  =         0.00000000
  ---------------------------------------------------
  free energy    TOTEN  =       -16.99749979 eV

  energy without entropy =      -16.98246541  energy(sigma->0) =      -16.98998260


--------------------------------------------------------------------------------------------------------




--------------------------------------- Iteration      1(  20)  ---------------------------------------


    POTLOK:  cpu time    0.0120: real time    0.0114
    SETDIJ:  cpu time    0.0030: real time    0.0032
    EDDIAG:  cpu time    0.1240: real time    0.1244
  RMM-DIIS:  cpu time    0.2420: real time    0.2418
    ORTHCH:  cpu time    0.0150: real time    0.0162
       DOS:  cpu time    0.0060: real time    0.0060
    CHARGE:  cpu time    0.0350: real time    0.0343
    MIXING:  cpu time    0.0010: real time    0.0010
    --------------------------------------------
      LOOP:  cpu time    0.4379: real time    0.4383

 eigenvalue-minimisations  :  1123
 total energy-change (2. order) :-0.2055355E-04  (-0.7506392E-07)
 number of electron      44.9999935 magnetization 
 augmentation part       28.7680488 magnetization 

 Broyden mixing:
  rms(total) = 0.56619E-03    rms(broyden)= 0.18362E-03
  rms(prec ) = 0.20230E-03
  weight for this iteration     100.00
  WARNING: grid for Broyden might be to small

 eigenvalues of (default mixing * dielectric matrix)
  average eigenvalue GAMMA=   1.9011
  7.2265  5.2534  2.9820  2.6394  2.2301  1.4519  1.3675  0.2088  1.0734  1.0048
  0.9059  0.3711  0.4069  0.6622  0.7330

 Free energy of the ion-electron system (eV)
  ---------------------------------------------------
  alpha Z        PSCENC =       120.87645803
  Ewald energy   TEWEN  =     38132.63899555
  -Hartree energ DENC   =    -43200.50521994
  -exchange      EXHF   =         0.00000000
  -V(xc)+E(xc)   XCENC  =       173.50734358
  PAW double counting   =      4402.83276944    -4978.94259479
  entropy T*S    EENTRO =        -0.01503609
  eigenvalues    EBANDS =      -243.33985441
  atomic energy  EATOM  =      5575.94961827
  Solvation  Ediel_sol  =         0.00000000
  ---------------------------------------------------
  free energy    TOTEN  =       -16.99752034 eV

  energy without entropy =      -16.98248426  energy(sigma->0) =      -16.99000230


--------------------------------------------------------------------------------------------------------




--------------------------------------- Iteration      1(  21)  ---------------------------------------


    POTLOK:  cpu time    0.0110: real time    0.0128
    SETDIJ:  cpu time    0.0040: real time    0.0032
    EDDIAG:  cpu time    0.1240: real time    0.1271
  RMM-DIIS:  cpu time    0.2300: real time    0.2301
    ORTHCH:  cpu time    0.0160: real time    0.0162
       DOS:  cpu time    0.0060: real time    0.0060
    CHARGE:  cpu time    0.0350: real time    0.0342
    MIXING:  cpu time    0.0000: real time    0.0010
    --------------------------------------------
      LOOP:  cpu time    0.4259: real time    0.4308

 eigenvalue-minimisations  :  1054
 total energy-change (2. order) :-0.1195812E-04  (-0.4889005E-07)
 number of electron      44.9999935 magnetization 
 augmentation part       28.7680392 magnetization 

 Broyden mixing:
  rms(total) = 0.56519E-03    rms(broyden)= 0.18047E-03
  rms(prec ) = 0.19336E-03
  weight for this iteration     100.00
  WARNING: grid for Broyden might be to small

 eigenvalues of (default mixing * dielectric matrix)
  average eigenvalue GAMMA=   1.9682
  7.8734  5.5136  3.2774  2.6283  2.1523  2.1523  1.2904  1.2904  0.2088  1.0520
  0.9628  0.9173  0.3711  0.4069  0.6622  0.7326

 Free energy of the ion-electron system (eV)
  ---------------------------------------------------
  alpha Z        PSCENC =       120.87645803
  Ewald energy   TEWEN  =     38132.63899555
  -Hartree energ DENC   =    -43200.57617552
  -exchange      EXHF   =         0.00000000
  -V(xc)+E(xc)   XCENC  =       173.50751700
  PAW double counting   =      4402.81093219    -4978.91886930
  entropy T*S    EENTRO =        -0.01504054
  eigenvalues    EBANDS =      -243.27096799
  atomic energy  EATOM  =      5575.94961827
  Solvation  Ediel_sol  =         0.00000000
  ---------------------------------------------------
  free energy    TOTEN  =       -16.99753230 eV

  energy without entropy =      -16.98249176  energy(sigma->0) =      -16.99001203


--------------------------------------------------------------------------------------------------------




--------------------------------------- Iteration      1(  22)  ---------------------------------------


    POTLOK:  cpu time    0.0110: real time    0.0114
    SETDIJ:  cpu time    0.0040: real time    0.0032
    EDDIAG:  cpu time    0.1230: real time    0.1243
  RMM-DIIS:  cpu time    0.2250: real time    0.2244
    ORTHCH:  cpu time    0.0160: real time    0.0162
       DOS:  cpu time    0.0060: real time    0.0060
    CHARGE:  cpu time    0.0350: real time    0.0343
    MIXING:  cpu time    0.0000: real time    0.0011
    --------------------------------------------
      LOOP:  cpu time    0.4199: real time    0.4209

 eigenvalue-minimisations  :   933
 total energy-change (2. order) :-0.2253863E-05  (-0.7314142E-08)
 number of electron      44.9999935 magnetization 
 augmentation part       28.7680459 magnetization 

 Broyden mixing:
  rms(total) = 0.56109E-03    rms(broyden)= 0.16722E-03
  rms(prec ) = 0.16842E-03
  weight for this iteration     100.00
  WARNING: grid for Broyden might be to small

 eigenvalues of (default mixing * dielectric matrix)
  average eigenvalue GAMMA=   2.0081
  8.3293  5.7432  3.6041  2.5160  2.5160  2.0954  1.5440  0.2088  1.2491  1.2491
  0.3711  0.4069  1.0158  0.9795  0.9145  0.6622  0.7329

 Free energy of the ion-electron system (eV)
  ---------------------------------------------------
  alpha Z        PSCENC =       120.87645803
  Ewald energy   TEWEN  =     38132.63899555
  -Hartree energ DENC   =    -43200.59384891
  -exchange      EXHF   =         0.00000000
  -V(xc)+E(xc)   XCENC  =       173.50748593
  PAW double counting   =      4402.80793725    -4978.91599379
  entropy T*S    EENTRO =        -0.01503789
  eigenvalues    EBANDS =      -243.25314900
  atomic energy  EATOM  =      5575.94961827
  Solvation  Ediel_sol  =         0.00000000
  ---------------------------------------------------
  free energy    TOTEN  =       -16.99753456 eV

  energy without entropy =      -16.98249666  energy(sigma->0) =      -16.99001561


--------------------------------------------------------------------------------------------------------




--------------------------------------- Iteration      1(  23)  ---------------------------------------


    POTLOK:  cpu time    0.0120: real time    0.0115
    SETDIJ:  cpu time    0.0030: real time    0.0032
    EDDIAG:  cpu time    0.1240: real time    0.1244
  RMM-DIIS:  cpu time    0.1890: real time    0.1893
    ORTHCH:  cpu time    0.0160: real time    0.0161
       DOS:  cpu time    0.0060: real time    0.0059
    --------------------------------------------
      LOOP:  cpu time    0.3499: real time    0.3504

 eigenvalue-minimisations  :   369
 total energy-change (2. order) :-0.3539399E-06  (-0.7253166E-09)
 number of electron      44.9999935 magnetization 
 augmentation part       28.7680459 magnetization 

 Free energy of the ion-electron system (eV)
  ---------------------------------------------------
  alpha Z        PSCENC =       120.87645803
  Ewald energy   TEWEN  =     38132.63899555
  -Hartree energ DENC   =    -43200.59865857
  -exchange      EXHF   =         0.00000000
  -V(xc)+E(xc)   XCENC  =       173.50743727
  PAW double counting   =      4402.80885017    -4978.91735410
  entropy T*S    EENTRO =        -0.01503771
  eigenvalues    EBANDS =      -243.24784381
  atomic energy  EATOM  =      5575.94961827
  Solvation  Ediel_sol  =         0.00000000
  ---------------------------------------------------
  free energy    TOTEN  =       -16.99753491 eV

  energy without entropy =      -16.98249720  energy(sigma->0) =      -16.99001605


--------------------------------------------------------------------------------------------------------




 average (electrostatic) potential at core
  the test charge radii are     1.0053  0.5201
  (the norm of the test charge is              1.0000)
       1 -45.7752       2 -46.0096       3 -46.0135       4 -46.4310       5 -39.3700
 
 
 
 E-fermi :  -2.3400     XC(G=0):  -4.3993     alpha+bet : -2.7756


 k-point     1 :       0.0000    0.0000    0.0000
  band No.  band energies     occupation 
      1     -11.7575      2.00000
      2     -10.6984      2.00000
      3      -9.0291      2.00000
      4      -7.5434      2.00000
      5      -6.2358      2.00000
      6      -5.7713      2.00000
      7      -5.6008      2.00000
      8      -5.4469      2.00000
      9      -5.3256      2.00000
     10      -5.2911      2.00000
     11      -5.2800      2.00000
     12      -5.2571      2.00000
     13      -5.2520      2.00000
     14      -5.0052      2.00000
     15      -4.9889      2.00000
     16      -4.9437      2.00000
     17      -4.7988      2.00000
     18      -4.7466      2.00000
     19      -4.4980      2.00000
     20      -4.4970      2.00000
     21      -4.2857      2.00000
     22      -4.2752      2.00000
     23      -3.9882      2.00000
     24      -3.9853      2.00000
     25      -2.8860      2.00000
     26       1.6604      0.00000
     27       1.9190      0.00000
     28       2.3367      0.00000

 k-point     2 :       0.1000    0.0000    0.0000
  band No.  band energies     occupation 
      1     -11.4536      2.00000
      2     -10.4007      2.00000
      3      -8.7696      2.00000
      4      -7.3260      2.00000
      5      -6.2773      2.00000
      6      -5.7846      2.00000
      7      -5.6777      2.00000
      8      -5.5207      2.00000
      9      -5.4055      2.00000
     10      -5.3476      2.00000
     11      -5.3053      2.00000
     12      -5.2071      2.00000
     13      -5.1589      2.00000
     14      -5.0985      2.00000
     15      -5.0089      2.00000
     16      -4.9104      2.00000
     17      -4.8057      2.00000
     18      -4.7151      2.00000
     19      -4.5130      2.00000
     20      -4.4736      2.00000
     21      -4.2930      2.00000
     22      -4.2713      2.00000
     23      -3.9810      2.00000
     24      -3.7487      2.00000
     25      -2.1922      0.03654
     26       1.9105      0.00000
     27       2.2225      0.00000
     28       2.6397      0.00000

 k-point     3 :       0.2000   -0.0000    0.0000
  band No.  band energies     occupation 
      1     -10.5835      2.00000
      2      -9.5591      2.00000
      3      -8.1034      2.00000
      4      -6.8265      2.00000
      5      -6.4224      2.00000
      6      -5.9868      2.00000
      7      -5.8369      2.00000
      8      -5.6820      2.00000
      9      -5.5185      2.00000
     10      -5.3056      2.00000
     11      -5.2751      2.00000
     12      -5.2096      2.00000
     13      -5.1029      2.00000
     14      -5.0064      2.00000
     15      -4.9154      2.00000
     16      -4.8524      2.00000
     17      -4.7888      2.00000
     18      -4.6211      2.00000
     19      -4.5637      2.00000
     20      -4.4537      2.00000
     21      -4.2725      2.00000
     22      -4.0646      2.00000
     23      -3.9742      2.00000
     24      -2.8298      2.00000
     25      -0.8405      0.00000
     26       2.6524      0.00000
     27       3.1313      0.00000
     28       3.5472      0.00000

 k-point     4 :       0.3000   -0.0000    0.0000
  band No.  band energies     occupation 
      1      -9.3247      2.00000
      2      -8.4019      2.00000
      3      -7.4662      2.00000
      4      -6.7025      2.00000
      5      -6.4076      2.00000
      6      -6.2475      2.00000
      7      -5.9343      2.00000
      8      -5.6996      2.00000
      9      -5.5871      2.00000
     10      -5.2990      2.00000
     11      -5.1974      2.00000
     12      -5.0659      2.00000
     13      -4.9268      2.00000
     14      -4.8668      2.00000
     15      -4.8338      2.00000
     16      -4.6324      2.00000
     17      -4.5447      2.00000
     18      -4.3643      2.00000
     19      -4.3434      2.00000
     20      -4.2618      2.00000
     21      -4.1349      2.00000
     22      -3.9596      2.00000
     23      -3.5560      2.00000
     24      -1.6091      0.00000
     25       0.8773      0.00000
     26       3.8567      0.00000
     27       4.5963      0.00000
     28       4.9947      0.00000

 k-point     5 :       0.4000   -0.0000    0.0000
  band No.  band energies     occupation 
      1      -8.3104      2.00000
      2      -7.4493      2.00000
      3      -7.1426      2.00000
      4      -6.8138      2.00000
      5      -6.5232      2.00000
      6      -6.3993      2.00000
      7      -6.0508      2.00000
      8      -5.5219      2.00000
      9      -5.4111      2.00000
     10      -5.2809      2.00000
     11      -5.2380      2.00000
     12      -4.9617      2.00000
     13      -4.8454      2.00000
     14      -4.5506      2.00000
     15      -4.4438      2.00000
     16      -4.3390      2.00000
     17      -4.1175      2.00000
     18      -4.1030      2.00000
     19      -4.0534      2.00000
     20      -3.9652      2.00000
     21      -3.8179      2.00000
     22      -3.5486      2.00000
     23      -2.4906      1.96675
     24      -0.2003      0.00000
     25       2.1306      0.00000
     26       2.9254      0.00000
     27       3.2895      0.00000
     28       4.4791      0.00000

 k-point     6 :       0.5000   -0.0000    0.0000
  band No.  band energies     occupation 
      1      -8.0742      2.00000
      2      -7.1576      2.00000
      3      -6.9566      2.00000
      4      -6.8856      2.00000
      5      -6.5835      2.00000
      6      -6.4359      2.00000
      7      -6.0815      2.00000
      8      -5.4262      2.00000
      9      -5.4093      2.00000
     10      -5.2578      2.00000
     11      -5.1657      2.00000
     12      -4.9516      2.00000
     13      -4.5932      2.00000
     14      -4.4548      2.00000
     15      -4.4010      2.00000
     16      -4.2156      2.00000
[...]
      3      -7.3038      2.00000
      4      -6.4870      2.00000
      5      -6.3311      2.00000
      6      -6.0269      2.00000
      7      -5.7384      2.00000
      8      -5.6511      2.00000
      9      -5.4769      2.00000
     10      -5.3335      2.00000
     11      -5.3094      2.00000
     12      -5.0968      2.00000
     13      -4.9792      2.00000
     14      -4.8479      2.00000
     15      -4.8179      2.00000
     16      -4.7426      2.00000
     17      -4.5494      2.00000
     18      -4.3821      2.00000
     19      -4.3571      2.00000
     20      -4.2638      2.00000
     21      -4.1350      2.00000
     22      -3.9619      2.00000
     23      -3.7396      2.00000
     24      -1.9157      0.00000
     25       0.6607      0.00000
     26       3.7372      0.00000
     27       4.6209      0.00000
     28       4.8307      0.00000

 k-point    24 :      -0.4000    0.3000    0.0000
  band No.  band energies     occupation 
      1      -7.9274      2.00000
      2      -6.4694      2.00000
      3      -6.3879      2.00000
      4      -6.2840      2.00000
      5      -6.2163      2.00000
      6      -6.0590      2.00000
      7      -5.9928      2.00000
      8      -5.9318      2.00000
      9      -5.7720      2.00000
     10      -5.5853      2.00000
     11      -5.4440      2.00000
     12      -5.0485      2.00000
     13      -4.9991      2.00000
     14      -4.8615      2.00000
     15      -4.6892      2.00000
     16      -4.5424      2.00000
     17      -4.4479      2.00000
     18      -4.1759      2.00000
     19      -4.0760      2.00000
     20      -3.9771      2.00000
     21      -2.1807      0.02423
     22      -0.3869      0.00000
     23       0.8080      0.00000
     24       2.2332      0.00000
     25       2.2440      0.00000
     26       2.5746      0.00000
     27       3.3015      0.00000
     28       4.0255      0.00000

 k-point    25 :      -0.3000    0.3000    0.0000
  band No.  band energies     occupation 
      1      -7.9226      2.00000
      2      -6.4785      2.00000
      3      -6.4027      2.00000
      4      -6.2762      2.00000
      5      -6.2081      2.00000
      6      -6.0588      2.00000
      7      -5.9956      2.00000
      8      -5.9139      2.00000
      9      -5.7525      2.00000
     10      -5.6361      2.00000
     11      -5.4459      2.00000
     12      -5.0497      2.00000
     13      -4.9988      2.00000
     14      -4.8814      2.00000
     15      -4.6945      2.00000
     16      -4.5462      2.00000
     17      -4.4450      2.00000
     18      -4.1593      2.00000
     19      -4.0745      2.00000
     20      -3.9783      2.00000
     21      -1.9796      0.00000
     22      -0.4039      0.00000
     23       0.6685      0.00000
     24       1.7804      0.00000
     25       2.3534      0.00000
     26       2.5382      0.00000
     27       3.2544      0.00000
     28       3.8429      0.00000

 k-point    26 :      -0.2000    0.3000    0.0000
  band No.  band energies     occupation 
      1      -8.3433      2.00000
      2      -6.8677      2.00000
      3      -6.6676      2.00000
      4      -6.4056      2.00000
      5      -6.2640      2.00000
      6      -6.0472      2.00000
      7      -5.9449      2.00000
      8      -5.7777      2.00000
      9      -5.6225      2.00000
     10      -5.5649      2.00000
     11      -5.4183      2.00000
     12      -5.0813      2.00000
     13      -5.0168      2.00000
     14      -4.8610      2.00000
     15      -4.6751      2.00000
     16      -4.5812      2.00000
     17      -4.3846      2.00000
     18      -4.2111      2.00000
     19      -4.0285      2.00000
     20      -3.8874      2.00000
     21      -3.0490      2.00000
     22      -2.3804      1.43218
     23      -1.3485      0.00000
     24       0.4629      0.00000
     25       2.1442      0.00000
     26       3.3075      0.00000
     27       4.3260      0.00000
     28       5.5798      0.00000

 k-point    27 :      -0.1000    0.3000    0.0000
  band No.  band energies     occupation 
      1      -9.0293      2.00000
      2      -7.6307      2.00000
      3      -6.9917      2.00000
      4      -6.4642      2.00000
      5      -6.3504      2.00000
      6      -6.0735      2.00000
      7      -5.8202      2.00000
      8      -5.6261      2.00000
      9      -5.5247      2.00000
     10      -5.4429      2.00000
     11      -5.2646      2.00000
     12      -5.1389      2.00000
     13      -4.9947      2.00000
     14      -4.7576      2.00000
     15      -4.6967      2.00000
     16      -4.5410      2.00000
     17      -4.3998      2.00000
     18      -4.2222      2.00000
     19      -4.1730      2.00000
     20      -3.9851      2.00000
     21      -3.9293      2.00000
     22      -3.6421      2.00000
     23      -2.9750      2.00000
     24      -1.0072      0.00000
     25       1.5785      0.00000
     26       3.6094      0.00000
     27       4.5969      0.00000
     28       5.4067      0.00000

 k-point    28 :       0.0000    0.4000    0.0000
  band No.  band energies     occupation 
      1      -8.9164      2.00000
      2      -7.3678      2.00000
      3      -7.0091      2.00000
      4      -6.5449      2.00000
      5      -6.4889      2.00000
      6      -6.1745      2.00000
      7      -5.7880      2.00000
      8      -5.4605      2.00000
      9      -5.4099      2.00000
     10      -5.3180      2.00000
     11      -5.0737      2.00000
     12      -5.0292      2.00000
     13      -4.6748      2.00000
     14      -4.5412      2.00000
     15      -4.4440      2.00000
     16      -4.3613      2.00000
     17      -4.1131      2.00000
     18      -4.0524      2.00000
     19      -4.0199      2.00000
     20      -3.9675      2.00000
     21      -3.8182      2.00000
     22      -3.5424      2.00000
     23      -2.7749      2.00000
     24      -0.8296      0.00000
     25       1.0392      0.00000
     26       2.6490      0.00000
     27       3.5512      0.00000
     28       5.0143      0.00000

 k-point    29 :      -0.2000    0.4000    0.0000
  band No.  band energies     occupation 
      1      -8.2107      2.00000
      2      -6.6598      2.00000
      3      -6.5944      2.00000
      4      -6.3244      2.00000
      5      -6.2623      2.00000
      6      -6.0382      2.00000
      7      -5.9820      2.00000
      8      -5.8926      2.00000
      9      -5.5204      2.00000
     10      -5.4736      2.00000
     11      -5.3103      2.00000
     12      -5.1166      2.00000
     13      -4.9809      2.00000
     14      -4.7118      2.00000
     15      -4.6018      2.00000
     16      -4.5294      2.00000
     17      -4.2792      2.00000
     18      -4.1199      2.00000
     19      -4.0556      2.00000
     20      -3.9558      2.00000
     21      -1.8912      0.00000
     22      -0.8089      0.00000
     23      -0.4556      0.00000
     24       0.1277      0.00000
     25       0.8121      0.00000
     26       2.4707      0.00000
     27       3.8148      0.00000
     28       5.0637      0.00000

 k-point    30 :      -0.1000    0.4000    0.0000
  band No.  band energies     occupation 
      1      -8.6092      2.00000
      2      -7.0097      2.00000
      3      -6.8738      2.00000
      4      -6.5018      2.00000
      5      -6.4348      2.00000
      6      -6.1599      2.00000
      7      -5.8253      2.00000
      8      -5.6506      2.00000
      9      -5.4155      2.00000
     10      -5.2734      2.00000
     11      -5.2264      2.00000
     12      -4.9434      2.00000
     13      -4.8134      2.00000
     14      -4.6099      2.00000
     15      -4.4372      2.00000
     16      -4.2766      2.00000
     17      -4.1385      2.00000
     18      -4.0770      2.00000
     19      -4.0154      2.00000
     20      -3.8686      2.00000
     21      -2.8981      2.00000
     22      -2.3856      1.48053
     23      -1.6091      0.00000
     24      -0.5193      0.00000
     25       0.3175      0.00000
     26       2.2356      0.00000
     27       3.3893      0.00000
     28       4.9563      0.00000

 k-point    31 :       0.0000    0.5000    0.0000
  band No.  band energies     occupation 
      1      -8.7138      2.00000
      2      -7.0818      2.00000
      3      -6.9736      2.00000
      4      -6.5914      2.00000
      5      -6.5207      2.00000
      6      -6.2426      2.00000
      7      -5.8003      2.00000
      8      -5.4398      2.00000
      9      -5.4150      2.00000
     10      -5.3100      2.00000
     11      -5.0523      2.00000
     12      -4.9480      2.00000
     13      -4.4926      2.00000
     14      -4.4470      2.00000
     15      -4.3674      2.00000
     16      -4.1064      2.00000
     17      -4.0468      2.00000
     18      -3.9563      2.00000
     19      -3.8965      2.00000
     20      -3.7026      2.00000
     21      -2.7028      2.00000
     22      -2.3223      0.80170
     23      -1.7528      0.00000
     24      -1.2085      0.00000
     25      -0.7936      0.00000
     26       1.9349      0.00000
     27       3.0779      0.00000
     28       4.5490      0.00000


--------------------------------------------------------------------------------------------------------


 soft charge-density along one line, spin component           1
         0         1         2         3         4         5         6         7         8         9
 total charge-density along one line
 
 pseudopotential strength for first ion, spin component:           1
-10.816   0.000   0.000  -0.005   0.000   1.729  -0.000  -0.000
  0.000 -10.793  -0.000   0.000  -0.004  -0.000   1.718   0.000
  0.000  -0.000 -10.795  -0.000   0.002  -0.000   0.000   1.718
 -0.005   0.000  -0.000 -10.795  -0.000   0.002  -0.000   0.000
  0.000  -0.004   0.002  -0.000 -10.816  -0.000   0.002  -0.001
  1.729  -0.000  -0.000   0.002  -0.000   0.781   0.000   0.000
 -0.000   1.718   0.000  -0.000   0.002   0.000   0.786  -0.000
 -0.000   0.000   1.718   0.000  -0.001   0.000  -0.000   0.786
  0.002  -0.000   0.000   1.719   0.000  -0.001   0.000  -0.000
 -0.000   0.002  -0.001   0.000   1.729   0.000  -0.001   0.000
 -0.000   0.000  -0.005   0.000   0.000  -0.000  -0.000   0.002
  0.000  -0.000   0.000  -0.000  -0.000  -0.000   0.000  -0.000
  0.000  -0.011   0.000  -0.000   0.000  -0.000   0.006  -0.000
 -0.000  -0.000  -0.011   0.000   0.000  -0.000   0.000   0.006
  0.000  -0.000  -0.000  -0.011   0.000   0.000  -0.000  -0.000
 -0.000   0.006  -0.000   0.000  -0.000   0.000  -0.003   0.000
  0.000  -0.000   0.006   0.000  -0.000  -0.000   0.000  -0.003
 -0.000   0.000   0.000   0.006  -0.000   0.000  -0.000  -0.000
 total augmentation occupancy for first ion, spin component:           1
  1.927   0.000   0.000  -0.002   0.000  -0.003   0.000   0.000   0.010   0.000   0.000   0.000   0.000   0.000   0.006   0.000
  0.000   1.932  -0.000   0.000  -0.002   0.000  -0.034   0.000   0.000   0.010   0.001   0.000  -0.003   0.000   0.000  -0.005
  0.000  -0.000   1.935   0.000   0.001   0.000   0.000  -0.025   0.000  -0.000   0.016   0.039   0.001   0.036   0.000  -0.000
 -0.002   0.000   0.000   1.932   0.000   0.010   0.000   0.000  -0.034   0.000   0.000   0.000   0.000   0.000  -0.001   0.000
  0.000  -0.002   0.001   0.000   1.927   0.000   0.010  -0.000   0.000  -0.003   0.001   0.000   0.006  -0.001   0.000  -0.001
 -0.003   0.000   0.000   0.010   0.000   0.060   0.000   0.000   0.001   0.000   0.000   0.000   0.000   0.000   0.006   0.000
  0.000  -0.034   0.000   0.000   0.010   0.000   0.040  -0.000   0.000   0.001  -0.000  -0.000   0.032  -0.000   0.000  -0.003
  0.000   0.000  -0.025   0.000  -0.000   0.000  -0.000   0.056   0.000   0.000  -0.074   0.013  -0.001   0.043   0.000   0.000
  0.010   0.000   0.000  -0.034   0.000   0.001   0.000   0.000   0.040   0.000   0.000   0.000   0.000   0.000   0.031   0.000
  0.000   0.010  -0.000   0.000  -0.003   0.000   0.001   0.000   0.000   0.060  -0.001  -0.000   0.005   0.000   0.000  -0.000
  0.000   0.001   0.016   0.000   0.001   0.000  -0.000  -0.074   0.000  -0.001   1.243  -0.282  -0.001   0.072   0.000   0.000
  0.000   0.000   0.039   0.000   0.000   0.000  -0.000   0.013   0.000  -0.000  -0.282   0.110  -0.000  -0.045   0.000  -0.000
  0.000  -0.003   0.001   0.000   0.006   0.000   0.032  -0.001   0.000   0.005  -0.001  -0.000   0.170  -0.001   0.000  -0.010
  0.000   0.000   0.036   0.000  -0.001   0.000  -0.000   0.043   0.000   0.000   0.072  -0.045  -0.001   0.091   0.000   0.000
  0.006   0.000   0.000  -0.001   0.000   0.006   0.000   0.000   0.031   0.000   0.000   0.000   0.000   0.000   0.171   0.000
  0.000  -0.005  -0.000   0.000  -0.001   0.000  -0.003   0.000   0.000  -0.000   0.000  -0.000  -0.010   0.000   0.000   0.001
  0.000   0.000  -0.009   0.000  -0.000   0.000  -0.000  -0.002   0.000  -0.000  -0.013   0.006   0.000  -0.007   0.000  -0.000
 -0.001   0.000   0.000  -0.005   0.000  -0.000   0.000   0.000  -0.003   0.000   0.000   0.000   0.000   0.000  -0.010   0.000


------------------------ aborting loop because EDIFF is reached ----------------------------------------


 


 total charge     
 
# of ion       s       p       d       tot
------------------------------------------
    1        0.456   0.287   9.220   9.963
    2        0.445   0.372   9.221  10.037
    3        0.453   0.369   9.210  10.032
    4        0.456   0.470   9.210  10.136
    5        0.536   0.019   0.000   0.555
--------------------------------------------------
tot          2.346   1.517  36.860  40.723
 
    CHARGE:  cpu time    0.0350: real time    0.0353
    FORLOC:  cpu time    0.0010: real time    0.0014
    FORNL :  cpu time    0.1810: real time    0.1802
    STRESS:  cpu time    0.5419: real time    0.5421
    FORCOR:  cpu time    0.0120: real time    0.0115
    FORHAR:  cpu time    0.0030: real time    0.0031
    MIXING:  cpu time    0.0000: real time    0.0011
    OFIELD:  cpu time    0.0000: real time    0.0000

  FORCE on cell =-STRESS in cart. coord.  units (eV):
  Direction    XX          YY          ZZ          XY          YZ          ZX
  --------------------------------------------------------------------------------------
  Alpha Z   120.87646   120.87646   120.87646
  Ewald   41092.61513 41033.47704-43993.45667    -0.00001     0.54542     0.00035
  Hartree 42383.98213 42362.08861-41545.46220     0.00003     0.24224    -0.00001
  E(xc)    -253.09799  -253.29192  -253.72770    -0.00254     0.00024     0.00022
  Local  -83740.77244-83666.20929 85269.55314     0.00519    -0.70643    -0.00118
  n-local  -155.30668  -155.66757  -156.08600     2.22080    -0.02954     0.17858
  augment   224.63839   226.73921   226.47458    -0.01279    -0.03171     0.00324
  Kinetic   323.24131   327.18771   327.54416   -10.98183    -0.14312     0.61793
  Fock        0.00000     0.00000     0.00000     0.00000     0.00000     0.00000
  -------------------------------------------------------------------------------------
  Total      -3.82368    -4.79975    -4.28424     0.00000    -0.12290     0.00000
  in kB     -35.23540   -44.22994   -39.47952     0.00000    -1.13251     0.00000
  external pressure =      -39.65 kB  Pullay stress =        0.00 kB


 VOLUME and BASIS-vectors are now :
 -----------------------------------------------------------------------------
  energy-cutoff  :      250.00
  volume of cell :      173.87
      direct lattice vectors                 reciprocal lattice vectors
     2.573868684  0.000000000  0.000000000     0.388520209 -0.224312248  0.000000000
     1.286934342  2.229035666  0.000000000     0.000000000  0.448624495  0.000000000
     0.000000000  0.000000000 30.304664940     0.000000000  0.000000000  0.032998220

  length of vectors
     2.573868684  2.573868684 30.304664940     0.448624495  0.448624495  0.032998220


 FORCES acting on ions
    electron-ion (+dipol)            ewald-force                    non-local-force                 convergence-correction
 -----------------------------------------------------------------------------------------------
   -.185E-03 -.550E-01 0.422E+04   -.960E-04 -.145E-01 -.422E+04   0.000E+00 0.785E-01 -.151E+01   0.970E-10 0.167E-05 -.109E-03
   0.133E-03 -.131E+00 0.149E+04   0.222E-03 0.839E-01 -.149E+04   0.173E-17 0.510E-01 -.769E+00   0.787E-08 0.250E-05 0.239E-02
   0.491E-04 0.408E+00 -.125E+04   -.150E-03 -.316E+00 0.125E+04   0.000E+00 -.787E-01 0.285E+00   -.254E-08 -.223E-05 0.217E-02
   0.187E-03 -.187E-01 -.398E+04   -.368E-03 0.101E+00 0.398E+04   -.139E-16 -.997E-01 -.131E+00   -.326E-08 0.482E-05 0.543E-03
   -.109E-03 -.153E+00 -.480E+03   0.392E-03 0.145E+00 0.482E+03   0.325E-18 -.184E-02 -.164E+01   0.120E-09 0.239E-06 -.307E-04
 -----------------------------------------------------------------------------------------------
   0.752E-04 0.496E-01 0.378E+01   -.150E-12 0.336E-13 -.568E-13   -.118E-16 -.507E-01 -.376E+01   0.230E-08 0.700E-05 0.495E-02
 
 
 POSITION                                       TOTAL-FORCE (eV/Angst)
 -----------------------------------------------------------------------------------
      2.57387      0.00131     12.01783        -0.000000      0.009246      0.079105
      1.28693      0.74366     14.09590         0.000000      0.004149     -0.036703
      2.57387      1.48976     16.17040         0.000000      0.013523     -0.097049
      1.28693      2.22547     18.31056        -0.000000     -0.017142     -0.561377
      2.57386      2.22691     19.21931         0.000000     -0.009776      0.616025
 -----------------------------------------------------------------------------------
    total drift:                                0.000075     -0.001123      0.019864


--------------------------------------------------------------------------------------------------------



  FREE ENERGIE OF THE ION-ELECTRON SYSTEM (eV)
  ---------------------------------------------------
  free  energy   TOTEN  =       -16.99753491 eV

  energy  without entropy=      -16.98249720  energy(sigma->0) =      -16.99001605
 


--------------------------------------------------------------------------------------------------------


    POTLOK:  cpu time    0.0150: real time    0.0143


--------------------------------------------------------------------------------------------------------


     LOOP+:  cpu time   13.3440: real time   13.4050
    4ORBIT:  cpu time    0.0000: real time    0.0000
 


 total charge     
 
# of ion       s       p       d       tot
------------------------------------------
    1        0.456   0.287   9.220   9.963
    2        0.445   0.372   9.221  10.037
    3        0.453   0.369   9.210  10.032
    4        0.456   0.470   9.210  10.136
    5        0.536   0.019   0.000   0.555
--------------------------------------------------
tot          2.346   1.517  36.860  40.723
 

 total amount of memory used by VASP MPI-rank0    39169. kBytes
=======================================================================

   base      :      30000. kBytes
   nonlr-proj:        676. kBytes
   fftplans  :        995. kBytes
   grid      :       1592. kBytes
   one-center:         46. kBytes
   wavefun   :       5860. kBytes
 
  
  
 General timing and accounting informations for this job:
 ========================================================
  
                  Total CPU time used (sec):       14.708
                            User time (sec):       14.422
                          System time (sec):        0.286
                         Elapsed time (sec):       14.948
  
                   Maximum memory used (kb):       39264.
                   Average memory used (kb):           0.
  
                          Minor page faults:        16499
                          Major page faults:          179
                 Voluntary context switches:         3014
