PROCAR lm decomposed
# of k-points:   31         # of bands:   28         # of ions:    5

 k-point     1 :    0.00000000 0.00000000 0.00000000     weight = 0.01000000

band     1 # energy  -11.75748926 # occ.  2.00000000
 
ion      s     py     pz     px    dxy    dyz    dz2    dxz  x2-y2    tot
    1  0.005  0.000  0.001  0.000  0.000  0.000  0.000  0.000  0.000  0.005
    2  0.032  0.000  0.001  0.000  0.000  0.000  0.000  0.000  0.000  0.033
    3  0.109  0.000  0.003  0.000  0.000  0.000  0.000  0.000  0.000  0.112
    4  0.332  0.000  0.001  0.000  0.000  0.000  0.011  0.000  0.011  0.355
    5  0.113  0.000  0.001  0.000  0.000  0.000  0.000  0.000  0.000  0.115
tot    0.591  0.000  0.008  0.000  0.000  0.000  0.011  0.000  0.011  0.621
 
band     2 # energy  -10.69840341 # occ.  2.00000000
 
ion      s     py     pz     px    dxy    dyz    dz2    dxz  x2-y2    tot
    1  0.117  0.000  0.011  0.000  0.000  0.000  0.000  0.000  0.000  0.127
    2  0.276  0.000  0.000  0.000  0.000  0.000  0.002  0.000  0.000  0.278
    3  0.069  0.000  0.016  0.000  0.000  0.000  0.001  0.000  0.000  0.086
    4  0.051  0.000  0.009  0.000  0.000  0.000  0.010  0.000  0.005  0.076
    5  0.036  0.000  0.000  0.000  0.000  0.000  0.000  0.000  0.000  0.037
tot    0.549  0.000  0.037  0.000  0.000  0.000  0.013  0.000  0.005  0.604
 
band     3 # energy   -9.02908953 # occ.  2.00000000
 
ion      s     py     pz     px    dxy    dyz    dz2    dxz  x2-y2    tot
    1  0.194  0.000  0.002  0.000  0.000  0.000  0.020  0.000  0.000  0.217
    2  0.005  0.000  0.048  0.000  0.000  0.000  0.001  0.000  0.000  0.053
    3  0.209  0.000  0.000  0.000  0.000  0.000  0.038  0.000  0.000  0.247
    4  0.006  0.000  0.031  0.000  0.000  0.000  0.024  0.000  0.008  0.068
    5  0.029  0.000  0.000  0.000  0.000  0.000  0.000  0.000  0.000  0.030
tot    0.443  0.000  0.081  0.000  0.000  0.000  0.083  0.000  0.008  0.614
 
band     4 # energy   -7.54338765 # occ.  2.00000000
 
ion      s     py     pz     px    dxy    dyz    dz2    dxz  x2-y2    tot
    1  0.107  0.000  0.005  0.000  0.000  0.000  0.133  0.000  0.000  0.246
    2  0.098  0.000  0.003  0.000  0.000  0.000  0.232  0.000  0.000  0.334
    3  0.031  0.000  0.015  0.000  0.000  0.000  0.087  0.000  0.000  0.133
    4  0.000  0.000  0.011  0.000  0.000  0.000  0.014  0.000  0.005  0.030
    5  0.005  0.000  0.000  0.000  0.000  0.000  0.000  0.000  0.000  0.005
tot    0.242  0.000  0.034  0.000  0.000  0.000  0.466  0.000  0.005  0.747
 
band     5 # energy   -6.23579249 # occ.  2.00000000
 
ion      s     py     pz     px    dxy    dyz    dz2    dxz  x2-y2    tot
    1  0.000  0.000  0.000  0.000  0.000  0.000  0.002  0.000  0.000  0.002
    2  0.001  0.000  0.000  0.000  0.000  0.000  0.000  0.000  0.000  0.001
    3  0.000  0.000  0.004  0.000  0.000  0.002  0.074  0.000  0.000  0.081
    4  0.010  0.000  0.034  0.000  0.000  0.000  0.437  0.000  0.248  0.729
    5  0.045  0.000  0.000  0.000  0.000  0.000  0.000  0.000  0.000  0.045
tot    0.057  0.000  0.038  0.000  0.000  0.002  0.514  0.000  0.248  0.859
 
band     6 # energy   -5.77133552 # occ.  2.00000000
 
ion      s     py     pz     px    dxy    dyz    dz2    dxz  x2-y2    tot
    1  0.001  0.000  0.000  0.000  0.000  0.000  0.007  0.000  0.000  0.008
    2  0.001  0.000  0.001  0.000  0.000  0.000  0.030  0.000  0.001  0.032
    3  0.000  0.000  0.014  0.000  0.000  0.005  0.157  0.000  0.002  0.178
    4  0.011  0.000  0.002  0.000  0.000  0.000  0.381  0.000  0.312  0.706
    5  0.000  0.000  0.002  0.000  0.000  0.000  0.000  0.000  0.000  0.002
tot    0.013  0.000  0.018  0.000  0.000  0.005  0.575  0.000  0.314  0.925
 
band     7 # energy   -5.60077387 # occ.  2.00000000
 
ion      s     py     pz     px    dxy    dyz    dz2    dxz  x2-y2    tot
    1  0.000  0.000  0.000  0.000  0.000  0.000  0.000  0.000  0.000  0.000
    2  0.000  0.000  0.000  0.000  0.006  0.000  0.000  0.000  0.000  0.006
    3  0.000  0.000  0.000  0.000  0.006  0.000  0.000  0.023  0.000  0.029
    4  0.000  0.000  0.000  0.000  0.931  0.000  0.000  0.002  0.000  0.933
    5  0.000  0.000  0.000  0.000  0.000  0.000  0.000  0.000  0.000  0.000
tot    0.000  0.000  0.000  0.000  0.943  0.000  0.000  0.025  0.000  0.968
 
band     8 # energy   -5.44686906 # occ.  2.00000000
 
ion      s     py     pz     px    dxy    dyz    dz2    dxz  x2-y2    tot
    1  0.001  0.000  0.000  0.000  0.000  0.000  0.033  0.000  0.000  0.034
    2  0.000  0.000  0.010  0.000  0.000  0.000  0.086  0.000  0.005  0.101
    3  0.004  0.000  0.000  0.000  0.000  0.009  0.506  0.000  0.003  0.523
    4  0.001  0.000  0.016  0.000  0.000  0.000  0.006  0.000  0.232  0.256
    5  0.003  0.000  0.000  0.000  0.000  0.000  0.000  0.000  0.000  0.004
tot    0.010  0.000  0.026  0.000  0.000  0.010  0.631  0.000  0.241  0.918
 
band     9 # energy   -5.32555869 # occ.  2.00000000
 
ion      s     py     pz     px    dxy    dyz    dz2    dxz  x2-y2    tot
    1  0.000  0.000  0.000  0.000  0.012  0.000  0.000  0.001  0.000  0.013
    2  0.000  0.000  0.000  0.000  0.001  0.000  0.000  0.054  0.000  0.055
    3  0.000  0.000  0.000  0.000  0.599  0.000  0.000  0.027  0.000  0.626
    4  0.000  0.000  0.000  0.000  0.000  0.000  0.000  0.275  0.000  0.275
    5  0.000  0.000  0.000  0.001  0.000  0.000  0.000  0.000  0.000  0.001
tot    0.000  0.000  0.000  0.001  0.612  0.000  0.000  0.356  0.000  0.969
 
band    10 # energy   -5.29105342 # occ.  2.00000000
 
ion      s     py     pz     px    dxy    dyz    dz2    dxz  x2-y2    tot
    1  0.000  0.000  0.004  0.000  0.000  0.002  0.218  0.000  0.009  0.233
    2  0.003  0.000  0.001  0.000  0.000  0.009  0.308  0.000  0.123  0.443
    3  0.001  0.000  0.005  0.000  0.000  0.002  0.010  0.000  0.211  0.229
    4  0.000  0.000  0.005  0.000  0.000  0.016  0.001  0.000  0.015  0.037
    5  0.002  0.000  0.000  0.000  0.000  0.000  0.000  0.000  0.000  0.002
tot    0.006  0.000  0.015  0.000  0.000  0.029  0.537  0.000  0.357  0.944
 
band    11 # energy   -5.28000630 # occ.  2.00000000
 
ion      s     py     pz     px    dxy    dyz    dz2    dxz  x2-y2    tot
    1  0.000  0.000  0.002  0.000  0.000  0.000  0.125  0.000  0.017  0.144
    2  0.001  0.000  0.001  0.000  0.000  0.047  0.136  0.000  0.014  0.200
    3  0.001  0.000  0.002  0.000  0.000  0.015  0.002  0.000  0.495  0.514
    4  0.000  0.000  0.003  0.000  0.000  0.068  0.001  0.000  0.023  0.095
    5  0.001  0.000  0.000  0.000  0.000  0.000  0.000  0.000  0.000  0.001
tot    0.003  0.000  0.007  0.000  0.000  0.131  0.265  0.000  0.548  0.955
 
band    12 # energy   -5.25710948 # occ.  2.00000000
 
ion      s     py     pz     px    dxy    dyz    dz2    dxz  x2-y2    tot
    1  0.000  0.000  0.000  0.000  0.010  0.000  0.000  0.030  0.000  0.040
    2  0.000  0.000  0.000  0.000  0.837  0.000  0.000  0.005  0.001  0.843
    3  0.000  0.000  0.000  0.000  0.008  0.000  0.000  0.051  0.000  0.060
    4  0.000  0.000  0.000  0.000  0.015  0.000  0.000  0.009  0.000  0.024
    5  0.000  0.000  0.000  0.000  0.000  0.000  0.000  0.000  0.000  0.000
tot    0.000  0.000  0.000  0.000  0.870  0.000  0.000  0.095  0.001  0.966
 
band    13 # energy   -5.25203068 # occ.  2.00000000
 
ion      s     py     pz     px    dxy    dyz    dz2    dxz  x2-y2    tot
    1  0.000  0.000  0.000  0.000  0.000  0.031  0.034  0.000  0.002  0.067
    2  0.000  0.000  0.001  0.000  0.001  0.026  0.020  0.000  0.707  0.754
    3  0.000  0.000  0.000  0.000  0.000  0.063  0.000  0.000  0.042  0.105
    4  0.000  0.000  0.001  0.000  0.000  0.021  0.000  0.000  0.015  0.037
    5  0.000  0.000  0.000  0.000  0.000  0.000  0.000  0.000  0.000  0.000
tot    0.001  0.000  0.002  0.000  0.001  0.141  0.055  0.000  0.765  0.964
 
band    14 # energy   -5.00524821 # occ.  2.00000000
 
ion      s     py     pz     px    dxy    dyz    dz2    dxz  x2-y2    tot
    1  0.000  0.000  0.000  0.000  0.608  0.000  0.000  0.012  0.000  0.620
    2  0.000  0.000  0.000  0.000  0.008  0.000  0.000  0.118  0.000  0.126
    3  0.000  0.000  0.000  0.000  0.009  0.000  0.000  0.000  0.000  0.009
    4  0.000  0.000  0.000  0.000  0.000  0.000  0.000  0.216  0.000  0.216
    5  0.000  0.000  0.000  0.001  0.000  0.000  0.000  0.000  0.000  0.001
tot    0.000  0.000  0.000  0.001  0.625  0.000  0.000  0.346  0.000  0.973
 
band    15 # energy   -4.98886749 # occ.  2.00000000
 
ion      s     py     pz     px    dxy    dyz    dz2    dxz  x2-y2    tot
    1  0.000  0.000  0.000  0.000  0.000  0.007  0.001  0.000  0.813  0.821
    2  0.000  0.000  0.000  0.000  0.000  0.085  0.000  0.000  0.000  0.086
    3  0.000  0.000  0.000  0.000  0.000  0.004  0.000  0.000  0.044  0.048
    4  0.000  0.000  0.000  0.000  0.000  0.013  0.000  0.000  0.000  0.013
    5  0.000  0.000  0.000  0.000  0.000  0.000  0.000  0.000  0.000  0.000
tot    0.000  0.000  0.000  0.000  0.000  0.109  0.001  0.000  0.858  0.968
 
band    16 # energy   -4.94369969 # occ.  2.00000000
 
ion      s     py     pz     px    dxy    dyz    dz2    dxz  x2-y2    tot
    1  0.000  0.000  0.000  0.000  0.215  0.000  0.000  0.000  0.000  0.216
    2  0.000  0.000  0.000  0.000  0.012  0.000  0.000  0.000  0.000  0.012
    3  0.000  0.000  0.000  0.000  0.289  0.000  0.000  0.016  0.000  0.305
    4  0.000  0.000  0.000  0.000  0.007  0.000  0.000  0.438  0.000  0.446
    5  0.000  0.000  0.000  0.002  0.000  0.000  0.000  0.000  0.000  0.002
tot    0.000  0.000  0.000  0.002  0.523  0.000  0.000  0.454  0.000  0.980
 
band    17 # energy   -4.79878964 # occ.  2.00000000
 
ion      s     py     pz     px    dxy    dyz    dz2    dxz  x2-y2    tot
    1  0.024  0.000  0.001  0.000  0.000  0.001  0.271  0.000  0.000  0.297
    2  0.014  0.000  0.032  0.000  0.000  0.000  0.056  0.000  0.009  0.111
    3  0.000  0.000  0.068  0.000  0.000  0.032  0.000  0.000  0.018  0.118
    4  0.007  0.000  0.051  0.000  0.000  0.094  0.007  0.000  0.044  0.203
    5  0.016  0.000  0.000  0.000  0.000  0.000  0.000  0.000  0.000  0.016
tot    0.060  0.000  0.153  0.000  0.000  0.127  0.334  0.000  0.072  0.746
 
band    18 # energy   -4.74663973 # occ.  2.00000000
 
ion      s     py     pz     px    dxy    dyz    dz2    dxz  x2-y2    tot
    1  0.004  0.000  0.000  0.000  0.000  0.003  0.038  0.000  0.003  0.048
    2  0.002  0.000  0.004  0.000  0.000  0.006  0.010  0.000  0.010  0.033
    3  0.000  0.000  0.011  0.000  0.000  0.047  0.000  0.000  0.103  0.161
    4  0.001  0.000  0.009  0.000  0.000  0.664  0.001  0.000  0.025  0.700
    5  0.002  0.000  0.000  0.000  0.000  0.000  0.000  0.000  0.000  0.003
tot    0.009  0.000  0.025  0.000  0.000  0.720  0.048  0.000  0.141  0.944
 
band    19 # energy   -4.49801423 # occ.  2.00000000
 
ion      s     py     pz     px    dxy    dyz    dz2    dxz  x2-y2    tot
    1  0.000  0.000  0.000  0.000  0.100  0.000  0.000  0.035  0.001  0.136
    2  0.000  0.000  0.000  0.000  0.078  0.003  0.000  0.390  0.000  0.471
    3  0.000  0.000  0.000  0.000  0.042  0.002  0.000  0.312  0.000  0.357
    4  0.000  0.000  0.000  0.000  0.008  0.000  0.000  0.011  0.000  0.020
    5  0.000  0.000  0.000  0.000  0.000  0.000  0.000  0.000  0.000  0.000
tot    0.000  0.000  0.000  0.000  0.229  0.005  0.000  0.749  0.001  0.984
 
band    20 # energy   -4.49700410 # occ.  2.00000000
 
ion      s     py     pz     px    dxy    dyz    dz2    dxz  x2-y2    tot
    1  0.000  0.000  0.000  0.000  0.001  0.040  0.001  0.000  0.103  0.145
    2  0.000  0.000  0.000  0.000  0.001  0.409  0.000  0.003  0.072  0.484
    3  0.000  0.000  0.000  0.000  0.000  0.270  0.000  0.002  0.033  0.306
    4  0.000  0.000  0.001  0.000  0.000  0.038  0.000  0.000  0.008  0.047
    5  0.000  0.000  0.000  0.000  0.000  0.000  0.000  0.000  0.000  0.000
tot    0.000  0.000  0.001  0.000  0.002  0.756  0.001  0.005  0.217  0.982
 
band    21 # energy   -4.28566475 # occ.  2.00000000
 
ion      s     py     pz     px    dxy    dyz    dz2    dxz  x2-y2    tot
    1  0.000  0.000  0.000  0.000  0.015  0.000  0.000  0.341  0.000  0.356
    2  0.000  0.000  0.000  0.000  0.000  0.000  0.000  0.138  0.000  0.138
    3  0.000  0.000  0.000  0.000  0.008  0.000  0.000  0.450  0.000  0.458
    4  0.000  0.000  0.000  0.000  0.006  0.000  0.000  0.027  0.000  0.034
    5  0.000  0.000  0.000  0.000  0.000  0.000  0.000  0.000  0.000  0.000
tot    0.000  0.000  0.000  0.001  0.030  0.000  0.000  0.955  0.000  0.986
 
band    22 # energy   -4.27517241 # occ.  2.00000000
 
ion      s     py     pz     px    dxy    dyz    dz2    dxz  x2-y2    tot
    1  0.000  0.000  0.000  0.000  0.000  0.341  0.000  0.000  0.013  0.355
    2  0.000  0.000  0.000  0.000  0.000  0.123  0.000  0.000  0.000  0.123
    3  0.000  0.000  0.000  0.000  0.000  0.429  0.000  0.000  0.010  0.440
    4  0.000  0.000  0.000  0.000  0.000  0.061  0.000  0.000  0.006  0.068
    5  0.000  0.000  0.000  0.000  0.000  0.000  0.000  0.000  0.000  0.000
tot    0.000  0.000  0.000  0.000  0.000  0.954  0.000  0.000  0.030  0.985
 
band    23 # energy   -3.98819251 # occ.  2.00000000
 
ion      s     py     pz     px    dxy    dyz    dz2    dxz  x2-y2    tot
    1  0.000  0.000  0.000  0.000  0.008  0.000  0.000  0.565  0.000  0.573
    2  0.000  0.000  0.000  0.000  0.026  0.000  0.000  0.276  0.000  0.302
    3  0.000  0.000  0.000  0.000  0.007  0.000  0.000  0.102  0.000  0.109
    4  0.000  0.000  0.000  0.000  0.001  0.000  0.000  0.004  0.000  0.005
    5  0.000  0.000  0.000  0.000  0.000  0.000  0.000  0.000  0.000  0.000
tot    0.000  0.000  0.000  0.000  0.041  0.000  0.000  0.948  0.000  0.990
 
band    24 # energy   -3.98533949 # occ.  2.00000000
 
ion      s     py     pz     px    dxy    dyz    dz2    dxz  x2-y2    tot
    1  0.000  0.000  0.000  0.000  0.000  0.559  0.000  0.000  0.008  0.567
    2  0.000  0.000  0.000  0.000  0.000  0.276  0.000  0.000  0.025  0.302
    3  0.000  0.000  0.000  0.000  0.000  0.105  0.000  0.000  0.007  0.112
    4  0.000  0.000  0.000  0.000  0.000  0.008  0.000  0.000  0.001  0.008
    5  0.000  0.000  0.000  0.000  0.000  0.000  0.000  0.000  0.000  0.000
tot    0.000  0.000  0.000  0.000  0.000  0.947  0.000  0.000  0.042  0.990
 
band    25 # energy   -2.88598711 # occ.  2.00000000
 
ion      s     py     pz     px    dxy    dyz    dz2    dxz  x2-y2    tot
    1  0.018  0.000  0.154  0.000  0.000  0.000  0.026  0.000  0.000  0.198
    2  0.014  0.000  0.082  0.000  0.000  0.000  0.021  0.000  0.000  0.117
    3  0.011  0.000  0.037  0.000  0.000  0.000  0.019  0.000  0.000  0.068
    4  0.008  0.000  0.015  0.000  0.000  0.000  0.007  0.000  0.002  0.031
    5  0.004  0.000  0.000  0.000  0.000  0.000  0.000  0.000  0.000  0.004
tot    0.056  0.000  0.289  0.000  0.000  0.000  0.073  0.000  0.002  0.419
 
band    26 # energy    1.66037931 # occ.  0.00000000
 
ion      s     py     pz     px    dxy    dyz    dz2    dxz  x2-y2    tot
    1  0.019  0.000  0.001  0.000  0.000  0.000  0.019  0.000  0.000  0.038
    2  0.023  0.000  0.001  0.000  0.000  0.000  0.021  0.000  0.000  0.045
    3  0.028  0.000  0.001  0.000  0.000  0.000  0.025  0.000  0.000  0.054
    4  0.028  0.000  0.000  0.000  0.000  0.000  0.029  0.000  0.000  0.057
    5  0.000  0.000  0.002  0.000  0.000  0.000  0.000  0.000  0.000  0.002
tot    0.098  0.000  0.004  0.000  0.000  0.000  0.094  0.000  0.000  0.196
 
band    27 # energy    1.91904508 # occ.  0.00000000
 
ion      s     py     pz     px    dxy    dyz    dz2    dxz  x2-y2    tot
    1  0.003  0.000  0.004  0.000  0.000  0.000  0.003  0.000  0.000  0.009
    2  0.000  0.000  0.004  0.000  0.000  0.000  0.000  0.000  0.000  0.004
    3  0.001  0.000  0.004  0.000  0.000  0.000  0.001  0.000  0.000  0.006
    4  0.005  0.000  0.002  0.000  0.000  0.000  0.007  0.000  0.000  0.013
    5  0.001  0.000  0.001  0.000  0.000  0.000  0.000  0.000  0.000  0.002
tot    0.010  0.000  0.014  0.000  0.000  0.000  0.010  0.000  0.000  0.035
 
band    28 # energy    2.33671334 # occ.  0.00000000
 
ion      s     py     pz     px    dxy    dyz    dz2    dxz  x2-y2    tot
    1  0.005  0.000  0.002  0.000  0.000  0.000  0.005  0.000  0.000  0.012
    2  0.001  0.000  0.003  0.000  0.000  0.000  0.001  0.000  0.000  0.005
    3  0.000  0.000  0.004  0.000  0.000  0.000  0.000  0.000  0.000  0.004
    4  0.002  0.000  0.002  0.000  0.000  0.000  0.004  0.000  0.000  0.008
    5  0.001  0.000  0.000  0.000  0.000  0.000  0.000  0.000  0.000  0.002
tot    0.009  0.000  0.012  0.000  0.000  0.000  0.009  0.000  0.000  0.030
 

 k-point     2 :    0.10000000 0.00000000 0.00000000     weight = 0.04000000

band     1 # energy  -11.45364415 # occ.  2.00000000
 
ion      s     py     pz     px    dxy    dyz    dz2    dxz  x2-y2    tot
    1  0.004  0.000  0.001  0.000  0.000  0.000  0.000  0.000  0.000  0.005
    2  0.029  0.000  0.001  0.001  0.000  0.000  0.000  0.000  0.000  0.031
    3  0.102  0.001  0.003  0.002  0.000  0.000  0.000  0.000  0.000  0.109
    4  0.321  0.002  0.002  0.011  0.000  0.000  0.010  0.002  0.010  0.357
    5  0.118  0.000  0.001  0.000  0.000  0.000  0.000  0.000  0.000  0.120
tot    0.575  0.003  0.008  0.014  0.000  0.000  0.011  0.002  0.010  0.622
 
band     2 # energy  -10.40069200 # occ.  2.00000000
 
ion      s     py     pz     px    dxy    dyz    dz2    dxz  x2-y2    tot
    1  0.111  0.001  0.011  0.002  0.000  0.000  0.000  0.001  0.000  0.126
    2  0.268  0.002  0.000  0.006  0.000  0.000  0.001  0.000  0.000  0.278
    3  0.071  0.001  0.016  0.002  0.000  0.000  0.000  0.001  0.000  0.091
    4  0.045  0.000  0.009  0.002  0.000  0.000  0.010  0.002  0.004  0.074
    5  0.037  0.000  0.000  0.000  0.000  0.000  0.000  0.000  0.000  0.037
tot    0.532  0.004  0.036  0.012  0.000  0.001  0.012  0.004  0.005  0.605
 
band     3 # energy   -8.76961553 # occ.  2.00000000
 
ion      s     py     pz     px    dxy    dyz    dz2    dxz  x2-y2    tot
    1  0.183  0.002  0.003  0.005  0.000  0.000  0.017  0.000  0.000  0.210
    2  0.006  0.000  0.046  0.000  0.000  0.002  0.001  0.005  0.000  0.060
    3  0.199  0.002  0.000  0.005  0.000  0.000  0.034  0.000  0.000  0.241
    4  0.004  0.000  0.031  0.001  0.000  0.001  0.024  0.009  0.008  0.077
    5  0.030  0.000  0.000  0.000  0.000  0.000  0.000  0.000  0.000  0.030
tot    0.422  0.003  0.080  0.010  0.001  0.003  0.076  0.014  0.009  0.618
 
band     4 # energy   -7.32598290 # occ.  2.00000000
 
ion      s     py     pz     px    dxy    dyz    dz2    dxz  x2-y2    tot
    1  0.103  0.001  0.004  0.004  0.001  0.000  0.136  0.000  0.000  0.250
    2  0.088  0.001  0.004  0.004  0.001  0.000  0.234  0.001  0.000  0.334
    3  0.024  0.000  0.016  0.001  0.000  0.001  0.082  0.003  0.000  0.128
    4  0.001  0.000  0.011  0.000  0.000  0.001  0.013  0.006  0.005  0.036
    5  0.005  0.000  0.000  0.000  0.000  0.000  0.000  0.000  0.000  0.006
tot    0.222  0.003  0.035  0.009  0.002  0.002  0.465  0.010  0.006  0.753
 
band     5 # energy   -6.27727086 # occ.  2.00000000
 
ion      s     py     pz     px    dxy    dyz    dz2    dxz  x2-y2    tot
    1  0.000  0.000  0.000  0.000  0.000  0.000  0.002  0.000  0.000  0.002
    2  0.001  0.000  0.000  0.000  0.001  0.000  0.001  0.000  0.000  0.003
    3  0.000  0.000  0.007  0.000  0.005  0.001  0.118  0.001  0.001  0.134
    4  0.014  0.001  0.032  0.000  0.013  0.010  0.328  0.101  0.184  0.682
    5  0.041  0.000  0.000  0.000  0.000  0.000  0.000  0.000  0.000  0.041
tot    0.056  0.001  0.039  0.000  0.019  0.011  0.449  0.101  0.186  0.862
 
band     6 # energy   -5.78459323 # occ.  2.00000000
 
ion      s     py     pz     px    dxy    dyz    dz2    dxz  x2-y2    tot
    1  0.001  0.000  0.000  0.000  0.001  0.000  0.008  0.000  0.000  0.011
    2  0.001  0.000  0.002  0.000  0.011  0.000  0.066  0.000  0.004  0.085
    3  0.001  0.000  0.017  0.000  0.012  0.016  0.125  0.040  0.006  0.216
    4  0.008  0.000  0.003  0.000  0.030  0.000  0.427  0.004  0.136  0.608
    5  0.000  0.000  0.001  0.000  0.000  0.000  0.000  0.000  0.000  0.001
tot    0.011  0.000  0.023  0.001  0.054  0.016  0.626  0.044  0.146  0.922
 
band     7 # energy   -5.67773737 # occ.  2.00000000
 
ion      s     py     pz     px    dxy    dyz    dz2    dxz  x2-y2    tot
    1  0.000  0.000  0.000  0.000  0.001  0.000  0.013  0.000  0.000  0.015
    2  0.000  0.000  0.001  0.000  0.011  0.002  0.013  0.005  0.004  0.037
    3  0.000  0.000  0.002  0.000  0.006  0.007  0.111  0.026  0.001  0.154
    4  0.000  0.000  0.005  0.000  0.570  0.008  0.015  0.062  0.081  0.741
    5  0.001  0.000  0.000  0.000  0.000  0.000  0.000  0.000  0.000  0.001
tot    0.002  0.000  0.009  0.001  0.588  0.017  0.153  0.092  0.086  0.948
 
band     8 # energy   -5.52074649 # occ.  2.00000000
 
ion      s     py     pz     px    dxy    dyz    dz2    dxz  x2-y2    tot
    1  0.000  0.000  0.000  0.000  0.000  0.000  0.012  0.001  0.000  0.014
    2  0.000  0.000  0.002  0.000  0.031  0.001  0.009  0.004  0.011  0.059
    3  0.001  0.000  0.000  0.000  0.032  0.014  0.083  0.006  0.004  0.139
    4  0.001  0.001  0.003  0.000  0.277  0.006  0.004  0.084  0.367  0.743
    5  0.000  0.000  0.000  0.001  0.000  0.000  0.000  0.000  0.000  0.001
tot    0.002  0.001  0.005  0.001  0.340  0.022  0.107  0.095  0.383  0.956
 
band     9 # energy   -5.40549229 # occ.  2.00000000
 
ion      s     py     pz     px    dxy    dyz    dz2    dxz  x2-y2    tot
    1  0.003  0.000  0.001  0.000  0.031  0.003  0.089  0.011  0.009  0.148
    2  0.001  0.000  0.011  0.000  0.048  0.037  0.057  0.137  0.012  0.303
    3  0.001  0.000  0.014  0.000  0.200  0.001  0.051  0.002  0.048  0.317
    4  0.002  0.000  0.001  0.000  0.016  0.006  0.022  0.114  0.004  0.165
    5  0.000  0.000  0.000  0.001  0.000  0.000  0.000  0.000  0.000  0.001
tot    0.006  0.000  0.026  0.001  0.295  0.048  0.218  0.264  0.073  0.933
 
band    10 # energy   -5.34755847 # occ.  2.00000000
 
ion      s     py     pz     px    dxy    dyz    dz2    dxz  x2-y2    tot
    1  0.002  0.000  0.002  0.000  0.009  0.005  0.057  0.014  0.003  0.093
    2  0.002  0.000  0.001  0.001  0.160  0.003  0.220  0.005  0.077  0.468
    3  0.000  0.000  0.006  0.000  0.106  0.019  0.061  0.018  0.063  0.273
    4  0.001  0.000  0.004  0.000  0.012  0.002  0.025  0.033  0.033  0.108
    5  0.001  0.000  0.000  0.000  0.000  0.000  0.000  0.000  0.000  0.002
tot    0.006  0.000  0.012  0.001  0.287  0.028  0.363  0.070  0.176  0.943
 
band    11 # energy   -5.30529486 # occ.  2.00000000
 
ion      s     py     pz     px    dxy    dyz    dz2    dxz  x2-y2    tot
    1  0.001  0.000  0.001  0.000  0.035  0.002  0.046  0.009  0.012  0.107
    2  0.001  0.000  0.001  0.000  0.324  0.006  0.129  0.009  0.087  0.557
    3  0.000  0.000  0.003  0.000  0.051  0.002  0.105  0.017  0.035  0.212
    4  0.000  0.000  0.002  0.000  0.018  0.000  0.010  0.017  0.029  0.076
    5  0.001  0.000  0.000  0.000  0.000  0.000  0.000  0.000  0.000  0.001
tot    0.003  0.000  0.007  0.001  0.428  0.010  0.290  0.052  0.162  0.953
 
band    12 # energy   -5.20709797 # occ.  2.00000000
 
ion      s     py     pz     px    dxy    dyz    dz2    dxz  x2-y2    tot
    1  0.000  0.000  0.000  0.000  0.002  0.009  0.008  0.001  0.016  0.036
    2  0.000  0.000  0.000  0.000  0.003  0.073  0.009  0.020  0.023  0.127
    3  0.000  0.000  0.000  0.000  0.104  0.037  0.001  0.011  0.474  0.628
    4  0.000  0.000  0.001  0.000  0.001  0.149  0.000  0.022  0.003  0.175
    5  0.000  0.000  0.000  0.000  0.000  0.000  0.000  0.000  0.000  0.000
tot    0.000  0.001  0.001  0.000  0.109  0.267  0.018  0.053  0.516  0.966
 
band    13 # energy   -5.15892899 # occ.  2.00000000
 
ion      s     py     pz     px    dxy    dyz    dz2    dxz  x2-y2    tot
    1  0.000  0.000  0.000  0.000  0.003  0.023  0.007  0.008  0.005  0.047
    2  0.000  0.001  0.000  0.000  0.203  0.005  0.003  0.001  0.581  0.794
    3  0.000  0.000  0.000  0.000  0.018  0.040  0.000  0.015  0.040  0.113
    4  0.000  0.000  0.000  0.000  0.005  0.001  0.000  0.001  0.006  0.012
    5  0.000  0.000  0.000  0.000  0.000  0.000  0.000  0.000  0.000  0.000
tot    0.000  0.001  0.000  0.000  0.229  0.068  0.010  0.025  0.632  0.967
 
band    14 # energy   -5.09847239 # occ.  2.00000000
 
ion      s     py     pz     px    dxy    dyz    dz2    dxz  x2-y2    tot
    1  0.003  0.000  0.002  0.000  0.025  0.002  0.311  0.012  0.017  0.373
    2  0.000  0.000  0.017  0.000  0.027  0.018  0.063  0.011  0.024  0.158
    3  0.001  0.000  0.007  0.000  0.278  0.006  0.001  0.031  0.030  0.354
    4  0.001  0.000  0.005  0.000  0.000  0.001  0.001  0.019  0.018  0.044
    5  0.002  0.000  0.000  0.000  0.000  0.000  0.000  0.000  0.000  0.002
tot    0.006  0.000  0.032  0.000  0.330  0.027  0.375  0.072  0.089  0.931
 
band    15 # energy   -5.00887125 # occ.  2.00000000
 
ion      s     py     pz     px    dxy    dyz    dz2    dxz  x2-y2    tot
    1  0.001  0.000  0.000  0.001  0.551  0.001  0.041  0.006  0.157  0.759
    2  0.000  0.000  0.007  0.000  0.008  0.002  0.018  0.018  0.002  0.055
    3  0.001  0.000  0.003  0.000  0.009  0.012  0.043  0.039  0.009  0.115
    4  0.000  0.000  0.001  0.000  0.005  0.001  0.000  0.014  0.005  0.026
    5  0.000  0.000  0.000  0.000  0.000  0.000  0.000  0.000  0.000  0.000
tot    0.003  0.000  0.011  0.001  0.573  0.016  0.104  0.076  0.173  0.955
 
band    16 # energy   -4.91041111 # occ.  2.00000000
 
ion      s     py     pz     px    dxy    dyz    dz2    dxz  x2-y2    tot
    1  0.000  0.001  0.000  0.000  0.145  0.012  0.002  0.006  0.490  0.655
    2  0.000  0.000  0.000  0.000  0.001  0.103  0.000  0.040  0.002  0.147
    3  0.000  0.000  0.000  0.000  0.009  0.012  0.000  0.007  0.020  0.047
    4  0.000  0.000  0.001  0.000  0.001  0.095  0.000  0.019  0.004  0.119
    5  0.000  0.000  0.000  0.000  0.000  0.000  0.000  0.000  0.000  0.000
tot    0.000  0.001  0.001  0.000  0.156  0.221  0.002  0.071  0.515  0.969
 
band    17 # energy   -4.80566849 # occ.  2.00000000
 
ion      s     py     pz     px    dxy    dyz    dz2    dxz  x2-y2    tot
    1  0.001  0.000  0.000  0.000  0.021  0.000  0.006  0.007  0.097  0.131
    2  0.000  0.000  0.000  0.000  0.018  0.002  0.000  0.003  0.010  0.033
    3  0.001  0.000  0.002  0.000  0.068  0.007  0.005  0.077  0.131  0.290
    4  0.000  0.000  0.005  0.000  0.006  0.323  0.001  0.168  0.007  0.510
    5  0.001  0.000  0.000  0.001  0.000  0.000  0.000  0.000  0.000  0.002
tot    0.003  0.000  0.007  0.001  0.112  0.332  0.013  0.255  0.244  0.967
 
band    18 # energy   -4.71506951 # occ.  2.00000000
 
ion      s     py     pz     px    dxy    dyz    dz2    dxz  x2-y2    tot
    1  0.001  0.000  0.000  0.000  0.042  0.014  0.008  0.020  0.001  0.086
    2  0.000  0.000  0.000  0.000  0.026  0.002  0.003  0.033  0.019  0.084
    3  0.003  0.000  0.002  0.000  0.025  0.128  0.027  0.180  0.042  0.408
    4  0.000  0.000  0.011  0.000  0.005  0.197  0.007  0.119  0.026  0.366
    5  0.005  0.000  0.000  0.001  0.000  0.000  0.000  0.000  0.000  0.005
tot    0.009  0.000  0.014  0.001  0.098  0.342  0.045  0.352  0.088  0.949
 
band    19 # energy   -4.51303986 # occ.  2.00000000
 
ion      s     py     pz     px    dxy    dyz    dz2    dxz  x2-y2    tot
    1  0.000  0.000  0.000  0.000  0.022  0.065  0.000  0.007  0.129  0.223
    2  0.000  0.000  0.000  0.000  0.006  0.287  0.000  0.035  0.069  0.398
    3  0.000  0.000  0.000  0.000  0.007  0.192  0.001  0.041  0.051  0.292
    4  0.000  0.000  0.000  0.000  0.001  0.043  0.000  0.022  0.003  0.069
    5  0.000  0.000  0.000  0.000  0.000  0.000  0.000  0.000  0.000  0.000
tot    0.000  0.000  0.001  0.000  0.036  0.586  0.002  0.104  0.252  0.982
 
band    20 # energy   -4.47361192 # occ.  2.00000000
 
ion      s     py     pz     px    dxy    dyz    dz2    dxz  x2-y2    tot
    1  0.000  0.000  0.003  0.000  0.054  0.055  0.001  0.295  0.005  0.414
    2  0.001  0.000  0.004  0.000  0.059  0.024  0.000  0.222  0.004  0.314
    3  0.003  0.000  0.002  0.000  0.019  0.005  0.024  0.078  0.000  0.131
    4  0.000  0.000  0.004  0.000  0.003  0.048  0.000  0.041  0.003  0.099
    5  0.002  0.000  0.000  0.000  0.000  0.000  0.000  0.000  0.000  0.002
tot    0.006  0.000  0.013  0.000  0.135  0.132  0.025  0.636  0.013  0.959
 
band    21 # energy   -4.29302668 # occ.  2.00000000
 
ion      s     py     pz     px    dxy    dyz    dz2    dxz  x2-y2    tot
    1  0.010  0.000  0.013  0.000  0.018  0.207  0.070  0.147  0.001  0.466
    2  0.001  0.000  0.001  0.000  0.011  0.027  0.003  0.265  0.006  0.315
    3  0.001  0.000  0.004  0.000  0.007  0.033  0.007  0.022  0.000  0.075
    4  0.000  0.000  0.006  0.000  0.000  0.009  0.000  0.033  0.002  0.050
    5  0.002  0.000  0.000  0.000  0.000  0.000  0.000  0.000  0.000  0.002
tot    0.014  0.000  0.024  0.001  0.036  0.276  0.080  0.468  0.009  0.908
 
band    22 # energy   -4.27127782 # occ.  2.00000000
 
ion      s     py     pz     px    dxy    dyz    dz2    dxz  x2-y2    tot
    1  0.001  0.000  0.002  0.000  0.001  0.144  0.010  0.182  0.016  0.356
    2  0.000  0.000  0.000  0.000  0.006  0.130  0.000  0.007  0.013  0.157
    3  0.000  0.000  0.000  0.000  0.000  0.291  0.002  0.097  0.006  0.397
    4  0.000  0.000  0.001  0.000  0.002  0.049  0.000  0.006  0.008  0.065
    5  0.000  0.000  0.000  0.000  0.000  0.000  0.000  0.000  0.000  0.000
tot    0.002  0.000  0.003  0.000  0.009  0.613  0.012  0.292  0.044  0.976
 
band    23 # energy   -3.98103496 # occ.  2.00000000
 
ion      s     py     pz     px    dxy    dyz    dz2    dxz  x2-y2    tot
    1  0.000  0.000  0.000  0.000  0.003  0.397  0.000  0.132  0.008  0.541
    2  0.000  0.000  0.000  0.000  0.006  0.230  0.000  0.071  0.018  0.325
    3  0.000  0.000  0.000  0.000  0.002  0.081  0.000  0.027  0.007  0.117