<?xml version="1.0" encoding="ISO-8859-1"?>
<modeling>
 <generator>
  <i name="program" type="string">vasp </i>
  <i name="version" type="string">5.4.4.18Apr17-6-g9f103f2a35  </i>
  <i name="subversion" type="string">(build Jun 30 2017 11:15:00) complex            parallel </i>
  <i name="platform" type="string">STALLO_VASP_5.4.4 </i>
  <i name="date" type="string">2019 10 11 </i>
  <i name="time" type="string">11:53:53 </i>
 </generator>
 <incar>
  <i type="string" name="PREC">normal    ! low/normal/accurate</i>
  <i type="string" name="ALGO"> Fast      ! Algorithm for electronic re</i>
  <i type="int" name="ISPIN">     1</i>
  <i type="int" name="NELMIN">     4</i>
  <i name="EDIFF">      0.00000100</i>
  <i type="int" name="NSW">     0</i>
  <i name="ENCUT">    250.00000000</i>
  <i type="int" name="NEDOS">  2401</i>
  <i type="string" name="LREAL"> Auto      ! Projection in reciprocal sp</i>
  <i name="EMIN">    -17.00000000</i>
  <i name="EMAX">      7.00000000</i>
  <i type="int" name="ISMEAR">     0</i>
  <i name="SIGMA">      0.10000000</i>
  <i type="logical" name="LWAVE"> F  </i>
  <i type="int" name="LORBIT">    11</i>
  <i type="logical" name="LELF"> T  </i>
  <v type="int" name="KPOINT_BSE">    -1     0     0     0</v>
 </incar>
 <structure name="primitive_cell" >
  <crystal>
   <varray name="basis" >
    <v>       2.57386868       0.00000000       0.00000000 </v>
    <v>       1.28693434       2.22903567       0.00000000 </v>
    <v>       0.00000000       0.00000000      30.30466494 </v>
   </varray>
   <i name="volume">    173.86529028 </i>
   <varray name="rec_basis" >
    <v>       0.38852021      -0.22431225       0.00000000 </v>
    <v>       0.00000000       0.44862450       0.00000000 </v>
    <v>       0.00000000       0.00000000       0.03299822 </v>
   </varray>
  </crystal>
  <varray name="positions" >
   <v>      -0.00029385       0.00058770       0.39656700 </v>
   <v>       0.33318627       0.33362409       0.46513961 </v>
   <v>      -0.33417090      -0.33165717      -0.46640558 </v>
   <v>       0.00080079      -0.00160159      -0.39578411 </v>
   <v>      -0.49952390      -0.00095557      -0.36579698 </v>
  </varray>
 </structure>
 <varray name="primitive_index" >
  <v type="int" >        1 </v>
  <v type="int" >        2 </v>
  <v type="int" >        3 </v>
  <v type="int" >        4 </v>
  <v type="int" >        5 </v>
 </varray>
 <kpoints>
  <generation param="Gamma">
   <v type="int" name="divisions">      10       10        1 </v>
   <v name="usershift">      0.00000000       0.00000000       0.00000000 </v>
   <v name="genvec1">      0.10000000       0.00000000       0.00000000 </v>
   <v name="genvec2">      0.00000000       0.10000000       0.00000000 </v>
   <v name="genvec3">      0.00000000       0.00000000       1.00000000 </v>
   <v name="shift">      0.00000000       0.00000000       0.00000000 </v>
  </generation>
  <varray name="kpointlist" >
   <v>       0.00000000       0.00000000       0.00000000 </v>
   <v>       0.10000000       0.00000000       0.00000000 </v>
   <v>       0.20000000      -0.00000000       0.00000000 </v>
   <v>       0.30000000      -0.00000000       0.00000000 </v>
   <v>       0.40000000      -0.00000000       0.00000000 </v>
   <v>       0.50000000      -0.00000000       0.00000000 </v>
   <v>       0.00000000       0.10000000       0.00000000 </v>
   <v>       0.20000000       0.10000000       0.00000000 </v>
   <v>       0.30000000       0.10000000       0.00000000 </v>
   <v>       0.40000000       0.10000000       0.00000000 </v>
   <v>       0.50000000       0.10000000       0.00000000 </v>
   <v>      -0.40000000       0.10000000       0.00000000 </v>
   <v>      -0.30000000       0.10000000       0.00000000 </v>
   <v>      -0.20000000       0.10000000       0.00000000 </v>
   <v>      -0.10000000       0.10000000       0.00000000 </v>
   <v>       0.00000000       0.20000000       0.00000000 </v>
   <v>       0.40000000       0.20000000       0.00000000 </v>
   <v>       0.50000000       0.20000000       0.00000000 </v>
   <v>      -0.40000000       0.20000000       0.00000000 </v>
   <v>      -0.30000000       0.20000000       0.00000000 </v>
   <v>      -0.20000000       0.20000000       0.00000000 </v>
   <v>      -0.10000000       0.20000000       0.00000000 </v>
   <v>       0.00000000       0.30000000       0.00000000 </v>
   <v>      -0.40000000       0.30000000       0.00000000 </v>
   <v>      -0.30000000       0.30000000       0.00000000 </v>
   <v>      -0.20000000       0.30000000       0.00000000 </v>
   <v>      -0.10000000       0.30000000       0.00000000 </v>
   <v>       0.00000000       0.40000000       0.00000000 </v>
   <v>      -0.20000000       0.40000000       0.00000000 </v>
   <v>      -0.10000000       0.40000000       0.00000000 </v>
   <v>       0.00000000       0.50000000       0.00000000 </v>
  </varray>
  <varray name="weights" >
   <v>       0.01000000 </v>
   <v>       0.04000000 </v>
   <v>       0.04000000 </v>
   <v>       0.04000000 </v>
   <v>       0.04000000 </v>
   <v>       0.02000000 </v>
   <v>       0.02000000 </v>
   <v>       0.02000000 </v>
   <v>       0.04000000 </v>
   <v>       0.04000000 </v>
   <v>       0.04000000 </v>
   <v>       0.04000000 </v>
   <v>       0.04000000 </v>
   <v>       0.04000000 </v>
   <v>       0.04000000 </v>
   <v>       0.02000000 </v>
   <v>       0.02000000 </v>
   <v>       0.04000000 </v>
   <v>       0.04000000 </v>
   <v>       0.04000000 </v>
   <v>       0.04000000 </v>
   <v>       0.04000000 </v>
   <v>       0.02000000 </v>
   <v>       0.02000000 </v>
   <v>       0.04000000 </v>
   <v>       0.04000000 </v>
   <v>       0.04000000 </v>
   <v>       0.02000000 </v>
   <v>       0.02000000 </v>
   <v>       0.04000000 </v>
   <v>       0.01000000 </v>
  </varray>
 </kpoints>
 <parameters>
  <separator name="general" >
   <i type="string" name="SYSTEM">unknown system</i>
   <i type="logical" name="LCOMPAT"> F  </i>
  </separator>
  <separator name="electronic" >
   <i type="string" name="PREC">normal</i>
   <i name="ENMAX">    250.00000000</i>
   <i name="ENAUG">    516.45600000</i>
   <i name="EDIFF">      0.00000100</i>
   <i type="int" name="IALGO">    68</i>
   <i type="int" name="IWAVPR">    10</i>
   <i type="int" name="NBANDS">    28</i>
   <i name="NELECT">     45.00000000</i>
   <i type="int" name="TURBO">     0</i>
   <i type="int" name="IRESTART">     0</i>
   <i type="int" name="NREBOOT">     0</i>
   <i type="int" name="NMIN">     0</i>
   <i name="EREF">      0.00000000</i>
   <separator name="electronic smearing" >
    <i type="int" name="ISMEAR">     0</i>
    <i name="SIGMA">      0.10000000</i>
    <i name="KSPACING">      0.50000000</i>
    <i type="logical" name="KGAMMA"> T  </i>
   </separator>
   <separator name="electronic projectors" >
    <i type="logical" name="LREAL"> T  </i>
    <v name="ROPT">     -0.00050000     -0.00050000</v>
    <i type="int" name="LMAXPAW">  -100</i>
    <i type="int" name="LMAXMIX">     2</i>
    <i type="logical" name="NLSPLINE"> F  </i>
   </separator>
   <separator name="electronic startup" >
    <i type="int" name="ISTART">     0</i>
    <i type="int" name="ICHARG">     2</i>
    <i type="int" name="INIWAV">     1</i>
   </separator>
   <separator name="electronic spin" >
    <i type="int" name="ISPIN">     1</i>
    <i type="logical" name="LNONCOLLINEAR"> F  </i>
    <v name="MAGMOM">      1.00000000      1.00000000      1.00000000      1.00000000      1.00000000</v>
    <i name="NUPDOWN">     -1.00000000</i>
    <i type="logical" name="LSORBIT"> F  </i>
    <v name="SAXIS">      0.00000000      0.00000000      1.00000000</v>
    <i type="logical" name="LSPIRAL"> F  </i>
    <v name="QSPIRAL">      0.00000000      0.00000000      0.00000000</v>
    <i type="logical" name="LZEROZ"> F  </i>
   </separator>
   <separator name="electronic exchange-correlation" >
    <i type="logical" name="LASPH"> F  </i>
    <i type="logical" name="LMETAGGA"> F  </i>
   </separator>
   <separator name="electronic convergence" >
    <i type="int" name="NELM">    60</i>
    <i type="int" name="NELMDL">     0</i>
    <i type="int" name="NELMIN">     4</i>
    <i name="ENINI">    250.00000000</i>
    <separator name="electronic convergence detail" >
     <i type="logical" name="LDIAG"> T  </i>
     <i type="logical" name="LSUBROT"> F  </i>
     <i name="WEIMIN">      0.00000000</i>
     <i name="EBREAK">      0.00000001</i>
     <i name="DEPER">      0.30000000</i>
     <i type="int" name="NRMM">     4</i>
     <i name="TIME">      0.40000000</i>
    </separator>
   </separator>
   <separator name="electronic mixer" >
    <i name="AMIX">      0.40000000</i>
    <i name="BMIX">      1.00000000</i>
    <i name="AMIN">      0.10000000</i>
    <i name="AMIX_MAG">      1.60000000</i>
    <i name="BMIX_MAG">      1.00000000</i>
    <separator name="electronic mixer details" >
     <i type="int" name="IMIX">     4</i>
     <i type="logical" name="MIXFIRST"> F  </i>
     <i type="int" name="MAXMIX">   -45</i>
     <i name="WC">    100.00000000</i>
     <i type="int" name="INIMIX">     1</i>
     <i type="int" name="MIXPRE">     1</i>
     <i type="int" name="MREMOVE">     5</i>
    </separator>
   </separator>
   <separator name="electronic dipolcorrection" >
    <i type="logical" name="LDIPOL"> F  </i>
    <i type="logical" name="LMONO"> F  </i>
    <i type="int" name="IDIPOL">     0</i>
    <i name="EPSILON">      1.00000000</i>
    <v name="DIPOL">   -100.00000000   -100.00000000   -100.00000000</v>
    <i name="EFIELD">      0.00000000</i>
   </separator>
  </separator>
  <separator name="grids" >
   <i type="int" name="NGX">    10</i>
   <i type="int" name="NGY">    10</i>
   <i type="int" name="NGZ">   120</i>
   <i type="int" name="NGXF">    20</i>
   <i type="int" name="NGYF">    20</i>
   <i type="int" name="NGZF">   240</i>
   <i type="logical" name="ADDGRID"> F  </i>
  </separator>
  <separator name="ionic" >
   <i type="int" name="NSW">     0</i>
   <i type="int" name="IBRION">    -1</i>
   <i type="int" name="MDALGO">     0</i>
   <i type="int" name="ISIF">     2</i>
   <i name="PSTRESS">      0.00000000</i>
   <i name="EDIFFG">      0.00001000</i>
   <i type="int" name="NFREE">     0</i>
   <i name="POTIM">      0.50000000</i>
   <i name="SMASS">     -3.00000000</i>
   <i name="SCALEE">      1.00000000</i>
  </separator>
  <separator name="ionic md" >
   <i name="TEBEG">      0.00010000</i>
   <i name="TEEND">      0.00010000</i>
   <i type="int" name="NBLOCK">     1</i>
   <i type="int" name="KBLOCK">     1</i>
   <i type="int" name="NPACO">   256</i>
   <i name="APACO">     16.00000000</i>
  </separator>
  <separator name="symmetry" >
   <i type="int" name="ISYM">     2</i>
   <i name="SYMPREC">      0.00001000</i>
  </separator>
  <separator name="dos" >
   <i type="int" name="LORBIT">    11</i>
   <v name="RWIGS">     -1.00000000     -1.00000000</v>
   <i type="int" name="NEDOS">  2401</i>
   <i name="EMIN">    -17.00000000</i>
   <i name="EMAX">      7.00000000</i>
   <i name="EFERMI">      0.00000000</i>
  </separator>
  <separator name="writing" >
   <i type="int" name="NWRITE">     2</i>
   <i type="logical" name="LWAVE"> F  </i>
   <i type="logical" name="LDOWNSAMPLE"> F  </i>
   <i type="logical" name="LCHARG"> T  </i>
   <i type="logical" name="LPARD"> F  </i>
   <i type="logical" name="LVTOT"> F  </i>
   <i type="logical" name="LVHAR"> F  </i>
   <i type="logical" name="LELF"> T  </i>
   <i type="logical" name="LOPTICS"> F  </i>
   <v name="STM">      0.00000000      0.00000000      0.00000000      0.00000000      0.00000000      0.00000000      0.00000000</v>
  </separator>
  <separator name="performance" >
   <i type="int" name="NPAR">     2</i>
   <i type="int" name="NSIM">     4</i>
   <i type="int" name="NBLK">    -1</i>
   <i type="logical" name="LPLANE"> T  </i>
   <i type="logical" name="LSCALAPACK"> T  </i>
   <i type="logical" name="LSCAAWARE"> F  </i>
   <i type="logical" name="LSCALU"> F  </i>
   <i type="logical" name="LASYNC"> F  </i>
   <i type="logical" name="LORBITALREAL"> F  </i>
  </separator>
  <separator name="miscellaneous" >
   <i type="int" name="IDIOT">     3</i>
   <i type="int" name="ISPECIAL">     0</i>
   <i type="logical" name="LMUSIC"> F  </i>
   <v name="POMASS">     63.54600000      1.00000000</v>
   <v name="DARWINR">      0.00000000      0.00000000</v>
   <v name="DARWINV">      1.00000000      1.00000000</v>
   <i type="logical" name="LCORR"> T  </i>
  </separator>
  <i type="logical" name="GGA_COMPAT"> T  </i>
  <i type="logical" name="LBERRY"> F  </i>
  <i type="int" name="ICORELEVEL">     0</i>
  <i type="logical" name="LDAU"> F  </i>
  <i type="int" name="I_CONSTRAINED_M">     0</i>
  <separator name="electronic exchange-correlation" >
   <i type="string" name="GGA">--</i>
   <i type="int" name="VOSKOWN">     0</i>
   <i type="logical" name="LHFCALC"> F  </i>
   <i type="string" name="PRECFOCK"></i>
   <i type="logical" name="LSYMGRAD"> F  </i>
   <i type="logical" name="LHFONE"> F  </i>
   <i type="logical" name="LRHFCALC"> F  </i>
   <i type="logical" name="LTHOMAS"> F  </i>
   <i type="logical" name="LMODELHF"> F  </i>
   <i name="ENCUT4O">     -1.00000000</i>
   <i type="int" name="EXXOEP">     0</i>
   <i type="int" name="FOURORBIT">     0</i>
   <i name="AEXX">      0.00000000</i>
   <i name="HFALPHA">      0.00000000</i>
   <i name="MCALPHA">      0.00000000</i>
   <i name="ALDAX">      1.00000000</i>
   <i name="AGGAX">      1.00000000</i>
   <i name="ALDAC">      1.00000000</i>
   <i name="AGGAC">      1.00000000</i>
   <i type="int" name="NKREDX">     1</i>
   <i type="int" name="NKREDY">     1</i>
   <i type="int" name="NKREDZ">     1</i>
   <i type="logical" name="SHIFTRED"> F  </i>
   <i type="logical" name="ODDONLY"> F  </i>
   <i type="logical" name="EVENONLY"> F  </i>
   <i type="int" name="LMAXFOCK">     0</i>
   <i type="int" name="NMAXFOCKAE">     0</i>
   <i type="logical" name="LFOCKAEDFT"> F  </i>
   <i name="HFSCREEN">      0.00000000</i>
   <i name="HFSCREENC">      0.00000000</i>
   <i type="int" name="NBANDSGWLOW">     0</i>
  </separator>
  <separator name="vdW DFT" >
   <i type="logical" name="LUSE_VDW"> F  </i>
   <i name="Zab_VDW">     -0.84910000</i>
   <i name="PARAM1">      0.12340000</i>
   <i name="PARAM2">      1.00000000</i>
   <i name="PARAM3">      0.00000000</i>
  </separator>
  <separator name="model GW" >
   <i type="int" name="MODEL_GW">     0</i>
   <i name="MODEL_EPS0">     20.86383483</i>
   <i name="MODEL_ALPHA">      1.00000000</i>
  </separator>
  <separator name="linear response parameters" >
   <i type="logical" name="LEPSILON"> F  </i>
   <i type="logical" name="LRPA"> F  </i>
   <i type="logical" name="LNABLA"> F  </i>
   <i type="logical" name="LVEL"> F  </i>
   <i type="int" name="KINTER">     0</i>
   <i name="CSHIFT">      0.10000000</i>
   <i name="OMEGAMAX">     -1.00000000</i>
   <i name="DEG_THRESHOLD">      0.00200000</i>
   <i name="RTIME">     -0.10000000</i>
   <i name="WPLASMAI">      0.00000000</i>
   <v name="DFIELD">      0.00000000      0.00000000      0.00000000</v>
   <v name="WPLASMA">      0.00000000      0.00000000      0.00000000      0.00000000      0.00000000      0.00000000      0.00000000      0.00000000      0.00000000</v>
  </separator>
  <separator name="orbital magnetization" >
   <i type="logical" name="NUCIND"> F  </i>
   <v name="MAGPOS">      0.00000000      0.00000000      0.00000000</v>
   <i type="logical" name="LNICSALL"> T  </i>
   <i type="logical" name="ORBITALMAG"> F  </i>
   <i type="logical" name="LMAGBLOCH"> F  </i>
   <i type="logical" name="LCHIMAG"> F  </i>
   <i type="logical" name="LGAUGE"> T  </i>
   <i type="int" name="MAGATOM">     0</i>
   <v name="MAGDIPOL">      0.00000000      0.00000000      0.00000000</v>
   <v name="AVECCONST">      0.00000000      0.00000000      0.00000000</v>
  </separator>
  <separator name="response functions" >
   <i type="logical" name="LADDER"> F  </i>
   <i type="logical" name="LRPAFORCE"> F  </i>
   <i type="logical" name="LFXC"> F  </i>
   <i type="logical" name="LHARTREE"> T  </i>
   <i type="int" name="IBSE">     0</i>
   <v type="int" name="KPOINT">    -1     0     0     0</v>
   <i type="logical" name="LTCTE"> F  </i>
   <i type="logical" name="LTETE"> F  </i>
   <i type="logical" name="LTRIPLET"> F  </i>
   <i type="logical" name="LFXCEPS"> F  </i>
   <i type="logical" name="LFXHEG"> F  </i>
   <i type="int" name="NATURALO">     2</i>
   <i type="logical" name="L2ORDER"> F  </i>
   <i type="logical" name="LMP2LT"> F  </i>
   <i type="logical" name="LUSEW"> F  </i>
   <i name="ENCUTGW">     -2.00000000</i>
   <i name="ENCUTGWSOFT">     -2.00000000</i>
   <i name="ENCUTLF">     -1.00000000</i>
   <i type="int" name="LMAXMP2">    -1</i>
   <i name="SCISSOR">      0.00000000</i>
   <i type="int" name="NOMEGA">     0</i>
   <i type="int" name="NOMEGAR">     0</i>
   <i type="int" name="NBANDSGW">    -1</i>
   <i type="int" name="NBANDSO">    -1</i>
   <i type="int" name="NBANDSV">    -1</i>
   <i type="int" name="NELM">     1</i>
   <i type="int" name="NELMHF">     1</i>
   <i type="int" name="DIM">     3</i>
   <i type="int" name="ANTIRES">     0</i>
   <i name="OMEGAMAX">    -30.00000000</i>
   <i name="OMEGAMIN">    -30.00000000</i>
   <i name="OMEGATL">   -200.00000000</i>
   <i type="int" name="OMEGAGRID">   140</i>
   <i name="CSHIFT">     -0.10000000</i>
   <i type="logical" name="SELFENERGY"> F  </i>
   <i type="logical" name="LSPECTRAL"> F  </i>
   <i type="logical" name="LSPECTRALGW"> F  </i>
   <i type="logical" name="LSINGLES"> F  </i>
   <i type="logical" name="LFERMIGW"> F  </i>
   <i type="logical" name="ODDONLYGW"> F  </i>
   <i type="logical" name="EVENONLYGW"> F  </i>
   <i type="int" name="NKREDLFX">     1</i>
   <i type="int" name="NKREDLFY">     1</i>
   <i type="int" name="NKREDLFZ">     1</i>
   <i type="int" name="MAXMEM">  2800</i>
   <i type="int" name="TELESCOPE">     0</i>
   <i type="int" name="TAUPAR">     1</i>
   <i type="int" name="OMEGAPAR">    -1</i>
   <i name="LAMBDA">      1.00000000</i>
  </separator>
  <separator name="External order field" >
   <i name="OFIELD_KAPPA">      0.00000000</i>
   <v name="OFIELD_K">      0.00000000      0.00000000      0.00000000</v>
   <i name="OFIELD_Q6_NEAR">      0.00000000</i>
   <i name="OFIELD_Q6_FAR">      0.00000000</i>
   <i name="OFIELD_A">      0.00000000</i>
  </separator>
 </parameters>
 <atominfo>
  <atoms>       5 </atoms>
  <types>       2 </types>
  <array name="atoms" >
   <dimension dim="1">ion</dimension>
   <field type="string">element</field>
   <field type="int">atomtype</field>
   <set>
    <rc><c>Cu</c><c>   1</c></rc>
    <rc><c>Cu</c><c>   1</c></rc>
    <rc><c>Cu</c><c>   1</c></rc>
    <rc><c>Cu</c><c>   1</c></rc>
    <rc><c>H </c><c>   2</c></rc>
   </set>
  </array>
  <array name="atomtypes" >
   <dimension dim="1">type</dimension>
   <field type="int">atomspertype</field>
   <field type="string">element</field>
   <field>mass</field>
   <field>valence</field>
   <field type="string">pseudopotential</field>
   <set>
    <rc><c>   4</c><c>Cu</c><c>     63.54600000</c><c>     11.00000000</c><c> PAW_PBE Cu 05Jan2001                   </c></rc>
    <rc><c>   1</c><c>H </c><c>      1.00000000</c><c>      1.00000000</c><c> PAW_PBE H 15Jun2001                    </c></rc>
   </set>
  </array>
 </atominfo>
 <structure name="initialpos" >
  <crystal>
   <varray name="basis" >
    <v>       2.57386868       0.00000000       0.00000000 </v>
    <v>       1.28693434       2.22903567       0.00000000 </v>
    <v>       0.00000000       0.00000000      30.30466494 </v>
   </varray>
   <i name="volume">    173.86529028 </i>
   <varray name="rec_basis" >
    <v>       0.38852021      -0.22431225       0.00000000 </v>
    <v>       0.00000000       0.44862450       0.00000000 </v>
    <v>       0.00000000       0.00000000       0.03299822 </v>
   </varray>
  </crystal>
  <varray name="positions" >
   <v>       0.99970615       0.00058770       0.39656700 </v>
   <v>       0.33318627       0.33362409       0.46513961 </v>
   <v>       0.66582910       0.66834283       0.53359442 </v>
   <v>       0.00080079       0.99839841       0.60421589 </v>
   <v>       0.50047610       0.99904443       0.63420302 </v>
  </varray>
 </structure>
 <calculation>
  <scstep>
   <time name="dav">    0.61    0.62</time>
   <time name="total">    0.64    0.65</time>
   <energy>
    <i name="alphaZ">    120.87645803 </i>
    <i name="ewald">  38132.63899555 </i>
    <i name="hartreedc"> -43251.58372181 </i>
    <i name="XCdc">    177.54418449 </i>
    <i name="pawpsdc">   4328.99049516 </i>
    <i name="pawaedc">  -4905.09836044 </i>
    <i name="eentropy">     -0.00993320 </i>
    <i name="bandstr">     17.82367012 </i>
    <i name="atom">   5575.94961827 </i>
    <i name="e_fr_energy">    197.13140617 </i>
    <i name="e_wo_entrp">    197.14133937 </i>
    <i name="e_0_energy">    197.13637277 </i>
   </energy>
  </scstep>
  <scstep>
   <time name="dav">    0.61    0.62</time>
   <time name="total">    0.62    0.62</time>
   <energy>
    <i name="e_fr_energy">    -10.53940697 </i>
    <i name="e_wo_entrp">    -10.52350211 </i>
    <i name="e_0_energy">    -10.53145454 </i>
   </energy>
  </scstep>
  <scstep>
   <time name="dav">    0.63    0.63</time>
   <time name="total">    0.64    0.64</time>
   <energy>
    <i name="e_fr_energy">    -20.87264726 </i>
    <i name="e_wo_entrp">    -20.86160975 </i>
    <i name="e_0_energy">    -20.86712851 </i>
   </energy>
  </scstep>
  <scstep>
   <time name="dav">    0.63    0.63</time>
   <time name="total">    0.64    0.64</time>
   <energy>
    <i name="e_fr_energy">    -21.00447199 </i>
    <i name="e_wo_entrp">    -20.99420703 </i>
    <i name="e_0_energy">    -20.99933951 </i>
   </energy>
  </scstep>
  <scstep>
   <time name="dav">    0.65    0.65</time>
   <time name="total">    0.69    0.69</time>
   <energy>
    <i name="e_fr_energy">    -21.00583290 </i>
    <i name="e_wo_entrp">    -20.99557033 </i>
    <i name="e_0_energy">    -21.00070162 </i>
   </energy>
  </scstep>
  <scstep>
   <time name="diag">    0.12    0.13</time>
   <time name="diis">    0.36    0.36</time>
   <time name="orth">    0.02    0.02</time>
   <time name="total">    0.56    0.56</time>
   <energy>
    <i name="e_fr_energy">    -18.87365569 </i>
    <i name="e_wo_entrp">    -18.86758108 </i>
    <i name="e_0_energy">    -18.87061838 </i>
   </energy>
  </scstep>
  <scstep>
   <time name="diag">    0.12    0.13</time>
   <time name="diis">    0.35    0.35</time>
   <time name="orth">    0.02    0.02</time>
   <time name="total">    0.54    0.54</time>
   <energy>
    <i name="e_fr_energy">    -17.07551042 </i>
    <i name="e_wo_entrp">    -17.06008519 </i>
    <i name="e_0_energy">    -17.06779781 </i>
   </energy>
  </scstep>
  <scstep>
   <time name="diag">    0.12    0.12</time>
   <time name="diis">    0.37    0.37</time>
   <time name="orth">    0.02    0.02</time>
   <time name="total">    0.56    0.57</time>
   <energy>
    <i name="e_fr_energy">    -17.11601023 </i>
    <i name="e_wo_entrp">    -17.10711069 </i>
    <i name="e_0_energy">    -17.11156046 </i>
   </energy>
  </scstep>
  <scstep>
   <time name="diag">    0.12    0.12</time>
   <time name="diis">    0.37    0.37</time>
   <time name="orth">    0.02    0.02</time>
   <time name="total">    0.57    0.57</time>
   <energy>
    <i name="e_fr_energy">    -17.01532713 </i>
    <i name="e_wo_entrp">    -16.99974591 </i>
    <i name="e_0_energy">    -17.00753652 </i>
   </energy>
  </scstep>
  <scstep>
   <time name="diag">    0.12    0.12</time>
   <time name="diis">    0.36    0.37</time>
   <time name="orth">    0.02    0.02</time>
   <time name="total">    0.56    0.56</time>
   <energy>
    <i name="e_fr_energy">    -17.00343999 </i>
    <i name="e_wo_entrp">    -16.98802577 </i>
    <i name="e_0_energy">    -16.99573288 </i>
   </energy>
  </scstep>
  <scstep>
   <time name="diag">    0.12    0.12</time>
   <time name="diis">    0.36    0.37</time>
   <time name="orth">    0.02    0.02</time>
   <time name="total">    0.56    0.56</time>
   <energy>
    <i name="e_fr_energy">    -16.99817018 </i>
    <i name="e_wo_entrp">    -16.98371295 </i>
    <i name="e_0_energy">    -16.99094157 </i>
   </energy>
  </scstep>
  <scstep>
   <time name="diag">    0.12    0.12</time>
   <time name="diis">    0.36    0.36</time>
   <time name="orth">    0.02    0.02</time>
   <time name="total">    0.56    0.56</time>
   <energy>
    <i name="e_fr_energy">    -16.99718315 </i>
    <i name="e_wo_entrp">    -16.98248206 </i>
    <i name="e_0_energy">    -16.98983261 </i>
   </energy>
  </scstep>
  <scstep>
   <time name="diag">    0.12    0.12</time>
   <time name="diis">    0.36    0.36</time>
   <time name="orth">    0.02    0.02</time>
   <time name="total">    0.56    0.56</time>
   <energy>
    <i name="e_fr_energy">    -16.99677149 </i>
    <i name="e_wo_entrp">    -16.98187442 </i>
    <i name="e_0_energy">    -16.98932296 </i>
   </energy>
  </scstep>
  <scstep>
   <time name="diag">    0.12    0.12</time>
   <time name="diis">    0.36    0.36</time>
   <time name="orth">    0.01    0.02</time>
   <time name="total">    0.55    0.55</time>
   <energy>
    <i name="e_fr_energy">    -16.99672268 </i>
    <i name="e_wo_entrp">    -16.98176577 </i>
    <i name="e_0_energy">    -16.98924422 </i>
   </energy>
  </scstep>
  <scstep>
   <time name="diag">    0.12    0.12</time>
   <time name="diis">    0.34    0.34</time>
   <time name="orth">    0.02    0.02</time>
   <time name="total">    0.53    0.53</time>
   <energy>
    <i name="e_fr_energy">    -16.99702979 </i>
    <i name="e_wo_entrp">    -16.98200780 </i>
    <i name="e_0_energy">    -16.98951879 </i>
   </energy>
  </scstep>
  <scstep>
   <time name="diag">    0.12    0.13</time>
   <time name="diis">    0.34    0.34</time>
   <time name="orth">    0.02    0.02</time>
   <time name="total">    0.53    0.54</time>
   <energy>
    <i name="e_fr_energy">    -16.99728881 </i>
    <i name="e_wo_entrp">    -16.98228262 </i>
    <i name="e_0_energy">    -16.98978571 </i>
   </energy>
  </scstep>
  <scstep>
   <time name="diag">    0.12    0.12</time>
   <time name="diis">    0.34    0.34</time>
   <time name="orth">    0.02    0.02</time>
   <time name="total">    0.53    0.53</time>
   <energy>
    <i name="e_fr_energy">    -16.99739203 </i>
    <i name="e_wo_entrp">    -16.98235057 </i>
    <i name="e_0_energy">    -16.98987130 </i>
   </energy>
  </scstep>
  <scstep>
   <time name="diag">    0.12    0.12</time>
   <time name="diis">    0.33    0.33</time>
   <time name="orth">    0.02    0.02</time>
   <time name="total">    0.53    0.53</time>
   <energy>
    <i name="e_fr_energy">    -16.99745247 </i>
    <i name="e_wo_entrp">    -16.98241844 </i>
    <i name="e_0_energy">    -16.98993545 </i>
   </energy>
  </scstep>
  <scstep>
   <time name="diag">    0.12    0.12</time>
   <time name="diis">    0.25    0.25</time>
   <time name="orth">    0.01    0.02</time>
   <time name="total">    0.44    0.44</time>
   <energy>
    <i name="e_fr_energy">    -16.99749979 </i>
    <i name="e_wo_entrp">    -16.98246541 </i>
    <i name="e_0_energy">    -16.98998260 </i>
   </energy>
  </scstep>
  <scstep>
   <time name="diag">    0.12    0.12</time>
   <time name="diis">    0.24    0.24</time>
   <time name="orth">    0.01    0.02</time>
   <time name="total">    0.44    0.44</time>
   <energy>
    <i name="e_fr_energy">    -16.99752034 </i>
    <i name="e_wo_entrp">    -16.98248426 </i>
    <i name="e_0_energy">    -16.99000230 </i>
   </energy>
  </scstep>
  <scstep>
   <time name="diag">    0.12    0.13</time>
   <time name="diis">    0.23    0.23</time>
   <time name="orth">    0.02    0.02</time>
   <time name="total">    0.43    0.43</time>
   <energy>
    <i name="e_fr_energy">    -16.99753230 </i>
    <i name="e_wo_entrp">    -16.98249176 </i>
    <i name="e_0_energy">    -16.99001203 </i>
   </energy>
  </scstep>
  <scstep>
   <time name="diag">    0.12    0.12</time>
   <time name="diis">    0.22    0.22</time>
   <time name="orth">    0.02    0.02</time>
   <time name="total">    0.42    0.42</time>
   <energy>
    <i name="e_fr_energy">    -16.99753456 </i>
    <i name="e_wo_entrp">    -16.98249666 </i>
    <i name="e_0_energy">    -16.99001561 </i>
   </energy>
  </scstep>
  <scstep>
   <time name="diag">    0.12    0.12</time>
   <time name="diis">    0.19    0.19</time>
   <time name="orth">    0.02    0.02</time>
   <time name="total">    0.35    0.35</time>
   <energy>
    <i name="alphaZ">    120.87645803 </i>
    <i name="ewald">  38132.63899555 </i>
    <i name="hartreedc"> -43200.59865857 </i>
    <i name="XCdc">    173.50743727 </i>
    <i name="pawpsdc">   4402.80885017 </i>
    <i name="pawaedc">  -4978.91735410 </i>
    <i name="eentropy">     -0.01503771 </i>
    <i name="bandstr">   -243.24784381 </i>
    <i name="atom">   5575.94961827 </i>
    <i name="e_fr_energy">    -16.99753491 </i>
    <i name="e_wo_entrp">    -16.98249720 </i>
    <i name="e_0_energy">    -16.99001605 </i>
   </energy>
  </scstep>
  <structure>
   <crystal>
    <varray name="basis" >
     <v>       2.57386868       0.00000000       0.00000000 </v>
     <v>       1.28693434       2.22903567       0.00000000 </v>
     <v>       0.00000000       0.00000000      30.30466494 </v>
    </varray>
    <i name="volume">    173.86529028 </i>
    <varray name="rec_basis" >
     <v>       0.38852021      -0.22431225       0.00000000 </v>
     <v>       0.00000000       0.44862450       0.00000000 </v>
     <v>       0.00000000       0.00000000       0.03299822 </v>
    </varray>
   </crystal>
   <varray name="positions" >
    <v>       0.99970615       0.00058770       0.39656700 </v>
    <v>       0.33318627       0.33362409       0.46513961 </v>
    <v>       0.66582910       0.66834283       0.53359442 </v>
    <v>       0.00080079       0.99839841       0.60421589 </v>
    <v>       0.50047610       0.99904443       0.63420302 </v>
   </varray>
  </structure>
  <varray name="forces" >
   <v>      -0.00000000       0.00924604       0.07910453 </v>
   <v>       0.00000000       0.00414941      -0.03670298 </v>
   <v>       0.00000000       0.01352265      -0.09704912 </v>
   <v>      -0.00000000      -0.01714187      -0.56137724 </v>
   <v>       0.00000000      -0.00977622       0.61602481 </v>
  </varray>
  <varray name="stress" >
   <v>     -35.23540282       0.00000000       0.00000000 </v>
   <v>       0.00000000     -44.22994305      -1.13113729 </v>
   <v>       0.00000000      -1.13250883     -39.47952237 </v>
  </varray>
  <energy>
   <i name="e_fr_energy">    -16.99753491 </i>
   <i name="e_wo_entrp">    -16.99001605 </i>
   <i name="e_0_energy">     -0.01503771 </i>
  </energy>
  <time name="totalsc">   13.34   13.40</time>
  <eigenvalues>
   <array>
    <dimension dim="1">band</dimension>
    <dimension dim="2">kpoint</dimension>
    <dimension dim="3">spin</dimension>
    <field>eigene</field>
    <field>occ</field>
    <set>
     <set comment="spin 1">
      <set comment="kpoint 1">
       <r>  -11.7575    1.0000 </r>
       <r>  -10.6984    1.0000 </r>
       <r>   -9.0291    1.0000 </r>
       <r>   -7.5434    1.0000 </r>
       <r>   -6.2358    1.0000 </r>
       <r>   -5.7713    1.0000 </r>
       <r>   -5.6008    1.0000 </r>
       <r>   -5.4469    1.0000 </r>
       <r>   -5.3256    1.0000 </r>
       <r>   -5.2911    1.0000 </r>
       <r>   -5.2800    1.0000 </r>
       <r>   -5.2571    1.0000 </r>
       <r>   -5.2520    1.0000 </r>
       <r>   -5.0052    1.0000 </r>
       <r>   -4.9889    1.0000 </r>
       <r>   -4.9437    1.0000 </r>
       <r>   -4.7988    1.0000 </r>
       <r>   -4.7466    1.0000 </r>
       <r>   -4.4980    1.0000 </r>
       <r>   -4.4970    1.0000 </r>
       <r>   -4.2857    1.0000 </r>
       <r>   -4.2752    1.0000 </r>
       <r>   -3.9882    1.0000 </r>
       <r>   -3.9853    1.0000 </r>
       <r>   -2.8860    1.0000 </r>
       <r>    1.6604    0.0000 </r>
       <r>    1.9190    0.0000 </r>
       <r>    2.3367    0.0000 </r>
      </set>
      <set comment="kpoint 2">
       <r>  -11.4536    1.0000 </r>
       <r>  -10.4007    1.0000 </r>
       <r>   -8.7696    1.0000 </r>
       <r>   -7.3260    1.0000 </r>
       <r>   -6.2773    1.0000 </r>
       <r>   -5.7846    1.0000 </r>
       <r>   -5.6777    1.0000 </r>
       <r>   -5.5207    1.0000 </r>
       <r>   -5.4055    1.0000 </r>
       <r>   -5.3476    1.0000 </r>
       <r>   -5.3053    1.0000 </r>
       <r>   -5.2071    1.0000 </r>
       <r>   -5.1589    1.0000 </r>
       <r>   -5.0985    1.0000 </r>
       <r>   -5.0089    1.0000 </r>
       <r>   -4.9104    1.0000 </r>
       <r>   -4.8057    1.0000 </r>
       <r>   -4.7151    1.0000 </r>
       <r>   -4.5130    1.0000 </r>
       <r>   -4.4736    1.0000 </r>
       <r>   -4.2930    1.0000 </r>
       <r>   -4.2713    1.0000 </r>
       <r>   -3.9810    1.0000 </r>
       <r>   -3.7487    1.0000 </r>
       <r>   -2.1922    0.0183 </r>
       <r>    1.9105    0.0000 </r>
       <r>    2.2225    0.0000 </r>
       <r>    2.6397    0.0000 </r>
      </set>
      <set comment="kpoint 3">
       <r>  -10.5835    1.0000 </r>
       <r>   -9.5591    1.0000 </r>
       <r>   -8.1034    1.0000 </r>
       <r>   -6.8265    1.0000 </r>
       <r>   -6.4224    1.0000 </r>
       <r>   -5.9868    1.0000 </r>
       <r>   -5.8369    1.0000 </r>
       <r>   -5.6820    1.0000 </r>
       <r>   -5.5185    1.0000 </r>
       <r>   -5.3056    1.0000 </r>
       <r>   -5.2751    1.0000 </r>
       <r>   -5.2096    1.0000 </r>
       <r>   -5.1029    1.0000 </r>
       <r>   -5.0064    1.0000 </r>
       <r>   -4.9154    1.0000 </r>
       <r>   -4.8524    1.0000 </r>
       <r>   -4.7888    1.0000 </r>
       <r>   -4.6211    1.0000 </r>
       <r>   -4.5637    1.0000 </r>
       <r>   -4.4537    1.0000 </r>
       <r>   -4.2725    1.0000 </r>
       <r>   -4.0646    1.0000 </r>
       <r>   -3.9742    1.0000 </r>
       <r>   -2.8298    1.0000 </r>
       <r>   -0.8405    0.0000 </r>
       <r>    2.6524    0.0000 </r>
       <r>    3.1313    0.0000 </r>
       <r>    3.5472    0.0000 </r>
      </set>
      <set comment="kpoint 4">
       <r>   -9.3247    1.0000 </r>
       <r>   -8.4019    1.0000 </r>
       <r>   -7.4662    1.0000 </r>
       <r>   -6.7025    1.0000 </r>
       <r>   -6.4076    1.0000 </r>
       <r>   -6.2475    1.0000 </r>
       <r>   -5.9343    1.0000 </r>
       <r>   -5.6996    1.0000 </r>
       <r>   -5.5871    1.0000 </r>
       <r>   -5.2990    1.0000 </r>
       <r>   -5.1974    1.0000 </r>
       <r>   -5.0659    1.0000 </r>
       <r>   -4.9268    1.0000 </r>
       <r>   -4.8668    1.0000 </r>
       <r>   -4.8338    1.0000 </r>
       <r>   -4.6324    1.0000 </r>
       <r>   -4.5447    1.0000 </r>
       <r>   -4.3643    1.0000 </r>
       <r>   -4.3434    1.0000 </r>
       <r>   -4.2618    1.0000 </r>
       <r>   -4.1349    1.0000 </r>
       <r>   -3.9596    1.0000 </r>
       <r>   -3.5560    1.0000 </r>
       <r>   -1.6091    0.0000 </r>
       <r>    0.8773    0.0000 </r>
       <r>    3.8567    0.0000 </r>
       <r>    4.5963    0.0000 </r>
       <r>    4.9947    0.0000 </r>
      </set>
      <set comment="kpoint 5">
       <r>   -8.3104    1.0000 </r>
       <r>   -7.4493    1.0000 </r>
       <r>   -7.1426    1.0000 </r>
       <r>   -6.8138    1.0000 </r>
       <r>   -6.5232    1.0000 </r>
       <r>   -6.3993    1.0000 </r>
       <r>   -6.0508    1.0000 </r>
       <r>   -5.5219    1.0000 </r>
       <r>   -5.4111    1.0000 </r>
       <r>   -5.2809    1.0000 </r>
       <r>   -5.2380    1.0000 </r>
       <r>   -4.9617    1.0000 </r>
       <r>   -4.8454    1.0000 </r>
       <r>   -4.5506    1.0000 </r>
       <r>   -4.4438    1.0000 </r>
       <r>   -4.3390    1.0000 </r>
       <r>   -4.1175    1.0000 </r>
       <r>   -4.1030    1.0000 </r>
       <r>   -4.0534    1.0000 </r>
       <r>   -3.9652    1.0000 </r>
       <r>   -3.8179    1.0000 </r>
       <r>   -3.5486    1.0000 </r>
       <r>   -2.4906    0.9834 </r>
       <r>   -0.2003    0.0000 </r>
       <r>    2.1306    0.0000 </r>
       <r>    2.9254    0.0000 </r>
       <r>    3.2895    0.0000 </r>
       <r>    4.4791    0.0000 </r>
      </set>
      <set comment="kpoint 6">
       <r>   -8.0742    1.0000 </r>
       <r>   -7.1576    1.0000 </r>
       <r>   -6.9566    1.0000 </r>
       <r>   -6.8856    1.0000 </r>
       <r>   -6.5835    1.0000 </r>
       <r>   -6.4359    1.0000 </r>
       <r>   -6.0815    1.0000 </r>
       <r>   -5.4262    1.0000 </r>
       <r>   -5.4093    1.0000 </r>
       <r>   -5.2578    1.0000 </r>
       <r>   -5.1657    1.0000 </r>
       <r>   -4.9516    1.0000 </r>
       <r>   -4.5932    1.0000 </r>
       <r>   -4.4548    1.0000 </r>
       <r>   -4.4010    1.0000 </r>
       <r>   -4.2156    1.0000 </r>
       <r>   -4.0439    1.0000 </r>
       <r>   -3.9565    1.0000 </r>
       <r>   -3.8967    1.0000 </r>
       <r>   -3.7031    1.0000 </r>
       <r>   -3.6743    1.0000 </r>
       <r>   -2.2348    0.0683 </r>
       <r>   -1.3671    0.0000 </r>
       <r>   -0.8158    0.0000 </r>
       <r>    1.2774    0.0000 </r>
       <r>    2.2328    0.0000 </r>
       <r>    3.0133    0.0000 </r>
       <r>    3.7726    0.0000 </r>
      </set>
      <set comment="kpoint 7">
       <r>  -11.4728    1.0000 </r>
       <r>  -10.4017    1.0000 </r>
       <r>   -8.7607    1.0000 </r>
       <r>   -7.3213    1.0000 </r>
       <r>   -6.2014    1.0000 </r>
       <r>   -5.8157    1.0000 </r>
       <r>   -5.5541    1.0000 </r>
       <r>   -5.4978    1.0000 </r>
       <r>   -5.3781    1.0000 </r>
       <r>   -5.3388    1.0000 </r>
       <r>   -5.2981    1.0000 </r>
       <r>   -5.2738    1.0000 </r>
       <r>   -5.1563    1.0000 </r>
       <r>   -5.0930    1.0000 </r>
       <r>   -5.0090    1.0000 </r>
       <r>   -4.9777    1.0000 </r>
       <r>   -4.8707    1.0000 </r>
       <r>   -4.7306    1.0000 </r>
       <r>   -4.5172    1.0000 </r>
       <r>   -4.4646    1.0000 </r>
       <r>   -4.2959    1.0000 </r>
       <r>   -4.2807    1.0000 </r>
       <r>   -3.9832    1.0000 </r>
       <r>   -3.7722    1.0000 </r>
       <r>   -2.2025    0.0259 </r>
       <r>    1.9117    0.0000 </r>
       <r>    2.2222    0.0000 </r>
       <r>    2.6392    0.0000 </r>
      </set>
      <set comment="kpoint 8">
       <r>  -10.8523    1.0000 </r>
       <r>   -9.8308    1.0000 </r>
       <r>   -8.3138    1.0000 </r>
       <r>   -6.9591    1.0000 </r>
       <r>   -6.3886    1.0000 </r>
       <r>   -5.8754    1.0000 </r>
       <r>   -5.8312    1.0000 </r>
       <r>   -5.6172    1.0000 </r>
       <r>   -5.5092    1.0000 </r>
       <r>   -5.4367    1.0000 </r>
       <r>   -5.3218    1.0000 </r>
       <r>   -5.1640    1.0000 </r>
       <r>   -5.1070    1.0000 </r>
       <r>   -5.0908    1.0000 </r>
       <r>   -4.9535    1.0000 </r>
       <r>   -4.8633    1.0000 </r>
       <r>   -4.7128    1.0000 </r>
       <r>   -4.6098    1.0000 </r>
       <r>   -4.5897    1.0000 </r>
       <r>   -4.4573    1.0000 </r>
       <r>   -4.3440    1.0000 </r>
       <r>   -4.0877    1.0000 </r>
       <r>   -4.0102    1.0000 </r>
       <r>   -3.0682    1.0000 </r>
       <r>   -1.2281    0.0000 </r>
       <r>    2.4062    0.0000 </r>
       <r>    2.8292    0.0000 </r>
       <r>    3.2455    0.0000 </r>
      </set>
      <set comment="kpoint 9">
       <r>   -9.7790    1.0000 </r>
       <r>   -8.8187    1.0000 </r>
       <r>   -7.6499    1.0000 </r>
       <r>   -6.6175    1.0000 </r>
       <r>   -6.3326    1.0000 </r>
       <r>   -6.0918    1.0000 </r>
       <r>   -5.9307    1.0000 </r>
       <r>   -5.7853    1.0000 </r>
       <r>   -5.6369    1.0000 </r>
       <r>   -5.3290    1.0000 </r>
       <r>   -5.2819    1.0000 </r>
       <r>   -5.2018    1.0000 </r>
       <r>   -5.1143    1.0000 </r>
       <r>   -5.0098    1.0000 </r>
       <r>   -4.9000    1.0000 </r>
       <r>   -4.7632    1.0000 </r>
       <r>   -4.6320    1.0000 </r>
       <r>   -4.4729    1.0000 </r>
       <r>   -4.3580    1.0000 </r>
       <r>   -4.3029    1.0000 </r>
       <r>   -4.1463    1.0000 </r>
       <r>   -4.0372    1.0000 </r>
       <r>   -3.6741    1.0000 </r>
       <r>   -2.0160    0.0000 </r>
       <r>    0.2640    0.0000 </r>
       <r>    3.3999    0.0000 </r>
       <r>    4.0343    0.0000 </r>
       <r>    4.4494    0.0000 </r>
      </set>
      <set comment="kpoint 10">
       <r>   -8.6462    1.0000 </r>
       <r>   -7.7193    1.0000 </r>
       <r>   -7.1599    1.0000 </r>
       <r>   -6.6523    1.0000 </r>
       <r>   -6.3899    1.0000 </r>
       <r>   -6.2465    1.0000 </r>
       <r>   -5.9643    1.0000 </r>
       <r>   -5.6584    1.0000 </r>
       <r>   -5.5936    1.0000 </r>
       <r>   -5.3155    1.0000 </r>
       <r>   -5.2534    1.0000 </r>
       <r>   -5.0959    1.0000 </r>
       <r>   -4.9457    1.0000 </r>
       <r>   -4.7636    1.0000 </r>
       <r>   -4.7283    1.0000 </r>
       <r>   -4.5480    1.0000 </r>
       <r>   -4.4425    1.0000 </r>
       <r>   -4.2896    1.0000 </r>
       <r>   -4.1735    1.0000 </r>
       <r>   -3.9925    1.0000 </r>
       <r>   -3.9445    1.0000 </r>
       <r>   -3.6273    1.0000 </r>
       <r>   -2.7743    1.0000 </r>
       <r>   -0.5818    0.0000 </r>
       <r>    2.0902    0.0000 </r>
       <r>    3.8883    0.0000 </r>
       <r>    4.5187    0.0000 </r>
       <r>    5.2136    0.0000 </r>
      </set>
      <set comment="kpoint 11">
       <r>   -8.1170    1.0000 </r>
       <r>   -7.0730    1.0000 </r>
       <r>   -6.9056    1.0000 </r>
       <r>   -6.7317    1.0000 </r>
       <r>   -6.4900    1.0000 </r>
       <r>   -6.3280    1.0000 </r>
       <r>   -6.0470    1.0000 </r>
       <r>   -5.5538    1.0000 </r>
       <r>   -5.4304    1.0000 </r>
       <r>   -5.3359    1.0000 </r>
       <r>   -5.2042    1.0000 </r>
       <r>   -5.0376    1.0000 </r>
       <r>   -4.8239    1.0000 </r>
       <r>   -4.5598    1.0000 </r>
       <r>   -4.4444    1.0000 </r>
       <r>   -4.2757    1.0000 </r>
       <r>   -4.1556    1.0000 </r>
       <r>   -4.1095    1.0000 </r>
       <r>   -4.0259    1.0000 </r>
       <r>   -3.8710    1.0000 </r>
       <r>   -3.5154    1.0000 </r>
       <r>   -2.3455    0.5307 </r>
       <r>   -1.3209    0.0000 </r>
       <r>    0.1312    0.0000 </r>
       <r>    1.5857    0.0000 </r>
       <r>    2.6008    0.0000 </r>
       <r>    3.1428    0.0000 </r>
       <r>    4.3022    0.0000 </r>
      </set>
      <set comment="kpoint 12">
       <r>   -8.0419    1.0000 </r>
       <r>   -7.0708    1.0000 </r>
       <r>   -6.8996    1.0000 </r>
       <r>   -6.7652    1.0000 </r>
       <r>   -6.4912    1.0000 </r>
       <r>   -6.3596    1.0000 </r>
       <r>   -6.0696    1.0000 </r>
       <r>   -5.6240    1.0000 </r>
       <r>   -5.4219    1.0000 </r>
       <r>   -5.3514    1.0000 </r>
       <r>   -5.2388    1.0000 </r>
       <r>   -5.0466    1.0000 </r>
       <r>   -4.8459    1.0000 </r>
       <r>   -4.5359    1.0000 </r>
       <r>   -4.4317    1.0000 </r>
       <r>   -4.2713    1.0000 </r>
       <r>   -4.1537    1.0000 </r>
       <r>   -4.0817    1.0000 </r>
       <r>   -4.0279    1.0000 </r>
       <r>   -3.8666    1.0000 </r>
       <r>   -3.4270    1.0000 </r>
       <r>   -2.3449    0.5275 </r>
       <r>   -1.3399    0.0000 </r>
       <r>    0.1240    0.0000 </r>
       <r>    1.5799    0.0000 </r>
       <r>    2.5758    0.0000 </r>
       <r>    3.1776    0.0000 </r>
       <r>    4.2695    0.0000 </r>
      </set>
      <set comment="kpoint 13">
       <r>   -8.6068    1.0000 </r>
       <r>   -7.6932    1.0000 </r>
       <r>   -7.1439    1.0000 </r>
       <r>   -6.6793    1.0000 </r>
       <r>   -6.4055    1.0000 </r>
       <r>   -6.2842    1.0000 </r>
       <r>   -6.0106    1.0000 </r>
       <r>   -5.7083    1.0000 </r>
       <r>   -5.6100    1.0000 </r>
       <r>   -5.3626    1.0000 </r>
       <r>   -5.2810    1.0000 </r>
       <r>   -5.1113    1.0000 </r>
       <r>   -4.9397    1.0000 </r>
       <r>   -4.7524    1.0000 </r>
       <r>   -4.6463    1.0000 </r>
       <r>   -4.5200    1.0000 </r>
       <r>   -4.4042    1.0000 </r>
       <r>   -4.2500    1.0000 </r>
       <r>   -4.1509    1.0000 </r>
       <r>   -3.9774    1.0000 </r>
       <r>   -3.9301    1.0000 </r>
       <r>   -3.6238    1.0000 </r>
       <r>   -2.8204    1.0000 </r>
       <r>   -0.6791    0.0000 </r>
       <r>    2.0100    0.0000 </r>
       <r>    3.9899    0.0000 </r>
       <r>    4.5731    0.0000 </r>
       <r>    5.2107    0.0000 </r>
      </set>
      <set comment="kpoint 14">
       <r>   -9.8409    1.0000 </r>
       <r>   -8.7953    1.0000 </r>
       <r>   -7.5701    1.0000 </r>
       <r>   -6.5869    1.0000 </r>
       <r>   -6.3282    1.0000 </r>
       <r>   -6.1210    1.0000 </r>
       <r>   -5.9508    1.0000 </r>
       <r>   -5.7894    1.0000 </r>
       <r>   -5.6322    1.0000 </r>
       <r>   -5.3454    1.0000 </r>
       <r>   -5.2842    1.0000 </r>
       <r>   -5.2243    1.0000 </r>
       <r>   -5.0603    1.0000 </r>
       <r>   -4.9315    1.0000 </r>
       <r>   -4.8788    1.0000 </r>
       <r>   -4.7748    1.0000 </r>
       <r>   -4.6155    1.0000 </r>
       <r>   -4.5037    1.0000 </r>
       <r>   -4.3758    1.0000 </r>
       <r>   -4.2995    1.0000 </r>
       <r>   -4.1442    1.0000 </r>
       <r>   -4.0426    1.0000 </r>
       <r>   -3.7202    1.0000 </r>
       <r>   -2.1286    0.0014 </r>
       <r>    0.2039    0.0000 </r>
       <r>    3.3992    0.0000 </r>
       <r>    4.0347    0.0000 </r>
       <r>    4.4531    0.0000 </r>
      </set>
      <set comment="kpoint 15">
       <r>  -10.9057    1.0000 </r>
       <r>   -9.8286    1.0000 </r>
       <r>   -8.2769    1.0000 </r>
       <r>   -6.9396    1.0000 </r>
       <r>   -6.2651    1.0000 </r>
       <r>   -5.8874    1.0000 </r>
       <r>   -5.7954    1.0000 </r>
       <r>   -5.6064    1.0000 </r>
       <r>   -5.4772    1.0000 </r>
       <r>   -5.3523    1.0000 </r>
       <r>   -5.2876    1.0000 </r>
       <r>   -5.1933    1.0000 </r>
       <r>   -5.1420    1.0000 </r>
       <r>   -5.1108    1.0000 </r>
       <r>   -4.9602    1.0000 </r>
       <r>   -4.9039    1.0000 </r>
       <r>   -4.7204    1.0000 </r>
       <r>   -4.6593    1.0000 </r>
       <r>   -4.6079    1.0000 </r>
       <r>   -4.4848    1.0000 </r>
       <r>   -4.3563    1.0000 </r>
       <r>   -4.0895    1.0000 </r>
       <r>   -4.0252    1.0000 </r>
       <r>   -3.1543    1.0000 </r>
       <r>   -1.2618    0.0000 </r>
       <r>    2.4089    0.0000 </r>
       <r>    2.8286    0.0000 </r>
       <r>    3.2446    0.0000 </r>
      </set>
      <set comment="kpoint 16">
       <r>  -10.6818    1.0000 </r>
       <r>   -9.5590    1.0000 </r>
       <r>   -8.0513    1.0000 </r>
       <r>   -6.7909    1.0000 </r>
       <r>   -6.1787    1.0000 </r>
       <r>   -5.9122    1.0000 </r>
       <r>   -5.7338    1.0000 </r>
       <r>   -5.6691    1.0000 </r>
       <r>   -5.5042    1.0000 </r>
       <r>   -5.3123    1.0000 </r>
       <r>   -5.2854    1.0000 </r>
       <r>   -5.2037    1.0000 </r>
       <r>   -5.1857    1.0000 </r>
       <r>   -5.0471    1.0000 </r>
       <r>   -4.9515    1.0000 </r>
       <r>   -4.8630    1.0000 </r>
       <r>   -4.8280    1.0000 </r>
       <r>   -4.6368    1.0000 </r>
       <r>   -4.5931    1.0000 </r>
       <r>   -4.4634    1.0000 </r>
       <r>   -4.2774    1.0000 </r>
       <r>   -4.1318    1.0000 </r>
       <r>   -3.9768    1.0000 </r>
       <r>   -2.9630    1.0000 </r>
       <r>   -0.8961    0.0000 </r>
       <r>    2.6528    0.0000 </r>
       <r>    3.1306    0.0000 </r>
       <r>    3.5454    0.0000 </r>
      </set>
      <set comment="kpoint 17">
       <r>   -8.7920    1.0000 </r>
       <r>   -7.8142    1.0000 </r>
       <r>   -7.1151    1.0000 </r>
       <r>   -6.4951    1.0000 </r>
       <r>   -6.2457    1.0000 </r>
       <r>   -6.0789    1.0000 </r>
       <r>   -5.9641    1.0000 </r>
       <r>   -5.8857    1.0000 </r>
       <r>   -5.5934    1.0000 </r>
       <r>   -5.4528    1.0000 </r>
       <r>   -5.3318    1.0000 </r>
       <r>   -5.2913    1.0000 </r>
       <r>   -5.0203    1.0000 </r>
       <r>   -4.9406    1.0000 </r>
       <r>   -4.7754    1.0000 </r>
       <r>   -4.7261    1.0000 </r>
       <r>   -4.4856    1.0000 </r>
       <r>   -4.3481    1.0000 </r>
       <r>   -4.2187    1.0000 </r>
       <r>   -3.9804    1.0000 </r>
       <r>   -3.9525    1.0000 </r>
       <r>   -3.5726    1.0000 </r>
       <r>   -2.7767    1.0000 </r>
       <r>   -0.7101    0.0000 </r>
       <r>    1.8713    0.0000 </r>
       <r>    4.6528    0.0000 </r>
       <r>    5.0550    0.0000 </r>
       <r>    5.6475    0.0000 </r>
      </set>
      <set comment="kpoint 18">
       <r>   -8.1827    1.0000 </r>
       <r>   -6.9116    1.0000 </r>
       <r>   -6.6989    1.0000 </r>
       <r>   -6.4892    1.0000 </r>
       <r>   -6.2997    1.0000 </r>
       <r>   -6.1660    1.0000 </r>
       <r>   -5.9599    1.0000 </r>
       <r>   -5.7970    1.0000 </r>
       <r>   -5.5923    1.0000 </r>
       <r>   -5.5084    1.0000 </r>
       <r>   -5.3864    1.0000 </r>
       <r>   -5.0668    1.0000 </r>
       <r>   -4.9832    1.0000 </r>
       <r>   -4.8411    1.0000 </r>
       <r>   -4.6783    1.0000 </r>
       <r>   -4.5577    1.0000 </r>
       <r>   -4.3970    1.0000 </r>
       <r>   -4.2244    1.0000 </r>
       <r>   -4.0726    1.0000 </r>
       <r>   -3.8871    1.0000 </r>
       <r>   -3.3748    1.0000 </r>
       <r>   -2.3596    0.6088 </r>
       <r>   -1.1644    0.0000 </r>
       <r>    0.9487    0.0000 </r>
       <r>    2.7236    0.0000 </r>
       <r>    3.6403    0.0000 </r>
       <r>    3.9493    0.0000 </r>
       <r>    5.0079    0.0000 </r>
      </set>
      <set comment="kpoint 19">
       <r>   -7.9463    1.0000 </r>
       <r>   -6.6936    1.0000 </r>
       <r>   -6.6115    1.0000 </r>
       <r>   -6.4644    1.0000 </r>
       <r>   -6.3022    1.0000 </r>
       <r>   -6.1756    1.0000 </r>
       <r>   -5.9828    1.0000 </r>
       <r>   -5.8470    1.0000 </r>
       <r>   -5.6099    1.0000 </r>
       <r>   -5.4807    1.0000 </r>
       <r>   -5.3563    1.0000 </r>
       <r>   -5.1077    1.0000 </r>
       <r>   -4.9254    1.0000 </r>
       <r>   -4.7088    1.0000 </r>
       <r>   -4.5817    1.0000 </r>
       <r>   -4.5163    1.0000 </r>
       <r>   -4.2777    1.0000 </r>
       <r>   -4.1385    1.0000 </r>
       <r>   -4.0570    1.0000 </r>
       <r>   -3.9552    1.0000 </r>
       <r>   -2.5661    0.9993 </r>
       <r>   -0.7194    0.0000 </r>
       <r>   -0.1404    0.0000 </r>
       <r>    0.6356    0.0000 </r>
       <r>    1.6927    0.0000 </r>
       <r>    2.8567    0.0000 </r>
       <r>    3.5589    0.0000 </r>
       <r>    4.3186    0.0000 </r>
      </set>
      <set comment="kpoint 20">
       <r>   -8.0846    1.0000 </r>
       <r>   -6.9217    1.0000 </r>
       <r>   -6.7083    1.0000 </r>
       <r>   -6.4998    1.0000 </r>
       <r>   -6.3225    1.0000 </r>
       <r>   -6.2039    1.0000 </r>
       <r>   -5.9821    1.0000 </r>
       <r>   -5.8282    1.0000 </r>
       <r>   -5.6207    1.0000 </r>
       <r>   -5.5439    1.0000 </r>
       <r>   -5.4404    1.0000 </r>
       <r>   -5.0708    1.0000 </r>
       <r>   -4.9841    1.0000 </r>
       <r>   -4.8373    1.0000 </r>
       <r>   -4.6936    1.0000 </r>
       <r>   -4.5538    1.0000 </r>
       <r>   -4.3822    1.0000 </r>
       <r>   -4.2069    1.0000 </r>
       <r>   -4.0365    1.0000 </r>
       <r>   -3.8872    1.0000 </r>
       <r>   -3.1731    1.0000 </r>
       <r>   -2.3664    0.6456 </r>
       <r>   -1.2497    0.0000 </r>
       <r>    0.7902    0.0000 </r>
       <r>    2.7298    0.0000 </r>
       <r>    3.6887    0.0000 </r>
       <r>    3.8639    0.0000 </r>
       <r>    4.8765    0.0000 </r>
      </set>
      <set comment="kpoint 21">
       <r>   -8.9112    1.0000 </r>
       <r>   -7.7410    1.0000 </r>
       <r>   -6.9998    1.0000 </r>
       <r>   -6.4723    1.0000 </r>
       <r>   -6.2113    1.0000 </r>
       <r>   -6.0853    1.0000 </r>
       <r>   -5.9641    1.0000 </r>
       <r>   -5.8911    1.0000 </r>
       <r>   -5.5968    1.0000 </r>
       <r>   -5.4766    1.0000 </r>
       <r>   -5.4409    1.0000 </r>
       <r>   -5.3122    1.0000 </r>
       <r>   -5.0146    1.0000 </r>
       <r>   -4.9414    1.0000 </r>
       <r>   -4.8247    1.0000 </r>
       <r>   -4.6161    1.0000 </r>
       <r>   -4.4607    1.0000 </r>
       <r>   -4.2830    1.0000 </r>
       <r>   -4.1685    1.0000 </r>
       <r>   -3.9841    1.0000 </r>
       <r>   -3.9123    1.0000 </r>
       <r>   -3.5797    1.0000 </r>
       <r>   -2.8845    1.0000 </r>
       <r>   -0.9489    0.0000 </r>
       <r>    1.6686    0.0000 </r>
       <r>    4.5432    0.0000 </r>
       <r>    5.2856    0.0000 </r>
       <r>    5.6060    0.0000 </r>
      </set>
      <set comment="kpoint 22">
       <r>   -9.9541    1.0000 </r>
       <r>   -8.7924    1.0000 </r>
       <r>   -7.5139    1.0000 </r>
       <r>   -6.4876    1.0000 </r>
       <r>   -6.2328    1.0000 </r>
       <r>   -6.0055    1.0000 </r>
       <r>   -5.8823    1.0000 </r>
       <r>   -5.7805    1.0000 </r>
       <r>   -5.6357    1.0000 </r>
       <r>   -5.3272    1.0000 </r>
       <r>   -5.3026    1.0000 </r>
       <r>   -5.2765    1.0000 </r>
       <r>   -5.1138    1.0000 </r>
       <r>   -4.9558    1.0000 </r>
       <r>   -4.8863    1.0000 </r>
       <r>   -4.7800    1.0000 </r>
       <r>   -4.6164    1.0000 </r>
       <r>   -4.5169    1.0000 </r>
       <r>   -4.4082    1.0000 </r>
       <r>   -4.3017    1.0000 </r>
       <r>   -4.1442    1.0000 </r>
       <r>   -4.0432    1.0000 </r>
       <r>   -3.7788    1.0000 </r>
       <r>   -2.2383    0.0752 </r>
       <r>    0.1420    0.0000 </r>
       <r>    3.3853    0.0000 </r>
       <r>    4.0355    0.0000 </r>
       <r>    4.4522    0.0000 </r>
      </set>
      <set comment="kpoint 23">
       <r>   -9.6455    1.0000 </r>
       <r>   -8.3681    1.0000 </r>
       <r>   -7.3038    1.0000 </r>
       <r>   -6.4870    1.0000 </r>
       <r>   -6.3311    1.0000 </r>
       <r>   -6.0269    1.0000 </r>
       <r>   -5.7384    1.0000 </r>
       <r>   -5.6511    1.0000 </r>
       <r>   -5.4769    1.0000 </r>
       <r>   -5.3335    1.0000 </r>
       <r>   -5.3094    1.0000 </r>
       <r>   -5.0968    1.0000 </r>
       <r>   -4.9792    1.0000 </r>
       <r>   -4.8479    1.0000 </r>
       <r>   -4.8179    1.0000 </r>
       <r>   -4.7426    1.0000 </r>
       <r>   -4.5494    1.0000 </r>
       <r>   -4.3821    1.0000 </r>
       <r>   -4.3571    1.0000 </r>
       <r>   -4.2638    1.0000 </r>
       <r>   -4.1350    1.0000 </r>
       <r>   -3.9619    1.0000 </r>
       <r>   -3.7396    1.0000 </r>
       <r>   -1.9157    0.0000 </r>
       <r>    0.6607    0.0000 </r>
       <r>    3.7372    0.0000 </r>
       <r>    4.6209    0.0000 </r>
       <r>    4.8307    0.0000 </r>
      </set>
      <set comment="kpoint 24">
       <r>   -7.9274    1.0000 </r>
       <r>   -6.4694    1.0000 </r>
       <r>   -6.3879    1.0000 </r>
       <r>   -6.2840    1.0000 </r>
       <r>   -6.2163    1.0000 </r>
       <r>   -6.0590    1.0000 </r>
       <r>   -5.9928    1.0000 </r>
       <r>   -5.9318    1.0000 </r>
       <r>   -5.7720    1.0000 </r>
       <r>   -5.5853    1.0000 </r>
       <r>   -5.4440    1.0000 </r>
       <r>   -5.0485    1.0000 </r>
       <r>   -4.9991    1.0000 </r>
       <r>   -4.8615    1.0000 </r>
       <r>   -4.6892    1.0000 </r>
       <r>   -4.5424    1.0000 </r>
       <r>   -4.4479    1.0000 </r>
       <r>   -4.1759    1.0000 </r>
       <r>   -4.0760    1.0000 </r>
       <r>   -3.9771    1.0000 </r>
       <r>   -2.1807    0.0121 </r>
       <r>   -0.3869    0.0000 </r>
       <r>    0.8080    0.0000 </r>
       <r>    2.2332    0.0000 </r>
       <r>    2.2440    0.0000 </r>
       <r>    2.5746    0.0000 </r>
       <r>    3.3015    0.0000 </r>
       <r>    4.0255    0.0000 </r>
      </set>
      <set comment="kpoint 25">
       <r>   -7.9226    1.0000 </r>
       <r>   -6.4785    1.0000 </r>
       <r>   -6.4027    1.0000 </r>
       <r>   -6.2762    1.0000 </r>
       <r>   -6.2081    1.0000 </r>
       <r>   -6.0588    1.0000 </r>
       <r>   -5.9956    1.0000 </r>
       <r>   -5.9139    1.0000 </r>
       <r>   -5.7525    1.0000 </r>
       <r>   -5.6361    1.0000 </r>
       <r>   -5.4459    1.0000 </r>
       <r>   -5.0497    1.0000 </r>
       <r>   -4.9988    1.0000 </r>
       <r>   -4.8814    1.0000 </r>
       <r>   -4.6945    1.0000 </r>
       <r>   -4.5462    1.0000 </r>
       <r>   -4.4450    1.0000 </r>
       <r>   -4.1593    1.0000 </r>
       <r>   -4.0745    1.0000 </r>
       <r>   -3.9783    1.0000 </r>
       <r>   -1.9796    0.0000 </r>
       <r>   -0.4039    0.0000 </r>
       <r>    0.6685    0.0000 </r>
       <r>    1.7804    0.0000 </r>
       <r>    2.3534    0.0000 </r>
       <r>    2.5382    0.0000 </r>
       <r>    3.2544    0.0000 </r>
       <r>    3.8429    0.0000 </r>
      </set>
      <set comment="kpoint 26">
       <r>   -8.3433    1.0000 </r>
       <r>   -6.8677    1.0000 </r>
       <r>   -6.6676    1.0000 </r>
       <r>   -6.4056    1.0000 </r>
       <r>   -6.2640    1.0000 </r>
       <r>   -6.0472    1.0000 </r>
       <r>   -5.9449    1.0000 </r>
       <r>   -5.7777    1.0000 </r>
       <r>   -5.6225    1.0000 </r>
       <r>   -5.5649    1.0000 </r>
       <r>   -5.4183    1.0000 </r>
       <r>   -5.0813    1.0000 </r>
       <r>   -5.0168    1.0000 </r>
       <r>   -4.8610    1.0000 </r>
       <r>   -4.6751    1.0000 </r>
       <r>   -4.5812    1.0000 </r>
       <r>   -4.3846    1.0000 </r>
       <r>   -4.2111    1.0000 </r>
       <r>   -4.0285    1.0000 </r>
       <r>   -3.8874    1.0000 </r>
       <r>   -3.0490    1.0000 </r>
       <r>   -2.3804    0.7161 </r>
       <r>   -1.3485    0.0000 </r>
       <r>    0.4629    0.0000 </r>
       <r>    2.1442    0.0000 </r>
       <r>    3.3075    0.0000 </r>
       <r>    4.3260    0.0000 </r>
       <r>    5.5798    0.0000 </r>
      </set>
      <set comment="kpoint 27">
       <r>   -9.0293    1.0000 </r>
       <r>   -7.6307    1.0000 </r>
       <r>   -6.9917    1.0000 </r>
       <r>   -6.4642    1.0000 </r>
       <r>   -6.3504    1.0000 </r>
       <r>   -6.0735    1.0000 </r>
       <r>   -5.8202    1.0000 </r>
       <r>   -5.6261    1.0000 </r>
       <r>   -5.5247    1.0000 </r>
       <r>   -5.4429    1.0000 </r>
       <r>   -5.2646    1.0000 </r>
       <r>   -5.1389    1.0000 </r>
       <r>   -4.9947    1.0000 </r>
       <r>   -4.7576    1.0000 </r>
       <r>   -4.6967    1.0000 </r>
       <r>   -4.5410    1.0000 </r>
       <r>   -4.3998    1.0000 </r>
       <r>   -4.2222    1.0000 </r>
       <r>   -4.1730    1.0000 </r>
       <r>   -3.9851    1.0000 </r>
       <r>   -3.9293    1.0000 </r>
       <r>   -3.6421    1.0000 </r>
       <r>   -2.9750    1.0000 </r>
       <r>   -1.0072    0.0000 </r>
       <r>    1.5785    0.0000 </r>
       <r>    3.6094    0.0000 </r>
       <r>    4.5969    0.0000 </r>
       <r>    5.4067    0.0000 </r>
      </set>
      <set comment="kpoint 28">
       <r>   -8.9164    1.0000 </r>
       <r>   -7.3678    1.0000 </r>
       <r>   -7.0091    1.0000 </r>
       <r>   -6.5449    1.0000 </r>
       <r>   -6.4889    1.0000 </r>
       <r>   -6.1745    1.0000 </r>
       <r>   -5.7880    1.0000 </r>
       <r>   -5.4605    1.0000 </r>
       <r>   -5.4099    1.0000 </r>
       <r>   -5.3180    1.0000 </r>
       <r>   -5.0737    1.0000 </r>
       <r>   -5.0292    1.0000 </r>
       <r>   -4.6748    1.0000 </r>
       <r>   -4.5412    1.0000 </r>
       <r>   -4.4440    1.0000 </r>
       <r>   -4.3613    1.0000 </r>
       <r>   -4.1131    1.0000 </r>
       <r>   -4.0524    1.0000 </r>
       <r>   -4.0199    1.0000 </r>
       <r>   -3.9675    1.0000 </r>
       <r>   -3.8182    1.0000 </r>
       <r>   -3.5424    1.0000 </r>
       <r>   -2.7749    1.0000 </r>
       <r>   -0.8296    0.0000 </r>
       <r>    1.0392    0.0000 </r>
       <r>    2.6490    0.0000 </r>
       <r>    3.5512    0.0000 </r>
       <r>    5.0143    0.0000 </r>
      </set>
      <set comment="kpoint 29">
       <r>   -8.2107    1.0000 </r>
       <r>   -6.6598    1.0000 </r>
       <r>   -6.5944    1.0000 </r>
       <r>   -6.3244    1.0000 </r>
       <r>   -6.2623    1.0000 </r>
       <r>   -6.0382    1.0000 </r>
       <r>   -5.9820    1.0000 </r>
       <r>   -5.8926    1.0000 </r>
       <r>   -5.5204    1.0000 </r>
       <r>   -5.4736    1.0000 </r>
       <r>   -5.3103    1.0000 </r>
       <r>   -5.1166    1.0000 </r>
       <r>   -4.9809    1.0000 </r>
       <r>   -4.7118    1.0000 </r>
       <r>   -4.6018    1.0000 </r>
       <r>   -4.5294    1.0000 </r>
       <r>   -4.2792    1.0000 </r>
       <r>   -4.1199    1.0000 </r>
       <r>   -4.0556    1.0000 </r>
       <r>   -3.9558    1.0000 </r>
       <r>   -1.8912    0.0000 </r>
       <r>   -0.8089    0.0000 </r>
       <r>   -0.4556    0.0000 </r>
       <r>    0.1277    0.0000 </r>
       <r>    0.8121    0.0000 </r>
       <r>    2.4707    0.0000 </r>
       <r>    3.8148    0.0000 </r>
       <r>    5.0637    0.0000 </r>
      </set>
      <set comment="kpoint 30">
       <r>   -8.6092    1.0000 </r>
       <r>   -7.0097    1.0000 </r>
       <r>   -6.8738    1.0000 </r>
       <r>   -6.5018    1.0000 </r>
       <r>   -6.4348    1.0000 </r>
       <r>   -6.1599    1.0000 </r>
       <r>   -5.8253    1.0000 </r>
       <r>   -5.6506    1.0000 </r>
       <r>   -5.4155    1.0000 </r>
       <r>   -5.2734    1.0000 </r>
       <r>   -5.2264    1.0000 </r>
       <r>   -4.9434    1.0000 </r>
       <r>   -4.8134    1.0000 </r>
       <r>   -4.6099    1.0000 </r>
       <r>   -4.4372    1.0000 </r>
       <r>   -4.2766    1.0000 </r>
       <r>   -4.1385    1.0000 </r>
       <r>   -4.0770    1.0000 </r>
       <r>   -4.0154    1.0000 </r>
       <r>   -3.8686    1.0000 </r>
       <r>   -2.8981    1.0000 </r>
       <r>   -2.3856    0.7403 </r>
       <r>   -1.6091    0.0000 </r>
       <r>   -0.5193    0.0000 </r>
       <r>    0.3175    0.0000 </r>
       <r>    2.2356    0.0000 </r>
       <r>    3.3893    0.0000 </r>
       <r>    4.9563    0.0000 </r>
      </set>
      <set comment="kpoint 31">
       <r>   -8.7138    1.0000 </r>
       <r>   -7.0818    1.0000 </r>
       <r>   -6.9736    1.0000 </r>
       <r>   -6.5914    1.0000 </r>
       <r>   -6.5207    1.0000 </r>
       <r>   -6.2426    1.0000 </r>
       <r>   -5.8003    1.0000 </r>
       <r>   -5.4398    1.0000 </r>
       <r>   -5.4150    1.0000 </r>
       <r>   -5.3100    1.0000 </r>
       <r>   -5.0523    1.0000 </r>
       <r>   -4.9480    1.0000 </r>
       <r>   -4.4926    1.0000 </r>
       <r>   -4.4470    1.0000 </r>
       <r>   -4.3674    1.0000 </r>
       <r>   -4.1064    1.0000 </r>
       <r>   -4.0468    1.0000 </r>
       <r>   -3.9563    1.0000 </r>
       <r>   -3.8965    1.0000 </r>
       <r>   -3.7026    1.0000 </r>
       <r>   -2.7028    1.0000 </r>
       <r>   -2.3223    0.4008 </r>
       <r>   -1.7528    0.0000 </r>
       <r>   -1.2085    0.0000 </r>
       <r>   -0.7936    0.0000 </r>
       <r>    1.9349    0.0000 </r>
       <r>    3.0779    0.0000 </r>
       <r>    4.5490    0.0000 </r>
      </set>
     </set>
    </set>
   </array>
  </eigenvalues>
  <separator name="orbital magnetization" >
   <v name="MAGDIPOLOUT">      0.00000000      0.00000000      0.00000000</v>
  </separator>
  <dos>
   <i name="efermi">     -2.34003323 </i>
   <total>
    <array>
     <dimension dim="1">gridpoints</dimension>
     <dimension dim="2">spin</dimension>
     <field>energy</field>
     <field>total</field>
     <field>integrated</field>
     <set>
      <set comment="spin 1">
       <r>   -17.0000     0.0000     0.0000 </r>
       <r>   -16.9900     0.0000     0.0000 </r>
       <r>   -16.9800     0.0000     0.0000 </r>
       <r>   -16.9700     0.0000     0.0000 </r>
       <r>   -16.9600     0.0000     0.0000 </r>
       <r>   -16.9500     0.0000     0.0000 </r>
       <r>   -16.9400     0.0000     0.0000 </r>
       <r>   -16.9300     0.0000     0.0000 </r>
       <r>   -16.9200     0.0000     0.0000 </r>
       <r>   -16.9100     0.0000     0.0000 </r>
       <r>   -16.9000     0.0000     0.0000 </r>
       <r>   -16.8900     0.0000     0.0000 </r>
       <r>   -16.8800     0.0000     0.0000 </r>
       <r>   -16.8700     0.0000     0.0000 </r>
       <r>   -16.8600     0.0000     0.0000 </r>
       <r>   -16.8500     0.0000     0.0000 </r>
       <r>   -16.8400     0.0000     0.0000 </r>
       <r>   -16.8300     0.0000     0.0000 </r>
       <r>   -16.8200     0.0000     0.0000 </r>
       <r>   -16.8100     0.0000     0.0000 </r>
       <r>   -16.8000     0.0000     0.0000 </r>
       <r>   -16.7900     0.0000     0.0000 </r>
       <r>   -16.7800     0.0000     0.0000 </r>
       <r>   -16.7700     0.0000     0.0000 </r>
       <r>   -16.7600     0.0000     0.0000 </r>
       <r>   -16.7500     0.0000     0.0000 </r>
       <r>   -16.7400     0.0000     0.0000 </r>
       <r>   -16.7300     0.0000     0.0000 </r>
       <r>   -16.7200     0.0000     0.0000 </r>
       <r>   -16.7100     0.0000     0.0000 </r>
       <r>   -16.7000     0.0000     0.0000 </r>
       <r>   -16.6900     0.0000     0.0000 </r>
       <r>   -16.6800     0.0000     0.0000 </r>
       <r>   -16.6700     0.0000     0.0000 </r>
       <r>   -16.6600     0.0000     0.0000 </r>
       <r>   -16.6500     0.0000     0.0000 </r>
       <r>   -16.6400     0.0000     0.0000 </r>
       <r>   -16.6300     0.0000     0.0000 </r>
       <r>   -16.6200     0.0000     0.0000 </r>
       <r>   -16.6100     0.0000     0.0000 </r>
       <r>   -16.6000     0.0000     0.0000 </r>
       <r>   -16.5900     0.0000     0.0000 </r>
       <r>   -16.5800     0.0000     0.0000 </r>
       <r>   -16.5700     0.0000     0.0000 </r>
       <r>   -16.5600     0.0000     0.0000 </r>
       <r>   -16.5500     0.0000     0.0000 </r>
       <r>   -16.5400     0.0000     0.0000 </r>
       <r>   -16.5300     0.0000     0.0000 </r>
       <r>   -16.5200     0.0000     0.0000 </r>
       <r>   -16.5100     0.0000     0.0000 </r>
       <r>   -16.5000     0.0000     0.0000 </r>
       <r>   -16.4900     0.0000     0.0000 </r>
       <r>   -16.4800     0.0000     0.0000 </r>
       <r>   -16.4700     0.0000     0.0000 </r>
       <r>   -16.4600     0.0000     0.0000 </r>
       <r>   -16.4500     0.0000     0.0000 </r>
       <r>   -16.4400     0.0000     0.0000 </r>
       <r>   -16.4300     0.0000     0.0000 </r>
       <r>   -16.4200     0.0000     0.0000 </r>
       <r>   -16.4100     0.0000     0.0000 </r>
       <r>   -16.4000     0.0000     0.0000 </r>
       <r>   -16.3900     0.0000     0.0000 </r>
       <r>   -16.3800     0.0000     0.0000 </r>
       <r>   -16.3700     0.0000     0.0000 </r>
       <r>   -16.3600     0.0000     0.0000 </r>
       <r>   -16.3500     0.0000     0.0000 </r>
       <r>   -16.3400     0.0000     0.0000 </r>
       <r>   -16.3300     0.0000     0.0000 </r>
       <r>   -16.3200     0.0000     0.0000 </r>
       <r>   -16.3100     0.0000     0.0000 </r>
       <r>   -16.3000     0.0000     0.0000 </r>
       <r>   -16.2900     0.0000     0.0000 </r>
       <r>   -16.2800     0.0000     0.0000 </r>
       <r>   -16.2700     0.0000     0.0000 </r>
       <r>   -16.2600     0.0000     0.0000 </r>
       <r>   -16.2500     0.0000     0.0000 </r>
       <r>   -16.2400     0.0000     0.0000 </r>
       <r>   -16.2300     0.0000     0.0000 </r>
       <r>   -16.2200     0.0000     0.0000 </r>
       <r>   -16.2100     0.0000     0.0000 </r>
       <r>   -16.2000     0.0000     0.0000 </r>
       <r>   -16.1900     0.0000     0.0000 </r>
       <r>   -16.1800     0.0000     0.0000 </r>
       <r>   -16.1700     0.0000     0.0000 </r>
       <r>   -16.1600     0.0000     0.0000 </r>
       <r>   -16.1500     0.0000     0.0000 </r>
       <r>   -16.1400     0.0000     0.0000 </r>
       <r>   -16.1300     0.0000     0.0000 </r>
       <r>   -16.1200     0.0000     0.0000 </r>
       <r>   -16.1100     0.0000     0.0000 </r>
       <r>   -16.1000     0.0000     0.0000 </r>
       <r>   -16.0900     0.0000     0.0000 </r>
       <r>   -16.0800     0.0000     0.0000 </r>
       <r>   -16.0700     0.0000     0.0000 </r>
       <r>   -16.0600     0.0000     0.0000 </r>
       <r>   -16.0500     0.0000     0.0000 </r>
       <r>   -16.0400     0.0000     0.0000 </r>
       <r>   -16.0300     0.0000     0.0000 </r>
       <r>   -16.0200     0.0000     0.0000 </r>
       <r>   -16.0100     0.0000     0.0000 </r>
       <r>   -16.0000     0.0000     0.0000 </r>
       <r>   -15.9900     0.0000     0.0000 </r>
       <r>   -15.9800     0.0000     0.0000 </r>
       <r>   -15.9700     0.0000     0.0000 </r>
       <r>   -15.9600     0.0000     0.0000 </r>
       <r>   -15.9500     0.0000     0.0000 </r>
       <r>   -15.9400     0.0000     0.0000 </r>
       <r>   -15.9300     0.0000     0.0000 </r>
       <r>   -15.9200     0.0000     0.0000 </r>
       <r>   -15.9100     0.0000     0.0000 </r>
       <r>   -15.9000     0.0000     0.0000 </r>
       <r>   -15.8900     0.0000     0.0000 </r>
       <r>   -15.8800     0.0000     0.0000 </r>
       <r>   -15.8700     0.0000     0.0000 </r>
       <r>   -15.8600     0.0000     0.0000 </r>
       <r>   -15.8500     0.0000     0.0000 </r>
       <r>   -15.8400     0.0000     0.0000 </r>
       <r>   -15.8300     0.0000     0.0000 </r>
       <r>   -15.8200     0.0000     0.0000 </r>
       <r>   -15.8100     0.0000     0.0000 </r>
       <r>   -15.8000     0.0000     0.0000 </r>
       <r>   -15.7900     0.0000     0.0000 </r>
       <r>   -15.7800     0.0000     0.0000 </r>
       <r>   -15.7700     0.0000     0.0000 </r>
       <r>   -15.7600     0.0000     0.0000 </r>
       <r>   -15.7500     0.0000     0.0000 </r>
       <r>   -15.7400     0.0000     0.0000 </r>
       <r>   -15.7300     0.0000     0.0000 </r>
       <r>   -15.7200     0.0000     0.0000 </r>
       <r>   -15.7100     0.0000     0.0000 </r>
       <r>   -15.7000     0.0000     0.0000 </r>
       <r>   -15.6900     0.0000     0.0000 </r>
       <r>   -15.6800     0.0000     0.0000 </r>
       <r>   -15.6700     0.0000     0.0000 </r>
       <r>   -15.6600     0.0000     0.0000 </r>
       <r>   -15.6500     0.0000     0.0000 </r>
       <r>   -15.6400     0.0000     0.0000 </r>
       <r>   -15.6300     0.0000     0.0000 </r>
       <r>   -15.6200     0.0000     0.0000 </r>
       <r>   -15.6100     0.0000     0.0000 </r>
       <r>   -15.6000     0.0000     0.0000 </r>
       <r>   -15.5900     0.0000     0.0000 </r>
       <r>   -15.5800     0.0000     0.0000 </r>
       <r>   -15.5700     0.0000     0.0000 </r>
       <r>   -15.5600     0.0000     0.0000 </r>
       <r>   -15.5500     0.0000     0.0000 </r>
       <r>   -15.5400     0.0000     0.0000 </r>
       <r>   -15.5300     0.0000     0.0000 </r>
       <r>   -15.5200     0.0000     0.0000 </r>
       <r>   -15.5100     0.0000     0.0000 </r>
       <r>   -15.5000     0.0000     0.0000 </r>
       <r>   -15.4900     0.0000     0.0000 </r>
       <r>   -15.4800     0.0000     0.0000 </r>
       <r>   -15.4700     0.0000     0.0000 </r>
       <r>   -15.4600     0.0000     0.0000 </r>
       <r>   -15.4500     0.0000     0.0000 </r>
       <r>   -15.4400     0.0000     0.0000 </r>
       <r>   -15.4300     0.0000     0.0000 </r>
       <r>   -15.4200     0.0000     0.0000 </r>
       <r>   -15.4100     0.0000     0.0000 </r>
       <r>   -15.4000     0.0000     0.0000 </r>
       <r>   -15.3900     0.0000     0.0000 </r>
       <r>   -15.3800     0.0000     0.0000 </r>
       <r>   -15.3700     0.0000     0.0000 </r>
       <r>   -15.3600     0.0000     0.0000 </r>
       <r>   -15.3500     0.0000     0.0000 </r>
       <r>   -15.3400     0.0000     0.0000 </r>
       <r>   -15.3300     0.0000     0.0000 </r>
       <r>   -15.3200     0.0000     0.0000 </r>
       <r>   -15.3100     0.0000     0.0000 </r>
       <r>   -15.3000     0.0000     0.0000 </r>
       <r>   -15.2900     0.0000     0.0000 </r>
       <r>   -15.2800     0.0000     0.0000 </r>
       <r>   -15.2700     0.0000     0.0000 </r>
       <r>   -15.2600     0.0000     0.0000 </r>
       <r>   -15.2500     0.0000     0.0000 </r>
       <r>   -15.2400     0.0000     0.0000 </r>
       <r>   -15.2300     0.0000     0.0000 </r>
       <r>   -15.2200     0.0000     0.0000 </r>
       <r>   -15.2100     0.0000     0.0000 </r>
       <r>   -15.2000     0.0000     0.0000 </r>
       <r>   -15.1900     0.0000     0.0000 </r>
       <r>   -15.1800     0.0000     0.0000 </r>
       <r>   -15.1700     0.0000     0.0000 </r>
       <r>   -15.1600     0.0000     0.0000 </r>
       <r>   -15.1500     0.0000     0.0000 </r>
       <r>   -15.1400     0.0000     0.0000 </r>
       <r>   -15.1300     0.0000     0.0000 </r>
       <r>   -15.1200     0.0000     0.0000 </r>
       <r>   -15.1100     0.0000     0.0000 </r>
       <r>   -15.1000     0.0000     0.0000 </r>
       <r>   -15.0900     0.0000     0.0000 </r>
       <r>   -15.0800     0.0000     0.0000 </r>
       <r>   -15.0700     0.0000     0.0000 </r>
       <r>   -15.0600     0.0000     0.0000 </r>
       <r>   -15.0500     0.0000     0.0000 </r>
       <r>   -15.0400     0.0000     0.0000 </r>
       <r>   -15.0300     0.0000     0.0000 </r>
       <r>   -15.0200     0.0000     0.0000 </r>
       <r>   -15.0100     0.0000     0.0000 </r>
       <r>   -15.0000     0.0000     0.0000 </r>
       <r>   -14.9900     0.0000     0.0000 </r>
       <r>   -14.9800     0.0000     0.0000 </r>
       <r>   -14.9700     0.0000     0.0000 </r>
       <r>   -14.9600     0.0000     0.0000 </r>
       <r>   -14.9500     0.0000     0.0000 </r>
       <r>   -14.9400     0.0000     0.0000 </r>
       <r>   -14.9300     0.0000     0.0000 </r>
       <r>   -14.9200     0.0000     0.0000 </r>
       <r>   -14.9100     0.0000     0.0000 </r>
       <r>   -14.9000     0.0000     0.0000 </r>
       <r>   -14.8900     0.0000     0.0000 </r>
       <r>   -14.8800     0.0000     0.0000 </r>
       <r>   -14.8700     0.0000     0.0000 </r>
       <r>   -14.8600     0.0000     0.0000 </r>
       <r>   -14.8500     0.0000     0.0000 </r>
       <r>   -14.8400     0.0000     0.0000 </r>
       <r>   -14.8300     0.0000     0.0000 </r>
       <r>   -14.8200     0.0000     0.0000 </r>
       <r>   -14.8100     0.0000     0.0000 </r>
       <r>   -14.8000     0.0000     0.0000 </r>
       <r>   -14.7900     0.0000     0.0000 </r>
       <r>   -14.7800     0.0000     0.0000 </r>
       <r>   -14.7700     0.0000     0.0000 </r>
       <r>   -14.7600     0.0000     0.0000 </r>
       <r>   -14.7500     0.0000     0.0000 </r>
       <r>   -14.7400     0.0000     0.0000 </r>
       <r>   -14.7300     0.0000     0.0000 </r>
       <r>   -14.7200     0.0000     0.0000 </r>
       <r>   -14.7100     0.0000     0.0000 </r>
       <r>   -14.7000     0.0000     0.0000 </r>
       <r>   -14.6900     0.0000     0.0000 </r>
       <r>   -14.6800     0.0000     0.0000 </r>
       <r>   -14.6700     0.0000     0.0000 </r>
       <r>   -14.6600     0.0000     0.0000 </r>
       <r>   -14.6500     0.0000     0.0000 </r>
       <r>   -14.6400     0.0000     0.0000 </r>
       <r>   -14.6300     0.0000     0.0000 </r>
       <r>   -14.6200     0.0000     0.0000 </r>
       <r>   -14.6100     0.0000     0.0000 </r>
       <r>   -14.6000     0.0000     0.0000 </r>
       <r>   -14.5900     0.0000     0.0000 </r>
       <r>   -14.5800     0.0000     0.0000 </r>
       <r>   -14.5700     0.0000     0.0000 </r>
       <r>   -14.5600     0.0000     0.0000 </r>
       <r>   -14.5500     0.0000     0.0000 </r>
       <r>   -14.5400     0.0000     0.0000 </r>
       <r>   -14.5300     0.0000     0.0000 </r>
       <r>   -14.5200     0.0000     0.0000 </r>
       <r>   -14.5100     0.0000     0.0000 </r>
       <r>   -14.5000     0.0000     0.0000 </r>
       <r>   -14.4900     0.0000     0.0000 </r>
       <r>   -14.4800     0.0000     0.0000 </r>
       <r>   -14.4700     0.0000     0.0000 </r>
       <r>   -14.4600     0.0000     0.0000 </r>
       <r>   -14.4500     0.0000     0.0000 </r>
       <r>   -14.4400     0.0000     0.0000 </r>
       <r>   -14.4300     0.0000     0.0000 </r>
       <r>   -14.4200     0.0000     0.0000 </r>
       <r>   -14.4100     0.0000     0.0000 </r>
       <r>   -14.4000     0.0000     0.0000 </r>
       <r>   -14.3900     0.0000     0.0000 </r>
       <r>   -14.3800     0.0000     0.0000 </r>
       <r>   -14.3700     0.0000     0.0000 </r>
       <r>   -14.3600     0.0000     0.0000 </r>
       <r>   -14.3500     0.0000     0.0000 </r>
       <r>   -14.3400     0.0000     0.0000 </r>
       <r>   -14.3300     0.0000     0.0000 </r>
       <r>   -14.3200     0.0000     0.0000 </r>
       <r>   -14.3100     0.0000     0.0000 </r>
       <r>   -14.3000     0.0000     0.0000 </r>
       <r>   -14.2900     0.0000     0.0000 </r>
       <r>   -14.2800     0.0000     0.0000 </r>
       <r>   -14.2700     0.0000     0.0000 </r>
       <r>   -14.2600     0.0000     0.0000 </r>
       <r>   -14.2500     0.0000     0.0000 </r>
       <r>   -14.2400     0.0000     0.0000 </r>
       <r>   -14.2300     0.0000     0.0000 </r>
       <r>   -14.2200     0.0000     0.0000 </r>
       <r>   -14.2100     0.0000     0.0000 </r>
       <r>   -14.2000     0.0000     0.0000 </r>
       <r>   -14.1900     0.0000     0.0000 </r>
       <r>   -14.1800     0.0000     0.0000 </r>
       <r>   -14.1700     0.0000     0.0000 </r>
       <r>   -14.1600     0.0000     0.0000 </r>
       <r>   -14.1500     0.0000     0.0000 </r>
       <r>   -14.1400     0.0000     0.0000 </r>
       <r>   -14.1300     0.0000     0.0000 </r>
       <r>   -14.1200     0.0000     0.0000 </r>
       <r>   -14.1100     0.0000     0.0000 </r>
       <r>   -14.1000     0.0000     0.0000 </r>
       <r>   -14.0900     0.0000     0.0000 </r>
       <r>   -14.0800     0.0000     0.0000 </r>
       <r>   -14.0700     0.0000     0.0000 </r>
       <r>   -14.0600     0.0000     0.0000 </r>
       <r>   -14.0500     0.0000     0.0000 </r>
       <r>   -14.0400     0.0000     0.0000 </r>
       <r>   -14.0300     0.0000     0.0000 </r>
       <r>   -14.0200     0.0000     0.0000 </r>
       <r>   -14.0100     0.0000     0.0000 </r>
       <r>   -14.0000     0.0000     0.0000 </r>
       <r>   -13.9900     0.0000     0.0000 </r>
       <r>   -13.9800     0.0000     0.0000 </r>
       <r>   -13.9700     0.0000     0.0000 </r>
       <r>   -13.9600     0.0000     0.0000 </r>
       <r>   -13.9500     0.0000     0.0000 </r>
       <r>   -13.9400     0.0000     0.0000 </r>
       <r>   -13.9300     0.0000     0.0000 </r>
       <r>   -13.9200     0.0000     0.0000 </r>
       <r>   -13.9100     0.0000     0.0000 </r>
       <r>   -13.9000     0.0000     0.0000 </r>
       <r>   -13.8900     0.0000     0.0000 </r>
       <r>   -13.8800     0.0000     0.0000 </r>
       <r>   -13.8700     0.0000     0.0000 </r>
       <r>   -13.8600     0.0000     0.0000 </r>
       <r>   -13.8500     0.0000     0.0000 </r>
       <r>   -13.8400     0.0000     0.0000 </r>
       <r>   -13.8300     0.0000     0.0000 </r>
       <r>   -13.8200     0.0000     0.0000 </r>
[...]
        <r>  0.0003  0.0004  0.0010  0.0002  0.0350  0.0001  0.0973  0.0406  0.0143 </r>
        <r>  0.0002  0.0022  0.0008  0.0001  0.0312  0.0076  0.0051  0.0023  0.0031 </r>
        <r>  0.0008  0.0001  0.0000  0.0000  0.0000  0.0000  0.0000  0.0000  0.0000 </r>
       </set>
       <set comment="band 19">
        <r>  0.0012  0.0031  0.0009  0.0001  0.1123  0.0064  0.2262  0.0152  0.0275 </r>
        <r>  0.0002  0.0003  0.0001  0.0001  0.1311  0.0734  0.0517  0.0002  0.0137 </r>
        <r>  0.0002  0.0005  0.0005  0.0000  0.2029  0.0071  0.0562  0.0093  0.0093 </r>
        <r>  0.0001  0.0013  0.0001  0.0000  0.0190  0.0049  0.0007  0.0033  0.0012 </r>
        <r>  0.0000  0.0000  0.0000  0.0000  0.0000  0.0000  0.0000  0.0000  0.0000 </r>
       </set>
       <set comment="band 20">
        <r>  0.0016  0.0035  0.0003  0.0000  0.4537  0.0140  0.0502  0.0074  0.0077 </r>
        <r>  0.0000  0.0002  0.0004  0.0000  0.1237  0.0077  0.1423  0.0147  0.0322 </r>
        <r>  0.0000  0.0005  0.0001  0.0000  0.0766  0.0141  0.0075  0.0138  0.0056 </r>
        <r>  0.0001  0.0001  0.0003  0.0000  0.0014  0.0001  0.0026  0.0025  0.0008 </r>
        <r>  0.0001  0.0000  0.0000  0.0000  0.0000  0.0000  0.0000  0.0000  0.0000 </r>
       </set>
       <set comment="band 21">
        <r>  0.0011  0.0034  0.0005  0.0000  0.0097  0.0039  0.0082  0.0003  0.0029 </r>
        <r>  0.0026  0.0101  0.0013  0.0000  0.0172  0.0051  0.0085  0.0002  0.0037 </r>
        <r>  0.0079  0.0217  0.0045  0.0001  0.0360  0.0050  0.0285  0.0034  0.0193 </r>
        <r>  0.0667  0.0798  0.0090  0.0020  0.0790  0.0004  0.0452  0.0173  0.2335 </r>
        <r>  0.0629  0.0016  0.0000  0.0001  0.0000  0.0000  0.0000  0.0000  0.0000 </r>
       </set>
       <set comment="band 22">
        <r>  0.0150  0.0334  0.0042  0.0003  0.0366  0.0112  0.0338  0.0016  0.0248 </r>
        <r>  0.0346  0.0820  0.0017  0.0009  0.0648  0.0004  0.0293  0.0006  0.0437 </r>
        <r>  0.0239  0.0509  0.0033  0.0007  0.0411  0.0082  0.0356  0.0003  0.0319 </r>
        <r>  0.0134  0.0008  0.0178  0.0006  0.0007  0.0094  0.0094  0.0103  0.0606 </r>
        <r>  0.0370  0.0000  0.0000  0.0001  0.0000  0.0000  0.0000  0.0000  0.0000 </r>
       </set>
       <set comment="band 23">
        <r>  0.0316  0.0967  0.0009  0.0010  0.0430  0.0042  0.0043  0.0008  0.0226 </r>
        <r>  0.0151  0.0173  0.0215  0.0004  0.0066  0.0237  0.0181  0.0046  0.0166 </r>
        <r>  0.0218  0.0821  0.0061  0.0008  0.0305  0.0055  0.0056  0.0024  0.0135 </r>
        <r>  0.0019  0.0269  0.0371  0.0002  0.0065  0.0114  0.0011  0.0148  0.0311 </r>
        <r>  0.0535  0.0005  0.0001  0.0001  0.0000  0.0000  0.0000  0.0000  0.0000 </r>
       </set>
       <set comment="band 24">
        <r>  0.0118  0.0910  0.0052  0.0005  0.0177  0.0006  0.0066  0.0009  0.0047 </r>
        <r>  0.0046  0.0369  0.0162  0.0001  0.0061  0.0112  0.0086  0.0025  0.0034 </r>
        <r>  0.0113  0.0161  0.0261  0.0001  0.0024  0.0129  0.0124  0.0037  0.0099 </r>
        <r>  0.0095  0.1557  0.0093  0.0005  0.0214  0.0004  0.0166  0.0041  0.0503 </r>
        <r>  0.0381  0.0037  0.0000  0.0000  0.0000  0.0000  0.0000  0.0000  0.0000 </r>
       </set>
       <set comment="band 25">
        <r>  0.0130  0.0613  0.0140  0.0003  0.0075  0.0025  0.0137  0.0015  0.0120 </r>
        <r>  0.0127  0.1180  0.0145  0.0002  0.0127  0.0008  0.0311  0.0019  0.0218 </r>
        <r>  0.0135  0.0943  0.0194  0.0002  0.0100  0.0022  0.0281  0.0021  0.0212 </r>
        <r>  0.0165  0.0511  0.0113  0.0005  0.0049  0.0016  0.0117  0.0009  0.0203 </r>
        <r>  0.0032  0.0015  0.0001  0.0000  0.0000  0.0000  0.0000  0.0000  0.0000 </r>
       </set>
       <set comment="band 26">
        <r>  0.0811  0.0270  0.0100  0.0020  0.0016  0.0109  0.0088  0.0004  0.0382 </r>
        <r>  0.1423  0.0046  0.0009  0.0045  0.0002  0.0341  0.0062  0.0000  0.0638 </r>
        <r>  0.0989  0.0071  0.0043  0.0033  0.0004  0.0428  0.0052  0.0001  0.0469 </r>
        <r>  0.0224  0.0150  0.0215  0.0004  0.0009  0.0064  0.0027  0.0011  0.0084 </r>
        <r>  0.0031  0.0009  0.0002  0.0000  0.0000  0.0000  0.0000  0.0000  0.0000 </r>
       </set>
       <set comment="band 27">
        <r>  0.1767  0.0201  0.0342  0.0051  0.0009  0.0136  0.0058  0.0009  0.0672 </r>
        <r>  0.0052  0.0153  0.0287  0.0003  0.0008  0.0077  0.0006  0.0008  0.0007 </r>
        <r>  0.0779  0.0107  0.0015  0.0032  0.0005  0.0155  0.0014  0.0000  0.0312 </r>
        <r>  0.0142  0.0158  0.0118  0.0004  0.0008  0.0174  0.0006  0.0006  0.0050 </r>
        <r>  0.0028  0.0015  0.0002  0.0000  0.0000  0.0000  0.0000  0.0000  0.0000 </r>
       </set>
       <set comment="band 28">
        <r>  0.0241  0.0310  0.0686  0.0005  0.0011  0.0273  0.0013  0.0016  0.0095 </r>
        <r>  0.0503  0.0080  0.0155  0.0034  0.0003  0.0497  0.0003  0.0004  0.0208 </r>
        <r>  0.0006  0.0279  0.0550  0.0002  0.0010  0.0149  0.0013  0.0012  0.0010 </r>
        <r>  0.0412  0.0055  0.0254  0.0016  0.0002  0.0245  0.0000  0.0011  0.0117 </r>
        <r>  0.0036  0.0020  0.0010  0.0000  0.0000  0.0000  0.0000  0.0000  0.0000 </r>
       </set>
      </set>
      <set comment="kpoint 31">
       <set comment="band 1">
        <r>  0.0000  0.0000  0.0000  0.0000  0.0000  0.0000  0.0000  0.0000  0.0000 </r>
        <r>  0.0001  0.0000  0.0000  0.0000  0.0000  0.0001  0.0000  0.0000  0.0003 </r>
        <r>  0.0025  0.0021  0.0010  0.0000  0.0000  0.0110  0.0053  0.0000  0.0004 </r>
        <r>  0.1221  0.0000  0.0069  0.0000  0.0000  0.0001  0.0022  0.0000  0.5237 </r>
        <r>  0.1648  0.0000  0.0033  0.0000  0.0000  0.0000  0.0000  0.0000  0.0000 </r>
       </set>
       <set comment="band 2">
        <r>  0.0099  0.0012  0.0020  0.0000  0.0000  0.0102  0.0057  0.0000  0.0261 </r>
        <r>  0.0344  0.0021  0.0004  0.0000  0.0000  0.1073  0.0178  0.0000  0.1190 </r>
        <r>  0.0675  0.0018  0.0006  0.0000  0.0000  0.0033  0.0157  0.0000  0.2958 </r>
        <r>  0.0004  0.0046  0.0015  0.0000  0.0000  0.0964  0.0149  0.0000  0.0043 </r>
        <r>  0.0005  0.0001  0.0000  0.0000  0.0000  0.0000  0.0000  0.0000  0.0000 </r>
       </set>
       <set comment="band 3">
        <r>  0.0001  0.0068  0.0002  0.0000  0.0000  0.0704  0.0034  0.0000  0.0007 </r>
        <r>  0.0524  0.0012  0.0000  0.0000  0.0000  0.0854  0.0021  0.0000  0.3086 </r>
        <r>  0.0061  0.0043  0.0008  0.0000  0.0000  0.1924  0.0001  0.0000  0.0451 </r>
        <r>  0.0000  0.0021  0.0004  0.0000  0.0000  0.0570  0.0013  0.0000  0.0018 </r>
        <r>  0.0005  0.0000  0.0000  0.0000  0.0000  0.0000  0.0000  0.0000  0.0000 </r>
       </set>
       <set comment="band 4">
        <r>  0.0040  0.0003  0.0017  0.0000  0.0000  0.0041  0.0169  0.0000  0.0006 </r>
        <r>  0.0008  0.0001  0.0019  0.0000  0.0000  0.0922  0.0730  0.0000  0.1589 </r>
        <r>  0.0016  0.0005  0.0006  0.0000  0.0000  0.1469  0.0870  0.0000  0.2134 </r>
        <r>  0.0039  0.0006  0.0021  0.0000  0.0000  0.0343  0.0597  0.0000  0.0038 </r>
        <r>  0.0000  0.0001  0.0001  0.0000  0.0000  0.0000  0.0000  0.0000  0.0000 </r>
       </set>
       <set comment="band 5">
        <r>  0.0475  0.0007  0.0022  0.0000  0.0000  0.0146  0.0006  0.0000  0.4184 </r>
        <r>  0.0002  0.0117  0.0007  0.0000  0.0000  0.1308  0.0153  0.0000  0.0077 </r>
        <r>  0.0038  0.0021  0.0024  0.0000  0.0000  0.0204  0.0029  0.0000  0.0171 </r>
        <r>  0.0000  0.0017  0.0000  0.0000  0.0000  0.1577  0.0006  0.0000  0.0001 </r>
        <r>  0.0000  0.0002  0.0000  0.0000  0.0000  0.0000  0.0000  0.0000  0.0000 </r>
       </set>
       <set comment="band 6">
        <r>  0.0044  0.0045  0.0007  0.0000  0.0000  0.1110  0.0480  0.0000  0.2111 </r>
        <r>  0.0019  0.0000  0.0037  0.0000  0.0000  0.1300  0.0703  0.0000  0.0224 </r>
        <r>  0.0013  0.0114  0.0041  0.0000  0.0000  0.0155  0.0011  0.0000  0.0238 </r>
        <r>  0.0015  0.0003  0.0008  0.0000  0.0000  0.1945  0.0331  0.0000  0.0021 </r>
        <r>  0.0000  0.0003  0.0000  0.0000  0.0000  0.0000  0.0000  0.0000  0.0000 </r>
       </set>
       <set comment="band 7">
        <r>  0.0002  0.0024  0.0000  0.0000  0.0000  0.2158  0.0001  0.0000  0.0018 </r>
        <r>  0.0013  0.0121  0.0060  0.0000  0.0000  0.0011  0.0057  0.0000  0.0038 </r>
        <r>  0.0004  0.0001  0.0038  0.0000  0.0000  0.2304  0.0238  0.0000  0.0579 </r>
        <r>  0.0018  0.0015  0.0015  0.0000  0.0000  0.2451  0.0785  0.0000  0.0077 </r>
        <r>  0.0001  0.0007  0.0001  0.0000  0.0000  0.0000  0.0000  0.0000  0.0000 </r>
       </set>
       <set comment="band 8">
        <r>  0.0000  0.0000  0.0000  0.0001  0.0001  0.0000  0.0000  0.0068  0.0000 </r>
        <r>  0.0000  0.0000  0.0000  0.0001  0.0005  0.0000  0.0000  0.0629  0.0000 </r>
        <r>  0.0000  0.0000  0.0000  0.0002  0.0014  0.0000  0.0000  0.2124  0.0000 </r>
        <r>  0.0000  0.0000  0.0000  0.0000  0.0007  0.0000  0.0000  0.6817  0.0000 </r>
        <r>  0.0000  0.0000  0.0000  0.0032  0.0000  0.0000  0.0000  0.0000  0.0000 </r>
       </set>
       <set comment="band 9">
        <r>  0.0011  0.0001  0.0001  0.0000  0.0000  0.2128  0.0057  0.0000  0.0503 </r>
        <r>  0.0000  0.0101  0.0013  0.0000  0.0000  0.1104  0.0816  0.0000  0.0940 </r>
        <r>  0.0006  0.0060  0.0009  0.0000  0.0000  0.0144  0.1674  0.0000  0.0877 </r>
        <r>  0.0011  0.0001  0.0004  0.0000  0.0000  0.0001  0.0821  0.0000  0.0053 </r>
        <r>  0.0000  0.0000  0.0001  0.0000  0.0000  0.0000  0.0000  0.0000  0.0000 </r>
       </set>
       <set comment="band 10">
        <r>  0.0001  0.0001  0.0010  0.0000  0.0000  0.0148  0.0624  0.0000  0.0505 </r>
        <r>  0.0027  0.0072  0.0037  0.0000  0.0000  0.0299  0.1567  0.0000  0.0199 </r>
        <r>  0.0000  0.0225  0.0005  0.0000  0.0000  0.0726  0.0010  0.0000  0.0002 </r>
        <r>  0.0087  0.0001  0.0009  0.0000  0.0000  0.0024  0.4508  0.0000  0.0054 </r>
        <r>  0.0085  0.0000  0.0003  0.0000  0.0000  0.0000  0.0000  0.0000  0.0000 </r>
       </set>
       <set comment="band 11">
        <r>  0.0000  0.0000  0.0000  0.0006  0.0009  0.0000  0.0000  0.1536  0.0000 </r>
        <r>  0.0000  0.0000  0.0000  0.0000  0.0021  0.0000  0.0000  0.5092  0.0000 </r>
        <r>  0.0000  0.0000  0.0000  0.0013  0.0005  0.0000  0.0000  0.1043  0.0000 </r>
        <r>  0.0000  0.0000  0.0000  0.0002  0.0001  0.0000  0.0000  0.1964  0.0000 </r>
        <r>  0.0000  0.0000  0.0000  0.0010  0.0000  0.0000  0.0000  0.0000  0.0000 </r>
       </set>
       <set comment="band 12">
        <r>  0.0091  0.0006  0.0021  0.0000  0.0000  0.0561  0.2883  0.0000  0.0017 </r>
        <r>  0.0000  0.0365  0.0046  0.0000  0.0000  0.0110  0.0000  0.0000  0.0003 </r>
        <r>  0.0103  0.0001  0.0010  0.0000  0.0000  0.0096  0.3411  0.0000  0.0085 </r>
        <r>  0.0009  0.0111  0.0028  0.0000  0.0000  0.0552  0.0472  0.0000  0.0002 </r>
        <r>  0.0059  0.0005  0.0000  0.0000  0.0000  0.0000  0.0000  0.0000  0.0000 </r>
       </set>
       <set comment="band 13">
        <r>  0.0000  0.0000  0.0000  0.0001  0.0003  0.0000  0.0000  0.3682  0.0000 </r>
        <r>  0.0000  0.0000  0.0000  0.0021  0.0000  0.0000  0.0000  0.0224  0.0000 </r>
        <r>  0.0000  0.0000  0.0000  0.0000  0.0000  0.0000  0.0000  0.4624  0.0000 </r>
        <r>  0.0000  0.0000  0.0000  0.0006  0.0417  0.0000  0.0000  0.0809  0.0000 </r>
        <r>  0.0000  0.0000  0.0000  0.0005  0.0000  0.0000  0.0000  0.0000  0.0000 </r>
       </set>
       <set comment="band 14">
        <r>  0.0004  0.0136  0.0000  0.0000  0.0000  0.1471  0.0583  0.0000  0.0017 </r>
        <r>  0.0023  0.0011  0.0000  0.0000  0.0000  0.0494  0.3272  0.0000  0.0104 </r>
        <r>  0.0000  0.0157  0.0002  0.0000  0.0000  0.1294  0.0225  0.0000  0.0043 </r>
        <r>  0.0001  0.0106  0.0065  0.0000  0.0000  0.0228  0.0929  0.0000  0.0000 </r>
        <r>  0.0064  0.0003  0.0001  0.0000  0.0000  0.0000  0.0000  0.0000  0.0000 </r>
       </set>
       <set comment="band 15">
        <r>  0.0000  0.0000  0.0000  0.0000  0.0000  0.0000  0.0000  0.0222  0.0000 </r>
        <r>  0.0000  0.0000  0.0000  0.0001  0.0000  0.0000  0.0000  0.0002  0.0000 </r>
        <r>  0.0000  0.0000  0.0000  0.0000  0.0014  0.0000  0.0000  0.0200  0.0000 </r>
        <r>  0.0000  0.0000  0.0000  0.0000  0.9482  0.0000  0.0000  0.0013  0.0000 </r>
        <r>  0.0000  0.0000  0.0000  0.0000  0.0000  0.0000  0.0000  0.0000  0.0000 </r>
       </set>
       <set comment="band 16">
        <r>  0.0035  0.0021  0.0009  0.0000  0.0000  0.0084  0.3777  0.0000  0.0425 </r>
        <r>  0.0005  0.0039  0.0001  0.0000  0.0000  0.0995  0.1035  0.0000  0.0477 </r>
        <r>  0.0004  0.0002  0.0050  0.0000  0.0000  0.0026  0.1767  0.0000  0.0367 </r>
        <r>  0.0000  0.0143  0.0023  0.0000  0.0000  0.0135  0.0060  0.0000  0.0001 </r>
        <r>  0.0025  0.0004  0.0000  0.0000  0.0000  0.0000  0.0000  0.0000  0.0000 </r>
       </set>
       <set comment="band 17">
        <r>  0.0000  0.0000  0.0000  0.0003  0.0020  0.0000  0.0000  0.3715  0.0000 </r>
        <r>  0.0000  0.0000  0.0000  0.0001  0.0860  0.0000  0.0000  0.3390  0.0000 </r>
        <r>  0.0000  0.0000  0.0000  0.0003  0.0279  0.0000  0.0000  0.1499  0.0000 </r>
        <r>  0.0000  0.0000  0.0000  0.0002  0.0014  0.0000  0.0000  0.0101  0.0000 </r>
        <r>  0.0000  0.0000  0.0000  0.0001  0.0000  0.0000  0.0000  0.0000  0.0000 </r>
       </set>
       <set comment="band 18">
        <r>  0.0000  0.0000  0.0000  0.0000  0.0035  0.0000  0.0000  0.0051  0.0000 </r>
        <r>  0.0000  0.0000  0.0000  0.0000  0.4194  0.0000  0.0000  0.0000  0.0000 </r>
        <r>  0.0000  0.0000  0.0000  0.0000  0.5614  0.0000  0.0000  0.0035  0.0000 </r>
        <r>  0.0000  0.0000  0.0000  0.0000  0.0008  0.0000  0.0000  0.0001  0.0000 </r>
        <r>  0.0000  0.0000  0.0000  0.0000  0.0000  0.0000  0.0000  0.0000  0.0000 </r>
       </set>
       <set comment="band 19">
        <r>  0.0000  0.0000  0.0000  0.0001  0.0158  0.0000  0.0000  0.0467  0.0000 </r>
        <r>  0.0000  0.0000  0.0000  0.0000  0.4730  0.0000  0.0000  0.0342  0.0000 </r>
        <r>  0.0000  0.0000  0.0000  0.0000  0.4009  0.0000  0.0000  0.0194  0.0000 </r>
        <r>  0.0000  0.0000  0.0000  0.0000  0.0013  0.0000  0.0000  0.0027  0.0000 </r>
        <r>  0.0000  0.0000  0.0000  0.0000  0.0000  0.0000  0.0000  0.0000  0.0000 </r>
       </set>
       <set comment="band 20">
        <r>  0.0000  0.0000  0.0000  0.0000  0.9716  0.0000  0.0000  0.0012  0.0000 </r>
        <r>  0.0000  0.0000  0.0000  0.0000  0.0133  0.0000  0.0000  0.0059  0.0000 </r>
        <r>  0.0000  0.0000  0.0000  0.0000  0.0007  0.0000  0.0000  0.0015  0.0000 </r>
        <r>  0.0000  0.0000  0.0000  0.0000  0.0000  0.0000  0.0000  0.0001  0.0000 </r>
        <r>  0.0000  0.0000  0.0000  0.0000  0.0000  0.0000  0.0000  0.0000  0.0000 </r>
       </set>
       <set comment="band 21">
        <r>  0.0023  0.0485  0.0042  0.0000  0.0000  0.0221  0.0483  0.0000  0.0142 </r>
        <r>  0.0012  0.0910  0.0117  0.0000  0.0000  0.0091  0.0138  0.0000  0.0044 </r>
        <r>  0.0000  0.1335  0.0113  0.0000  0.0000  0.0004  0.0001  0.0000  0.0001 </r>
        <r>  0.0000  0.1151  0.0152  0.0000  0.0000  0.0069  0.0071  0.0000  0.0035 </r>
        <r>  0.0135  0.0027  0.0000  0.0000  0.0000  0.0000  0.0000  0.0000  0.0000 </r>
       </set>
       <set comment="band 22">
        <r>  0.0002  0.0013  0.0002  0.0000  0.0000  0.0003  0.0015  0.0000  0.0007 </r>
        <r>  0.0001  0.0039  0.0000  0.0000  0.0000  0.0000  0.0003  0.0000  0.0004 </r>
        <r>  0.0004  0.0001  0.0020  0.0000  0.0000  0.0004  0.0024  0.0000  0.0005 </r>
        <r>  0.0912  0.0069  0.0459  0.0000  0.0000  0.0001  0.0721  0.0000  0.4044 </r>
        <r>  0.1884  0.0002  0.0001  0.0000  0.0000  0.0000  0.0000  0.0000  0.0000 </r>
       </set>
       <set comment="band 23">
        <r>  0.0039  0.0810  0.0032  0.0000  0.0000  0.0062  0.0144  0.0000  0.0087 </r>
        <r>  0.0105  0.0793  0.0010  0.0000  0.0000  0.0068  0.0264  0.0000  0.0182 </r>
        <r>  0.0438  0.0015  0.0003  0.0000  0.0000  0.0224  0.1088  0.0000  0.0786 </r>
        <r>  0.0003  0.1503  0.0001  0.0000  0.0000  0.0002  0.0003  0.0000  0.0004 </r>
        <r>  0.0000  0.0037  0.0000  0.0000  0.0000  0.0000  0.0000  0.0000  0.0000 </r>
       </set>
       <set comment="band 24">
        <r>  0.0001  0.0760  0.0000  0.0000  0.0000  0.0010  0.0001  0.0000  0.0001 </r>
        <r>  0.0624  0.0024  0.0011  0.0000  0.0000  0.0111  0.0797  0.0000  0.0821 </r>
        <r>  0.0078  0.1363  0.0198  0.0000  0.0000  0.0007  0.0102  0.0000  0.0105 </r>
        <r>  0.0195  0.0819  0.0202  0.0000  0.0000  0.0026  0.0209  0.0000  0.0181 </r>
        <r>  0.0015  0.0021  0.0001  0.0000  0.0000  0.0000  0.0000  0.0000  0.0000 </r>
       </set>
       <set comment="band 25">
        <r>  0.0360  0.1621  0.0163  0.0000  0.0000  0.0000  0.0369  0.0000  0.0455 </r>
        <r>  0.0062  0.1184  0.0519  0.0000  0.0000  0.0010  0.0054  0.0000  0.0062 </r>
        <r>  0.0118  0.0469  0.0245  0.0000  0.0000  0.0018  0.0095  0.0000  0.0129 </r>
        <r>  0.0060  0.0091  0.0070  0.0000  0.0000  0.0008  0.0047  0.0000  0.0044 </r>
        <r>  0.0008  0.0002  0.0000  0.0000  0.0000  0.0000  0.0000  0.0000  0.0000 </r>
       </set>
       <set comment="band 26">
        <r>  0.1042  0.0223  0.0008  0.0000  0.0000  0.0068  0.0079  0.0000  0.0484 </r>
        <r>  0.1078  0.0001  0.0037  0.0000  0.0000  0.0589  0.0050  0.0000  0.0526 </r>
        <r>  0.1465  0.0014  0.0026  0.0000  0.0000  0.0389  0.0075  0.0000  0.0687 </r>
        <r>  0.0179  0.0129  0.0181  0.0000  0.0000  0.0096  0.0017  0.0000  0.0056 </r>
        <r>  0.0027  0.0008  0.0002  0.0000  0.0000  0.0000  0.0000  0.0000  0.0000 </r>
       </set>
       <set comment="band 27">
        <r>  0.2246  0.0027  0.0353  0.0000  0.0000  0.0016  0.0042  0.0000  0.0818 </r>
        <r>  0.0080  0.0375  0.0088  0.0000  0.0000  0.0052  0.0002  0.0000  0.0026 </r>
        <r>  0.0396  0.0007  0.0107  0.0000  0.0000  0.0367  0.0002  0.0000  0.0162 </r>
        <r>  0.0275  0.0082  0.0240  0.0000  0.0000  0.0121  0.0008  0.0000  0.0074 </r>
        <r>  0.0037  0.0008  0.0003  0.0000  0.0000  0.0000  0.0000  0.0000  0.0000 </r>
       </set>
       <set comment="band 28">
        <r>  0.0092  0.0247  0.0575  0.0000  0.0000  0.0391  0.0001  0.0000  0.0020 </r>
        <r>  0.1448  0.0022  0.0087  0.0000  0.0000  0.0078  0.0002  0.0000  0.0474 </r>
        <r>  0.0438  0.0355  0.0380  0.0000  0.0000  0.0004  0.0000  0.0000  0.0132 </r>
        <r>  0.0119  0.0114  0.0080  0.0000  0.0000  0.0549  0.0000  0.0000  0.0033 </r>
        <r>  0.0014  0.0033  0.0002  0.0000  0.0000  0.0000  0.0000  0.0000  0.0000 </r>
       </set>
      </set>
     </set>
    </set>
   </array>
  </projected>
 </calculation>
 <structure name="finalpos" >
  <crystal>
   <varray name="basis" >
    <v>       2.57386868       0.00000000       0.00000000 </v>
    <v>       1.28693434       2.22903567       0.00000000 </v>
    <v>       0.00000000       0.00000000      30.30466494 </v>
   </varray>
   <i name="volume">    173.86529028 </i>
   <varray name="rec_basis" >
    <v>       0.38852021      -0.22431225       0.00000000 </v>
    <v>       0.00000000       0.44862450       0.00000000 </v>
    <v>       0.00000000       0.00000000       0.03299822 </v>
   </varray>
  </crystal>
  <varray name="positions" >
   <v>       0.99970615       0.00058770       0.39656700 </v>
   <v>       0.33318627       0.33362409       0.46513961 </v>
   <v>       0.66582910       0.66834283       0.53359442 </v>
   <v>       0.00080079       0.99839841       0.60421589 </v>
   <v>       0.50047610       0.99904443       0.63420302 </v>
  </varray>
 </structure>
</modeling>
