  20  20   0   0
  0.2336395E+02  0.5522883E-09  0.3905268E-09  0.2166505E-08  0.5000000E-15
  1.000000000000000E-004
  CAR 
 unknown system                          
      6.57275538    -38.64323351  301     -0.76468808      1.00000000
    -38.643  0.0000E+00  0.0000E+00
    -38.493  0.0000E+00  0.0000E+00
    -38.342  0.0000E+00  0.0000E+00
    -38.191  0.0000E+00  0.0000E+00
    -38.040  0.0000E+00  0.0000E+00
    -37.890  0.0000E+00  0.0000E+00
    -37.739  0.0000E+00  0.0000E+00
    -37.588  0.0000E+00  0.0000E+00
    -37.437  0.0000E+00  0.0000E+00
    -37.287  0.0000E+00  0.0000E+00
    -37.136  0.0000E+00  0.0000E+00
    -36.985  0.0000E+00  0.0000E+00
    -36.835  0.0000E+00  0.0000E+00
    -36.684  0.0000E+00  0.0000E+00
    -36.533  0.0000E+00  0.2000E+01
    -36.382  0.0000E+00  0.2000E+01
    -36.232  0.0000E+00  0.2000E+01
    -36.081  0.0000E+00  0.2000E+01
    -35.930  0.0000E+00  0.2000E+01
    -35.780  0.0000E+00  0.2000E+01
    -35.629  0.0000E+00  0.2000E+01
    -35.478  0.0000E+00  0.2000E+01
    -35.327  0.0000E+00  0.2000E+01
    -35.177  0.0000E+00  0.4000E+01
    -35.026  0.0000E+00  0.4000E+01
    -34.875  0.0000E+00  0.4000E+01
    -34.725  0.0000E+00  0.4000E+01
    -34.574  0.0000E+00  0.4000E+01
    -34.423  0.0000E+00  0.4000E+01
    -34.272  0.0000E+00  0.6000E+01
    -34.122  0.0000E+00  0.6000E+01
    -33.971  0.0000E+00  0.6000E+01
    -33.820  0.0000E+00  0.6000E+01
    -33.669  0.0000E+00  0.6000E+01
    -33.519  0.0000E+00  0.6000E+01
    -33.368  0.0000E+00  0.8000E+01
    -33.217  0.0000E+00  0.8000E+01
    -33.067  0.0000E+00  0.8000E+01
    -32.916  0.0000E+00  0.8000E+01
    -32.765  0.0000E+00  0.8000E+01
    -32.614  0.0000E+00  0.8000E+01
    -32.464  0.0000E+00  0.8000E+01
    -32.313  0.0000E+00  0.8000E+01
    -32.162  0.0000E+00  0.8000E+01
    -32.012  0.0000E+00  0.8000E+01
    -31.861  0.0000E+00  0.8000E+01
    -31.710  0.0000E+00  0.8000E+01
    -31.559  0.0000E+00  0.8000E+01
    -31.409  0.0000E+00  0.8000E+01
    -31.258  0.0000E+00  0.8000E+01
    -31.107  0.0000E+00  0.8000E+01
    -30.957  0.0000E+00  0.8000E+01
    -30.806  0.0000E+00  0.8000E+01
    -30.655  0.0000E+00  0.8000E+01
    -30.504  0.0000E+00  0.8000E+01
    -30.354  0.0000E+00  0.8000E+01
    -30.203  0.0000E+00  0.8000E+01
    -30.052  0.0000E+00  0.8000E+01
    -29.901  0.0000E+00  0.8000E+01
    -29.751  0.0000E+00  0.8000E+01
    -29.600  0.0000E+00  0.8000E+01
    -29.449  0.0000E+00  0.8000E+01
    -29.299  0.0000E+00  0.8000E+01
    -29.148  0.0000E+00  0.8000E+01
    -28.997  0.0000E+00  0.8000E+01
    -28.846  0.0000E+00  0.8000E+01
    -28.696  0.0000E+00  0.8000E+01
    -28.545  0.0000E+00  0.8000E+01
    -28.394  0.0000E+00  0.8000E+01
    -28.244  0.0000E+00  0.8000E+01
    -28.093  0.0000E+00  0.8000E+01
    -27.942  0.0000E+00  0.8000E+01
    -27.791  0.0000E+00  0.8000E+01
    -27.641  0.0000E+00  0.8000E+01
    -27.490  0.0000E+00  0.8000E+01
    -27.339  0.0000E+00  0.8000E+01
    -27.189  0.0000E+00  0.8000E+01
    -27.038  0.0000E+00  0.8000E+01
    -26.887  0.0000E+00  0.8000E+01
    -26.736  0.0000E+00  0.8000E+01
    -26.586  0.0000E+00  0.8000E+01
    -26.435  0.0000E+00  0.8000E+01
    -26.284  0.0000E+00  0.8000E+01
    -26.133  0.0000E+00  0.8000E+01
    -25.983  0.0000E+00  0.8000E+01
    -25.832  0.0000E+00  0.8000E+01
    -25.681  0.0000E+00  0.8000E+01
    -25.531  0.0000E+00  0.8000E+01
    -25.380  0.0000E+00  0.8000E+01
    -25.229  0.0000E+00  0.8000E+01
    -25.078  0.0000E+00  0.8000E+01
    -24.928  0.0000E+00  0.8000E+01
    -24.777  0.0000E+00  0.8000E+01
    -24.626  0.0000E+00  0.8000E+01
    -24.476  0.0000E+00  0.8000E+01
    -24.325  0.0000E+00  0.8000E+01
    -24.174  0.0000E+00  0.8000E+01
    -24.023  0.0000E+00  0.8000E+01
    -23.873  0.0000E+00  0.8000E+01
    -23.722  0.0000E+00  0.8000E+01
    -23.571  0.0000E+00  0.8000E+01
    -23.421  0.0000E+00  0.8000E+01
    -23.270  0.0000E+00  0.8000E+01
    -23.119  0.0000E+00  0.8000E+01
    -22.968  0.0000E+00  0.8000E+01
    -22.818  0.0000E+00  0.8000E+01
    -22.667  0.0000E+00  0.8000E+01
    -22.516  0.0000E+00  0.8000E+01
    -22.365  0.0000E+00  0.8000E+01
    -22.215  0.0000E+00  0.8000E+01
    -22.064  0.0000E+00  0.8000E+01
    -21.913  0.0000E+00  0.8000E+01
    -21.763  0.0000E+00  0.8000E+01
    -21.612  0.0000E+00  0.8000E+01
    -21.461  0.0000E+00  0.8000E+01
    -21.310  0.0000E+00  0.8000E+01
    -21.160  0.0000E+00  0.8000E+01
    -21.009  0.0000E+00  0.8000E+01
    -20.858  0.0000E+00  0.8000E+01
    -20.708  0.0000E+00  0.8000E+01
    -20.557  0.3557E+01  0.8282E+01
    -20.406  0.4176E+01  0.8968E+01
    -20.255  0.6382E+01  0.9930E+01
    -20.105  0.4962E+01  0.1080E+02
    -19.954  0.3114E+01  0.1154E+02
    -19.803  0.5197E+01  0.1199E+02
    -19.653  0.8683E+01  0.1365E+02
    -19.502  0.0000E+00  0.1400E+02
    -19.351  0.5581E-01  0.1400E+02
    -19.200  0.1191E+02  0.1568E+02
    -19.050  0.6583E+01  0.1763E+02
    -18.899  0.0000E+00  0.1800E+02
    -18.748  0.0000E+00  0.1800E+02
    -18.597  0.1170E+02  0.1992E+02
    -18.447  0.1475E+02  0.2319E+02
    -18.296  0.2437E+02  0.2658E+02
    -18.145  0.1356E+02  0.2864E+02
    -17.995  0.0000E+00  0.3000E+02
    -17.844  0.0000E+00  0.3000E+02
    -17.693  0.4874E+01  0.3161E+02
    -17.542  0.0000E+00  0.3200E+02
    -17.392  0.1530E+01  0.3204E+02
    -17.241  0.3414E+02  0.3409E+02
    -17.090  0.2260E+02  0.3760E+02
    -16.940  0.0000E+00  0.4000E+02
    -16.789  0.0000E+00  0.4000E+02
    -16.638  0.0000E+00  0.4000E+02
    -16.487  0.5776E+01  0.4170E+02
    -16.337  0.3417E+02  0.4242E+02
    -16.186  0.1870E+02  0.4562E+02
    -16.035  0.1296E+02  0.4858E+02
    -15.885  0.0000E+00  0.5000E+02
    -15.734  0.0000E+00  0.5000E+02
    -15.583  0.0000E+00  0.5000E+02
    -15.432  0.1094E+02  0.5051E+02
    -15.282  0.4252E+01  0.5255E+02
    -15.131  0.1520E+02  0.5455E+02
    -14.980  0.0000E+00  0.5600E+02
    -14.829  0.0000E+00  0.5600E+02
    -14.679  0.0000E+00  0.5600E+02
    -14.528  0.0000E+00  0.5600E+02
    -14.377  0.0000E+00  0.5600E+02
    -14.227  0.0000E+00  0.5600E+02
    -14.076  0.0000E+00  0.5600E+02
    -13.925  0.0000E+00  0.5600E+02
    -13.774  0.0000E+00  0.5600E+02
    -13.624  0.0000E+00  0.5600E+02
    -13.473  0.0000E+00  0.5600E+02
    -13.322  0.0000E+00  0.5600E+02
    -13.172  0.0000E+00  0.5600E+02
    -13.021  0.0000E+00  0.5600E+02
    -12.870  0.0000E+00  0.5600E+02
    -12.719  0.0000E+00  0.5600E+02
    -12.569  0.0000E+00  0.5600E+02
    -12.418  0.0000E+00  0.5600E+02
    -12.267  0.0000E+00  0.5600E+02
    -12.117  0.0000E+00  0.5600E+02
    -11.966  0.0000E+00  0.5600E+02
    -11.815  0.0000E+00  0.5600E+02
    -11.664  0.0000E+00  0.5600E+02
    -11.514  0.0000E+00  0.5600E+02
    -11.363  0.0000E+00  0.5600E+02
    -11.212  0.0000E+00  0.5600E+02
    -11.061  0.0000E+00  0.5600E+02
    -10.911  0.0000E+00  0.5600E+02
    -10.760  0.0000E+00  0.5600E+02
    -10.609  0.0000E+00  0.5600E+02
    -10.459  0.0000E+00  0.5600E+02
    -10.308  0.0000E+00  0.5600E+02
    -10.157  0.0000E+00  0.5600E+02
    -10.006  0.0000E+00  0.5600E+02
     -9.856  0.0000E+00  0.5600E+02
     -9.705  0.0000E+00  0.5600E+02
     -9.554  0.0000E+00  0.5600E+02
     -9.404  0.0000E+00  0.5600E+02
     -9.253  0.0000E+00  0.5600E+02
     -9.102  0.0000E+00  0.5600E+02
     -8.951  0.0000E+00  0.5600E+02
     -8.801  0.0000E+00  0.5600E+02
     -8.650  0.0000E+00  0.5600E+02
     -8.499  0.0000E+00  0.5600E+02
     -8.349  0.0000E+00  0.5600E+02
     -8.198  0.0000E+00  0.5600E+02
     -8.047  0.0000E+00  0.5600E+02
     -7.896  0.0000E+00  0.5600E+02
     -7.746  0.0000E+00  0.5600E+02
     -7.595  0.6002E+01  0.5614E+02
     -7.444  0.9677E+00  0.5643E+02
     -7.293  0.9672E+00  0.5658E+02
     -7.143  0.9667E+00  0.5672E+02
     -6.992  0.9514E+01  0.5741E+02
     -6.841  0.9554E+01  0.5924E+02
     -6.691  0.8694E+01  0.6121E+02
     -6.540  0.1154E+02  0.6343E+02
     -6.389  0.6872E+01  0.6462E+02
     -6.238  0.5668E+01  0.6564E+02
     -6.088  0.6660E+01  0.6657E+02
     -5.937  0.9091E+01  0.6814E+02
     -5.786  0.1144E+02  0.7017E+02
     -5.636  0.8927E+01  0.7188E+02
     -5.485  0.1039E+02  0.7409E+02
     -5.334  0.1192E+02  0.7603E+02
     -5.183  0.1512E+02  0.7816E+02
     -5.033  0.1439E+02  0.8057E+02
     -4.882  0.1184E+02  0.8270E+02
     -4.731  0.1506E+02  0.8492E+02
     -4.581  0.8701E+01  0.8707E+02
     -4.430  0.9186E+01  0.8841E+02
     -4.279  0.1436E+02  0.9023E+02
     -4.128  0.1952E+02  0.9255E+02
     -3.978  0.9399E+01  0.9504E+02
     -3.827  0.1564E+02  0.9681E+02
     -3.676  0.9930E+01  0.9907E+02
     -3.525  0.1418E+02  0.1007E+03
     -3.375  0.9525E+01  0.1024E+03
     -3.224  0.6071E+01  0.1035E+03
     -3.073  0.1304E+02  0.1049E+03
     -2.923  0.1216E+02  0.1065E+03
     -2.772  0.1574E+02  0.1098E+03
     -2.621  0.6271E+01  0.1112E+03
     -2.470  0.1323E+01  0.1119E+03
     -2.320  0.1162E+02  0.1127E+03
     -2.169  0.7486E+01  0.1140E+03
     -2.018  0.1050E+02  0.1158E+03
     -1.868  0.3105E+01  0.1178E+03
     -1.717  0.8068E+01  0.1183E+03
     -1.566  0.6079E+01  0.1193E+03
     -1.415  0.3254E+01  0.1200E+03
     -1.265  0.1449E+02  0.1211E+03
     -1.114  0.4319E+01  0.1228E+03
     -0.963  0.1721E+02  0.1247E+03
     -0.813  0.1476E+02  0.1271E+03
     -0.662  0.1240E+02  0.1304E+03
     -0.511  0.7511E+01  0.1317E+03
     -0.360  0.8365E+01  0.1330E+03
     -0.210  0.4088E+01  0.1339E+03
     -0.059  0.3338E+01  0.1345E+03
      0.092  0.7597E+01  0.1352E+03
      0.243  0.2600E+01  0.1359E+03
      0.393  0.7469E+01  0.1365E+03
      0.544  0.7142E+01  0.1377E+03
      0.695  0.8521E+01  0.1388E+03
      0.845  0.7656E+01  0.1401E+03
      0.996  0.5623E+01  0.1412E+03
      1.147  0.3299E+01  0.1420E+03
      1.298  0.3270E+01  0.1425E+03
      1.448  0.4037E+01  0.1440E+03
      1.599  0.3724E+01  0.1445E+03
      1.750  0.3800E+01  0.1451E+03
      1.900  0.3327E+01  0.1460E+03
      2.051  0.2950E+01  0.1465E+03
      2.202  0.3093E+01  0.1469E+03
      2.353  0.2265E+01  0.1476E+03
      2.503  0.2277E+01  0.1480E+03
      2.654  0.4851E+01  0.1484E+03
      2.805  0.3534E+01  0.1493E+03
      2.955  0.2877E+01  0.1498E+03
      3.106  0.2971E+01  0.1502E+03
      3.257  0.3059E+01  0.1508E+03
      3.408  0.2050E+01  0.1512E+03
      3.558  0.4850E+00  0.1514E+03
      3.709  0.4605E+00  0.1515E+03
      3.860  0.4359E+00  0.1516E+03
      4.011  0.4113E+00  0.1516E+03
      4.161  0.1086E+01  0.1517E+03
      4.312  0.9360E+00  0.1519E+03
      4.463  0.2496E+00  0.1520E+03
      4.613  0.0000E+00  0.1520E+03
      4.764  0.0000E+00  0.1520E+03
      4.915  0.0000E+00  0.1520E+03
      5.066  0.0000E+00  0.1520E+03
      5.216  0.0000E+00  0.1520E+03
      5.367  0.0000E+00  0.1520E+03
      5.518  0.0000E+00  0.1520E+03
      5.668  0.0000E+00  0.1520E+03
      5.819  0.0000E+00  0.1520E+03
      5.970  0.0000E+00  0.1520E+03
      6.121  0.0000E+00  0.1520E+03
      6.271  0.0000E+00  0.1520E+03
      6.422  0.0000E+00  0.1520E+03
      6.573  0.0000E+00  0.1520E+03
