   20   20    1    1
  0.2336395E+02  0.5522883E-09  0.3905268E-09  0.2166505E-08  0.5000000E-15
  1.000000000000000E-004
  CAR 
 unknown system                          
    128     12     76
 
  0.0000000E+00  0.0000000E+00  0.0000000E+00  0.2857143E-01
    1      -36.587961   1.000000
    2      -35.263413   1.000000
    3      -34.301685   1.000000
    4      -33.412002   1.000000
    5      -20.505406   1.000000
    6      -20.033148   1.000000
    7      -19.845399   1.000000
    8      -19.351192   1.000000
    9      -19.038944   1.000000
   10      -18.672286   1.000000
   11      -18.585921   1.000000
   12      -18.529611   1.000000
   13      -18.514380   1.000000
   14      -18.339218   1.000000
   15      -18.086139   1.000000
   16      -17.820344   1.000000
   17      -17.305497   1.000000
   18      -17.284798   1.000000
   19      -17.127771   1.000000
   20      -17.046817   1.000000
   21      -16.514580   1.000000
   22      -16.339139   1.000000
   23      -16.286446   1.000000
   24      -16.153392   1.000000
   25      -16.085924   1.000000
   26      -15.430329   1.000000
   27      -15.162912   1.000000
   28      -15.112177   1.000000
   29       -7.105472   1.000000
   30       -6.794559   1.000000
   31       -6.631274   1.000000
   32       -6.006917   1.000000
   33       -5.884247   1.000000
   34       -5.532718   1.000000
   35       -5.441764   1.000000
   36       -5.292586   1.000000
   37       -5.146261   1.000000
   38       -5.062742   1.000000
   39       -4.993856   1.000000
   40       -4.853154   1.000000
   41       -4.766312   1.000000
   42       -4.576542   1.000000
   43       -4.242091   1.000000
   44       -4.117776   1.000000
   45       -4.075517   1.000000
   46       -3.991761   1.000000
   47       -3.801265   1.000000
   48       -3.763166   1.000000
   49       -3.539479   1.000000
   50       -3.245939   1.000000
   51       -3.012120   1.000000
   52       -2.918967   1.000000
   53       -2.906758   1.000000
   54       -2.694181   1.000000
   55       -2.659972   1.000000
   56       -2.385857   1.000000
   57       -2.292624   1.000000
   58       -1.950608   1.000000
   59       -1.910556   1.000000
   60       -1.366814   1.000000
   61       -1.340375   1.000000
   62       -1.083284   1.000000
   63       -1.077613   1.000000
   64       -1.039639   1.000000
   65       -0.866804   1.120437
   66       -0.777970   0.233977
   67       -0.751236   0.000000
   68       -0.513103   0.000000
   69        0.068294   0.000000
   70        0.294773   0.000000
   71        0.391891   0.000000
   72        0.654858   0.000000
   73        1.301968   0.000000
   74        1.678557   0.000000
   75        2.699451   0.000000
   76        4.144511   0.000000
 
  0.2000000E+00  0.0000000E+00  0.0000000E+00  0.5714286E-01
    1      -36.587660   1.000000
    2      -35.263081   1.000000
    3      -34.301357   1.000000
    4      -33.411737   1.000000
    5      -20.565654   1.000000
    6      -20.188066   1.000000
    7      -19.718529   1.000000
    8      -19.339644   1.000000
    9      -19.118369   1.000000
   10      -18.709042   1.000000
   11      -18.586255   1.000000
   12      -18.465019   1.000000
   13      -18.394242   1.000000
   14      -18.346528   1.000000
   15      -18.156968   1.000000
   16      -17.786731   1.000000
   17      -17.306131   1.000000
   18      -17.270137   1.000000
   19      -17.087658   1.000000
   20      -17.054521   1.000000
   21      -16.486867   1.000000
   22      -16.339815   1.000000
   23      -16.287229   1.000000
   24      -16.129428   1.000000
   25      -16.025934   1.000000
   26      -15.431246   1.000000
   27      -15.168742   1.000000
   28      -15.093459   1.000000
   29       -6.935670   1.000000
   30       -6.751333   1.000000
   31       -6.660438   1.000000
   32       -5.979615   1.000000
   33       -5.743610   1.000000
   34       -5.604862   1.000000
   35       -5.536135   1.000000
   36       -5.338005   1.000000
   37       -5.179281   1.000000
   38       -5.129158   1.000000
   39       -4.919566   1.000000
   40       -4.768143   1.000000
   41       -4.694714   1.000000
   42       -4.635237   1.000000
   43       -4.364264   1.000000
   44       -4.342729   1.000000
   45       -4.073508   1.000000
   46       -4.031263   1.000000
   47       -3.951825   1.000000
   48       -3.735422   1.000000
   49       -3.501371   1.000000
   50       -3.357809   1.000000
   51       -3.183095   1.000000
   52       -3.023953   1.000000
   53       -2.930870   1.000000
   54       -2.789082   1.000000
   55       -2.608472   1.000000
   56       -2.517019   1.000000
   57       -2.298632   1.000000
   58       -2.198322   1.000000
   59       -1.888522   1.000000
   60       -1.408431   1.000000
   61       -1.386116   1.000000
   62       -1.097305   1.000000
   63       -1.071474   1.000000
   64       -0.963555   1.000000
   65       -0.869035   1.082398
   66       -0.741662   0.049457
   67       -0.721533   0.000000
   68       -0.618999   0.000000
   69        0.087463   0.000000
   70        0.333302   0.000000
   71        0.369561   0.000000
   72        0.819775   0.000000
   73        1.303589   0.000000
   74        2.630300   0.000000
   75        2.665585   0.000000
   76        4.181791   0.000000
 
  0.4000000E+00  0.0000000E+00  0.0000000E+00  0.5714286E-01
    1      -36.587172   1.000000
    2      -35.262545   1.000000
    3      -34.300828   1.000000
    4      -33.411309   1.000000
    5      -20.666815   1.000000
    6      -20.299412   1.000000
    7      -19.669012   1.000000
    8      -19.297131   1.000000
    9      -19.224426   1.000000
   10      -18.720283   1.000000
   11      -18.586792   1.000000
   12      -18.378267   1.000000
   13      -18.343143   1.000000
   14      -18.287720   1.000000
   15      -18.222723   1.000000
   16      -17.763231   1.000000
   17      -17.307156   1.000000
   18      -17.256238   1.000000
   19      -17.059058   1.000000
   20      -17.020939   1.000000
   21      -16.416618   1.000000
   22      -16.340904   1.000000
   23      -16.307417   1.000000
   24      -16.056667   1.000000
   25      -15.980739   1.000000
   26      -15.432726   1.000000
   27      -15.169796   1.000000
   28      -15.056685   1.000000
   29       -6.824455   1.000000
   30       -6.706559   1.000000
   31       -6.300046   1.000000
   32       -5.920150   1.000000
   33       -5.818262   1.000000
   34       -5.667803   1.000000
   35       -5.608623   1.000000
   36       -5.489288   1.000000
   37       -5.308265   1.000000
   38       -5.106384   1.000000
   39       -4.798038   1.000000
   40       -4.777249   1.000000
   41       -4.682496   1.000000
   42       -4.634012   1.000000
   43       -4.564364   1.000000
   44       -4.498823   1.000000
   45       -4.125225   1.000000
   46       -4.107707   1.000000
   47       -3.891591   1.000000
   48       -3.885101   1.000000
   49       -3.669088   1.000000
   50       -3.510173   1.000000
   51       -3.344851   1.000000
   52       -3.103174   1.000000
   53       -3.063370   1.000000
   54       -3.001275   1.000000
   55       -2.758485   1.000000
   56       -2.502473   1.000000
   57       -2.362438   1.000000
   58       -2.313047   1.000000
   59       -1.744020   1.000000
   60       -1.544954   1.000000
   61       -1.456282   1.000000
   62       -1.194727   1.000000
   63       -1.058629   1.000000
   64       -1.023094   1.000000
   65       -0.849782   1.013606
   66       -0.810675   0.607188
   67       -0.740801   0.000000
   68       -0.398466   0.000000
   69        0.047981   0.000000
   70        0.322321   0.000000
   71        0.401887   0.000000
   72        1.028697   0.000000
   73        1.321162   0.000000
   74        1.790412   0.000000
   75        2.623649   0.000000
   76        2.726968   0.000000
 
  0.0000000E+00  0.1428571E+00  0.0000000E+00  0.5714286E-01
    1      -36.584532   1.000000
    2      -35.259502   1.000000
    3      -34.297783   1.000000
    4      -33.408160   1.000000
    5      -20.450304   1.000000
    6      -19.993649   1.000000
    7      -19.798546   1.000000
    8      -19.306910   1.000000
    9      -19.057010   1.000000
   10      -18.627548   1.000000
   11      -18.600510   1.000000
   12      -18.544739   1.000000
   13      -18.491998   1.000000
   14      -18.300325   1.000000
   15      -18.101487   1.000000
   16      -17.779490   1.000000
   17      -17.277588   1.000000
   18      -17.232497   1.000000
   19      -17.177030   1.000000
   20      -17.061928   1.000000
   21      -16.561765   1.000000
   22      -16.298060   1.000000
   23      -16.258823   1.000000
   24      -16.197260   1.000000
   25      -16.103507   1.000000
   26      -15.379601   1.000000
   27      -15.194108   1.000000
   28      -15.177113   1.000000
   29       -7.047789   1.000000
   30       -6.724526   1.000000
   31       -6.625624   1.000000
   32       -6.333067   1.000000
   33       -5.853088   1.000000
   34       -5.831779   1.000000
   35       -5.536838   1.000000
   36       -5.500246   1.000000
   37       -5.278686   1.000000
   38       -5.215001   1.000000
   39       -5.054017   1.000000
   40       -4.981037   1.000000
   41       -4.862524   1.000000
   42       -4.618334   1.000000
   43       -4.421097   1.000000
   44       -4.416323   1.000000
   45       -4.076418   1.000000
   46       -4.062670   1.000000
   47       -4.018104   1.000000
   48       -3.722583   1.000000
   49       -3.701234   1.000000
   50       -3.350190   1.000000
   51       -3.164129   1.000000
   52       -3.066498   1.000000
   53       -2.930211   1.000000
   54       -2.817286   1.000000
   55       -2.697753   1.000000
   56       -2.556175   1.000000
   57       -2.335072   1.000000
   58       -1.998939   1.000000
   59       -1.971544   1.000000
   60       -1.498355   1.000000
   61       -1.307866   1.000000
   62       -1.092741   1.000000
   63       -0.969035   1.000000
   64       -0.968154   1.036441
   65       -0.745754   0.266738
   66       -0.653621  -0.035364
   67       -0.519765   0.000000
   68       -0.466411   0.000000
   69        0.127249   0.000000
   70        0.493677   0.000000
   71        0.574002   0.000000
   72        0.685242   0.000000
   73        1.430606   0.000000
   74        1.495809   0.000000
   75        2.773805   0.000000
   76        4.244827   0.000000
 
  0.2000000E+00  0.1428571E+00  0.0000000E+00  0.1142857E+00
    1      -36.584263   1.000000
    2      -35.259210   1.000000
    3      -34.297495   1.000000
    4      -33.407931   1.000000
    5      -20.491448   1.000000
    6      -20.145379   1.000000
    7      -19.694748   1.000000
    8      -19.304787   1.000000
    9      -19.105556   1.000000
   10      -18.701170   1.000000
   11      -18.583371   1.000000
   12      -18.481798   1.000000
   13      -18.376544   1.000000
   14      -18.313680   1.000000
   15      -18.155289   1.000000
   16      -17.767854   1.000000
   17      -17.273061   1.000000
   18      -17.231833   1.000000
   19      -17.120292   1.000000
   20      -17.078049   1.000000
   21      -16.533665   1.000000
   22      -16.309010   1.000000
   23      -16.254814   1.000000
   24      -16.167818   1.000000
   25      -16.038516   1.000000
   26      -15.374705   1.000000
   27      -15.206311   1.000000
   28      -15.135498   1.000000
   29       -6.911995   1.000000
   30       -6.703538   1.000000
   31       -6.650149   1.000000
   32       -6.315165   1.000000
   33       -5.952512   1.000000
   34       -5.756456   1.000000
   35       -5.598965   1.000000
   36       -5.507276   1.000000
   37       -5.329927   1.000000
   38       -5.168989   1.000000
   39       -5.050744   1.000000
   40       -4.969863   1.000000
   41       -4.815918   1.000000
   42       -4.646569   1.000000
   43       -4.574338   1.000000
   44       -4.410917   1.000000
   45       -4.347735   1.000000
   46       -4.051770   1.000000
   47       -3.926401   1.000000
   48       -3.816692   1.000000
   49       -3.684620   1.000000
   50       -3.474361   1.000000
   51       -3.160722   1.000000
   52       -3.083173   1.000000
   53       -3.019164   1.000000
   54       -2.955567   1.000000
   55       -2.839483   1.000000
   56       -2.532389   1.000000
   57       -2.361891   1.000000
   58       -2.180460   1.000000
   59       -1.935153   1.000000
   60       -1.618446   1.000000
   61       -1.303049   1.000000
   62       -1.096625   1.000000
   63       -0.969794   1.000000
   64       -0.934954   1.016854
   65       -0.729514   0.316357
   66       -0.709839  -0.015163
   67       -0.529305   0.000000
   68       -0.418218   0.000000
   69        0.168771   0.000000
   70        0.525022   0.000000
   71        0.559566   0.000000
   72        0.841262   0.000000
   73        1.454238   0.000000
   74        2.771656   0.000000
   75        2.792917   0.000000
   76        4.517483   0.000000
 
  0.4000000E+00  0.1428571E+00  0.0000000E+00  0.1142857E+00
    1      -36.583828   1.000000
    2      -35.258737   1.000000
    3      -34.297030   1.000000
    4      -33.407561   1.000000
    5      -20.575076   1.000000
    6      -20.248303   1.000000
    7      -19.665858   1.000000
    8      -19.292619   1.000000
    9      -19.174513   1.000000
   10      -18.729591   1.000000
   11      -18.573048   1.000000
   12      -18.369174   1.000000
   13      -18.329167   1.000000
   14      -18.300870   1.000000
   15      -18.208548   1.000000
   16      -17.768496   1.000000
   17      -17.252311   1.000000
   18      -17.239171   1.000000
   19      -17.092216   1.000000
   20      -17.041650   1.000000
   21      -16.468326   1.000000
   22      -16.328085   1.000000
   23      -16.250612   1.000000
   24      -16.094035   1.000000
   25      -15.994193   1.000000
   26      -15.357060   1.000000
   27      -15.197474   1.000000
   28      -15.085978   1.000000
   29       -6.841319   1.000000
   30       -6.713901   1.000000
   31       -6.416559   1.000000
   32       -6.294719   1.000000
   33       -6.021552   1.000000
   34       -5.777188   1.000000
   35       -5.593227   1.000000
   36       -5.530894   1.000000
   37       -5.441021   1.000000
   38       -5.280950   1.000000
   39       -5.065122   1.000000
   40       -4.944005   1.000000
   41       -4.814734   1.000000
   42       -4.716473   1.000000
   43       -4.675826   1.000000
   44       -4.515972   1.000000
   45       -4.342173   1.000000
   46       -4.133096   1.000000
   47       -3.957793   1.000000
   48       -3.813322   1.000000
   49       -3.774654   1.000000
   50       -3.540897   1.000000
   51       -3.469775   1.000000
   52       -3.218687   1.000000
   53       -3.103565   1.000000
   54       -2.982880   1.000000
   55       -2.881836   1.000000
   56       -2.811623   1.000000
   57       -2.422589   1.000000
   58       -2.144544   1.000000
   59       -1.859726   1.000000
   60       -1.696045   1.000000
   61       -1.294697   1.000000
   62       -1.244012   1.000000
   63       -1.101522   1.000000
   64       -0.931794   1.000000
   65       -0.871447   1.062867
   66       -0.619345  -0.057578
   67       -0.369192   0.000000
   68       -0.332300   0.000000
   69        0.163592   0.000000
   70        0.533156   0.000000
   71        0.590585   0.000000
   72        1.003344   0.000000
   73        1.446040   0.000000
   74        1.526681   0.000000
   75        2.725090   0.000000
   76        2.843719   0.000000
 
  0.0000000E+00  0.2857143E+00  0.0000000E+00  0.5714286E-01
    1      -36.576813   1.000000
    2      -35.250694   1.000000
    3      -34.288996   1.000000
    4      -33.399506   1.000000
    5      -20.382845   1.000000
    6      -19.871166   1.000000
    7      -19.679178   1.000000
    8      -19.212835   1.000000
    9      -19.084167   1.000000
   10      -18.631095   1.000000
   11      -18.577158   1.000000
   12      -18.509785   1.000000
   13      -18.442005   1.000000
   14      -18.213836   1.000000
   15      -18.109744   1.000000
   16      -17.674988   1.000000
   17      -17.302751   1.000000
   18      -17.217292   1.000000
   19      -17.166870   1.000000
   20      -17.040380   1.000000
   21      -16.628142   1.000000
   22      -16.353207   1.000000
   23      -16.210313   1.000000
   24      -16.132676   1.000000
   25      -16.129387   1.000000
   26      -15.367511   1.000000
   27      -15.342302   1.000000
   28      -15.191258   1.000000
   29       -6.991638   1.000000
   30       -6.932149   1.000000
   31       -6.610559   1.000000
   32       -6.526995   1.000000
   33       -6.370746   1.000000
   34       -6.275824   1.000000
   35       -6.000619   1.000000
   36       -5.792509   1.000000
   37       -5.558028   1.000000
   38       -5.456156   1.000000
   39       -5.299326   1.000000
   40       -5.168344   1.000000
   41       -5.042367   1.000000
   42       -4.980625   1.000000
   43       -4.736826   1.000000
   44       -4.524738   1.000000
   45       -4.513129   1.000000
   46       -4.245091   1.000000
   47       -4.180508   1.000000
   48       -3.985954   1.000000
   49       -3.902318   1.000000
   50       -3.705934   1.000000
   51       -3.407552   1.000000
   52       -3.364776   1.000000
   53       -2.968600   1.000000
   54       -2.808975   1.000000
   55       -2.763442   1.000000
   56       -2.693853   1.000000
   57       -2.259466   1.000000
   58       -2.137373   1.000000
   59       -1.980041   1.000000
   60       -1.495968   1.000000
   61       -1.290655   1.000000
   62       -0.982713   1.000000
   63       -0.810110   1.034012
   64       -0.740439   0.403712
   65       -0.695984   0.000000
   66       -0.534429   0.000000
   67       -0.307337   0.000000
   68        0.160795   0.000000
   69        0.370792   0.000000
   70        0.738786   0.000000
   71        0.985395   0.000000
   72        1.025866   0.000000
   73        1.830678   0.000000
   74        1.890809   0.000000
   75        3.125530   0.000000
   76        3.159570   0.000000
 
  0.2000000E+00  0.2857143E+00  0.0000000E+00  0.1142857E+00
    1      -36.576617   1.000000
    2      -35.250490   1.000000
    3      -34.288796   1.000000
    4      -33.399358   1.000000
    5      -20.361991   1.000000
    6      -20.029681   1.000000
    7      -19.646712   1.000000
    8      -19.229211   1.000000
    9      -19.083793   1.000000
   10      -18.620910   1.000000
   11      -18.582028   1.000000
   12      -18.503104   1.000000
   13      -18.375822   1.000000
   14      -18.228744   1.000000
   15      -18.138863   1.000000
   16      -17.710670   1.000000
   17      -17.261637   1.000000
   18      -17.171745   1.000000
   19      -17.153829   1.000000
   20      -17.082665   1.000000
   21      -16.604096   1.000000
   22      -16.290236   1.000000
   23      -16.227288   1.000000
   24      -16.169700   1.000000
   25      -16.036452   1.000000
   26      -15.369803   1.000000
   27      -15.292594   1.000000
   28      -15.150214   1.000000
   29       -6.974950   1.000000
   30       -6.894333   1.000000
   31       -6.693057   1.000000
   32       -6.551554   1.000000
   33       -6.416254   1.000000
   34       -6.278370   1.000000
   35       -6.013476   1.000000
   36       -5.795729   1.000000
   37       -5.632392   1.000000
   38       -5.407067   1.000000
   39       -5.351143   1.000000
   40       -5.179804   1.000000
   41       -5.038851   1.000000
   42       -4.960424   1.000000
   43       -4.831857   1.000000
   44       -4.697407   1.000000
   45       -4.381699   1.000000
   46       -4.280129   1.000000
   47       -4.140523   1.000000
   48       -4.058893   1.000000
   49       -3.874336   1.000000
   50       -3.759332   1.000000
   51       -3.538813   1.000000
   52       -3.344830   1.000000
   53       -3.151507   1.000000
   54       -2.889252   1.000000
   55       -2.880240   1.000000
   56       -2.546923   1.000000
   57       -2.321858   1.000000
   58       -2.081035   1.000000
   59       -2.028374   1.000000
   60       -1.655138   1.000000
   61       -1.255142   1.000000
   62       -0.962865   1.000000
   63       -0.827399   1.032655
   64       -0.794268   0.888783
   65       -0.711993   0.018911
   66       -0.552195   0.000000
   67       -0.225420   0.000000
   68        0.216193   0.000000
   69        0.876597   0.000000
   70        0.936071   0.000000
   71        1.022847   0.000000
   72        1.866244   0.000000
   73        1.874949   0.000000
   74        3.098935   0.000000
   75        3.133111   0.000000
   76        3.162690   0.000000
 
  0.4000000E+00  0.2857143E+00  0.0000000E+00  0.1142857E+00
    1      -36.576298   1.000000
    2      -35.250159   1.000000
    3      -34.288472   1.000000
    4      -33.399117   1.000000
    5      -20.350533   1.000000
    6      -20.149815   1.000000
    7      -19.699934   1.000000
    8      -19.276841   1.000000
    9      -19.046244   1.000000
   10      -18.718039   1.000000
   11      -18.545934   1.000000
   12      -18.382014   1.000000
   13      -18.340579   1.000000
   14      -18.272197   1.000000
   15      -18.126143   1.000000
   16      -17.796135   1.000000
   17      -17.220479   1.000000
   18      -17.179044   1.000000
   19      -17.106315   1.000000
   20      -17.059628   1.000000
   21      -16.548142   1.000000
   22      -16.306215   1.000000
   23      -16.166983   1.000000
   24      -16.127719   1.000000
   25      -16.003100   1.000000
   26      -15.372906   1.000000
   27      -15.168045   1.000000
   28      -15.111176   1.000000
   29       -7.037147   1.000000
   30       -6.942301   1.000000
   31       -6.693129   1.000000
   32       -6.620436   1.000000
   33       -6.497538   1.000000
   34       -6.064508   1.000000
   35       -6.017221   1.000000
   36       -5.852425   1.000000
   37       -5.729496   1.000000
   38       -5.468285   1.000000
   39       -5.329279   1.000000
   40       -5.210398   1.000000
   41       -5.190583   1.000000
   42       -5.066276   1.000000
   43       -4.901330   1.000000
   44       -4.732771   1.000000
   45       -4.237233   1.000000
   46       -4.229180   1.000000
   47       -4.145332   1.000000
   48       -4.085573   1.000000
   49       -3.942106   1.000000
   50       -3.808826   1.000000
   51       -3.679118   1.000000
   52       -3.474842   1.000000
   53       -3.434618   1.000000
   54       -2.911175   1.000000
   55       -2.874187   1.000000
   56       -2.833755   1.000000
   57       -2.148032   1.000000
   58       -2.043369   1.000000
   59       -1.991305   1.000000
   60       -1.733437   1.000000
   61       -1.239130   1.000000
   62       -1.200177   1.000000
   63       -0.940230   1.006896
   64       -0.801847   0.994831
   65       -0.775445   0.507132
   66       -0.340309   0.000000
   67       -0.175385   0.000000
   68        0.256040   0.000000
   69        0.460867   0.000000
   70        1.006338   0.000000
   71        1.031443   0.000000
   72        1.057864   0.000000
   73        1.836531   0.000000
   74        1.851416   0.000000
   75        1.893995   0.000000
   76        3.088195   0.000000
 
  0.0000000E+00  0.4285714E+00  0.0000000E+00  0.5714286E-01
    1      -36.570605   1.000000
    2      -35.243607   1.000000
    3      -34.281926   1.000000
    4      -33.392543   1.000000
    5      -20.390382   1.000000
    6      -19.721556   1.000000
    7      -19.561484   1.000000
    8      -19.185371   1.000000
    9      -19.066282   1.000000
   10      -18.720740   1.000000
   11      -18.539907   1.000000
   12      -18.396287   1.000000
   13      -18.392527   1.000000
   14      -18.181560   1.000000
   15      -18.056212   1.000000
   16      -17.570076   1.000000
   17      -17.428874   1.000000
   18      -17.196933   1.000000
   19      -17.152643   1.000000
   20      -16.973984   1.000000
   21      -16.631321   1.000000
   22      -16.476803   1.000000
   23      -16.174320   1.000000
   24      -16.103841   1.000000
   25      -15.997890   1.000000
   26      -15.519267   1.000000
   27      -15.449815   1.000000
   28      -15.125558   1.000000
   29       -7.577644   1.000000
   30       -6.975627   1.000000
   31       -6.710106   1.000000
   32       -6.592644   1.000000
   33       -6.590914   1.000000
   34       -6.526465   1.000000
   35       -6.357840   1.000000
   36       -5.966684   1.000000
   37       -5.825891   1.000000
   38       -5.637939   1.000000
   39       -5.560451   1.000000
   40       -5.471874   1.000000
   41       -5.138848   1.000000
   42       -4.967034   1.000000
   43       -4.907994   1.000000
   44       -4.725483   1.000000
   45       -4.607608   1.000000
   46       -4.575428   1.000000
   47       -4.434947   1.000000
   48       -4.161399   1.000000
   49       -4.067007   1.000000
   50       -3.713008   1.000000
   51       -3.546278   1.000000
   52       -3.487315   1.000000
   53       -3.000315   1.000000
   54       -2.854890   1.000000
   55       -2.761783   1.000000
   56       -2.731369   1.000000
   57       -2.298784   1.000000
   58       -2.138773   1.000000
   59       -1.882688   1.000000
   60       -1.429689   1.000000
   61       -1.278734   1.000000
   62       -0.869340   1.000000
   63       -0.737880   0.135582
   64       -0.708881  -0.036632
   65       -0.551260   0.000000
   66       -0.415633   0.000000
   67       -0.187549   0.000000
   68        0.646892   0.000000
   69        0.715998   0.000000
   70        0.774556   0.000000
   71        1.401227   0.000000
   72        1.444139   0.000000
   73        1.815816   0.000000
   74        2.272702   0.000000
   75        3.143099   0.000000
   76        3.533107   0.000000
 
  0.2000000E+00  0.4285714E+00  0.0000000E+00  0.1142857E+00
    1      -36.570467   1.000000
    2      -35.243474   1.000000
    3      -34.281797   1.000000
    4      -33.392460   1.000000
    5      -20.328519   1.000000
    6      -19.862144   1.000000
    7      -19.631810   1.000000
    8      -19.150469   1.000000
    9      -19.097649   1.000000
   10      -18.567172   1.000000
   11      -18.506591   1.000000
   12      -18.492928   1.000000
   13      -18.413174   1.000000
   14      -18.158505   1.000000
   15      -18.123543   1.000000
   16      -17.654675   1.000000
   17      -17.298369   1.000000
   18      -17.213556   1.000000
   19      -17.104856   1.000000
   20      -17.038313   1.000000
   21      -16.614398   1.000000
   22      -16.345339   1.000000
   23      -16.213119   1.000000
   24      -16.095823   1.000000
   25      -16.011505   1.000000
   26      -15.451750   1.000000
   27      -15.387068   1.000000
   28      -15.086603   1.000000
   29       -7.587952   1.000000
   30       -6.943890   1.000000
   31       -6.795210   1.000000
   32       -6.754706   1.000000
   33       -6.627801   1.000000
   34       -6.574404   1.000000
   35       -6.270820   1.000000
   36       -5.980148   1.000000
   37       -5.845544   1.000000
   38       -5.770038   1.000000
   39       -5.532265   1.000000
   40       -5.437140   1.000000
   41       -5.155990   1.000000
   42       -5.107983   1.000000
   43       -4.954281   1.000000
   44       -4.812919   1.000000
   45       -4.655287   1.000000
   46       -4.408553   1.000000
   47       -4.296919   1.000000
   48       -4.185119   1.000000
   49       -4.127271   1.000000
   50       -3.761366   1.000000
   51       -3.667840   1.000000
   52       -3.494692   1.000000
   53       -3.196387   1.000000
   54       -2.872826   1.000000
   55       -2.803604   1.000000
   56       -2.629024   1.000000
   57       -2.300332   1.000000
   58       -2.046585   1.000000
   59       -1.917274   1.000000
   60       -1.623244   1.000000
   61       -1.214163   1.000000
   62       -0.850319   1.000000
   63       -0.753993   0.528851
   64       -0.733407   0.021039
   65       -0.702575  -0.005021
   66       -0.386691   0.000000
   67       -0.037976   0.000000
   68        0.669656   0.000000
   69        0.722221   0.000000
   70        0.910764   0.000000
   71        1.415542   0.000000
   72        1.433957   0.000000
   73        1.855056   0.000000
   74        2.258140   0.000000
   75        2.263923   0.000000
   76        3.180041   0.000000
 
  0.4000000E+00  0.4285714E+00  0.0000000E+00  0.1142857E+00
    1      -36.570244   1.000000
    2      -35.243260   1.000000
    3      -34.281589   1.000000
    4      -33.392326   1.000000
    5      -20.174078   1.000000
    6      -20.034433   1.000000
    7      -19.804486   1.000000
    8      -19.217236   1.000000
    9      -18.961919   1.000000
   10      -18.700565   1.000000
   11      -18.488927   1.000000
   12      -18.411353   1.000000
   13      -18.350695   1.000000
   14      -18.230895   1.000000
   15      -18.054446   1.000000
   16      -17.831547   1.000000
   17      -17.228878   1.000000
   18      -17.180033   1.000000
   19      -17.079245   1.000000
   20      -17.018362   1.000000
   21      -16.572231   1.000000
   22      -16.262011   1.000000
   23      -16.155718   1.000000
   24      -16.150155   1.000000
   25      -15.981740   1.000000
   26      -15.454452   1.000000
   27      -15.192130   1.000000
   28      -15.033187   1.000000
   29       -7.608559   1.000000
   30       -7.109290   1.000000
   31       -6.968796   1.000000
   32       -6.841909   1.000000
   33       -6.663297   1.000000
   34       -6.554144   1.000000
   35       -6.086536   1.000000
   36       -6.015900   1.000000
   37       -5.915900   1.000000
   38       -5.841974   1.000000
   39       -5.599477   1.000000
   40       -5.363677   1.000000
   41       -5.290184   1.000000
   42       -5.278324   1.000000
   43       -5.143171   1.000000
   44       -4.745095   1.000000