       N       E                     dE             d eps       ncg     rms          rms(c)
DAV:   1     0.151911240866E+04    0.15191E+04   -0.52826E+04  1864   0.136E+03
DAV:   2     0.161718501728E+03   -0.13574E+04   -0.13071E+04  2216   0.368E+02
DAV:   3    -0.174837944594E+03   -0.33656E+03   -0.32885E+03  2520   0.183E+02
DAV:   4    -0.197515533502E+03   -0.22678E+02   -0.22593E+02  2432   0.556E+01
DAV:   5    -0.198700507389E+03   -0.11850E+01   -0.11845E+01  3136   0.112E+01    0.374E+01
RMM:   6    -0.205677346750E+03   -0.69768E+01   -0.39199E+02  2404   0.579E+01    0.522E+01
RMM:   7    -0.172149793693E+03    0.33528E+02   -0.95380E+01  2120   0.312E+01    0.209E+01
RMM:   8    -0.160485631667E+03    0.11664E+02   -0.21681E+01  2077   0.161E+01    0.151E+01
RMM:   9    -0.156235540277E+03    0.42501E+01   -0.19863E+00  2378   0.541E+00    0.125E+01
RMM:  10    -0.157818639608E+03   -0.15831E+01   -0.38077E+01  2188   0.162E+01    0.312E+01
RMM:  11    -0.156599689342E+03    0.12190E+01   -0.33785E+00  2815   0.368E+00    0.310E+01
RMM:  12    -0.159478228070E+03   -0.28785E+01   -0.17196E+00  2694   0.293E+00    0.342E+01
RMM:  13    -0.159477746812E+03    0.48126E-03   -0.31190E-01  3143   0.832E-01    0.345E+01
RMM:  14    -0.159708805674E+03   -0.23106E+00   -0.15792E-01  2990   0.704E-01    0.349E+01
RMM:  15    -0.159755192941E+03   -0.46387E-01   -0.54321E-02  3218   0.278E-01    0.350E+01
RMM:  16    -0.159793827094E+03   -0.38634E-01   -0.16862E-02  3240   0.143E-01    0.351E+01
RMM:  17    -0.159796620028E+03   -0.27929E-02   -0.77567E-03  2870   0.855E-02    0.351E+01
RMM:  18    -0.155963990287E+03    0.38326E+01   -0.11990E+00  2115   0.292E+00    0.311E+01
RMM:  19    -0.154559190871E+03    0.14048E+01   -0.81695E-01  2348   0.224E+00    0.283E+01
RMM:  20    -0.154107548300E+03    0.45164E+00   -0.23100E-01  2612   0.104E+00    0.274E+01
RMM:  21    -0.150561662664E+03    0.35459E+01   -0.59040E+00  2114   0.663E+00    0.116E+01
RMM:  22    -0.150557742523E+03    0.39201E-02   -0.10818E+00  2511   0.246E+00    0.116E+01
RMM:  23    -0.150702186535E+03   -0.14444E+00   -0.72484E-01  2070   0.243E+00    0.120E+01
RMM:  24    -0.151063018518E+03   -0.36083E+00   -0.93828E-01  2208   0.263E+00    0.157E+01
RMM:  25    -0.150921447613E+03    0.14157E+00   -0.12868E+01  2035   0.107E+01    0.950E+00
RMM:  26    -0.150036739702E+03    0.88471E+00   -0.14222E+00  2185   0.387E+00    0.729E+00
RMM:  27    -0.150303385617E+03   -0.26665E+00   -0.46712E-01  2378   0.202E+00    0.778E+00
RMM:  28    -0.149993000014E+03    0.31039E+00   -0.48527E-01  2152   0.203E+00    0.628E+00
RMM:  29    -0.150620735123E+03   -0.62774E+00   -0.50411E-01  2191   0.217E+00    0.790E+00
RMM:  30    -0.150604139675E+03    0.16595E-01   -0.14661E-01  2614   0.836E-01    0.816E+00
RMM:  31    -0.149806099024E+03    0.79804E+00   -0.51674E-01  2045   0.220E+00    0.614E+00
RMM:  32    -0.149540134047E+03    0.26596E+00   -0.42567E-01  2319   0.189E+00    0.525E+00
RMM:  33    -0.149427640161E+03    0.11249E+00   -0.50990E-02  2195   0.711E-01    0.501E+00
RMM:  34    -0.149022434755E+03    0.40521E+00   -0.37677E-01  2092   0.181E+00    0.355E+00
RMM:  35    -0.148951636068E+03    0.70799E-01   -0.17772E-01  2426   0.955E-01    0.294E+00
RMM:  36    -0.148915682286E+03    0.35954E-01   -0.78008E-02  2319   0.715E-01    0.275E+00
RMM:  37    -0.148855431703E+03    0.60251E-01   -0.46494E-02  2251   0.488E-01    0.220E+00
RMM:  38    -0.148829031985E+03    0.26400E-01   -0.24506E-01  2190   0.133E+00    0.288E+00
RMM:  39    -0.148788989420E+03    0.40043E-01   -0.40937E-02  2154   0.605E-01    0.149E+00
RMM:  40    -0.148783352702E+03    0.56367E-02   -0.11416E-02  2581   0.268E-01    0.126E+00
RMM:  41    -0.148792635799E+03   -0.92831E-02   -0.17780E-02  2100   0.423E-01    0.147E+00
RMM:  42    -0.148799701398E+03   -0.70656E-02   -0.83790E-03  2398   0.261E-01    0.153E+00
RMM:  43    -0.148804040622E+03   -0.43392E-02   -0.26581E-03  2431   0.139E-01    0.161E+00
RMM:  44    -0.148797389458E+03    0.66512E-02   -0.27658E-03  2051   0.165E-01    0.155E+00
RMM:  45    -0.148794927062E+03    0.24624E-02   -0.16920E-03  2299   0.119E-01    0.143E+00
RMM:  46    -0.148788951113E+03    0.59759E-02   -0.13037E-03  2155   0.815E-02    0.122E+00
RMM:  47    -0.148786432597E+03    0.25185E-02   -0.15392E-03  2274   0.903E-02    0.115E+00
RMM:  48    -0.148777677079E+03    0.87555E-02   -0.42496E-03  2098   0.176E-01    0.913E-01
RMM:  49    -0.148775491275E+03    0.21858E-02   -0.18817E-03  2312   0.907E-02    0.809E-01
RMM:  50    -0.148776120260E+03   -0.62899E-03   -0.26766E-04  2013   0.360E-02    0.814E-01
RMM:  51    -0.148773354934E+03    0.27653E-02   -0.18084E-03  2006   0.133E-01    0.634E-01
RMM:  52    -0.148772288015E+03    0.10669E-02   -0.70149E-04  2165   0.603E-02    0.602E-01
RMM:  53    -0.148770451586E+03    0.18364E-02   -0.57080E-04  2196   0.642E-02    0.563E-01
RMM:  54    -0.148768553466E+03    0.18981E-02   -0.11293E-03  2064   0.102E-01    0.462E-01
RMM:  55    -0.148766785737E+03    0.17677E-02   -0.31991E-03  2228   0.145E-01    0.396E-01
RMM:  56    -0.148765792145E+03    0.99359E-03   -0.92335E-03  2201   0.269E-01    0.479E-01
RMM:  57    -0.148764731984E+03    0.10602E-02   -0.15475E-03  2533   0.970E-02    0.315E-01
RMM:  58    -0.148764054900E+03    0.67708E-03   -0.20612E-04  2263   0.352E-02    0.130E-01
RMM:  59    -0.148763903903E+03    0.15100E-03   -0.79083E-05  1779   0.253E-02    0.625E-02
RMM:  60    -0.148764082687E+03   -0.17878E-03   -0.13456E-04  1893   0.328E-02
   1 F= -.14876408E+03 E0= -.14876408E+03  d E =0.000000E+00
