 vasp.5.4.4.18Apr17-6-g9f103f2a35 (build Jun 30 2017 11:15:00) complex          
  
 executed on    STALLO_VASP_5.4.4 date 2019.11.06  13:53:56
 running on    4 total cores
 distrk:  each k-point on    4 cores,    1 groups
 distr:  one band on NCORES_PER_BAND=   2 cores,    2 groups


--------------------------------------------------------------------------------------------------------


 INCAR:
 POTCAR:   PAW_PBE O 08Apr2002                    
 POTCAR:   PAW_PBE Sr_sv 07Sep2000                
 POTCAR:   PAW_PBE Ti 08Apr2002                   
 POTCAR:   PAW_PBE O 08Apr2002                    
   VRHFIN =O: s2p4                                                              
   LEXCH  = PE                                                                  
   EATOM  =   432.3788 eV,   31.7789 Ry                                         
                                                                                
   TITEL  = PAW_PBE O 08Apr2002                                                 
   LULTRA =        F    use ultrasoft PP ?                                      
   IUNSCR =        0    unscreen: 0-lin 1-nonlin 2-no                           
   RPACOR =     .000    partial core radius                                     
   POMASS =   16.000; ZVAL   =    6.000    mass and valenz                      
   RCORE  =    1.520    outmost cutoff radius                                   
   RWIGS  =    1.550; RWIGS  =     .820    wigner-seitz radius (au A)           
   ENMAX  =  400.000; ENMIN  =  300.000 eV                                      
   ICORE  =        2    local potential                                         
   LCOR   =        T    correct aug charges                                     
   LPAW   =        T    paw PP                                                  
   EAUG   =  605.392                                                            
   DEXC   =     .000                                                            
   RMAX   =    2.264    core radius for proj-oper                               
   RAUG   =    1.300    factor for augmentation sphere                          
   RDEP   =    1.550    radius for radial grids                                 
   QCUT   =   -5.520; QGAM   =   11.041    optimization parameters              
                                                                                
   Description                                                                  
     l     E      TYP  RCUT    TYP  RCUT                                        
     0   .000     23  1.200                                                     
     0  -.700     23  1.200                                                     
     1   .000     23  1.520                                                     
     1   .600     23  1.520                                                     
     2   .000      7  1.500                                                     
  local pseudopotential read in
  atomic valenz-charges read in
  non local Contribution for L=           0  read in
    real space projection operators read in
  non local Contribution for L=           0  read in
    real space projection operators read in
  non local Contribution for L=           1  read in
    real space projection operators read in
  non local Contribution for L=           1  read in
    real space projection operators read in
    PAW grid and wavefunctions read in
 
   number of l-projection  operators is LMAX  =           4
   number of lm-projection operators is LMMAX =           8
 
 POTCAR:   PAW_PBE Sr_sv 07Sep2000                
   VRHFIN =Sr: 4s4p5s                                                           
   LEXCH  = PE                                                                  
   EATOM  =   842.4562 eV,   61.9188 Ry                                         
                                                                                
   TITEL  = PAW_PBE Sr_sv 07Sep2000                                             
   LULTRA =        F    use ultrasoft PP ?                                      
   IUNSCR =        1    unscreen: 0-lin 1-nonlin 2-no                           
   RPACOR =    2.200    partial core radius                                     
   POMASS =   87.620; ZVAL   =   10.000    mass and valenz                      
   RCORE  =    2.500    outmost cutoff radius                                   
   RWIGS  =    4.040; RWIGS  =    2.138    wigner-seitz radius (au A)           
   ENMAX  =  229.282; ENMIN  =  171.961 eV                                      
   RCLOC  =    2.201    cutoff for local pot                                    
   LCOR   =        T    correct aug charges                                     
   LPAW   =        T    paw PP                                                  
   EAUG   =  366.804                                                            
   DEXC   =     .000                                                            
   RMAX   =    3.045    core radius for proj-oper                               
   RAUG   =    1.300    factor for augmentation sphere                          
   RDEP   =    2.562    radius for radial grids                                 
   QCUT   =   -4.105; QGAM   =    8.210    optimization parameters              
                                                                                
   Description                                                                  
     l     E      TYP  RCUT    TYP  RCUT                                        
     0   .000     23  2.480                                                     
     0   .000     23  2.480                                                     
     1   .000     23  2.500                                                     
     1   .000     23  2.500                                                     
     2   .000     23  2.500                                                     
     2   .000     23  2.500                                                     
  local pseudopotential read in
  partial core-charges read in
  atomic valenz-charges read in
  non local Contribution for L=           0  read in
    real space projection operators read in
  non local Contribution for L=           0  read in
    real space projection operators read in
  non local Contribution for L=           1  read in
    real space projection operators read in
  non local Contribution for L=           1  read in
    real space projection operators read in
  non local Contribution for L=           2  read in
    real space projection operators read in
  non local Contribution for L=           2  read in
    real space projection operators read in
    PAW grid and wavefunctions read in
 
   number of l-projection  operators is LMAX  =           6
   number of lm-projection operators is LMMAX =          18
 
 POTCAR:   PAW_PBE Ti 08Apr2002                   
   VRHFIN =Ti: d3 s1                                                            
   LEXCH  = PE                                                                  
   EATOM  =    94.7929 eV,    6.9671 Ry                                         
                                                                                
   TITEL  = PAW_PBE Ti 08Apr2002                                                
   LULTRA =        F    use ultrasoft PP ?                                      
   IUNSCR =        1    unscreen: 0-lin 1-nonlin 2-no                           
   RPACOR =    2.200    partial core radius                                     
   POMASS =   47.880; ZVAL   =    4.000    mass and valenz                      
   RCORE  =    2.800    outmost cutoff radius                                   
   RWIGS  =    2.500; RWIGS  =    1.323    wigner-seitz radius (au A)           
   ENMAX  =  178.330; ENMIN  =  133.747 eV                                      
   RCLOC  =    2.215    cutoff for local pot                                    
   LCOR   =        T    correct aug charges                                     
   LPAW   =        T    paw PP                                                  
   EAUG   =  328.883                                                            
   DEXC   =    -.043                                                            
   RMAX   =    3.453    core radius for proj-oper                               
   RAUG   =    1.300    factor for augmentation sphere                          
   RDEP   =    2.885    radius for radial grids                                 
   QCUT   =   -3.620; QGAM   =    7.241    optimization parameters              
                                                                                
   Description                                                                  
     l     E      TYP  RCUT    TYP  RCUT                                        
     2   .000     23  2.800                                                     
     2   .000     23  2.800                                                     
     0   .000     23  2.800                                                     
     0  1.500     23  2.800                                                     
     1  -.400     23  2.800                                                     
     3   .000      7   .000                                                     
  local pseudopotential read in
  partial core-charges read in
  atomic valenz-charges read in
  non local Contribution for L=           2  read in
    real space projection operators read in
  non local Contribution for L=           2  read in
    real space projection operators read in
  non local Contribution for L=           0  read in
    real space projection operators read in
  non local Contribution for L=           0  read in
    real space projection operators read in
  non local Contribution for L=           1  read in
    real space projection operators read in
    PAW grid and wavefunctions read in
 
   number of l-projection  operators is LMAX  =           5
   number of lm-projection operators is LMMAX =          15
 

 ----------------------------------------------------------------------------- 
|                                                                             |
|  ADVICE TO THIS USER RUNNING 'VASP/VAMP'   (HEAR YOUR MASTER'S VOICE ...):  |
|                                                                             |
|      You have a (more or less) 'large supercell' and for larger cells       |
|      it might be more efficient to use real space projection operators      |
|      So try LREAL= Auto  in the INCAR   file.                               |
|      Mind: If you want to do a very accurate calculations keep the          |
|      reciprocal projection scheme          (i.e. LREAL=.FALSE.)             |
|                                                                             |
 ----------------------------------------------------------------------------- 

 PAW_PBE O 08Apr2002                    :
 energy of atom  1       EATOM= -432.3788
 kinetic energy error for atom=    0.0389 (will be added to EATOM!!)
 PAW_PBE Sr_sv 07Sep2000                :
 energy of atom  2       EATOM= -842.4562
 kinetic energy error for atom=    0.0019 (will be added to EATOM!!)
 PAW_PBE Ti 08Apr2002                   :
 energy of atom  3       EATOM=  -94.7929
 kinetic energy error for atom=    0.0002 (will be added to EATOM!!)
 
 
 POSCAR:  O Sr Ti                                
  positions in direct lattice
  No initial velocities read in
 exchange correlation table for  LEXCH =        8
   RHO(1)=    0.500       N(1)  =     2000
   RHO(2)=  100.500       N(2)  =     4000
 


--------------------------------------------------------------------------------------------------------


 ion  position               nearest neighbor table
   1  0.500  0.000  0.277-  17 1.95  17 1.95  14 2.76  13 2.76  13 2.76
   2  0.250  0.500  0.341-  17 1.95  18 1.95  13 2.76  14 2.76  13 2.76  14 2.76
   3  0.750  0.500  0.341-  17 1.95  18 1.95  13 2.76  14 2.76  13 2.76  14 2.76
   4  0.000  0.000  0.404-  18 1.95  18 1.95  13 2.76  14 2.76  14 2.76  15 2.76
   5  0.750  0.500  0.468-  18 1.95  19 1.95  14 2.76  14 2.76  15 2.76  15 2.76
   6  0.250  0.500  0.468-  18 1.95  19 1.95  14 2.76  14 2.76  15 2.76  15 2.76
   7  0.500  0.000  0.532-  19 1.95  19 1.95  16 2.76  15 2.76  15 2.76  14 2.76
   8  0.250  0.500  0.596-  19 1.95  20 1.95  15 2.76  16 2.76  15 2.76  16 2.76
   9  0.750  0.500  0.596-  19 1.95  20 1.95  15 2.76  16 2.76  15 2.76  16 2.76
  10  0.000  0.000  0.659-  20 1.95  20 1.95  15 2.76  16 2.76  16 2.76
  11  0.750  0.500  0.723-  20 1.95  16 2.76  16 2.76
  12  0.250  0.500  0.723-  20 1.95  16 2.76  16 2.76
  13  0.000  0.000  0.277-   4 2.76   3 2.76   2 2.76   2 2.76   3 2.76   1 2.76   1 2.76  18 3.38
                            18 3.38  17 3.38  17 3.38  17 3.38  17 3.38  14 3.91  14 3.91
  14  0.500  0.000  0.404-   1 2.76   2 2.76   3 2.76   5 2.76   6 2.76   2 2.76   3 2.76   5 2.76
                             6 2.76   4 2.76   4 2.76   7 2.76  17 3.38  17 3.38  18 3.38  18 3.38
  15  0.000  0.000  0.532-  10 2.76   9 2.76   8 2.76   8 2.76   9 2.76   7 2.76   7 2.76   6 2.76
                             5 2.76   6 2.76   5 2.76   4 2.76  20 3.38  20 3.38  19 3.38  19 3.38
  16  0.500  0.000  0.659-   7 2.76   8 2.76   9 2.76  11 2.76  12 2.76   8 2.76   9 2.76  11 2.76
                            12 2.76  10 2.76  10 2.76  19 3.38  19 3.38  20 3.38  20 3.38  20 3.38
  17  0.500  0.500  0.277-   2 1.95   3 1.95   1 1.95   1 1.95  14 3.38  14 3.38  13 3.38  13 3.38
                            13 3.38  13 3.38
  18  0.000  0.500  0.404-   2 1.95   3 1.95   5 1.95   6 1.95   4 1.95   4 1.95  13 3.38  13 3.38
                            14 3.38  14 3.38  14 3.38  14 3.38  15 3.38  15 3.38
  19  0.500  0.500  0.532-   8 1.95   9 1.95   7 1.95   7 1.95   5 1.95   6 1.95  16 3.38  16 3.38
                            15 3.38  15 3.38  15 3.38  15 3.38  14 3.38  14 3.38
  20  0.000  0.500  0.659-   8 1.95   9 1.95  11 1.95  12 1.95  10 1.95  10 1.95  15 3.38  15 3.38
                            16 3.38  16 3.38  16 3.38  16 3.38
 
  LATTYP: Found a simple orthorhombic cell.
 ALAT       =     3.9052680000
 B/A-ratio  =     1.4142135624
 C/A-ratio  =     5.5476462046
  
  Lattice vectors:
  
 A1 = (   0.0000000000,  -3.9052680000,   0.0000000000)
 A2 = (  -5.5228829703,   0.0000000000,   0.0000000000)
 A3 = (   0.0000000000,   0.0000000000, -21.6650451980)


Analysis of symmetry for initial positions (statically):
=====================================================================
 Subroutine PRICEL returns:
 Original cell was already a primitive cell.
 

 Routine SETGRP: Setting up the symmetry group for a 
 simple orthorhombic supercell.


 Subroutine GETGRP returns: Found  4 space group operations
 (whereof  4 operations were pure point group operations)
 out of a pool of  8 trial point group operations.


The static configuration has the point symmetry C_2v.


Analysis of symmetry for dynamics (positions and initial velocities):
=====================================================================
 Subroutine PRICEL returns:
 Original cell was already a primitive cell.
 

 Routine SETGRP: Setting up the symmetry group for a 
 simple orthorhombic supercell.


 Subroutine GETGRP returns: Found  4 space group operations
 (whereof  4 operations were pure point group operations)
 out of a pool of  8 trial point group operations.


The dynamic configuration has the point symmetry C_2v.


 Subroutine INISYM returns: Found  4 space group operations
 (whereof  4 operations are pure point group operations),
 and found     1 'primitive' translations

 
 
 KPOINTS: k-density: 4.0                          

Automatic generation of k-mesh.
Space group operators:
 irot       det(A)        alpha          n_x          n_y          n_z        tau_x        tau_y        tau_z
    1     1.000000     0.000000     1.000000     0.000000     0.000000     0.000000     0.000000     0.000000
    2     1.000000   179.999999     0.000000     0.000000     1.000000     0.000000     0.000000     0.000000
    3    -1.000000   180.000000     1.000000     0.000000     0.000000     0.000000     0.000000     0.000000
    4    -1.000000   180.000000     0.000000     1.000000     0.000000     0.000000     0.000000     0.000000
 
 Subroutine IBZKPT returns following result:
 ===========================================
 
 Found     12 irreducible k-points:
 
 Following reciprocal coordinates:
            Coordinates               Weight
  0.000000  0.000000  0.000000      1.000000
  0.200000  0.000000  0.000000      2.000000
  0.400000  0.000000  0.000000      2.000000
  0.000000  0.142857  0.000000      2.000000
  0.200000  0.142857  0.000000      4.000000
  0.400000  0.142857  0.000000      4.000000
  0.000000  0.285714  0.000000      2.000000
  0.200000  0.285714  0.000000      4.000000
  0.400000  0.285714  0.000000      4.000000
  0.000000  0.428571  0.000000      2.000000
  0.200000  0.428571  0.000000      4.000000
  0.400000  0.428571  0.000000      4.000000
 
 Following cartesian coordinates:
            Coordinates               Weight
  0.000000  0.000000  0.000000      1.000000
  0.036213  0.000000  0.000000      2.000000
  0.072426  0.000000  0.000000      2.000000
  0.000000  0.036581  0.000000      2.000000
  0.036213  0.036581  0.000000      4.000000
  0.072426  0.036581  0.000000      4.000000
  0.000000  0.073161  0.000000      2.000000
  0.036213  0.073161  0.000000      4.000000
  0.072426  0.073161  0.000000      4.000000
  0.000000  0.109742  0.000000      2.000000
  0.036213  0.109742  0.000000      4.000000
  0.072426  0.109742  0.000000      4.000000
 
 TETIRR: Found     88 inequivalent tetrahedra from      210


--------------------------------------------------------------------------------------------------------




 Dimension of arrays:
   k-points           NKPTS =     12   k-points in BZ     NKDIM =     12   number of bands    NBANDS=     76
   number of dos      NEDOS =    301   number of ions     NIONS =     20
   non local maximal  LDIM  =      6   non local SUM 2l+1 LMDIM =     18
   total plane-waves  NPLWV =  67200
   max r-space proj   IRMAX =      1   max aug-charges    IRDMAX=  10131
   dimension x,y,z NGX =    30 NGY =   20 NGZ =  112
   dimension x,y,z NGXF=    60 NGYF=   40 NGZF=  224
   support grid    NGXF=    60 NGYF=   40 NGZF=  224
   ions per type =              12   4   4
   NGX,Y,Z   is equivalent  to a cutoff of   9.03,  8.51,  8.59 a.u.
   NGXF,Y,Z  is equivalent  to a cutoff of  18.06, 17.03, 17.19 a.u.

 SYSTEM =  unknown system                          
 POSCAR =   O Sr Ti                                

 Startparameter for this run:
   NWRITE =      2    write-flag & timer
   PREC   = normal    normal or accurate (medium, high low for compatibility)
   ISTART =      0    job   : 0-new  1-cont  2-samecut
   ICHARG =      2    charge: 1-file 2-atom 10-const
   ISPIN  =      1    spin polarized calculation?
   LNONCOLLINEAR =      F non collinear calculations
   LSORBIT =      F    spin-orbit coupling
   INIWAV =      1    electr: 0-lowe 1-rand  2-diag
   LASPH  =      F    aspherical Exc in radial PAW
   METAGGA=      F    non-selfconsistent MetaGGA calc.

 Electronic Relaxation 1
   ENCUT  =  450.0 eV  33.07 Ry    5.75 a.u.   9.55  6.75 37.47*2*pi/ulx,y,z
   ENINI  =  450.0     initial cutoff
   ENAUG  =  605.4 eV  augmentation charge cutoff
   NELM   =     60;   NELMIN=  4; NELMDL= -5     # of ELM steps 
   EDIFF  = 0.1E-04   stopping-criterion for ELM
   LREAL  =      F    real-space projection
   NLSPLINE    = F    spline interpolate recip. space projectors
   LCOMPAT=      F    compatible to vasp.4.4
   GGA_COMPAT  = T    GGA compatible to vasp.4.4-vasp.4.6
   LMAXPAW     = -100 max onsite density
   LMAXMIX     =    2 max onsite mixed and CHGCAR
   VOSKOWN=      0    Vosko Wilk Nusair interpolation
   ROPT   =    0.00000   0.00000   0.00000
 Ionic relaxation
   EDIFFG = 0.1E-03   stopping-criterion for IOM
   NSW    =      0    number of steps for IOM
   NBLOCK =      1;   KBLOCK =      1    inner block; outer block 
   IBRION =     -1    ionic relax: 0-MD 1-quasi-New 2-CG
   NFREE  =      0    steps in history (QN), initial steepest desc. (CG)
   ISIF   =      2    stress and relaxation
   IWAVPR =     10    prediction:  0-non 1-charg 2-wave 3-comb
   ISYM   =      2    0-nonsym 1-usesym 2-fastsym
   LCORR  =      T    Harris-Foulkes like correction to forces

   POTIM  = 0.5000    time-step for ionic-motion
   TEIN   =    0.0    initial temperature
   TEBEG  =    0.0;   TEEND  =   0.0 temperature during run
   SMASS  =  -3.00    Nose mass-parameter (am)
   estimated Nose-frequenzy (Omega)   =  0.10E-29 period in steps =****** mass=  -0.697E-27a.u.
   SCALEE = 1.0000    scale energy and forces
   NPACO  =    256;   APACO  = 16.0  distance and # of slots for P.C.
   PSTRESS=    0.0 pullay stress

  Mass of Ions in am
   POMASS =  16.00 87.62 47.88
  Ionic Valenz
   ZVAL   =   6.00 10.00  4.00
  Atomic Wigner-Seitz radii
   RWIGS  =  -1.00 -1.00 -1.00
  virtual crystal weights 
   VCA    =   1.00  1.00  1.00
   NELECT =     128.0000    total number of electrons
   NUPDOWN=      -1.0000    fix difference up-down

 DOS related values:
   EMIN   =  10.00;   EMAX   =-10.00  energy-range for DOS
   EFERMI =   0.00
   ISMEAR =    -5;   SIGMA  =   0.20  broadening in eV -4-tet -1-fermi 0-gaus

 Electronic relaxation 2 (details)
   IALGO  =     68    algorithm
   LDIAG  =      T    sub-space diagonalisation (order eigenvalues)
   LSUBROT=      F    optimize rotation matrix (better conditioning)
   TURBO    =      0    0=normal 1=particle mesh
   IRESTART =      0    0=no restart 2=restart with 2 vectors
   NREBOOT  =      0    no. of reboots
   NMIN     =      0    reboot dimension
   EREF     =   0.00    reference energy to select bands
   IMIX   =      4    mixing-type and parameters
     AMIX     =   0.40;   BMIX     =  1.00
     AMIX_MAG =   1.60;   BMIX_MAG =  1.00
     AMIN     =   0.10
     WC   =   100.;   INIMIX=   1;  MIXPRE=   1;  MAXMIX= -45

 Intra band minimization:
   WEIMIN = 0.0000     energy-eigenvalue tresh-hold
   EBREAK =  0.33E-07  absolut break condition
   DEPER  =   0.30     relativ break condition  

   TIME   =   0.40     timestep for ELM

  volume/ion in A,a.u.               =      23.36       157.67
  Fermi-wavevector in a.u.,A,eV,Ry     =   1.063211  2.009177 15.380261  1.130417
  Thomas-Fermi vector in A             =   2.198688
 
 Write flags
   LWAVE        =      F    write WAVECAR
   LDOWNSAMPLE  =      F    k-point downsampling of WAVECAR
   LCHARG       =      T    write CHGCAR
   LVTOT        =      F    write LOCPOT, total local potential
   LVHAR        =      F    write LOCPOT, Hartree potential only
   LELF         =      F    write electronic localiz. function (ELF)
   LORBIT       =      0    0 simple, 1 ext, 2 COOP (PROOUT), +10 PAW based schemes


 Dipole corrections
   LMONO  =      F    monopole corrections only (constant potential shift)
   LDIPOL =      F    correct potential (dipole corrections)
   IDIPOL =      0    1-x, 2-y, 3-z, 4-all directions 
   EPSILON=  1.0000000 bulk dielectric constant

 Exchange correlation treatment:
   GGA     =    --    GGA type
   LEXCH   =     8    internal setting for exchange type
   VOSKOWN=      0    Vosko Wilk Nusair interpolation
   LHFCALC =     F    Hartree Fock is set to
   LHFONE  =     F    Hartree Fock one center treatment
   AEXX    =    0.0000 exact exchange contribution

 Linear response parameters
   LEPSILON=     F    determine dielectric tensor
   LRPA    =     F    only Hartree local field effects (RPA)
   LNABLA  =     F    use nabla operator in PAW spheres
   LVEL    =     F    velocity operator in full k-point grid
   LINTERFAST=   F  fast interpolation
   KINTER  =     0    interpolate to denser k-point grid
   CSHIFT  =0.1000    complex shift for real part using Kramers Kronig
   OMEGAMAX=  -1.0    maximum frequency
   DEG_THRESHOLD= 0.2000000E-02 threshold for treating states as degnerate
   RTIME   =   -0.100 relaxation time in fs
  (WPLASMAI=    0.000 imaginary part of plasma frequency in eV, 0.658/RTIME)
   DFIELD  = 0.0000000 0.0000000 0.0000000 field for delta impulse in time
 
 Orbital magnetization related:
   ORBITALMAG=     F  switch on orbital magnetization
   LCHIMAG   =     F  perturbation theory with respect to B field
   DQ        =  0.001000  dq finite difference perturbation B field
   LLRAUG    =     F  two centre corrections for induced B field



--------------------------------------------------------------------------------------------------------


 Static calculation
 charge density and potential will be updated during run
 non-spin polarized calculation
 RMM-DIIS sequential band-by-band and
  variant of blocked Davidson during initial phase
 perform sub-space diagonalisation
    before iterative eigenvector-optimisation
 modified Broyden-mixing scheme, WC =      100.0
 initial mixing is a Kerker type mixing with AMIX =  0.4000 and BMIX =      1.0000
 Hartree-type preconditioning will be used
 using additional bands           12
 reciprocal scheme for non local part
 use partial core corrections
 calculate Harris-corrections to forces 
   (improved forces if not selfconsistent)
 use gradient corrections 
 use of overlap-Matrix (Vanderbilt PP)
 Fermi weights with tetrahedron method with Bloechl corrections


--------------------------------------------------------------------------------------------------------


  energy-cutoff  :      450.00
  volume of cell :      467.28
      direct lattice vectors                 reciprocal lattice vectors
     5.522882970  0.000000000  0.000000000     0.181064854  0.000000000  0.000000000
     0.000000000  3.905268000  0.000000000     0.000000000  0.256064373  0.000000000
     0.000000000  0.000000000 21.665045198     0.000000000  0.000000000  0.046157300

  length of vectors
     5.522882970  3.905268000 21.665045198     0.181064854  0.256064373  0.046157300


 
 k-points in units of 2pi/SCALE and weight: k-density: 4.0                          
   0.00000000  0.00000000  0.00000000       0.029
   0.03621297  0.00000000  0.00000000       0.057
   0.07242594  0.00000000  0.00000000       0.057
   0.00000000  0.03658062  0.00000000       0.057
   0.03621297  0.03658062  0.00000000       0.114
   0.07242594  0.03658062  0.00000000       0.114
   0.00000000  0.07316125  0.00000000       0.057
   0.03621297  0.07316125  0.00000000       0.114
   0.07242594  0.07316125  0.00000000       0.114
   0.00000000  0.10974187  0.00000000       0.057
   0.03621297  0.10974187  0.00000000       0.114
   0.07242594  0.10974187  0.00000000       0.114
 
 k-points in reciprocal lattice and weights: k-density: 4.0                          
   0.00000000  0.00000000  0.00000000       0.029
   0.20000000  0.00000000  0.00000000       0.057
   0.40000000  0.00000000  0.00000000       0.057
   0.00000000  0.14285714  0.00000000       0.057
   0.20000000  0.14285714  0.00000000       0.114
   0.40000000  0.14285714  0.00000000       0.114
   0.00000000  0.28571429  0.00000000       0.057
   0.20000000  0.28571429  0.00000000       0.114
   0.40000000  0.28571429  0.00000000       0.114
   0.00000000  0.42857143  0.00000000       0.057
   0.20000000  0.42857143  0.00000000       0.114
   0.40000000  0.42857143  0.00000000       0.114
 
 position of ions in fractional coordinates (direct lattice) 
   0.50000000  0.00000000  0.27694380
   0.25000000  0.50000000  0.34067414
   0.75000000  0.50000000  0.34067414
   0.00000000  0.00000000  0.40440449
   0.75000000  0.50000000  0.46813483
   0.25000000  0.50000000  0.46813483
   0.50000000  0.00000000  0.53186517
   0.25000000  0.50000000  0.59559551
   0.75000000  0.50000000  0.59559551
   0.00000000  0.00000000  0.65932586
   0.75000000  0.50000000  0.72305620
   0.25000000  0.50000000  0.72305620
   0.00000000  0.00000000  0.27694380
   0.50000000  0.00000000  0.40440449
   0.00000000  0.00000000  0.53186517
   0.50000000  0.00000000  0.65932586
   0.50000000  0.50000000  0.27694380
   0.00000000  0.50000000  0.40440449
   0.50000000  0.50000000  0.53186517
   0.00000000  0.50000000  0.65932586
 
 position of ions in cartesian coordinates  (Angst):
   2.76144149  0.00000000  6.00000000
   1.38072074  1.95263400  7.38072074
   4.14216223  1.95263400  7.38072074
   0.00000000  0.00000000  8.76144149
   4.14216223  1.95263400 10.14216223
   1.38072074  1.95263400 10.14216223
   2.76144149  0.00000000 11.52288297
   1.38072074  1.95263400 12.90360371
   4.14216223  1.95263400 12.90360371
   0.00000000  0.00000000 14.28432446
   4.14216223  1.95263400 15.66504520
   1.38072074  1.95263400 15.66504520
   0.00000000  0.00000000  6.00000000
   2.76144149  0.00000000  8.76144149
   0.00000000  0.00000000 11.52288297
   2.76144149  0.00000000 14.28432446
   2.76144149  1.95263400  6.00000000
   0.00000000  1.95263400  8.76144149
   2.76144149  1.95263400 11.52288297
   0.00000000  1.95263400 14.28432446
 


--------------------------------------------------------------------------------------------------------


 k-point  1 :   0.0000 0.0000 0.0000  plane waves:   10133
 k-point  2 :   0.2000 0.0000 0.0000  plane waves:   10129
 k-point  3 :   0.4000 0.0000 0.0000  plane waves:   10099
 k-point  4 :   0.0000 0.1429 0.0000  plane waves:   10147
 k-point  5 :   0.2000 0.1429 0.0000  plane waves:   10130
 k-point  6 :   0.4000 0.1429 0.0000  plane waves:   10121
 k-point  7 :   0.0000 0.2857 0.0000  plane waves:   10136
 k-point  8 :   0.2000 0.2857 0.0000  plane waves:   10132
 k-point  9 :   0.4000 0.2857 0.0000  plane waves:   10105
 k-point 10 :   0.0000 0.4286 0.0000  plane waves:   10138
 k-point 11 :   0.2000 0.4286 0.0000  plane waves:   10173
 k-point 12 :   0.4000 0.4286 0.0000  plane waves:   10119

 maximum and minimum number of plane-waves per node :      5102     5017

 maximum number of plane-waves:     10173
 maximum index in each direction: 
   IXMAX=    9   IYMAX=    6   IZMAX=   37
   IXMIN=   -9   IYMIN=   -7   IZMIN=  -37


 parallel 3D FFT for wavefunctions:
    minimum data exchange during FFTs selected (reduces bandwidth)
 parallel 3D FFT for charge:
    minimum data exchange during FFTs selected (reduces bandwidth)


 total amount of memory used by VASP MPI-rank0   111888. kBytes
=======================================================================

   base      :      30000. kBytes
   nonl-proj :      28081. kBytes
   fftplans  :       5589. kBytes
   grid      :      10008. kBytes
   one-center:        155. kBytes
   wavefun   :      38055. kBytes
 
     INWAV:  cpu time    0.0010: real time    0.0005
 Broyden mixing: mesh for mixing (old mesh)
   NGX = 19   NGY = 13   NGZ = 75
  (NGX  = 60   NGY  = 40   NGZ  =224)
  gives a total of  18525 points

 initial charge density was supplied:
 charge density of overlapping atoms calculated
 number of electron     128.0000000 magnetization 
 keeping initial charge density in first step


--------------------------------------------------------------------------------------------------------


 Maximum index for augmentation-charges         2438 (set IRDMAX)


--------------------------------------------------------------------------------------------------------


 First call to EWALD:  gamma=   0.228
 Maximum number of real-space cells 4x 5x 1
 Maximum number of reciprocal cells 2x 2x 7

    FEWALD:  cpu time    0.0020: real time    0.0019


--------------------------------------- Iteration      1(   1)  ---------------------------------------


    POTLOK:  cpu time    0.0970: real time    0.6221
    SETDIJ:  cpu time    0.0100: real time    0.0103
     EDDAV:  cpu time    6.4890: real time    6.4875
 BZINTS: Fermi energy: 13.112092;128.000000 electrons
         Band energy: -81.116885;  BLOECHL correction: -0.058552
       DOS:  cpu time    0.0100: real time    0.0103
    --------------------------------------------
      LOOP:  cpu time    6.6060: real time    7.1302

 eigenvalue-minimisations  :  1864
 total energy-change (2. order) : 0.1519112E+04  (-0.5282577E+04)
 number of electron     128.0000000 magnetization 
 augmentation part      128.0000000 magnetization 

 Free energy of the ion-electron system (eV)
  ---------------------------------------------------
  alpha Z        PSCENC =       378.09908315
  Ewald energy   TEWEN  =     22731.27163923
  -Hartree energ DENC   =    -30966.93774877
  -exchange      EXHF   =         0.00000000
  -V(xc)+E(xc)   XCENC  =       325.41628862
  PAW double counting   =      5334.45189010    -5139.13784255
  entropy T*S    EENTRO =         0.00000000
  eigenvalues    EBANDS =       -81.11688536
  atomic energy  EATOM  =      8937.06598424
  Solvation  Ediel_sol  =         0.00000000
  ---------------------------------------------------
  free energy    TOTEN  =      1519.11240866 eV

  energy without entropy =     1519.11240866  energy(sigma->0) =     1519.11240866


--------------------------------------------------------------------------------------------------------




--------------------------------------- Iteration      1(   2)  ---------------------------------------


     EDDAV:  cpu time    7.4029: real time    7.4046
 BZINTS: Fermi energy:  3.326804;128.000000 electrons
         Band energy:***********;  BLOECHL correction: -0.067015
       DOS:  cpu time    0.0090: real time    0.0092
    --------------------------------------------
      LOOP:  cpu time    7.4119: real time    7.4138

 eigenvalue-minimisations  :  2216
 total energy-change (2. order) :-0.1357394E+04  (-0.1307061E+04)
 number of electron     128.0000000 magnetization 
 augmentation part      128.0000000 magnetization 

 Free energy of the ion-electron system (eV)
  ---------------------------------------------------
  alpha Z        PSCENC =       378.09908315
  Ewald energy   TEWEN  =     22731.27163923
  -Hartree energ DENC   =    -30966.93774877
  -exchange      EXHF   =         0.00000000
  -V(xc)+E(xc)   XCENC  =       325.41628862
  PAW double counting   =      5334.45189010    -5139.13784255
  entropy T*S    EENTRO =         0.00000000
  eigenvalues    EBANDS =     -1438.51079229
  atomic energy  EATOM  =      8937.06598424
  Solvation  Ediel_sol  =         0.00000000
  ---------------------------------------------------
  free energy    TOTEN  =       161.71850173 eV

  energy without entropy =      161.71850173  energy(sigma->0) =      161.71850173


--------------------------------------------------------------------------------------------------------




--------------------------------------- Iteration      1(   3)  ---------------------------------------


     EDDAV:  cpu time    8.2218: real time    8.2245
 BZINTS: Fermi energy: -2.658304;128.000000 electrons
         Band energy:***********;  BLOECHL correction:  0.000000
       DOS:  cpu time    0.0010: real time    0.0021
    --------------------------------------------
      LOOP:  cpu time    8.2228: real time    8.2266

 eigenvalue-minimisations  :  2520
 total energy-change (2. order) :-0.3365564E+03  (-0.3288527E+03)
 number of electron     128.0000000 magnetization 
 augmentation part      128.0000000 magnetization 

 Free energy of the ion-electron system (eV)
  ---------------------------------------------------
  alpha Z        PSCENC =       378.09908315
  Ewald energy   TEWEN  =     22731.27163923
  -Hartree energ DENC   =    -30966.93774877
  -exchange      EXHF   =         0.00000000
  -V(xc)+E(xc)   XCENC  =       325.41628862
  PAW double counting   =      5334.45189010    -5139.13784255
  entropy T*S    EENTRO =         0.00000000
  eigenvalues    EBANDS =     -1775.06723861
  atomic energy  EATOM  =      8937.06598424
  Solvation  Ediel_sol  =         0.00000000
  ---------------------------------------------------
  free energy    TOTEN  =      -174.83794459 eV

  energy without entropy =     -174.83794459  energy(sigma->0) =     -174.83794459


--------------------------------------------------------------------------------------------------------




--------------------------------------- Iteration      1(   4)  ---------------------------------------


     EDDAV:  cpu time    7.9818: real time    7.9836
 BZINTS: Fermi energy: -4.420180;128.000000 electrons
         Band energy:***********;  BLOECHL correction:  0.000000
       DOS:  cpu time    0.0020: real time    0.0019
    --------------------------------------------
      LOOP:  cpu time    7.9838: real time    7.9855

 eigenvalue-minimisations  :  2432
 total energy-change (2. order) :-0.2267759E+02  (-0.2259280E+02)
 number of electron     128.0000000 magnetization 
 augmentation part      128.0000000 magnetization 

 Free energy of the ion-electron system (eV)
  ---------------------------------------------------
  alpha Z        PSCENC =       378.09908315
  Ewald energy   TEWEN  =     22731.27163923
  -Hartree energ DENC   =    -30966.93774877
  -exchange      EXHF   =         0.00000000
  -V(xc)+E(xc)   XCENC  =       325.41628862
  PAW double counting   =      5334.45189010    -5139.13784255
  entropy T*S    EENTRO =         0.00000000
  eigenvalues    EBANDS =     -1797.74482752
  atomic energy  EATOM  =      8937.06598424
  Solvation  Ediel_sol  =         0.00000000
  ---------------------------------------------------
  free energy    TOTEN  =      -197.51553350 eV

  energy without entropy =     -197.51553350  energy(sigma->0) =     -197.51553350


--------------------------------------------------------------------------------------------------------




--------------------------------------- Iteration      1(   5)  ---------------------------------------


     EDDAV:  cpu time    9.7835: real time    9.7843
 BZINTS: Fermi energy: -4.462052;128.000000 electrons
         Band energy:***********;  BLOECHL correction:  0.000000
       DOS:  cpu time    0.0020: real time    0.0016
    CHARGE:  cpu time    0.1960: real time    0.1968
    MIXING:  cpu time    0.0030: real time    0.0026
    --------------------------------------------
      LOOP:  cpu time    9.9845: real time    9.9854

 eigenvalue-minimisations  :  3136
 total energy-change (2. order) :-0.1184974E+01  (-0.1184494E+01)
 number of electron     127.9999871 magnetization 
 augmentation part       13.6525527 magnetization 

 Broyden mixing:
  rms(total) = 0.37405E+01    rms(broyden)= 0.37394E+01
  rms(prec ) = 0.42489E+01
  weight for this iteration     100.00

 Free energy of the ion-electron system (eV)
  ---------------------------------------------------
  alpha Z        PSCENC =       378.09908315
  Ewald energy   TEWEN  =     22731.27163923
  -Hartree energ DENC   =    -30966.93774877
  -exchange      EXHF   =         0.00000000
  -V(xc)+E(xc)   XCENC  =       325.41628862
  PAW double counting   =      5334.45189010    -5139.13784255
  entropy T*S    EENTRO =         0.00000000
  eigenvalues    EBANDS =     -1798.92980141
  atomic energy  EATOM  =      8937.06598424
  Solvation  Ediel_sol  =         0.00000000
  ---------------------------------------------------
  free energy    TOTEN  =      -198.70050739 eV

  energy without entropy =     -198.70050739  energy(sigma->0) =     -198.70050739


--------------------------------------------------------------------------------------------------------




--------------------------------------- Iteration      1(   6)  ---------------------------------------


    POTLOK:  cpu time    0.0850: real time    0.0893
    SETDIJ:  cpu time    0.0110: real time    0.0102
    EDDIAG:  cpu time    0.6239: real time    0.6243
  RMM-DIIS:  cpu time    5.7531: real time    5.7509
    ORTHCH:  cpu time    0.1410: real time    0.1411
 BZINTS: Fermi energy: -1.007284;128.000000 electrons
         Band energy:***********;  BLOECHL correction: -0.058335
       DOS:  cpu time    0.0090: real time    0.0100
    CHARGE:  cpu time    0.1990: real time    0.1991
    MIXING:  cpu time    0.0030: real time    0.0026
    --------------------------------------------
      LOOP:  cpu time    6.8250: real time    6.8276

 eigenvalue-minimisations  :  2404
 total energy-change (2. order) :-0.6976839E+01  (-0.3919916E+02)
 number of electron     127.9999901 magnetization 
 augmentation part       17.2992495 magnetization 

 Broyden mixing:
  rms(total) = 0.52202E+01    rms(broyden)= 0.52180E+01
  rms(prec ) = 0.81285E+01
  weight for this iteration     100.00

 eigenvalues of (default mixing * dielectric matrix)
  average eigenvalue GAMMA=   0.4083
  0.4083

 Free energy of the ion-electron system (eV)
  ---------------------------------------------------
  alpha Z        PSCENC =       378.09908315
  Ewald energy   TEWEN  =     22731.27163923
  -Hartree energ DENC   =    -31254.84046757
  -exchange      EXHF   =         0.00000000
  -V(xc)+E(xc)   XCENC  =       345.59567402
  PAW double counting   =      5956.37561447    -5773.98227571
  entropy T*S    EENTRO =         0.00000000
  eigenvalues    EBANDS =     -1525.26259857
  atomic energy  EATOM  =      8937.06598424
  Solvation  Ediel_sol  =         0.00000000
  ---------------------------------------------------
  free energy    TOTEN  =      -205.67734675 eV

  energy without entropy =     -205.67734675  energy(sigma->0) =     -205.67734675


--------------------------------------------------------------------------------------------------------




--------------------------------------- Iteration      1(   7)  ---------------------------------------


    POTLOK:  cpu time    0.0860: real time    0.0865
    SETDIJ:  cpu time    0.0110: real time    0.0105
    EDDIAG:  cpu time    0.6659: real time    0.6658
  RMM-DIIS:  cpu time    5.0632: real time    5.0618
    ORTHCH:  cpu time    0.1470: real time    0.1472
 BZINTS: Fermi energy: -1.083615;128.000000 electrons
         Band energy:***********;  BLOECHL correction: -0.195294
       DOS:  cpu time    0.0100: real time    0.0106
    CHARGE:  cpu time    0.2020: real time    0.2015
    MIXING:  cpu time    0.0030: real time    0.0028
    --------------------------------------------
      LOOP:  cpu time    6.1881: real time    6.1867

 eigenvalue-minimisations  :  2120
 total energy-change (2. order) : 0.3352755E+02  (-0.9537981E+01)
 number of electron     127.9999889 magnetization 
 augmentation part       14.3035317 magnetization 

 Broyden mixing:
  rms(total) = 0.20861E+01    rms(broyden)= 0.20830E+01
  rms(prec ) = 0.32383E+01
  weight for this iteration     100.00

 eigenvalues of (default mixing * dielectric matrix)
  average eigenvalue GAMMA=   0.4396
  0.6454  0.2338

 Free energy of the ion-electron system (eV)
  ---------------------------------------------------
  alpha Z        PSCENC =       378.09908315
  Ewald energy   TEWEN  =     22731.27163923
  -Hartree energ DENC   =    -31266.30956707
  -exchange      EXHF   =         0.00000000
  -V(xc)+E(xc)   XCENC  =       340.65988175
  PAW double counting   =      5916.90649756    -5737.45818129
  entropy T*S    EENTRO =         0.00000000
  eigenvalues    EBANDS =     -1472.38513126
  atomic energy  EATOM  =      8937.06598424
  Solvation  Ediel_sol  =         0.00000000
  ---------------------------------------------------
  free energy    TOTEN  =      -172.14979369 eV

  energy without entropy =     -172.14979369  energy(sigma->0) =     -172.14979369


--------------------------------------------------------------------------------------------------------




--------------------------------------- Iteration      1(   8)  ---------------------------------------


    POTLOK:  cpu time    0.0860: real time    0.0896
    SETDIJ:  cpu time    0.0110: real time    0.0106
    EDDIAG:  cpu time    0.6659: real time    0.6654
  RMM-DIIS:  cpu time    4.9702: real time    4.9697
    ORTHCH:  cpu time    0.1480: real time    0.1473
 BZINTS: Fermi energy: -1.937170;128.000000 electrons
         Band energy:***********;  BLOECHL correction:  0.000000
       DOS:  cpu time    0.0010: real time    0.0019
    CHARGE:  cpu time    0.1950: real time    0.1955
    MIXING:  cpu time    0.0040: real time    0.0031
    --------------------------------------------
      LOOP:  cpu time    6.0811: real time    6.0831

 eigenvalue-minimisations  :  2077
 total energy-change (2. order) : 0.1166416E+02  (-0.2168057E+01)
 number of electron     127.9999893 magnetization 
 augmentation part       12.9869883 magnetization 

 Broyden mixing:
  rms(total) = 0.15090E+01    rms(broyden)= 0.15084E+01
  rms(prec ) = 0.20020E+01
  weight for this iteration     100.00

 eigenvalues of (default mixing * dielectric matrix)
  average eigenvalue GAMMA=   0.4487
  0.7538  0.2961  0.2961

 Free energy of the ion-electron system (eV)
  ---------------------------------------------------
  alpha Z        PSCENC =       378.09908315
  Ewald energy   TEWEN  =     22731.27163923
  -Hartree energ DENC   =    -31260.00302577
  -exchange      EXHF   =         0.00000000
  -V(xc)+E(xc)   XCENC  =       338.37891810
  PAW double counting   =      5944.20900674    -5768.05705054
  entropy T*S    EENTRO =         0.00000000
  eigenvalues    EBANDS =     -1461.45018680
  atomic energy  EATOM  =      8937.06598424
  Solvation  Ediel_sol  =         0.00000000
  ---------------------------------------------------
  free energy    TOTEN  =      -160.48563167 eV

  energy without entropy =     -160.48563167  energy(sigma->0) =     -160.48563167


--------------------------------------------------------------------------------------------------------




--------------------------------------- Iteration      1(   9)  ---------------------------------------


    POTLOK:  cpu time    0.0870: real time    0.0905
    SETDIJ:  cpu time    0.0110: real time    0.0105
    EDDIAG:  cpu time    0.6669: real time    0.6661
  RMM-DIIS:  cpu time    5.7281: real time    5.7268
    ORTHCH:  cpu time    0.1470: real time    0.1475
 BZINTS: Fermi energy: -1.773999;128.000000 electrons
         Band energy:***********;  BLOECHL correction:  0.000000
       DOS:  cpu time    0.0020: real time    0.0017
    CHARGE:  cpu time    0.1960: real time    0.1960
    MIXING:  cpu time    0.0030: real time    0.0033
    --------------------------------------------
      LOOP:  cpu time    6.8410: real time    6.8425

 eigenvalue-minimisations  :  2378
 total energy-change (2. order) : 0.4250091E+01  (-0.1986291E+00)
 number of electron     127.9999893 magnetization 
 augmentation part       13.1022968 magnetization 

 Broyden mixing:
  rms(total) = 0.12450E+01    rms(broyden)= 0.12450E+01
  rms(prec ) = 0.17564E+01
  weight for this iteration     100.00

 eigenvalues of (default mixing * dielectric matrix)
  average eigenvalue GAMMA=   0.9296
  1.9475  1.0028  0.2588  0.5092

 Free energy of the ion-electron system (eV)
  ---------------------------------------------------
  alpha Z        PSCENC =       378.09908315
  Ewald energy   TEWEN  =     22731.27163923
  -Hartree energ DENC   =    -31284.17098938
  -exchange      EXHF   =         0.00000000
  -V(xc)+E(xc)   XCENC  =       339.37324923
  PAW double counting   =      6002.38771355    -5827.69336775
  entropy T*S    EENTRO =         0.00000000
  eigenvalues    EBANDS =     -1432.56885253
  atomic energy  EATOM  =      8937.06598424
  Solvation  Ediel_sol  =         0.00000000
  ---------------------------------------------------
  free energy    TOTEN  =      -156.23554028 eV

  energy without entropy =     -156.23554028  energy(sigma->0) =     -156.23554028


--------------------------------------------------------------------------------------------------------




--------------------------------------- Iteration      1(  10)  ---------------------------------------


    POTLOK:  cpu time    0.0870: real time    0.0915
    SETDIJ:  cpu time    0.0100: real time    0.0103
    EDDIAG:  cpu time    0.6679: real time    0.6672
  RMM-DIIS:  cpu time    5.2622: real time    5.2614
    ORTHCH:  cpu time    0.1480: real time    0.1474
 BZINTS: Fermi energy: -0.657599;128.000000 electrons
         Band energy:***********;  BLOECHL correction: -0.063608
       DOS:  cpu time    0.0100: real time    0.0103
    CHARGE:  cpu time    0.2020: real time    0.2021
    MIXING:  cpu time    0.0030: real time    0.0032
    --------------------------------------------
      LOOP:  cpu time    6.3900: real time    6.3934

 eigenvalue-minimisations  :  2188
 total energy-change (2. order) :-0.1583099E+01  (-0.3807711E+01)
 number of electron     127.9999893 magnetization 
 augmentation part       15.2971337 magnetization 

 Broyden mixing:
  rms(total) = 0.31230E+01    rms(broyden)= 0.31213E+01
  rms(prec ) = 0.44233E+01
  weight for this iteration     100.00

 eigenvalues of (default mixing * dielectric matrix)
  average eigenvalue GAMMA=   0.7456
  1.9319  1.0087  0.5129  0.2585  0.0162

 Free energy of the ion-electron system (eV)
  ---------------------------------------------------
  alpha Z        PSCENC =       378.09908315
  Ewald energy   TEWEN  =     22731.27163923
  -Hartree energ DENC   =    -31350.36660372
  -exchange      EXHF   =         0.00000000
  -V(xc)+E(xc)   XCENC  =       342.53931027
  PAW double counting   =      6177.42486861    -6006.67882819
  entropy T*S    EENTRO =         0.00000000
  eigenvalues    EBANDS =     -1367.17409319
  atomic energy  EATOM  =      8937.06598424
  Solvation  Ediel_sol  =         0.00000000
  ---------------------------------------------------
  free energy    TOTEN  =      -157.81863961 eV

  energy without entropy =     -157.81863961  energy(sigma->0) =     -157.81863961


--------------------------------------------------------------------------------------------------------




--------------------------------------- Iteration      1(  11)  ---------------------------------------


    POTLOK:  cpu time    0.0860: real time    0.0898
    SETDIJ:  cpu time    0.0110: real time    0.0104
    EDDIAG:  cpu time    0.6689: real time    0.6688
  RMM-DIIS:  cpu time    6.7370: real time    6.7351
    ORTHCH:  cpu time    0.1550: real time    0.1544
 BZINTS: Fermi energy: -0.595559;128.000000 electrons
         Band energy:***********;  BLOECHL correction: -0.055167
       DOS:  cpu time    0.0090: real time    0.0100
    CHARGE:  cpu time    0.2020: real time    0.2023
    MIXING:  cpu time    0.0040: real time    0.0033
    --------------------------------------------
      LOOP:  cpu time    7.8728: real time    7.8741

 eigenvalue-minimisations  :  2815
 total energy-change (2. order) : 0.1218950E+01  (-0.3378485E+00)
 number of electron     127.9999891 magnetization 
 augmentation part       15.3531880 magnetization 

 Broyden mixing:
  rms(total) = 0.30979E+01    rms(broyden)= 0.30978E+01
  rms(prec ) = 0.43449E+01
  weight for this iteration     100.00

 eigenvalues of (default mixing * dielectric matrix)
  average eigenvalue GAMMA=   0.6685
  2.0603  0.9640  0.5160  0.2593  0.1212  0.0902

 Free energy of the ion-electron system (eV)
  ---------------------------------------------------
  alpha Z        PSCENC =       378.09908315
  Ewald energy   TEWEN  =     22731.27163923
  -Hartree energ DENC   =    -31348.42504295
  -exchange      EXHF   =         0.00000000
  -V(xc)+E(xc)   XCENC  =       342.49045421
  PAW double counting   =      6176.53201321    -6005.82379281
  entropy T*S    EENTRO =         0.00000000
  eigenvalues    EBANDS =     -1367.81002761
  atomic energy  EATOM  =      8937.06598424
  Solvation  Ediel_sol  =         0.00000000
  ---------------------------------------------------
  free energy    TOTEN  =      -156.59968934 eV

  energy without entropy =     -156.59968934  energy(sigma->0) =     -156.59968934


--------------------------------------------------------------------------------------------------------




--------------------------------------- Iteration      1(  12)  ---------------------------------------


    POTLOK:  cpu time    0.0870: real time    0.0916
    SETDIJ:  cpu time    0.0110: real time    0.0105
    EDDIAG:  cpu time    0.6699: real time    0.6693
  RMM-DIIS:  cpu time    6.5020: real time    6.5007
    ORTHCH:  cpu time    0.1520: real time    0.1515
 BZINTS: Fermi energy: -0.657428;128.000000 electrons
         Band energy:***********;  BLOECHL correction: -0.048053
       DOS:  cpu time    0.0090: real time    0.0098
    CHARGE:  cpu time    0.2020: real time    0.2024
    MIXING:  cpu time    0.0040: real time    0.0036
    --------------------------------------------
      LOOP:  cpu time    7.6368: real time    7.6394

 eigenvalue-minimisations  :  2694
 total energy-change (2. order) :-0.2878539E+01  (-0.1719613E+00)
 number of electron     127.9999892 magnetization 
 augmentation part       15.7248413 magnetization 

 Broyden mixing:
  rms(total) = 0.34187E+01    rms(broyden)= 0.34187E+01
  rms(prec ) = 0.47687E+01
  weight for this iteration     100.00

 eigenvalues of (default mixing * dielectric matrix)
  average eigenvalue GAMMA=   0.5944
  2.0562  0.9665  0.5149  0.2591  0.1805  0.0916  0.0916

 Free energy of the ion-electron system (eV)
  ---------------------------------------------------
  alpha Z        PSCENC =       378.09908315
  Ewald energy   TEWEN  =     22731.27163923
  -Hartree energ DENC   =    -31360.66205638
  -exchange      EXHF   =         0.00000000
  -V(xc)+E(xc)   XCENC  =       342.92289234
  PAW double counting   =      6191.28390185    -6020.85732153
  entropy T*S    EENTRO =         0.00000000
  eigenvalues    EBANDS =     -1358.60235098
  atomic energy  EATOM  =      8937.06598424
  Solvation  Ediel_sol  =         0.00000000
  ---------------------------------------------------
  free energy    TOTEN  =      -159.47822807 eV

  energy without entropy =     -159.47822807  energy(sigma->0) =     -159.47822807


--------------------------------------------------------------------------------------------------------




--------------------------------------- Iteration      1(  13)  ---------------------------------------


    POTLOK:  cpu time    0.0870: real time    0.0890
    SETDIJ:  cpu time    0.0110: real time    0.0105
    EDDIAG:  cpu time    0.6699: real time    0.6691
  RMM-DIIS:  cpu time    7.5199: real time    7.5190
    ORTHCH:  cpu time    0.1520: real time    0.1512
 BZINTS: Fermi energy: -0.659923;128.000000 electrons
         Band energy:***********;  BLOECHL correction: -0.047106
       DOS:  cpu time    0.0100: real time    0.0100
    CHARGE:  cpu time    0.2020: real time    0.2023
    MIXING:  cpu time    0.0040: real time    0.0037
    --------------------------------------------
      LOOP:  cpu time    8.6557: real time    8.6547

 eigenvalue-minimisations  :  3143
 total energy-change (2. order) : 0.4812577E-03  (-0.3118995E-01)
 number of electron     127.9999891 magnetization 
 augmentation part       15.7667182 magnetization 

 Broyden mixing:
  rms(total) = 0.34512E+01    rms(broyden)= 0.34512E+01
  rms(prec ) = 0.48052E+01
  weight for this iteration     100.00

 eigenvalues of (default mixing * dielectric matrix)
  average eigenvalue GAMMA=   0.5296
  2.0544  0.9663  0.5155  0.2590  0.2049  0.0968  0.0968  0.0431

 Free energy of the ion-electron system (eV)
  ---------------------------------------------------
  alpha Z        PSCENC =       378.09908315
  Ewald energy   TEWEN  =     22731.27163923
  -Hartree energ DENC   =    -31360.50655414
  -exchange      EXHF   =         0.00000000
  -V(xc)+E(xc)   XCENC  =       342.92207779
  PAW double counting   =      6191.21180574    -6020.78607242
  entropy T*S    EENTRO =         0.00000000
  eigenvalues    EBANDS =     -1358.75571041
  atomic energy  EATOM  =      8937.06598424
  Solvation  Ediel_sol  =         0.00000000
  ---------------------------------------------------
  free energy    TOTEN  =      -159.47774681 eV

  energy without entropy =     -159.47774681  energy(sigma->0) =     -159.47774681


--------------------------------------------------------------------------------------------------------




--------------------------------------- Iteration      1(  14)  ---------------------------------------


    POTLOK:  cpu time    0.0860: real time    0.0898
    SETDIJ:  cpu time    0.0110: real time    0.0104
    EDDIAG:  cpu time    0.6689: real time    0.6688
  RMM-DIIS:  cpu time    7.2229: real time    7.2209
    ORTHCH:  cpu time    0.1440: real time    0.1441
 BZINTS: Fermi energy: -0.692694;128.000000 electrons
         Band energy:***********;  BLOECHL correction: -0.043044
       DOS:  cpu time    0.0090: real time    0.0094
    CHARGE:  cpu time    0.1960: real time    0.1959
    MIXING:  cpu time    0.0040: real time    0.0036
    --------------------------------------------
      LOOP:  cpu time    8.3417: real time    8.3428

 eigenvalue-minimisations  :  2990
 total energy-change (2. order) :-0.2310589E+00  (-0.1579192E-01)
 number of electron     127.9999891 magnetization 
 augmentation part       15.8408177 magnetization 

 Broyden mixing:
  rms(total) = 0.34938E+01    rms(broyden)= 0.34938E+01
  rms(prec ) = 0.48464E+01
  weight for this iteration     100.00

 eigenvalues of (default mixing * dielectric matrix)
  average eigenvalue GAMMA=   0.5173
  2.0538  0.9657  0.5162  0.2983  0.2593  0.1737  0.1737  0.1074  0.1074

 Free energy of the ion-electron system (eV)
  ---------------------------------------------------
  alpha Z        PSCENC =       378.09908315
  Ewald energy   TEWEN  =     22731.27163923
  -Hartree energ DENC   =    -31361.36066337
  -exchange      EXHF   =         0.00000000
  -V(xc)+E(xc)   XCENC  =       342.98008915
  PAW double counting   =      6191.78149880    -6021.35355267
  entropy T*S    EENTRO =         0.00000000
  eigenvalues    EBANDS =     -1358.19288421
  atomic energy  EATOM  =      8937.06598424
  Solvation  Ediel_sol  =         0.00000000
  ---------------------------------------------------
  free energy    TOTEN  =      -159.70880567 eV

  energy without entropy =     -159.70880567  energy(sigma->0) =     -159.70880567


--------------------------------------------------------------------------------------------------------




--------------------------------------- Iteration      1(  15)  ---------------------------------------


    POTLOK:  cpu time    0.0800: real time    0.0813
    SETDIJ:  cpu time    0.0100: real time    0.0102
    EDDIAG:  cpu time    0.6399: real time    0.6395
  RMM-DIIS:  cpu time    7.6938: real time    7.6913
    ORTHCH:  cpu time    0.1510: real time    0.1516
 BZINTS: Fermi energy: -0.695394;128.000000 electrons
         Band energy:***********;  BLOECHL correction: -0.043264
       DOS:  cpu time    0.0100: real time    0.0103
    CHARGE:  cpu time    0.2000: real time    0.2009
    MIXING:  cpu time    0.0050: real time    0.0041
    --------------------------------------------
      LOOP:  cpu time    8.7897: real time    8.7891

 eigenvalue-minimisations  :  3218
 total energy-change (2. order) :-0.4638727E-01  (-0.5432098E-02)
 number of electron     127.9999891 magnetization 
 augmentation part       15.8589520 magnetization 

 Broyden mixing:
  rms(total) = 0.35043E+01    rms(broyden)= 0.35043E+01
  rms(prec ) = 0.48547E+01
  weight for this iteration     100.00

 eigenvalues of (default mixing * dielectric matrix)
  average eigenvalue GAMMA=   0.5097
  2.0605  0.9626  0.5159  0.3886  0.2588  0.2454  0.2454  0.1636  0.1636  0.0926

 Free energy of the ion-electron system (eV)
  ---------------------------------------------------
  alpha Z        PSCENC =       378.09908315
  Ewald energy   TEWEN  =     22731.27163923
  -Hartree energ DENC   =    -31361.65503153
  -exchange      EXHF   =         0.00000000
  -V(xc)+E(xc)   XCENC  =       342.99388643
  PAW double counting   =      6192.01446981    -6021.59222310
  entropy T*S    EENTRO =         0.00000000
  eigenvalues    EBANDS =     -1357.95300118
  atomic energy  EATOM  =      8937.06598424
  Solvation  Ediel_sol  =         0.00000000
  ---------------------------------------------------
  free energy    TOTEN  =      -159.75519294 eV

  energy without entropy =     -159.75519294  energy(sigma->0) =     -159.75519294


--------------------------------------------------------------------------------------------------------




--------------------------------------- Iteration      1(  16)  ---------------------------------------


    POTLOK:  cpu time    0.0880: real time    0.0934
    SETDIJ:  cpu time    0.0100: real time    0.0104
    EDDIAG:  cpu time    0.6699: real time    0.6686
  RMM-DIIS:  cpu time    7.6878: real time    7.6860
    ORTHCH:  cpu time    0.1420: real time    0.1416
 BZINTS: Fermi energy: -0.695321;128.000000 electrons
         Band energy:***********;  BLOECHL correction: -0.043000
       DOS:  cpu time    0.0100: real time    0.0102
    CHARGE:  cpu time    0.1960: real time    0.1963
    MIXING:  cpu time    0.0040: real time    0.0041
    --------------------------------------------
      LOOP:  cpu time    8.8077: real time    8.8107

 eigenvalue-minimisations  :  3240
 total energy-change (2. order) :-0.3863415E-01  (-0.1686222E-02)
 number of electron     127.9999891 magnetization 
 augmentation part       15.8682788 magnetization 

 Broyden mixing:
  rms(total) = 0.35123E+01    rms(broyden)= 0.35123E+01
  rms(prec ) = 0.48659E+01
  weight for this iteration     100.00

 eigenvalues of (default mixing * dielectric matrix)
  average eigenvalue GAMMA=   0.4691
  2.0614  0.9624  0.5157  0.3680  0.2587  0.2421  0.2421  0.1710  0.1710  0.0934
  0.0745

 Free energy of the ion-electron system (eV)
  ---------------------------------------------------
  alpha Z        PSCENC =       378.09908315
  Ewald energy   TEWEN  =     22731.27163923
  -Hartree energ DENC   =    -31361.86809021
  -exchange      EXHF   =         0.00000000
  -V(xc)+E(xc)   XCENC  =       343.00004895
  PAW double counting   =      6192.18516365    -6021.76715161
  entropy T*S    EENTRO =         0.00000000
  eigenvalues    EBANDS =     -1357.78050450
  atomic energy  EATOM  =      8937.06598424
  Solvation  Ediel_sol  =         0.00000000
  ---------------------------------------------------
  free energy    TOTEN  =      -159.79382709 eV

  energy without entropy =     -159.79382709  energy(sigma->0) =     -159.79382709


--------------------------------------------------------------------------------------------------------




--------------------------------------- Iteration      1(  17)  ---------------------------------------


    POTLOK:  cpu time    0.0810: real time    0.0816
    SETDIJ:  cpu time    0.0100: real time    0.0102
    EDDIAG:  cpu time    0.6679: real time    0.6672
  RMM-DIIS:  cpu time    6.8660: real time    6.8643
    ORTHCH:  cpu time    0.1480: real time    0.1479
 BZINTS: Fermi energy: -0.695525;128.000000 electrons
         Band energy:***********;  BLOECHL correction: -0.042868
       DOS:  cpu time    0.0090: real time    0.0096
    CHARGE:  cpu time    0.2030: real time    0.2029
    MIXING:  cpu time    0.0050: real time    0.0045
    --------------------------------------------
      LOOP:  cpu time    7.9898: real time    7.9882

 eigenvalue-minimisations  :  2870
 total energy-change (2. order) :-0.2792933E-02  (-0.7756669E-03)
 number of electron     127.9999891 magnetization 
 augmentation part       15.8713946 magnetization 

 Broyden mixing:
  rms(total) = 0.35144E+01    rms(broyden)= 0.35144E+01
  rms(prec ) = 0.48691E+01
  weight for this iteration     100.00

 eigenvalues of (default mixing * dielectric matrix)
  average eigenvalue GAMMA=   0.5473
  2.0133  0.9781  0.6455  0.6455  0.5270  0.3645  0.3645  0.2585  0.2430  0.2430
  0.1910  0.0942

 Free energy of the ion-electron system (eV)
  ---------------------------------------------------
  alpha Z        PSCENC =       378.09908315
  Ewald energy   TEWEN  =     22731.27163923
  -Hartree energ DENC   =    -31361.85129991
  -exchange      EXHF   =         0.00000000
  -V(xc)+E(xc)   XCENC  =       342.99930922
  PAW double counting   =      6192.17915460    -6021.76037296
  entropy T*S    EENTRO =         0.00000000
  eigenvalues    EBANDS =     -1357.80011760
  atomic energy  EATOM  =      8937.06598424
  Solvation  Ediel_sol  =         0.00000000
  ---------------------------------------------------
  free energy    TOTEN  =      -159.79662003 eV

  energy without entropy =     -159.79662003  energy(sigma->0) =     -159.79662003


--------------------------------------------------------------------------------------------------------




--------------------------------------- Iteration      1(  18)  ---------------------------------------


    POTLOK:  cpu time    0.0860: real time    0.0890
    SETDIJ:  cpu time    0.0110: real time    0.0105
    EDDIAG:  cpu time    0.6689: real time    0.6683
  RMM-DIIS:  cpu time    5.0432: real time    5.0421
    ORTHCH:  cpu time    0.1470: real time    0.1469
 BZINTS: Fermi energy: -0.694560;128.000000 electrons
         Band energy:***********;  BLOECHL correction: -0.052909
       DOS:  cpu time    0.0100: real time    0.0103
    CHARGE:  cpu time    0.2020: real time    0.2026
    MIXING:  cpu time    0.0060: real time    0.0051
    --------------------------------------------
      LOOP:  cpu time    6.1741: real time    6.1747

 eigenvalue-minimisations  :  2115
 total energy-change (2. order) : 0.3832630E+01  (-0.1199022E+00)
 number of electron     127.9999892 magnetization 
 augmentation part       15.5334327 magnetization 

 Broyden mixing:
  rms(total) = 0.31109E+01    rms(broyden)= 0.31108E+01
  rms(prec ) = 0.43062E+01
  weight for this iteration     100.00

 eigenvalues of (default mixing * dielectric matrix)
  average eigenvalue GAMMA=   0.5824
  2.0257  0.8990  0.8990  0.9493  0.4376  0.4376  0.5215  0.2989  0.2989  0.2596
  0.2248  0.2248  0.0942

 Free energy of the ion-electron system (eV)
  ---------------------------------------------------
  alpha Z        PSCENC =       378.09908315
  Ewald energy   TEWEN  =     22731.27163923
  -Hartree energ DENC   =    -31335.70015099
  -exchange      EXHF   =         0.00000000
  -V(xc)+E(xc)   XCENC  =       342.22494305
  PAW double counting   =      6173.47428121    -6002.40361781
  entropy T*S    EENTRO =         0.00000000
  eigenvalues    EBANDS =     -1379.99615236
  atomic energy  EATOM  =      8937.06598424
  Solvation  Ediel_sol  =         0.00000000
  ---------------------------------------------------
  free energy    TOTEN  =      -155.96399029 eV

  energy without entropy =     -155.96399029  energy(sigma->0) =     -155.96399029


--------------------------------------------------------------------------------------------------------




--------------------------------------- Iteration      1(  19)  ---------------------------------------


    POTLOK:  cpu time    0.0870: real time    0.0927
    SETDIJ:  cpu time    0.0100: real time    0.0104
    EDDIAG:  cpu time    0.6699: real time    0.6686
  RMM-DIIS:  cpu time    5.6531: real time    5.6521
    ORTHCH:  cpu time    0.1470: real time    0.1472
 BZINTS: Fermi energy: -0.660369;128.000000 electrons
         Band energy:***********;  BLOECHL correction: -0.051661
       DOS:  cpu time    0.0100: real time    0.0100
    CHARGE:  cpu time    0.2040: real time    0.2041
    MIXING:  cpu time    0.0060: real time    0.0051
    --------------------------------------------
      LOOP:  cpu time    6.7870: real time    6.7903

 eigenvalue-minimisations  :  2348
 total energy-change (2. order) : 0.1404799E+01  (-0.8169471E-01)
 number of electron     127.9999892 magnetization 
 augmentation part       15.2638490 magnetization 

 Broyden mixing:
  rms(total) = 0.28260E+01    rms(broyden)= 0.28260E+01
  rms(prec ) = 0.39375E+01
  weight for this iteration     100.00

 eigenvalues of (default mixing * dielectric matrix)
  average eigenvalue GAMMA=   0.5456
  2.0242  0.9080  0.9080  0.9521  0.4368  0.4368  0.5218  0.2924  0.2924  0.2591
  0.2179  0.2179  0.0941  0.0770

 Free energy of the ion-electron system (eV)
  ---------------------------------------------------
  alpha Z        PSCENC =       378.09908315
  Ewald energy   TEWEN  =     22731.27163923
  -Hartree energ DENC   =    -31325.97783258
  -exchange      EXHF   =         0.00000000
  -V(xc)+E(xc)   XCENC  =       341.88225299
  PAW double counting   =      6168.17917362    -5996.90110653
  entropy T*S    EENTRO =         0.00000000
  eigenvalues    EBANDS =     -1388.17838498
  atomic energy  EATOM  =      8937.06598424
  Solvation  Ediel_sol  =         0.00000000
  ---------------------------------------------------
  free energy    TOTEN  =      -154.55919087 eV

  energy without entropy =     -154.55919087  energy(sigma->0) =     -154.55919087


--------------------------------------------------------------------------------------------------------




--------------------------------------- Iteration      1(  20)  ---------------------------------------


    POTLOK:  cpu time    0.0860: real time    0.0922
    SETDIJ:  cpu time    0.0100: real time    0.0105
    EDDIAG:  cpu time    0.6639: real time    0.6631
  RMM-DIIS:  cpu time    6.2401: real time    6.2379
    ORTHCH:  cpu time    0.1410: real time    0.1412
 BZINTS: Fermi energy: -0.650805;128.000000 electrons
         Band energy:***********;  BLOECHL correction: -0.048767
       DOS:  cpu time    0.0100: real time    0.0102
    CHARGE:  cpu time    0.1990: real time    0.1992
    MIXING:  cpu time    0.0050: real time    0.0050
    --------------------------------------------
      LOOP:  cpu time    7.3549: real time    7.3594

 eigenvalue-minimisations  :  2612
 total energy-change (2. order) : 0.4516426E+00  (-0.2309983E-01)
 number of electron     127.9999892 magnetization 
 augmentation part       15.1715663 magnetization 

 Broyden mixing:
  rms(total) = 0.27355E+01    rms(broyden)= 0.27355E+01
  rms(prec ) = 0.38367E+01
  weight for this iteration     100.00

 eigenvalues of (default mixing * dielectric matrix)
  average eigenvalue GAMMA=   0.6364
  2.0015  1.1695  1.1695  0.9473  0.6201  0.6201  0.4483  0.4483  0.5338  0.3437
  0.3437  0.3291  0.2542  0.2220  0.0942

 Free energy of the ion-electron system (eV)
  ---------------------------------------------------
  alpha Z        PSCENC =       378.09908315
  Ewald energy   TEWEN  =     22731.27163923
  -Hartree energ DENC   =    -31322.96238786
  -exchange      EXHF   =         0.00000000
  -V(xc)+E(xc)   XCENC  =       341.75416215
  PAW double counting   =      6166.27748452    -5994.94295458
  entropy T*S    EENTRO =         0.00000000
  eigenvalues    EBANDS =     -1390.67055915
  atomic energy  EATOM  =      8937.06598424
  Solvation  Ediel_sol  =         0.00000000
  ---------------------------------------------------
  free energy    TOTEN  =      -154.10754830 eV

  energy without entropy =     -154.10754830  energy(sigma->0) =     -154.10754830


--------------------------------------------------------------------------------------------------------




--------------------------------------- Iteration      1(  21)  ---------------------------------------


    POTLOK:  cpu time    0.0830: real time    0.0837
    SETDIJ:  cpu time    0.0100: real time    0.0102
    EDDIAG:  cpu time    0.6659: real time    0.6651
  RMM-DIIS:  cpu time    5.0532: real time    5.0516
    ORTHCH:  cpu time    0.1430: real time    0.1429
 BZINTS: Fermi energy: -0.355614;128.000000 electrons
         Band energy:***********;  BLOECHL correction: -0.020460
       DOS:  cpu time    0.0090: real time    0.0099
    CHARGE:  cpu time    0.2000: real time    0.2002
    MIXING:  cpu time    0.0060: real time    0.0057
    --------------------------------------------
      LOOP:  cpu time    6.1701: real time    6.1693

 eigenvalue-minimisations  :  2114
 total energy-change (2. order) : 0.3545886E+01  (-0.5904017E+00)
 number of electron     127.9999909 magnetization 
 augmentation part       13.7129296 magnetization 

 Broyden mixing:
  rms(total) = 0.11574E+01    rms(broyden)= 0.11549E+01
  rms(prec ) = 0.14240E+01
  weight for this iteration     100.00

 eigenvalues of (default mixing * dielectric matrix)
  average eigenvalue GAMMA=   0.6006
  1.9981  1.1727  1.1727  0.9482  0.6237  0.6237  0.4502  0.4502  0.5323  0.3437
  0.3437  0.3235  0.2541  0.2224  0.0942  0.0564

 Free energy of the ion-electron system (eV)
  ---------------------------------------------------
  alpha Z        PSCENC =       378.09908315
  Ewald energy   TEWEN  =     22731.27163923
  -Hartree energ DENC   =    -31281.80841594
  -exchange      EXHF   =         0.00000000
  -V(xc)+E(xc)   XCENC  =       340.35252631
  PAW double counting   =      6144.73071146    -5972.56138480
  entropy T*S    EENTRO =         0.00000000
  eigenvalues    EBANDS =     -1427.71180631
  atomic energy  EATOM  =      8937.06598424
  Solvation  Ediel_sol  =         0.00000000
  ---------------------------------------------------
  free energy    TOTEN  =      -150.56166266 eV

  energy without entropy =     -150.56166266  energy(sigma->0) =     -150.56166266


--------------------------------------------------------------------------------------------------------




--------------------------------------- Iteration      1(  22)  ---------------------------------------


    POTLOK:  cpu time    0.0890: real time    0.0903
    SETDIJ:  cpu time    0.0110: real time    0.0103
    EDDIAG:  cpu time    0.6649: real time    0.6639
  RMM-DIIS:  cpu time    6.0751: real time    6.0743
    ORTHCH:  cpu time    0.1470: real time    0.1470
 BZINTS: Fermi energy: -0.368543;128.000000 electrons
         Band energy:***********;  BLOECHL correction: -0.022552
       DOS:  cpu time    0.0100: real time    0.0097
    CHARGE:  cpu time    0.1990: real time    0.1997
    MIXING:  cpu time    0.0060: real time    0.0057
    --------------------------------------------
      LOOP:  cpu time    7.2019: real time    7.2009

 eigenvalue-minimisations  :  2511
 total energy-change (2. order) : 0.3920141E-02  (-0.1081766E+00)
 number of electron     127.9999909 magnetization 
 augmentation part       13.6913222 magnetization 

 Broyden mixing:
  rms(total) = 0.11570E+01    rms(broyden)= 0.11569E+01
  rms(prec ) = 0.14734E+01
  weight for this iteration     100.00

 eigenvalues of (default mixing * dielectric matrix)
  average eigenvalue GAMMA=   0.5950
  1.9819  1.1650  1.1650  0.9585  0.6386  0.6386  0.5393  0.4236  0.4236  0.3155
  0.3155  0.3300  0.3300  0.3196  0.2218  0.2541  0.0942

 Free energy of the ion-electron system (eV)
  ---------------------------------------------------
  alpha Z        PSCENC =       378.09908315
  Ewald energy   TEWEN  =     22731.27163923
  -Hartree energ DENC   =    -31279.93275392
  -exchange      EXHF   =         0.00000000
  -V(xc)+E(xc)   XCENC  =       340.25699203
  PAW double counting   =      6143.47849553    -5971.26817288
  entropy T*S    EENTRO =         0.00000000
  eigenvalues    EBANDS =     -1429.52900991
  atomic energy  EATOM  =      8937.06598424
  Solvation  Ediel_sol  =         0.00000000
  ---------------------------------------------------
  free energy    TOTEN  =      -150.55774252 eV

  energy without entropy =     -150.55774252  energy(sigma->0) =     -150.55774252


--------------------------------------------------------------------------------------------------------




--------------------------------------- Iteration      1(  23)  ---------------------------------------


    POTLOK:  cpu time    0.0890: real time    0.0919
    SETDIJ:  cpu time    0.0100: real time    0.0104
    EDDIAG:  cpu time    0.6669: real time    0.6654
  RMM-DIIS:  cpu time    4.9932: real time    4.9925
    ORTHCH:  cpu time    0.1470: real time    0.1465
 BZINTS: Fermi energy: -0.394113;128.000000 electrons
         Band energy:***********;  BLOECHL correction: -0.022325
       DOS:  cpu time    0.0090: real time    0.0090
    CHARGE:  cpu time    0.1990: real time    0.1996
    MIXING:  cpu time    0.0070: real time    0.0063
    --------------------------------------------
      LOOP:  cpu time    6.1211: real time    6.1216

 eigenvalue-minimisations  :  2070
 total energy-change (2. order) :-0.1444440E+00  (-0.7248363E-01)
 number of electron     127.9999905 magnetization 
 augmentation part       13.7579570 magnetization 

 Broyden mixing:
  rms(total) = 0.12030E+01    rms(broyden)= 0.12030E+01
  rms(prec ) = 0.14690E+01
  weight for this iteration     100.00

 eigenvalues of (default mixing * dielectric matrix)
  average eigenvalue GAMMA=   0.6117
  1.9862  1.1939  1.1939  0.9522  0.7328  0.7328  0.5029  0.5029  0.5366  0.4280
  0.4280  0.3413  0.3413  0.3224  0.0942  0.2203  0.2509  0.2505

 Free energy of the ion-electron system (eV)
  ---------------------------------------------------
  alpha Z        PSCENC =       378.09908315
  Ewald energy   TEWEN  =     22731.27163923
  -Hartree energ DENC   =    -31295.29019819
  -exchange      EXHF   =         0.00000000
  -V(xc)+E(xc)   XCENC  =       340.84429277
  PAW double counting   =      6155.15445406    -5983.31831489
  entropy T*S    EENTRO =         0.00000000
  eigenvalues    EBANDS =     -1414.52912691
  atomic energy  EATOM  =      8937.06598424
  Solvation  Ediel_sol  =         0.00000000
  ---------------------------------------------------
  free energy    TOTEN  =      -150.70218654 eV

  energy without entropy =     -150.70218654  energy(sigma->0) =     -150.70218654


--------------------------------------------------------------------------------------------------------




--------------------------------------- Iteration      1(  24)  ---------------------------------------


    POTLOK:  cpu time    0.0880: real time    0.0931
    SETDIJ:  cpu time    0.0100: real time    0.0105
    EDDIAG:  cpu time    0.6669: real time    0.6657
  RMM-DIIS:  cpu time    5.2882: real time    5.2866
    ORTHCH:  cpu time    0.1460: real time    0.1465
 BZINTS: Fermi energy: -0.438698;128.000000 electrons
         Band energy:***********;  BLOECHL correction: -0.042763
       DOS:  cpu time    0.0100: real time    0.0103
    CHARGE:  cpu time    0.2030: real time    0.2026
    MIXING:  cpu time    0.0070: real time    0.0064
    --------------------------------------------
      LOOP:  cpu time    6.4190: real time    6.4217

 eigenvalue-minimisations  :  2208
 total energy-change (2. order) :-0.3608320E+00  (-0.9382830E-01)
 number of electron     127.9999902 magnetization 
 augmentation part       14.1546454 magnetization 

 Broyden mixing:
  rms(total) = 0.15746E+01    rms(broyden)= 0.15744E+01
  rms(prec ) = 0.20491E+01
  weight for this iteration     100.00

 eigenvalues of (default mixing * dielectric matrix)
  average eigenvalue GAMMA=   0.6675
  2.1066  1.2156  1.2156  0.9890  0.9890  0.9250  0.6327  0.6327  0.5037  0.5037
  0.5237  0.4615  0.4615  0.3218  0.3218  0.3085  0.2540  0.2214  0.0942

 Free energy of the ion-electron system (eV)
  ---------------------------------------------------
  alpha Z        PSCENC =       378.09908315
  Ewald energy   TEWEN  =     22731.27163923
  -Hartree energ DENC   =    -31310.32685095
  -exchange      EXHF   =         0.00000000
  -V(xc)+E(xc)   XCENC  =       341.37594138
  PAW double counting   =      6167.98592542    -5996.47313894
  entropy T*S    EENTRO =         0.00000000
  eigenvalues    EBANDS =     -1400.06160204
  atomic energy  EATOM  =      8937.06598424
  Solvation  Ediel_sol  =         0.00000000
  ---------------------------------------------------
  free energy    TOTEN  =      -151.06301852 eV

  energy without entropy =     -151.06301852  energy(sigma->0) =     -151.06301852


[...]
     43      -4.9013      2.00000
     44      -4.7328      2.00000
     45      -4.2372      2.00000
     46      -4.2292      2.00000
     47      -4.1453      2.00000
     48      -4.0856      2.00000
     49      -3.9421      2.00000
     50      -3.8088      2.00000
     51      -3.6791      2.00000
     52      -3.4748      2.00000
     53      -3.4346      2.00000
     54      -2.9112      2.00000
     55      -2.8742      2.00000
     56      -2.8338      2.00000
     57      -2.1480      2.00000
     58      -2.0434      2.00000
     59      -1.9913      2.00000
     60      -1.7334      2.00000
     61      -1.2391      2.00000
     62      -1.2002      2.00000
     63      -0.9402      2.01379
     64      -0.8018      1.98966
     65      -0.7754      1.01426
     66      -0.3403      0.00000
     67      -0.1754      0.00000
     68       0.2560      0.00000
     69       0.4609      0.00000
     70       1.0063      0.00000
     71       1.0314      0.00000
     72       1.0579      0.00000
     73       1.8365      0.00000
     74       1.8514      0.00000
     75       1.8940      0.00000
     76       3.0882      0.00000

 k-point    10 :       0.0000    0.4286    0.0000
  band No.  band energies     occupation 
      1     -36.5706      2.00000
      2     -35.2436      2.00000
      3     -34.2819      2.00000
      4     -33.3925      2.00000
      5     -20.3904      2.00000
      6     -19.7216      2.00000
      7     -19.5615      2.00000
      8     -19.1854      2.00000
      9     -19.0663      2.00000
     10     -18.7207      2.00000
     11     -18.5399      2.00000
     12     -18.3963      2.00000
     13     -18.3925      2.00000
     14     -18.1816      2.00000
     15     -18.0562      2.00000
     16     -17.5701      2.00000
     17     -17.4289      2.00000
     18     -17.1969      2.00000
     19     -17.1526      2.00000
     20     -16.9740      2.00000
     21     -16.6313      2.00000
     22     -16.4768      2.00000
     23     -16.1743      2.00000
     24     -16.1038      2.00000
     25     -15.9979      2.00000
     26     -15.5193      2.00000
     27     -15.4498      2.00000
     28     -15.1256      2.00000
     29      -7.5776      2.00000
     30      -6.9756      2.00000
     31      -6.7101      2.00000
     32      -6.5926      2.00000
     33      -6.5909      2.00000
     34      -6.5265      2.00000
     35      -6.3578      2.00000
     36      -5.9667      2.00000
     37      -5.8259      2.00000
     38      -5.6379      2.00000
     39      -5.5605      2.00000
     40      -5.4719      2.00000
     41      -5.1388      2.00000
     42      -4.9670      2.00000
     43      -4.9080      2.00000
     44      -4.7255      2.00000
     45      -4.6076      2.00000
     46      -4.5754      2.00000
     47      -4.4349      2.00000
     48      -4.1614      2.00000
     49      -4.0670      2.00000
     50      -3.7130      2.00000
     51      -3.5463      2.00000
     52      -3.4873      2.00000
     53      -3.0003      2.00000
     54      -2.8549      2.00000
     55      -2.7618      2.00000
     56      -2.7314      2.00000
     57      -2.2988      2.00000
     58      -2.1388      2.00000
     59      -1.8827      2.00000
     60      -1.4297      2.00000
     61      -1.2787      2.00000
     62      -0.8693      2.00000
     63      -0.7379      0.27116
     64      -0.7089     -0.07326
     65      -0.5513      0.00000
     66      -0.4156      0.00000
     67      -0.1875      0.00000
     68       0.6469      0.00000
     69       0.7160      0.00000
     70       0.7746      0.00000
     71       1.4012      0.00000
     72       1.4441      0.00000
     73       1.8158      0.00000
     74       2.2727      0.00000
     75       3.1431      0.00000
     76       3.5331      0.00000

 k-point    11 :       0.2000    0.4286    0.0000
  band No.  band energies     occupation 
      1     -36.5705      2.00000
      2     -35.2435      2.00000
      3     -34.2818      2.00000
      4     -33.3925      2.00000
      5     -20.3285      2.00000
      6     -19.8621      2.00000
      7     -19.6318      2.00000
      8     -19.1505      2.00000
      9     -19.0976      2.00000
     10     -18.5672      2.00000
     11     -18.5066      2.00000
     12     -18.4929      2.00000
     13     -18.4132      2.00000
     14     -18.1585      2.00000
     15     -18.1235      2.00000
     16     -17.6547      2.00000
     17     -17.2984      2.00000
     18     -17.2136      2.00000
     19     -17.1049      2.00000
     20     -17.0383      2.00000
     21     -16.6144      2.00000
     22     -16.3453      2.00000
     23     -16.2131      2.00000
     24     -16.0958      2.00000
     25     -16.0115      2.00000
     26     -15.4518      2.00000
     27     -15.3871      2.00000
     28     -15.0866      2.00000
     29      -7.5880      2.00000
     30      -6.9439      2.00000
     31      -6.7952      2.00000
     32      -6.7547      2.00000
     33      -6.6278      2.00000
     34      -6.5744      2.00000
     35      -6.2708      2.00000
     36      -5.9801      2.00000
     37      -5.8455      2.00000
     38      -5.7700      2.00000
     39      -5.5323      2.00000
     40      -5.4371      2.00000
     41      -5.1560      2.00000
     42      -5.1080      2.00000
     43      -4.9543      2.00000
     44      -4.8129      2.00000
     45      -4.6553      2.00000
     46      -4.4086      2.00000
     47      -4.2969      2.00000
     48      -4.1851      2.00000
     49      -4.1273      2.00000
     50      -3.7614      2.00000
     51      -3.6678      2.00000
     52      -3.4947      2.00000
     53      -3.1964      2.00000
     54      -2.8728      2.00000
     55      -2.8036      2.00000
     56      -2.6290      2.00000
     57      -2.3003      2.00000
     58      -2.0466      2.00000
     59      -1.9173      2.00000
     60      -1.6232      2.00000
     61      -1.2142      2.00000
     62      -0.8503      2.00000
     63      -0.7540      1.05770
     64      -0.7334      0.04208
     65      -0.7026     -0.01004
     66      -0.3867      0.00000
     67      -0.0380      0.00000
     68       0.6697      0.00000
     69       0.7222      0.00000
     70       0.9108      0.00000
     71       1.4155      0.00000
     72       1.4340      0.00000
     73       1.8551      0.00000
     74       2.2581      0.00000
     75       2.2639      0.00000
     76       3.1800      0.00000

 k-point    12 :       0.4000    0.4286    0.0000
  band No.  band energies     occupation 
      1     -36.5702      2.00000
      2     -35.2433      2.00000
      3     -34.2816      2.00000
      4     -33.3923      2.00000
      5     -20.1741      2.00000
      6     -20.0344      2.00000
      7     -19.8045      2.00000
      8     -19.2172      2.00000
      9     -18.9619      2.00000
     10     -18.7006      2.00000
     11     -18.4889      2.00000
     12     -18.4114      2.00000
     13     -18.3507      2.00000
     14     -18.2309      2.00000
     15     -18.0544      2.00000
     16     -17.8315      2.00000
     17     -17.2289      2.00000
     18     -17.1800      2.00000
     19     -17.0792      2.00000
     20     -17.0184      2.00000
     21     -16.5722      2.00000
     22     -16.2620      2.00000
     23     -16.1557      2.00000
     24     -16.1502      2.00000
     25     -15.9817      2.00000
     26     -15.4545      2.00000
     27     -15.1921      2.00000
     28     -15.0332      2.00000
     29      -7.6086      2.00000
     30      -7.1093      2.00000
     31      -6.9688      2.00000
     32      -6.8419      2.00000
     33      -6.6633      2.00000
     34      -6.5541      2.00000
     35      -6.0865      2.00000
     36      -6.0159      2.00000
     37      -5.9159      2.00000
     38      -5.8420      2.00000
     39      -5.5995      2.00000
     40      -5.3637      2.00000
     41      -5.2902      2.00000
     42      -5.2783      2.00000
     43      -5.1432      2.00000
     44      -4.7451      2.00000
     45      -4.6863      2.00000
     46      -4.2948      2.00000
     47      -4.1952      2.00000
     48      -4.1353      2.00000
     49      -4.0474      2.00000
     50      -3.8514      2.00000
     51      -3.7602      2.00000
     52      -3.6617      2.00000
     53      -3.5598      2.00000
     54      -2.8305      2.00000
     55      -2.8182      2.00000
     56      -2.7488      2.00000
     57      -2.0812      2.00000
     58      -1.9897      2.00000
     59      -1.8890      2.00000
     60      -1.7252      2.00000
     61      -1.2158      2.00000
     62      -1.1509      2.00000
     63      -0.8890      2.08641
     64      -0.7369      0.13895
     65      -0.6446     -0.09454
     66      -0.2603      0.00000
     67       0.0811      0.00000
     68       0.7246      0.00000
     69       1.0910      0.00000
     70       1.4104      0.00000
     71       1.4325      0.00000
     72       1.9241      0.00000
     73       2.2263      0.00000
     74       2.2363      0.00000
     75       3.1681      0.00000
     76       3.4416      0.00000


--------------------------------------------------------------------------------------------------------


 soft charge-density along one line, spin component           1
         0         1         2         3         4         5         6         7         8         9
 total charge-density along one line
 
 pseudopotential strength for first ion, spin component:           1
 13.308  -0.448   0.000   0.001   0.000  -0.000   0.000  -0.000
 -0.448   0.104  -0.000  -0.000  -0.000   0.000   0.000   0.000
  0.000  -0.000  -9.837  -0.000  -0.000   0.122   0.000   0.000
  0.001  -0.000  -0.000  -9.793   0.000   0.000   0.116  -0.000
  0.000  -0.000  -0.000   0.000  -9.801   0.000  -0.000   0.117
 -0.000   0.000   0.122   0.000   0.000   0.180  -0.000  -0.000
  0.000   0.000   0.000   0.116  -0.000  -0.000   0.182   0.000
 -0.000   0.000   0.000  -0.000   0.117  -0.000   0.000   0.181
 total augmentation occupancy for first ion, spin component:           1
  1.872   0.150   0.000   0.018   0.000   0.000   0.002   0.000
  0.150   0.017   0.000  -0.005   0.000   0.000   0.001   0.000
  0.000   0.000   1.580   0.000   0.000   0.158   0.000   0.000
  0.018  -0.005   0.000   1.527   0.000   0.000   0.122   0.000
  0.000   0.000   0.000   0.000   1.514   0.000   0.000   0.130
  0.000   0.000   0.158   0.000   0.000   0.017   0.000   0.000
  0.002   0.001   0.000   0.122   0.000   0.000   0.011   0.000
  0.000   0.000   0.000   0.000   0.130   0.000   0.000   0.013


------------------------ aborting loop because EDIFF is reached ----------------------------------------


    CHARGE:  cpu time    0.1820: real time    0.1826
    FORLOC:  cpu time    0.0170: real time    0.0165
    FORNL :  cpu time    2.2637: real time    2.2636
    STRESS:  cpu time    4.6183: real time    4.6164
    FORCOR:  cpu time    0.0810: real time    0.0811
    FORHAR:  cpu time    0.0270: real time    0.0279
    MIXING:  cpu time    0.0140: real time    0.0137
    OFIELD:  cpu time    0.0000: real time    0.0000

  FORCE on cell =-STRESS in cart. coord.  units (eV):
  Direction    XX          YY          ZZ          XY          YZ          ZX
  --------------------------------------------------------------------------------------
  Alpha Z   378.09908   378.09908   378.09908
  Ewald   27809.53423 27749.52952-32827.80614    -0.00000    -0.00000    -0.00000
  Hartree 30090.52507 30018.84208-28823.63112    -0.00000    -0.00000    -0.00000
  E(xc)    -577.32405  -577.41206  -577.15162    -0.00000    -0.00000     0.00000
  Local  -59555.69685-59435.61724 59984.20542     0.00000    -0.00000    -0.00000
  n-local  -476.71471  -478.70838  -479.63479     0.74937    -0.00002     0.00002
  augment   113.97377   115.49651   114.52182     0.00000    -0.00000    -0.00000
  Kinetic  2219.76679  2237.09603  2232.33788    -1.31449     0.00003    -0.00003
  Fock        0.00000     0.00000     0.00000     0.00000     0.00000     0.00000
  -------------------------------------------------------------------------------------
  Total       2.16333     7.32554     0.94054     0.00000     0.00000     0.00000
  in kB       7.41749    25.11735     3.22485     0.00000     0.00000     0.00000
  external pressure =       11.92 kB  Pullay stress =        0.00 kB


 VOLUME and BASIS-vectors are now :
 -----------------------------------------------------------------------------
  energy-cutoff  :      450.00
  volume of cell :      467.28
      direct lattice vectors                 reciprocal lattice vectors
     5.522882970  0.000000000  0.000000000     0.181064854  0.000000000  0.000000000
     0.000000000  3.905268000  0.000000000     0.000000000  0.256064373  0.000000000
     0.000000000  0.000000000 21.665045198     0.000000000  0.000000000  0.046157300

  length of vectors
     5.522882970  3.905268000 21.665045198     0.181064854  0.256064373  0.046157300


 FORCES acting on ions
    electron-ion (+dipol)            ewald-force                    non-local-force                 convergence-correction
 -----------------------------------------------------------------------------------------------
   0.135E-12 -.127E-12 0.128E+04   -.677E-14 0.936E-15 -.128E+04   0.000E+00 0.000E+00 -.181E+01   0.924E-13 0.135E-12 0.212E+00
   0.354E+00 0.269E-12 0.948E+03   -.132E+00 -.110E-13 -.946E+03   0.644E+00 0.000E+00 -.443E+01   -.161E+00 0.239E-12 0.558E+00
   -.354E+00 0.488E-12 0.948E+03   0.132E+00 -.115E-13 -.946E+03   -.644E+00 0.000E+00 -.443E+01   0.161E+00 -.199E-13 0.558E+00
   0.482E-14 0.910E-15 0.543E+03   -.628E-14 -.372E-14 -.542E+03   0.000E+00 0.000E+00 -.263E+01   0.247E-12 -.120E-12 0.547E+00
   0.161E+00 0.149E-11 0.149E+03   0.246E-13 -.106E-13 -.148E+03   0.376E+00 0.000E+00 -.268E+01   0.138E-01 0.163E-13 0.564E+00
   -.161E+00 0.910E-13 0.149E+03   -.125E-12 -.112E-13 -.148E+03   -.376E+00 0.000E+00 -.268E+01   -.138E-01 0.188E-12 0.564E+00
   0.165E-12 0.801E-13 -.246E+03   -.187E-14 -.940E-15 0.247E+03   0.000E+00 0.000E+00 -.200E+01   0.124E-12 0.325E-12 0.538E+00
   -.342E+00 -.268E-13 -.640E+03   0.132E+00 -.870E-15 0.641E+03   0.105E+01 0.000E+00 -.264E+01   -.340E-01 -.212E-12 0.510E+00
   0.342E+00 0.523E-13 -.640E+03   -.132E+00 0.195E-17 0.641E+03   -.105E+01 0.000E+00 -.264E+01   0.340E-01 0.142E-13 0.510E+00
   0.599E-14 -.116E-12 -.104E+04   -.158E-13 -.726E-14 0.105E+04   0.000E+00 0.000E+00 -.581E+01   -.325E-12 -.139E-12 0.304E+00
   0.204E+02 -.295E-12 -.134E+04   -.268E+02 0.747E-16 0.136E+04   0.656E+01 0.000E+00 -.167E+02   0.377E-01 0.122E-13 -.822E-01
   -.204E+02 0.146E-12 -.134E+04   0.268E+02 -.841E-15 0.136E+04   -.656E+01 0.000E+00 -.167E+02   -.377E-01 -.580E-14 -.822E-01
   0.898E-15 0.131E-12 0.213E+04   0.588E-13 0.130E-13 -.212E+04   0.000E+00 0.000E+00 -.228E+01   -.883E-13 0.170E-12 0.294E+00
   0.599E-13 0.894E-13 0.905E+03   0.105E-12 0.220E-13 -.904E+03   0.000E+00 0.000E+00 -.159E+01   -.609E-13 0.102E-12 0.972E+00
   0.766E-14 -.250E-12 -.410E+03   0.102E-12 0.196E-13 0.411E+03   0.000E+00 0.000E+00 -.136E+01   -.205E-12 -.212E-12 0.915E+00
   0.684E-13 0.175E-12 -.173E+04   -.674E-14 -.509E-14 0.174E+04   0.000E+00 0.000E+00 -.116E+01   0.435E-12 -.116E-12 0.479E+00
   -.824E-15 0.682E-13 0.900E+03   -.162E-13 0.219E-14 -.895E+03   0.000E+00 0.000E+00 -.263E+01   0.695E-13 -.353E-13 0.129E+00
   0.460E-14 -.243E-13 0.364E+03   -.108E-13 0.545E-15 -.362E+03   0.000E+00 0.000E+00 0.503E+00   0.132E-12 0.501E-13 0.369E+00
   -.167E-14 0.155E-12 -.163E+03   -.935E-14 0.336E-14 0.164E+03   0.000E+00 0.000E+00 0.731E+00   0.428E-13 -.938E-13 0.360E+00
   0.589E-14 -.182E-13 -.683E+03   -.243E-13 0.323E-14 0.685E+03   0.000E+00 0.000E+00 0.113E+01   -.186E-12 0.340E-13 0.212E+00
 -----------------------------------------------------------------------------------------------
   0.198E-11 0.238E-11 0.634E+02   -.390E-13 0.210E-14 -.182E-11   0.000E+00 0.000E+00 -.718E+02   0.658E-12 0.332E-12 0.843E+01
 
 
 POSITION                                       TOTAL-FORCE (eV/Angst)
 -----------------------------------------------------------------------------------
      2.76144      0.00000      6.00000         0.000000      0.000000     -1.513286
      1.38072      1.95263      7.38072         0.705377      0.000000     -2.065006
      4.14216      1.95263      7.38072        -0.705377      0.000000     -2.065006
      0.00000      0.00000      8.76144         0.000000      0.000000     -0.746911
      4.14216      1.95263     10.14216         0.551105      0.000000     -1.258521
      1.38072      1.95263     10.14216        -0.551105     -0.000000     -1.258521
      2.76144      0.00000     11.52288         0.000000      0.000000     -0.597695
      1.38072      1.95263     12.90360         0.806305      0.000000     -1.455389
      4.14216      1.95263     12.90360        -0.806305      0.000000     -1.455389
      0.00000      0.00000     14.28432         0.000000      0.000000     -1.121656
      4.14216      1.95263     15.66505         0.191666      0.000000     -0.987054
      1.38072      1.95263     15.66505        -0.191666      0.000000     -0.987054
      0.00000      0.00000      6.00000         0.000000      0.000000      0.995541
      2.76144      0.00000      8.76144         0.000000      0.000000      0.958771
      0.00000      0.00000     11.52288         0.000000      0.000000      0.738217
      2.76144      0.00000     14.28432         0.000000      0.000000      1.576321
      2.76144      1.95263      6.00000         0.000000      0.000000      2.278699
      0.00000      1.95263      8.76144         0.000000      0.000000      2.596365
      2.76144      1.95263     11.52288         0.000000      0.000000      2.342389
      0.00000      1.95263     14.28432         0.000000      0.000000      4.025186
 -----------------------------------------------------------------------------------
    total drift:                                0.000000      0.000000     -0.042331


--------------------------------------------------------------------------------------------------------



  FREE ENERGIE OF THE ION-ELECTRON SYSTEM (eV)
  ---------------------------------------------------
  free  energy   TOTEN  =      -148.76408269 eV

  energy  without entropy=     -148.76408269  energy(sigma->0) =     -148.76408269
 


--------------------------------------------------------------------------------------------------------


    POTLOK:  cpu time    0.0810: real time    0.0816


--------------------------------------------------------------------------------------------------------


     LOOP+:  cpu time  398.2925: real time  399.1256
    4ORBIT:  cpu time    0.0000: real time    0.0000
 BZINTS: Fermi energy: -0.764688;128.000000 electrons
         Band energy:***********;  BLOECHL correction: -0.020491

 total amount of memory used by VASP MPI-rank0   111888. kBytes
=======================================================================

   base      :      30000. kBytes
   nonl-proj :      28081. kBytes
   fftplans  :       5589. kBytes
   grid      :      10008. kBytes
   one-center:        155. kBytes
   wavefun   :      38055. kBytes
 
  
  
 General timing and accounting informations for this job:
 ========================================================
  
                  Total CPU time used (sec):      400.719
                            User time (sec):      394.586
                          System time (sec):        6.133
                         Elapsed time (sec):      402.262
  
                   Maximum memory used (kb):      121388.
                   Average memory used (kb):           0.
  
                          Minor page faults:        39343
                          Major page faults:          125
                 Voluntary context switches:         4401
