   9   9   0   0
  0.1255774E+02  0.4913700E-09  0.4913700E-09  0.5405130E-09  0.5000000E-15
  1.000000000000000E-004
  CAR 
 unknown system                          
     13.68398275    -20.37242565  301      1.11149198      1.00000000
    -20.372  0.0000E+00  0.0000E+00
    -20.259  0.0000E+00  0.0000E+00
    -20.145  0.0000E+00  0.0000E+00
    -20.032  0.0000E+00  0.0000E+00
    -19.918  0.0000E+00  0.0000E+00
    -19.805  0.0000E+00  0.0000E+00
    -19.691  0.0000E+00  0.0000E+00
    -19.578  0.0000E+00  0.0000E+00
    -19.464  0.0000E+00  0.0000E+00
    -19.351  0.0000E+00  0.0000E+00
    -19.237  0.0000E+00  0.0000E+00
    -19.124  0.0000E+00  0.0000E+00
    -19.010  0.0000E+00  0.0000E+00
    -18.897  0.0000E+00  0.0000E+00
    -18.783  0.0000E+00  0.0000E+00
    -18.670  0.0000E+00  0.0000E+00
    -18.556  0.0000E+00  0.0000E+00
    -18.443  0.0000E+00  0.0000E+00
    -18.329  0.2466E+00  0.3566E-02
    -18.216  0.1307E+01  0.1118E+00
    -18.102  0.2237E+01  0.3117E+00
    -17.988  0.4017E+01  0.6669E+00
    -17.875  0.9044E+01  0.1265E+01
    -17.761  0.7839E+00  0.1977E+01
    -17.648  0.1071E+01  0.2060E+01
    -17.534  0.2066E+01  0.2235E+01
    -17.421  0.6113E+01  0.2634E+01
    -17.307  0.3352E+01  0.3579E+01
    -17.194  0.1369E+01  0.3827E+01
    -17.080  0.6574E+00  0.3935E+01
    -16.967  0.9142E+00  0.4008E+01
    -16.853  0.5784E+01  0.4317E+01
    -16.740  0.4438E+01  0.5260E+01
    -16.626  0.2190E+01  0.5599E+01
    -16.513  0.1351E+01  0.5792E+01
    -16.399  0.8387E+00  0.5918E+01
    -16.286  0.3349E+00  0.5990E+01
    -16.172  0.6021E+02  0.1113E+02
    -16.059  0.0000E+00  0.1200E+02
    -15.945  0.0000E+00  0.1200E+02
    -15.832  0.0000E+00  0.1200E+02
    -15.718  0.0000E+00  0.1200E+02
    -15.605  0.0000E+00  0.1200E+02
    -15.491  0.0000E+00  0.1200E+02
    -15.377  0.0000E+00  0.1200E+02
    -15.264  0.0000E+00  0.1200E+02
    -15.150  0.0000E+00  0.1200E+02
    -15.037  0.0000E+00  0.1200E+02
    -14.923  0.0000E+00  0.1200E+02
    -14.810  0.0000E+00  0.1200E+02
    -14.696  0.0000E+00  0.1200E+02
    -14.583  0.0000E+00  0.1200E+02
    -14.469  0.0000E+00  0.1200E+02
    -14.356  0.0000E+00  0.1200E+02
    -14.242  0.0000E+00  0.1200E+02
    -14.129  0.0000E+00  0.1200E+02
    -14.015  0.0000E+00  0.1200E+02
    -13.902  0.0000E+00  0.1200E+02
    -13.788  0.0000E+00  0.1200E+02
    -13.675  0.0000E+00  0.1200E+02
    -13.561  0.0000E+00  0.1200E+02
    -13.448  0.0000E+00  0.1200E+02
    -13.334  0.0000E+00  0.1200E+02
    -13.221  0.0000E+00  0.1200E+02
    -13.107  0.0000E+00  0.1200E+02
    -12.994  0.0000E+00  0.1200E+02
    -12.880  0.0000E+00  0.1200E+02
    -12.766  0.0000E+00  0.1200E+02
    -12.653  0.0000E+00  0.1200E+02
    -12.539  0.0000E+00  0.1200E+02
    -12.426  0.0000E+00  0.1200E+02
    -12.312  0.0000E+00  0.1200E+02
    -12.199  0.0000E+00  0.1200E+02
    -12.085  0.0000E+00  0.1200E+02
    -11.972  0.0000E+00  0.1200E+02
    -11.858  0.0000E+00  0.1200E+02
    -11.745  0.0000E+00  0.1200E+02
    -11.631  0.0000E+00  0.1200E+02
    -11.518  0.0000E+00  0.1200E+02
    -11.404  0.0000E+00  0.1200E+02
    -11.291  0.0000E+00  0.1200E+02
    -11.177  0.0000E+00  0.1200E+02
    -11.064  0.0000E+00  0.1200E+02
    -10.950  0.0000E+00  0.1200E+02
    -10.837  0.0000E+00  0.1200E+02
    -10.723  0.0000E+00  0.1200E+02
    -10.610  0.0000E+00  0.1200E+02
    -10.496  0.0000E+00  0.1200E+02
    -10.383  0.0000E+00  0.1200E+02
    -10.269  0.0000E+00  0.1200E+02
    -10.156  0.0000E+00  0.1200E+02
    -10.042  0.0000E+00  0.1200E+02
     -9.928  0.0000E+00  0.1200E+02
     -9.815  0.0000E+00  0.1200E+02
     -9.701  0.0000E+00  0.1200E+02
     -9.588  0.0000E+00  0.1200E+02
     -9.474  0.0000E+00  0.1200E+02
     -9.361  0.0000E+00  0.1200E+02
     -9.247  0.0000E+00  0.1200E+02
     -9.134  0.0000E+00  0.1200E+02
     -9.020  0.0000E+00  0.1200E+02
     -8.907  0.0000E+00  0.1200E+02
     -8.793  0.0000E+00  0.1200E+02
     -8.680  0.0000E+00  0.1200E+02
     -8.566  0.0000E+00  0.1200E+02
     -8.453  0.0000E+00  0.1200E+02
     -8.339  0.0000E+00  0.1200E+02
     -8.226  0.7205E-02  0.1200E+02
     -8.112  0.2635E+00  0.1201E+02
     -7.999  0.4319E+00  0.1206E+02
     -7.885  0.6331E+00  0.1212E+02
     -7.772  0.8416E+00  0.1220E+02
     -7.658  0.1117E+01  0.1231E+02
     -7.545  0.1539E+01  0.1246E+02
     -7.431  0.2437E+01  0.1267E+02
     -7.317  0.9232E+01  0.1321E+02
     -7.204  0.2240E+01  0.1380E+02
     -7.090  0.6025E+00  0.1395E+02
     -6.977  0.3210E+00  0.1400E+02
     -6.863  0.2106E+00  0.1403E+02
     -6.750  0.3408E+00  0.1406E+02
     -6.636  0.5063E+00  0.1410E+02
     -6.523  0.8341E+00  0.1418E+02
     -6.409  0.1384E+01  0.1430E+02
     -6.296  0.3100E+01  0.1452E+02
     -6.182  0.6609E+01  0.1509E+02
     -6.069  0.2423E+01  0.1550E+02
     -5.955  0.1363E+01  0.1571E+02
     -5.842  0.9005E+00  0.1583E+02
     -5.728  0.6094E+00  0.1592E+02
     -5.615  0.5615E+00  0.1598E+02
     -5.501  0.1295E+00  0.1600E+02
     -5.388  0.1987E+01  0.1612E+02
     -5.274  0.3658E+01  0.1645E+02
     -5.161  0.2889E+01  0.1681E+02
     -5.047  0.2913E+01  0.1714E+02
     -4.934  0.2167E+01  0.1743E+02
     -4.820  0.1518E+01  0.1763E+02
     -4.706  0.1117E+01  0.1778E+02
     -4.593  0.7817E+00  0.1789E+02
     -4.479  0.1128E+01  0.1797E+02
     -4.366  0.1884E+02  0.1843E+02
     -4.252  0.9113E+01  0.2008E+02
     -4.139  0.5899E+01  0.2091E+02
     -4.025  0.5204E+01  0.2163E+02
     -3.912  0.2406E+01  0.2212E+02
     -3.798  0.8147E+01  0.2291E+02
     -3.685  0.4332E+01  0.2361E+02
     -3.571  0.1796E+01  0.2395E+02
     -3.458  0.0000E+00  0.2400E+02
     -3.344  0.0000E+00  0.2400E+02
     -3.231  0.0000E+00  0.2400E+02
     -3.117  0.0000E+00  0.2400E+02
     -3.004  0.0000E+00  0.2400E+02
     -2.890  0.0000E+00  0.2400E+02
     -2.777  0.0000E+00  0.2400E+02
     -2.663  0.0000E+00  0.2400E+02
     -2.550  0.0000E+00  0.2400E+02
     -2.436  0.0000E+00  0.2400E+02
     -2.323  0.0000E+00  0.2400E+02
     -2.209  0.0000E+00  0.2400E+02
     -2.095  0.1232E+02  0.2459E+02
     -1.982  0.5643E+01  0.2587E+02
     -1.868  0.5313E+01  0.2652E+02
     -1.755  0.6764E+01  0.2736E+02
     -1.641  0.4691E+01  0.2809E+02
     -1.528  0.1161E+02  0.2893E+02
     -1.414  0.4958E+01  0.2977E+02
     -1.301  0.1266E+01  0.3004E+02
     -1.187  0.1545E+02  0.3084E+02
     -1.074  0.2716E+01  0.3183E+02
     -0.960  0.1319E+02  0.3237E+02
     -0.847  0.1282E+01  0.3385E+02
     -0.733  0.3069E+01  0.3408E+02
     -0.620  0.6163E+01  0.3473E+02
     -0.506  0.1201E+02  0.3570E+02
     -0.393  0.1329E+02  0.3701E+02
     -0.279  0.4901E+01  0.3771E+02
     -0.166  0.1159E+02  0.3842E+02
     -0.052  0.8799E+01  0.3968E+02
      0.061  0.8475E+01  0.4035E+02
      0.175  0.8359E+01  0.4186E+02
      0.288  0.3720E+01  0.4208E+02
      0.402  0.1145E+02  0.4326E+02
      0.516  0.4714E+01  0.4387E+02
      0.629  0.4733E+01  0.4439E+02
      0.743  0.9554E+01  0.4519E+02
      0.856  0.4979E+01  0.4619E+02
      0.970  0.1001E+02  0.4699E+02
      1.083  0.3862E+00  0.4800E+02
      1.197  0.0000E+00  0.4800E+02
      1.310  0.0000E+00  0.4800E+02
      1.424  0.0000E+00  0.4800E+02
      1.537  0.0000E+00  0.4800E+02
      1.651  0.0000E+00  0.4800E+02
      1.764  0.0000E+00  0.4800E+02
      1.878  0.0000E+00  0.4800E+02
      1.991  0.0000E+00  0.4800E+02
      2.105  0.0000E+00  0.4800E+02
      2.218  0.0000E+00  0.4800E+02
      2.332  0.0000E+00  0.4800E+02
      2.445  0.0000E+00  0.4800E+02
      2.559  0.0000E+00  0.4800E+02
      2.672  0.0000E+00  0.4800E+02
      2.786  0.0000E+00  0.4800E+02
      2.899  0.0000E+00  0.4800E+02
      3.013  0.0000E+00  0.4800E+02
      3.126  0.0000E+00  0.4800E+02
      3.240  0.0000E+00  0.4800E+02
      3.354  0.0000E+00  0.4800E+02
      3.467  0.0000E+00  0.4800E+02
      3.581  0.0000E+00  0.4800E+02
      3.694  0.0000E+00  0.4800E+02
      3.808  0.0000E+00  0.4800E+02
      3.921  0.0000E+00  0.4800E+02
      4.035  0.0000E+00  0.4800E+02
      4.148  0.0000E+00  0.4800E+02
      4.262  0.0000E+00  0.4800E+02
      4.375  0.0000E+00  0.4800E+02
      4.489  0.0000E+00  0.4800E+02
      4.602  0.0000E+00  0.4800E+02
      4.716  0.0000E+00  0.4800E+02
      4.829  0.0000E+00  0.4800E+02
      4.943  0.0000E+00  0.4800E+02
      5.056  0.0000E+00  0.4800E+02
      5.170  0.0000E+00  0.4800E+02
      5.283  0.0000E+00  0.4800E+02
      5.397  0.0000E+00  0.4800E+02
      5.510  0.0000E+00  0.4800E+02
      5.624  0.0000E+00  0.4800E+02
      5.737  0.0000E+00  0.4800E+02
      5.851  0.0000E+00  0.4800E+02
      5.965  0.0000E+00  0.4800E+02
      6.078  0.0000E+00  0.4800E+02
      6.192  0.0000E+00  0.4800E+02
      6.305  0.0000E+00  0.4800E+02
      6.419  0.0000E+00  0.4800E+02
      6.532  0.0000E+00  0.4800E+02
      6.646  0.0000E+00  0.4800E+02
      6.759  0.0000E+00  0.4800E+02
      6.873  0.0000E+00  0.4800E+02
      6.986  0.0000E+00  0.4800E+02
      7.100  0.0000E+00  0.4800E+02
      7.213  0.8655E-02  0.4800E+02
      7.327  0.4278E-01  0.4800E+02
      7.440  0.1028E+00  0.4801E+02
      7.554  0.1925E+00  0.4803E+02
      7.667  0.2425E+00  0.4805E+02
      7.781  0.2751E+00  0.4808E+02
      7.894  0.2931E+00  0.4811E+02
      8.008  0.3378E+00  0.4815E+02
      8.121  0.3851E+00  0.4819E+02
      8.235  0.4349E+00  0.4824E+02
      8.348  0.4870E+00  0.4829E+02
      8.462  0.5412E+00  0.4835E+02
      8.576  0.6669E+00  0.4842E+02
      8.689  0.8180E+00  0.4850E+02
      8.803  0.8141E+00  0.4860E+02
      8.916  0.8738E+00  0.4869E+02
      9.030  0.9356E+00  0.4879E+02
      9.143  0.9992E+00  0.4890E+02
      9.257  0.1064E+01  0.4902E+02
      9.370  0.1525E+01  0.4917E+02
      9.484  0.1396E+01  0.4934E+02
      9.597  0.1249E+01  0.4949E+02
      9.711  0.1369E+01  0.4963E+02
      9.824  0.1500E+01  0.4980E+02
      9.938  0.1983E+01  0.5000E+02
     10.051  0.1146E+01  0.5017E+02
     10.165  0.1580E+01  0.5030E+02
     10.278  0.4490E+01  0.5062E+02
     10.392  0.1048E+02  0.5161E+02
     10.505  0.3901E+01  0.5223E+02
     10.619  0.7389E+01  0.5283E+02
     10.732  0.7348E+01  0.5371E+02
     10.846  0.3369E+01  0.5434E+02
     10.959  0.3015E+01  0.5465E+02
     11.073  0.7838E+01  0.5516E+02
     11.187  0.3593E+01  0.5592E+02
     11.300  0.5398E+01  0.5632E+02
     11.414  0.5622E+01  0.5694E+02
     11.527  0.6095E+01  0.5763E+02
     11.641  0.6817E+00  0.5799E+02
     11.754  0.0000E+00  0.5800E+02
     11.868  0.0000E+00  0.5800E+02
     11.981  0.0000E+00  0.5800E+02
     12.095  0.0000E+00  0.5800E+02
     12.208  0.0000E+00  0.5800E+02
     12.322  0.0000E+00  0.5800E+02
     12.435  0.0000E+00  0.5800E+02
     12.549  0.0000E+00  0.5800E+02
     12.662  0.0000E+00  0.5800E+02
     12.776  0.0000E+00  0.5800E+02
     12.889  0.0000E+00  0.5800E+02
     13.003  0.0000E+00  0.5800E+02
     13.116  0.0000E+00  0.5800E+02
     13.230  0.0000E+00  0.5800E+02
     13.343  0.0000E+00  0.5800E+02
     13.457  0.0000E+00  0.5800E+02
     13.570  0.0000E+00  0.5800E+02
     13.684  0.0000E+00  0.5800E+02
