Starting job 28172872 ("jobname") on c14-33 at Fri Sep 13 10:17:06 CEST 2019
 running on    1 total cores
 distrk:  each k-point on    1 cores,    1 groups
 distr:  one band on    1 cores,    1 groups
 using from now: INCAR     
 vasp.5.4.1 05Feb16 (build Mar 02 2016 14:09:44) complex                        
  
 POSCAR found :  2 types and       9 ions
 LDA part: xc-table for Pade appr. of Perdew
 POSCAR, INCAR and KPOINTS ok, starting setup
 WARNING: small aliasing (wrap around) errors must be expected
 FFT: planning ...
 WAVECAR not read
 entering main loop
       N       E                     dE             d eps       ncg     rms          rms(c)
DAV:   1     0.394815112811E+03    0.39482E+03   -0.32399E+04  3190   0.216E+03
DAV:   2    -0.547207299677E+02   -0.44954E+03   -0.43980E+03  4304   0.392E+02
DAV:   3    -0.803084032114E+02   -0.25588E+02   -0.25505E+02  3720   0.104E+02
DAV:   4    -0.806685956050E+02   -0.36019E+00   -0.35961E+00  3772   0.131E+01
DAV:   5    -0.806752207034E+02   -0.66251E-02   -0.66224E-02  3685   0.177E+00    0.188E+01
RMM:   6    -0.710703196231E+02    0.96049E+01   -0.42051E+01  3406   0.346E+01    0.514E+00
RMM:   7    -0.710505922503E+02    0.19727E-01   -0.16940E+00  3669   0.600E+00    0.340E+00
RMM:   8    -0.710661292912E+02   -0.15537E-01   -0.27977E-01  3612   0.440E+00    0.648E-01
RMM:   9    -0.710581730708E+02    0.79562E-02   -0.58288E-02  3731   0.128E+00    0.138E-01
RMM:  10    -0.710615242538E+02   -0.33512E-02   -0.18097E-02  3672   0.722E-01    0.246E-01
RMM:  11    -0.710600191373E+02    0.15051E-02   -0.32223E-03  3730   0.332E-01    0.681E-02
RMM:  12    -0.710599661119E+02    0.53025E-04   -0.97521E-04  3715   0.167E-01    0.814E-03
RMM:  13    -0.710599684703E+02   -0.23585E-05   -0.28369E-05  2716   0.313E-02
   1 F= -.71059968E+02 E0= -.71059968E+02  d E =0.000000E+00

Currently Loaded Modulefiles:
  1) Anaconda3/5.1.0       3) vesta/3.3.8           5) intel/2016.1
  2) gnuplot/5.0.4         4) imagemagick/6.7.9-0   6) vasp/5.4.1.Feb16

Job script resource usage:
       JobID  MaxVMSize     MaxRSS 
------------ ---------- ---------- 
28172872.ba+    596020K    220102K 

Job step resource usage:
       JobID    JobName  AllocCPUS  MaxVMSize     MaxRSS    Elapsed ExitCode 
------------ ---------- ---------- ---------- ---------- ---------- -------- 
28172872        jobname          1                         00:03:30      0:0 

Job 28172872 ("jobname") completed on c14-33 at Fri Sep 13 10:20:35 CEST 2019
