  20  20   0   0
  0.2336395E+02  0.5522883E-09  0.3905268E-09  0.2166505E-08  0.5000000E-15
  1.000000000000000E-004
  CAR 
 unknown system                          
      7.06376176    -38.67182221  301     -0.76663519      1.00000000
    -38.672  0.0000E+00  0.0000E+00
    -38.519  0.0000E+00  0.0000E+00
    -38.367  0.0000E+00  0.0000E+00
    -38.214  0.0000E+00  0.0000E+00
    -38.062  0.0000E+00  0.0000E+00
    -37.910  0.0000E+00  0.0000E+00
    -37.757  0.0000E+00  0.0000E+00
    -37.605  0.0000E+00  0.0000E+00
    -37.452  0.0000E+00  0.0000E+00
    -37.300  0.0000E+00  0.0000E+00
    -37.147  0.0000E+00  0.0000E+00
    -36.995  0.0000E+00  0.0000E+00
    -36.842  0.0000E+00  0.0000E+00
    -36.690  0.0000E+00  0.0000E+00
    -36.537  0.0000E+00  0.2000E+01
    -36.385  0.0000E+00  0.2000E+01
    -36.233  0.0000E+00  0.2000E+01
    -36.080  0.0000E+00  0.2000E+01
    -35.928  0.0000E+00  0.2000E+01
    -35.775  0.0000E+00  0.2000E+01
    -35.623  0.0000E+00  0.2000E+01
    -35.470  0.0000E+00  0.2000E+01
    -35.318  0.0000E+00  0.2000E+01
    -35.165  0.0000E+00  0.4000E+01
    -35.013  0.0000E+00  0.4000E+01
    -34.861  0.0000E+00  0.4000E+01
    -34.708  0.0000E+00  0.4000E+01
    -34.556  0.0000E+00  0.4000E+01
    -34.403  0.0000E+00  0.4000E+01
    -34.251  0.0000E+00  0.6000E+01
    -34.098  0.0000E+00  0.6000E+01
    -33.946  0.0000E+00  0.6000E+01
    -33.793  0.0000E+00  0.6000E+01
    -33.641  0.0000E+00  0.6000E+01
    -33.488  0.0000E+00  0.6000E+01
    -33.336  0.0000E+00  0.8000E+01
    -33.184  0.0000E+00  0.8000E+01
    -33.031  0.0000E+00  0.8000E+01
    -32.879  0.0000E+00  0.8000E+01
    -32.726  0.0000E+00  0.8000E+01
    -32.574  0.0000E+00  0.8000E+01
    -32.421  0.0000E+00  0.8000E+01
    -32.269  0.0000E+00  0.8000E+01
    -32.116  0.0000E+00  0.8000E+01
    -31.964  0.0000E+00  0.8000E+01
    -31.811  0.0000E+00  0.8000E+01
    -31.659  0.0000E+00  0.8000E+01
    -31.507  0.0000E+00  0.8000E+01
    -31.354  0.0000E+00  0.8000E+01
    -31.202  0.0000E+00  0.8000E+01
    -31.049  0.0000E+00  0.8000E+01
    -30.897  0.0000E+00  0.8000E+01
    -30.744  0.0000E+00  0.8000E+01
    -30.592  0.0000E+00  0.8000E+01
    -30.439  0.0000E+00  0.8000E+01
    -30.287  0.0000E+00  0.8000E+01
    -30.135  0.0000E+00  0.8000E+01
    -29.982  0.0000E+00  0.8000E+01
    -29.830  0.0000E+00  0.8000E+01
    -29.677  0.0000E+00  0.8000E+01
    -29.525  0.0000E+00  0.8000E+01
    -29.372  0.0000E+00  0.8000E+01
    -29.220  0.0000E+00  0.8000E+01
    -29.067  0.0000E+00  0.8000E+01
    -28.915  0.0000E+00  0.8000E+01
    -28.762  0.0000E+00  0.8000E+01
    -28.610  0.0000E+00  0.8000E+01
    -28.458  0.0000E+00  0.8000E+01
    -28.305  0.0000E+00  0.8000E+01
    -28.153  0.0000E+00  0.8000E+01
    -28.000  0.0000E+00  0.8000E+01
    -27.848  0.0000E+00  0.8000E+01
    -27.695  0.0000E+00  0.8000E+01
    -27.543  0.0000E+00  0.8000E+01
    -27.390  0.0000E+00  0.8000E+01
    -27.238  0.0000E+00  0.8000E+01
    -27.085  0.0000E+00  0.8000E+01
    -26.933  0.0000E+00  0.8000E+01
    -26.781  0.0000E+00  0.8000E+01
    -26.628  0.0000E+00  0.8000E+01
    -26.476  0.0000E+00  0.8000E+01
    -26.323  0.0000E+00  0.8000E+01
    -26.171  0.0000E+00  0.8000E+01
    -26.018  0.0000E+00  0.8000E+01
    -25.866  0.0000E+00  0.8000E+01
    -25.713  0.0000E+00  0.8000E+01
    -25.561  0.0000E+00  0.8000E+01
    -25.409  0.0000E+00  0.8000E+01
    -25.256  0.0000E+00  0.8000E+01
    -25.104  0.0000E+00  0.8000E+01
    -24.951  0.0000E+00  0.8000E+01
    -24.799  0.0000E+00  0.8000E+01
    -24.646  0.0000E+00  0.8000E+01
    -24.494  0.0000E+00  0.8000E+01
    -24.341  0.0000E+00  0.8000E+01
    -24.189  0.0000E+00  0.8000E+01
    -24.036  0.0000E+00  0.8000E+01
    -23.884  0.0000E+00  0.8000E+01
    -23.732  0.0000E+00  0.8000E+01
    -23.579  0.0000E+00  0.8000E+01
    -23.427  0.0000E+00  0.8000E+01
    -23.274  0.0000E+00  0.8000E+01
    -23.122  0.0000E+00  0.8000E+01
    -22.969  0.0000E+00  0.8000E+01
    -22.817  0.0000E+00  0.8000E+01
    -22.664  0.0000E+00  0.8000E+01
    -22.512  0.0000E+00  0.8000E+01
    -22.359  0.0000E+00  0.8000E+01
    -22.207  0.0000E+00  0.8000E+01
    -22.055  0.0000E+00  0.8000E+01
    -21.902  0.0000E+00  0.8000E+01
    -21.750  0.0000E+00  0.8000E+01
    -21.597  0.0000E+00  0.8000E+01
    -21.445  0.0000E+00  0.8000E+01
    -21.292  0.0000E+00  0.8000E+01
    -21.140  0.0000E+00  0.8000E+01
    -20.987  0.0000E+00  0.8000E+01
    -20.835  0.0000E+00  0.8000E+01
    -20.682  0.0000E+00  0.8000E+01
    -20.530  0.4567E+01  0.8395E+01
    -20.378  0.1093E+02  0.9202E+01
    -20.225  0.5800E+01  0.1013E+02
    -20.073  0.5244E+01  0.1098E+02
    -19.920  0.2688E+01  0.1164E+02
    -19.768  0.6461E+01  0.1221E+02
    -19.615  0.3903E+01  0.1386E+02
    -19.463  0.0000E+00  0.1400E+02
    -19.310  0.1245E+02  0.1438E+02
    -19.158  0.4524E+01  0.1627E+02
    -19.006  0.3197E+01  0.1785E+02
    -18.853  0.0000E+00  0.1800E+02
    -18.701  0.1221E+02  0.1889E+02
    -18.548  0.1017E+02  0.2138E+02
    -18.396  0.2286E+02  0.2448E+02
    -18.243  0.1001E+02  0.2727E+02
    -18.091  0.8927E+01  0.2974E+02
    -17.938  0.0000E+00  0.3000E+02
    -17.786  0.2666E+02  0.3057E+02
    -17.633  0.3070E+01  0.3188E+02
    -17.481  0.0000E+00  0.3200E+02
    -17.329  0.2748E+01  0.3219E+02
    -17.176  0.5660E+01  0.3602E+02
    -17.024  0.4417E+01  0.3986E+02
    -16.871  0.0000E+00  0.4000E+02
    -16.719  0.0000E+00  0.4000E+02
    -16.566  0.1286E+02  0.4102E+02
    -16.414  0.2029E+01  0.4210E+02
    -16.261  0.1404E+02  0.4456E+02
    -16.109  0.3236E+02  0.4769E+02
    -15.956  0.0000E+00  0.5000E+02
    -15.804  0.0000E+00  0.5000E+02
    -15.652  0.0000E+00  0.5000E+02
    -15.499  0.2449E+01  0.5006E+02
    -15.347  0.3558E+01  0.5233E+02
    -15.194  0.3250E+02  0.5344E+02
    -15.042  0.3712E+01  0.5594E+02
    -14.889  0.0000E+00  0.5600E+02
    -14.737  0.0000E+00  0.5600E+02
    -14.584  0.0000E+00  0.5600E+02
    -14.432  0.0000E+00  0.5600E+02
    -14.280  0.0000E+00  0.5600E+02
    -14.127  0.0000E+00  0.5600E+02
    -13.975  0.0000E+00  0.5600E+02
    -13.822  0.0000E+00  0.5600E+02
    -13.670  0.0000E+00  0.5600E+02
    -13.517  0.0000E+00  0.5600E+02
    -13.365  0.0000E+00  0.5600E+02
    -13.212  0.0000E+00  0.5600E+02
    -13.060  0.0000E+00  0.5600E+02
    -12.907  0.0000E+00  0.5600E+02
    -12.755  0.0000E+00  0.5600E+02
    -12.603  0.0000E+00  0.5600E+02
    -12.450  0.0000E+00  0.5600E+02
    -12.298  0.0000E+00  0.5600E+02
    -12.145  0.0000E+00  0.5600E+02
    -11.993  0.0000E+00  0.5600E+02
    -11.840  0.0000E+00  0.5600E+02
    -11.688  0.0000E+00  0.5600E+02
    -11.535  0.0000E+00  0.5600E+02
    -11.383  0.0000E+00  0.5600E+02
    -11.230  0.0000E+00  0.5600E+02
    -11.078  0.0000E+00  0.5600E+02
    -10.926  0.0000E+00  0.5600E+02
    -10.773  0.0000E+00  0.5600E+02
    -10.621  0.0000E+00  0.5600E+02
    -10.468  0.0000E+00  0.5600E+02
    -10.316  0.0000E+00  0.5600E+02
    -10.163  0.0000E+00  0.5600E+02
    -10.011  0.0000E+00  0.5600E+02
     -9.858  0.0000E+00  0.5600E+02
     -9.706  0.0000E+00  0.5600E+02
     -9.554  0.0000E+00  0.5600E+02
     -9.401  0.0000E+00  0.5600E+02
     -9.249  0.0000E+00  0.5600E+02
     -9.096  0.0000E+00  0.5600E+02
     -8.944  0.0000E+00  0.5600E+02
     -8.791  0.0000E+00  0.5600E+02
     -8.639  0.0000E+00  0.5600E+02
     -8.486  0.0000E+00  0.5600E+02
     -8.334  0.0000E+00  0.5600E+02
     -8.181  0.0000E+00  0.5600E+02
     -8.029  0.0000E+00  0.5600E+02
     -7.877  0.0000E+00  0.5600E+02
     -7.724  0.0000E+00  0.5600E+02
     -7.572  0.9710E+00  0.5631E+02
     -7.419  0.9705E+00  0.5646E+02
     -7.267  0.9700E+00  0.5660E+02
     -7.114  0.9694E+00  0.5675E+02
     -6.962  0.1669E+02  0.5789E+02
     -6.809  0.7063E+01  0.5962E+02
     -6.657  0.2053E+02  0.6167E+02
     -6.504  0.8389E+01  0.6380E+02
     -6.352  0.7755E+01  0.6490E+02
     -6.200  0.5986E+01  0.6589E+02
     -6.047  0.8427E+01  0.6699E+02
     -5.895  0.1269E+02  0.6871E+02
     -5.742  0.1171E+02  0.7076E+02
     -5.590  0.1393E+02  0.7263E+02
     -5.437  0.1225E+02  0.7475E+02
     -5.285  0.1228E+02  0.7671E+02
     -5.132  0.1732E+02  0.7922E+02
     -4.980  0.1675E+02  0.8143E+02
     -4.827  0.1111E+02  0.8339E+02
     -4.675  0.1456E+02  0.8577E+02
     -4.523  0.7445E+01  0.8756E+02
     -4.370  0.1124E+02  0.8905E+02
     -4.218  0.1073E+02  0.9105E+02
     -4.065  0.1528E+02  0.9396E+02
     -3.913  0.1034E+02  0.9593E+02
     -3.760  0.1936E+02  0.9791E+02
     -3.608  0.9745E+01  0.9983E+02
     -3.455  0.1047E+02  0.1017E+03
     -3.303  0.6907E+01  0.1031E+03
     -3.151  0.8438E+01  0.1042E+03
     -2.998  0.1447E+02  0.1057E+03
     -2.846  0.2282E+02  0.1083E+03
     -2.693  0.9188E+01  0.1106E+03
     -2.541  0.6217E+01  0.1117E+03
     -2.388  0.5830E+01  0.1122E+03
     -2.236  0.4927E+01  0.1137E+03
     -2.083  0.1049E+02  0.1151E+03
     -1.931  0.1283E+02  0.1170E+03
     -1.778  0.1475E+01  0.1180E+03
     -1.626  0.5698E+01  0.1190E+03
     -1.474  0.3184E+01  0.1198E+03
     -1.321  0.7190E+01  0.1205E+03
     -1.169  0.6063E+01  0.1225E+03
     -1.016  0.1163E+02  0.1240E+03
     -0.864  0.2799E+02  0.1263E+03
     -0.711  0.1905E+02  0.1297E+03
     -0.559  0.7476E+01  0.1314E+03
     -0.406  0.1105E+02  0.1325E+03
     -0.254  0.3874E+01  0.1338E+03
     -0.101  0.3774E+01  0.1344E+03
      0.051  0.3755E+01  0.1349E+03
      0.203  0.2776E+01  0.1358E+03
      0.356  0.5655E+01  0.1363E+03
      0.508  0.8231E+01  0.1376E+03
      0.661  0.1085E+02  0.1386E+03
      0.813  0.8143E+01  0.1400E+03
      0.966  0.6423E+01  0.1411E+03
      1.118  0.3597E+01  0.1420E+03
      1.271  0.3356E+01  0.1425E+03
      1.423  0.5518E+01  0.1439E+03
      1.575  0.3942E+01  0.1446E+03
      1.728  0.4184E+01  0.1452E+03
      1.880  0.7537E+01  0.1461E+03
      2.033  0.4585E+01  0.1469E+03
      2.185  0.3617E+01  0.1475E+03
      2.338  0.1244E+01  0.1480E+03
      2.490  0.1255E+01  0.1482E+03
      2.643  0.1946E+01  0.1484E+03
      2.795  0.2662E+01  0.1489E+03
      2.948  0.3132E+01  0.1494E+03
      3.100  0.4396E+01  0.1498E+03
      3.252  0.2878E+01  0.1507E+03
      3.405  0.2482E+01  0.1511E+03
      3.557  0.5847E+00  0.1516E+03
      3.710  0.5269E+00  0.1517E+03
      3.862  0.4692E+00  0.1518E+03
      4.015  0.4115E+00  0.1519E+03
      4.167  0.2608E+00  0.1519E+03
      4.320  0.1448E+00  0.1520E+03
      4.472  0.1116E+00  0.1520E+03
      4.625  0.7846E-01  0.1520E+03
      4.777  0.4526E-01  0.1520E+03
      4.929  0.1207E-01  0.1520E+03
      5.082  0.0000E+00  0.1520E+03
      5.234  0.0000E+00  0.1520E+03
      5.387  0.0000E+00  0.1520E+03
      5.539  0.0000E+00  0.1520E+03
      5.692  0.0000E+00  0.1520E+03
      5.844  0.0000E+00  0.1520E+03
      5.997  0.0000E+00  0.1520E+03
      6.149  0.0000E+00  0.1520E+03
      6.302  0.0000E+00  0.1520E+03
      6.454  0.0000E+00  0.1520E+03
      6.606  0.0000E+00  0.1520E+03
      6.759  0.0000E+00  0.1520E+03
      6.911  0.0000E+00  0.1520E+03
      7.064  0.0000E+00  0.1520E+03
