   20   20    1    1
  0.2336395E+02  0.5522883E-09  0.3905268E-09  0.2166505E-08  0.5000000E-15
  1.000000000000000E-004
  CAR 
 unknown system                          
    128     12     76
 
  0.0000000E+00  0.0000000E+00  0.0000000E+00  0.2857143E-01
    1      -36.592932   1.000000
    2      -35.267860   1.000000
    3      -34.307125   1.000000
    4      -33.418024   1.000000
    5      -20.506607   1.000000
    6      -20.035631   1.000000
    7      -19.848885   1.000000
    8      -19.358710   1.000000
    9      -19.047121   1.000000
   10      -18.680556   1.000000
   11      -18.591850   1.000000
   12      -18.535915   1.000000
   13      -18.519587   1.000000
   14      -18.346284   1.000000
   15      -18.092862   1.000000
   16      -17.826967   1.000000
   17      -17.311054   1.000000
   18      -17.289073   1.000000
   19      -17.133903   1.000000
   20      -17.052452   1.000000
   21      -16.519673   1.000000
   22      -16.345734   1.000000
   23      -16.291895   1.000000
   24      -16.160034   1.000000
   25      -16.092389   1.000000
   26      -15.437678   1.000000
   27      -15.169766   1.000000
   28      -15.118561   1.000000
   29       -7.109326   1.000000
   30       -6.798903   1.000000
   31       -6.634563   1.000000
   32       -6.009702   1.000000
   33       -5.891854   1.000000
   34       -5.539643   1.000000
   35       -5.445339   1.000000
   36       -5.298774   1.000000
   37       -5.144466   1.000000
   38       -5.062036   1.000000
   39       -5.001694   1.000000
   40       -4.859731   1.000000
   41       -4.767496   1.000000
   42       -4.582933   1.000000
   43       -4.249000   1.000000
   44       -4.123906   1.000000
   45       -4.083872   1.000000
   46       -3.995679   1.000000
   47       -3.807961   1.000000
   48       -3.770874   1.000000
   49       -3.546692   1.000000
   50       -3.251562   1.000000
   51       -3.018390   1.000000
   52       -2.926323   1.000000
   53       -2.911724   1.000000
   54       -2.699535   1.000000
   55       -2.667176   1.000000
   56       -2.391153   1.000000
   57       -2.296943   1.000000
   58       -1.954526   1.000000
   59       -1.916199   1.000000
   60       -1.371036   1.000000
   61       -1.343550   1.000000
   62       -1.088334   1.000000
   63       -1.080299   1.000000
   64       -1.038287   1.000000
   65       -0.869151   1.120411
   66       -0.778872   0.213011
   67       -0.753150   0.000000
   68       -0.517122   0.000000
   69        0.069735   0.000000
   70        0.287916   0.000000
   71        0.384849   0.000000
   72        0.648881   0.000000
   73        1.292988   0.000000
   74        1.525984   0.000000
   75        2.643554   0.000000
   76        4.110250   0.000000
 
  0.2000000E+00  0.0000000E+00  0.0000000E+00  0.5714286E-01
    1      -36.592631   1.000000
    2      -35.267528   1.000000
    3      -34.306798   1.000000
    4      -33.417760   1.000000
    5      -20.566563   1.000000
    6      -20.192330   1.000000
    7      -19.720768   1.000000
    8      -19.347248   1.000000
    9      -19.126301   1.000000
   10      -18.716703   1.000000
   11      -18.592183   1.000000
   12      -18.470275   1.000000
   13      -18.401425   1.000000
   14      -18.353473   1.000000
   15      -18.163421   1.000000
   16      -17.793499   1.000000
   17      -17.311688   1.000000
   18      -17.274611   1.000000
   19      -17.093686   1.000000
   20      -17.060264   1.000000
   21      -16.492026   1.000000
   22      -16.346409   1.000000
   23      -16.292756   1.000000
   24      -16.136184   1.000000
   25      -16.031998   1.000000
   26      -15.438595   1.000000
   27      -15.175548   1.000000
   28      -15.099798   1.000000
   29       -6.939321   1.000000
   30       -6.755437   1.000000
   31       -6.663969   1.000000
   32       -5.982220   1.000000
   33       -5.751062   1.000000
   34       -5.611724   1.000000
   35       -5.539922   1.000000
   36       -5.340527   1.000000
   37       -5.177819   1.000000
   38       -5.132336   1.000000
   39       -4.927563   1.000000
   40       -4.774499   1.000000
   41       -4.695569   1.000000
   42       -4.641558   1.000000
   43       -4.371152   1.000000
   44       -4.346981   1.000000
   45       -4.081702   1.000000
   46       -4.037263   1.000000
   47       -3.959668   1.000000
   48       -3.742067   1.000000
   49       -3.508418   1.000000
   50       -3.363794   1.000000
   51       -3.190510   1.000000
   52       -3.030457   1.000000
   53       -2.937668   1.000000
   54       -2.794125   1.000000
   55       -2.614043   1.000000
   56       -2.522211   1.000000
   57       -2.302858   1.000000
   58       -2.203875   1.000000
   59       -1.892482   1.000000
   60       -1.413038   1.000000
   61       -1.389280   1.000000
   62       -1.102163   1.000000
   63       -1.074261   1.000000
   64       -0.962892   1.000000
   65       -0.871053   1.082450
   66       -0.742630   0.045308
   67       -0.725619   0.000000
   68       -0.619846   0.000000
   69        0.088506   0.000000
   70        0.326036   0.000000
   71        0.362579   0.000000
   72        0.813488   0.000000
   73        1.309814   0.000000
   74        2.642373   0.000000
   75        2.693752   0.000000
   76        4.213272   0.000000
 
  0.4000000E+00  0.0000000E+00  0.0000000E+00  0.5714286E-01
    1      -36.592144   1.000000
    2      -35.266991   1.000000
    3      -34.306269   1.000000
    4      -33.417332   1.000000
    5      -20.667587   1.000000
    6      -20.304793   1.000000
    7      -19.671245   1.000000
    8      -19.304578   1.000000
    9      -19.232064   1.000000
   10      -18.727897   1.000000
   11      -18.592725   1.000000
   12      -18.384357   1.000000
   13      -18.348826   1.000000
   14      -18.295673   1.000000
   15      -18.229038   1.000000
   16      -17.770140   1.000000
   17      -17.312716   1.000000
   18      -17.261074   1.000000
   19      -17.064777   1.000000
   20      -17.027011   1.000000
   21      -16.421978   1.000000
   22      -16.347504   1.000000
   23      -16.313143   1.000000
   24      -16.063303   1.000000
   25      -15.986568   1.000000
   26      -15.440079   1.000000
   27      -15.176609   1.000000
   28      -15.062986   1.000000
   29       -6.827904   1.000000
   30       -6.710375   1.000000
   31       -6.303760   1.000000
   32       -5.922044   1.000000
   33       -5.823485   1.000000
   34       -5.672305   1.000000
   35       -5.612979   1.000000
   36       -5.493819   1.000000
   37       -5.310214   1.000000
   38       -5.107883   1.000000
   39       -4.804382   1.000000
   40       -4.784909   1.000000
   41       -4.689294   1.000000
   42       -4.638795   1.000000
   43       -4.571281   1.000000
   44       -4.502092   1.000000
   45       -4.133010   1.000000
   46       -4.115204   1.000000
   47       -3.899208   1.000000
   48       -3.891038   1.000000
   49       -3.674872   1.000000
   50       -3.516671   1.000000
   51       -3.352767   1.000000
   52       -3.109914   1.000000
   53       -3.070106   1.000000
   54       -3.007519   1.000000
   55       -2.763891   1.000000
   56       -2.508645   1.000000
   57       -2.366160   1.000000
   58       -2.316971   1.000000
   59       -1.748489   1.000000
   60       -1.549845   1.000000
   61       -1.459568   1.000000
   62       -1.199737   1.000000
   63       -1.061612   1.000000
   64       -1.027935   1.000000
   65       -0.849079   1.012667
   66       -0.812577   0.602638
   67       -0.741545   0.000000
   68       -0.398015   0.000000
   69        0.048157   0.000000
   70        0.315074   0.000000
   71        0.394252   0.000000
   72        0.968257   0.000000
   73        1.294502   0.000000
   74        1.329520   0.000000
   75        1.801988   0.000000
   76        2.619665   0.000000
 
  0.0000000E+00  0.1428571E+00  0.0000000E+00  0.5714286E-01
    1      -36.589503   1.000000
    2      -35.263948   1.000000
    3      -34.303223   1.000000
    4      -33.414182   1.000000
    5      -20.452250   1.000000
    6      -19.995134   1.000000
    7      -19.801920   1.000000
    8      -19.314777   1.000000
    9      -19.065078   1.000000
   10      -18.635724   1.000000
   11      -18.606703   1.000000
   12      -18.550027   1.000000
   13      -18.498250   1.000000
   14      -18.307380   1.000000
   15      -18.108218   1.000000
   16      -17.786080   1.000000
   17      -17.282926   1.000000
   18      -17.237005   1.000000
   19      -17.183096   1.000000
   20      -17.067441   1.000000
   21      -16.567023   1.000000
   22      -16.304736   1.000000
   23      -16.264736   1.000000
   24      -16.203296   1.000000
   25      -16.109849   1.000000
   26      -15.386902   1.000000
   27      -15.200911   1.000000
   28      -15.183403   1.000000
   29       -7.051490   1.000000
   30       -6.728811   1.000000
   31       -6.628814   1.000000
   32       -6.335897   1.000000
   33       -5.860061   1.000000
   34       -5.834340   1.000000
   35       -5.543794   1.000000
   36       -5.500149   1.000000
   37       -5.286048   1.000000
   38       -5.221301   1.000000
   39       -5.056389   1.000000
   40       -4.983394   1.000000
   41       -4.869215   1.000000
   42       -4.624435   1.000000
   43       -4.426357   1.000000
   44       -4.422895   1.000000
   45       -4.080366   1.000000
   46       -4.069762   1.000000
   47       -4.024534   1.000000
   48       -3.728667   1.000000
   49       -3.707628   1.000000
   50       -3.357066   1.000000
   51       -3.169870   1.000000
   52       -3.071031   1.000000
   53       -2.936885   1.000000
   54       -2.824060   1.000000
   55       -2.704872   1.000000
   56       -2.560830   1.000000
   57       -2.340765   1.000000
   58       -2.004229   1.000000
   59       -1.975448   1.000000
   60       -1.503016   1.000000
   61       -1.312388   1.000000
   62       -1.095719   1.000000
   63       -0.972864   1.000000
   64       -0.966995   1.037774
   65       -0.747616   0.266443
   66       -0.655322  -0.033123
   67       -0.523726   0.000000
   68       -0.466664   0.000000
   69        0.128335   0.000000
   70        0.485902   0.000000
   71        0.566378   0.000000
   72        0.679088   0.000000
   73        1.417966   0.000000
   74        1.486835   0.000000
   75        1.693744   0.000000
   76        2.801605   0.000000
 
  0.2000000E+00  0.1428571E+00  0.0000000E+00  0.1142857E+00
    1      -36.589235   1.000000
    2      -35.263656   1.000000
    3      -34.302935   1.000000
    4      -33.413953   1.000000
    5      -20.492817   1.000000
    6      -20.148933   1.000000
    7      -19.696987   1.000000
    8      -19.312672   1.000000
    9      -19.113485   1.000000
   10      -18.708523   1.000000
   11      -18.589757   1.000000
   12      -18.486994   1.000000
   13      -18.383659   1.000000
   14      -18.320797   1.000000
   15      -18.161753   1.000000
   16      -17.774604   1.000000
   17      -17.278497   1.000000
   18      -17.236488   1.000000
   19      -17.126248   1.000000
   20      -17.083800   1.000000
   21      -16.538973   1.000000
   22      -16.315435   1.000000
   23      -16.260675   1.000000
   24      -16.174557   1.000000
   25      -16.044396   1.000000
   26      -15.381983   1.000000
   27      -15.213045   1.000000
   28      -15.141848   1.000000
   29       -6.915647   1.000000
   30       -6.707281   1.000000
   31       -6.653934   1.000000
   32       -6.317548   1.000000
   33       -5.955064   1.000000
   34       -5.763712   1.000000
   35       -5.605800   1.000000
   36       -5.507255   1.000000
   37       -5.336021   1.000000
   38       -5.175538   1.000000
   39       -5.054212   1.000000
   40       -4.973428   1.000000
   41       -4.822053   1.000000
   42       -4.653028   1.000000
   43       -4.579775   1.000000
   44       -4.415740   1.000000
   45       -4.353223   1.000000
   46       -4.057790   1.000000
   47       -3.933515   1.000000
   48       -3.822790   1.000000
   49       -3.691171   1.000000
   50       -3.481202   1.000000
   51       -3.167143   1.000000
   52       -3.089752   1.000000
   53       -3.024626   1.000000
   54       -2.961695   1.000000
   55       -2.845319   1.000000
   56       -2.538266   1.000000
   57       -2.367080   1.000000
   58       -2.185747   1.000000
   59       -1.939080   1.000000
   60       -1.623136   1.000000
   61       -1.307567   1.000000
   62       -1.099800   1.000000
   63       -0.971814   1.000000
   64       -0.936235   1.017575
   65       -0.731200   0.315868
   66       -0.712615  -0.013755
   67       -0.530637   0.000000
   68       -0.418683   0.000000
   69        0.169698   0.000000
   70        0.517027   0.000000
   71        0.551936   0.000000
   72        0.834525   0.000000
   73        1.446622   0.000000
   74        1.472171   0.000000
   75        2.735024   0.000000
   76        2.810430   0.000000
 
  0.4000000E+00  0.1428571E+00  0.0000000E+00  0.1142857E+00
    1      -36.588801   1.000000
    2      -35.263184   1.000000
    3      -34.302470   1.000000
    4      -33.413584   1.000000
    5      -20.575931   1.000000
    6      -20.253292   1.000000
    7      -19.667946   1.000000
    8      -19.300248   1.000000
    9      -19.182259   1.000000
   10      -18.736863   1.000000
   11      -18.579558   1.000000
   12      -18.374446   1.000000
   13      -18.335418   1.000000
   14      -18.308917   1.000000
   15      -18.214557   1.000000
   16      -17.775318   1.000000
   17      -17.257211   1.000000
   18      -17.244609   1.000000
   19      -17.097944   1.000000
   20      -17.047754   1.000000
   21      -16.473687   1.000000
   22      -16.334055   1.000000
   23      -16.257074   1.000000
   24      -16.100752   1.000000
   25      -15.999846   1.000000
   26      -15.364326   1.000000
   27      -15.204232   1.000000
   28      -15.092295   1.000000
   29       -6.844632   1.000000
   30       -6.717727   1.000000
   31       -6.419388   1.000000
   32       -6.297157   1.000000
   33       -6.024554   1.000000
   34       -5.783605   1.000000
   35       -5.597970   1.000000
   36       -5.531862   1.000000
   37       -5.448290   1.000000
   38       -5.285114   1.000000
   39       -5.070562   1.000000
   40       -4.948990   1.000000
   41       -4.821377   1.000000
   42       -4.723220   1.000000
   43       -4.681077   1.000000
   44       -4.521944   1.000000
   45       -4.346778   1.000000
   46       -4.139373   1.000000
   47       -3.964672   1.000000
   48       -3.819486   1.000000
   49       -3.781432   1.000000
   50       -3.547160   1.000000
   51       -3.477500   1.000000
   52       -3.224459   1.000000
   53       -3.109432   1.000000
   54       -2.989472   1.000000
   55       -2.888184   1.000000
   56       -2.816619   1.000000
   57       -2.428061   1.000000
   58       -2.148807   1.000000
   59       -1.864091   1.000000
   60       -1.700670   1.000000
   61       -1.299338   1.000000
   62       -1.247989   1.000000
   63       -1.105442   1.000000
   64       -0.931488   1.000000
   65       -0.875007   1.063699
   66       -0.619116  -0.057906
   67       -0.370556   0.000000
   68       -0.332103   0.000000
   69        0.163427   0.000000
   70        0.525663   0.000000
   71        0.582379   0.000000
   72        1.079067   0.000000
   73        1.448977   0.000000
   74        1.812291   0.000000
   75        2.730627   0.000000
   76        2.812844   0.000000
 
  0.0000000E+00  0.2857143E+00  0.0000000E+00  0.5714286E-01
    1      -36.581784   1.000000
    2      -35.255140   1.000000
    3      -34.294435   1.000000
    4      -33.405527   1.000000
    5      -20.386211   1.000000
    6      -19.870962   1.000000
    7      -19.682495   1.000000
    8      -19.221020   1.000000
    9      -19.092192   1.000000
   10      -18.636187   1.000000
   11      -18.583455   1.000000
   12      -18.518465   1.000000
   13      -18.448523   1.000000
   14      -18.220877   1.000000
   15      -18.116802   1.000000
   16      -17.681682   1.000000
   17      -17.308734   1.000000
   18      -17.222794   1.000000
   19      -17.172353   1.000000
   20      -17.044897   1.000000
   21      -16.633713   1.000000
   22      -16.359901   1.000000
   23      -16.217079   1.000000
   24      -16.138766   1.000000
   25      -16.134512   1.000000
   26      -15.374650   1.000000
   27      -15.348599   1.000000
   28      -15.198131   1.000000
   29       -6.994891   1.000000
   30       -6.933238   1.000000
   31       -6.613590   1.000000
   32       -6.531261   1.000000
   33       -6.373378   1.000000
   34       -6.278371   1.000000
   35       -6.009872   1.000000
   36       -5.797722   1.000000
   37       -5.564653   1.000000
   38       -5.462580   1.000000
   39       -5.304840   1.000000
   40       -5.175099   1.000000
   41       -5.048444   1.000000
   42       -4.986371   1.000000
   43       -4.742152   1.000000
   44       -4.530176   1.000000
   45       -4.519225   1.000000
   46       -4.249492   1.000000
   47       -4.184255   1.000000
   48       -3.990417   1.000000
   49       -3.906706   1.000000
   50       -3.711332   1.000000
   51       -3.413554   1.000000
   52       -3.370942   1.000000
   53       -2.975257   1.000000
   54       -2.816308   1.000000
   55       -2.770314   1.000000
   56       -2.698669   1.000000
   57       -2.265965   1.000000
   58       -2.142365   1.000000
   59       -1.985274   1.000000
   60       -1.501191   1.000000
   61       -1.295969   1.000000
   62       -0.985857   1.000000
   63       -0.813295   1.036487
   64       -0.742062   0.395269
   65       -0.694804   0.000000
   66       -0.538338   0.000000
   67       -0.307179   0.000000
   68        0.161218   0.000000
   69        0.370475   0.000000
   70        0.732432   0.000000
   71        0.976352   0.000000
   72        1.016974   0.000000
   73        1.851240   0.000000
   74        1.878607   0.000000
   75        3.148058   0.000000
   76        4.984872   0.000000
 
  0.2000000E+00  0.2857143E+00  0.0000000E+00  0.1142857E+00
    1      -36.581589   1.000000
    2      -35.254936   1.000000
    3      -34.294236   1.000000
    4      -33.405380   1.000000
    5      -20.364904   1.000000
    6      -20.031262   1.000000
    7      -19.649119   1.000000
    8      -19.237438   1.000000
    9      -19.091693   1.000000
   10      -18.628462   1.000000
   11      -18.587953   1.000000
   12      -18.508669   1.000000
   13      -18.382892   1.000000
   14      -18.235923   1.000000
   15      -18.145664   1.000000
   16      -17.717398   1.000000
   17      -17.267320   1.000000
   18      -17.177306   1.000000
   19      -17.159336   1.000000
   20      -17.087775   1.000000
   21      -16.609596   1.000000
   22      -16.296874   1.000000
   23      -16.233209   1.000000
   24      -16.176429   1.000000
   25      -16.041889   1.000000
   26      -15.376933   1.000000
   27      -15.299008   1.000000
   28      -15.156989   1.000000
   29       -6.975817   1.000000
   30       -6.897901   1.000000
   31       -6.696128   1.000000
   32       -6.555148   1.000000
   33       -6.418944   1.000000
   34       -6.281236   1.000000
   35       -6.022658   1.000000
   36       -5.802051   1.000000
   37       -5.637707   1.000000
   38       -5.413172   1.000000
   39       -5.357235   1.000000
   40       -5.186621   1.000000
   41       -5.045105   1.000000
   42       -4.966167   1.000000
   43       -4.837415   1.000000
   44       -4.702133   1.000000
   45       -4.387176   1.000000
   46       -4.284704   1.000000
   47       -4.145027   1.000000
   48       -4.063682   1.000000
   49       -3.878726   1.000000
   50       -3.765157   1.000000
   51       -3.544365   1.000000
   52       -3.351001   1.000000
   53       -3.158432   1.000000
   54       -2.896119   1.000000
   55       -2.887080   1.000000
   56       -2.553193   1.000000
   57       -2.327536   1.000000
   58       -2.085932   1.000000
   59       -2.033667   1.000000
   60       -1.660454   1.000000
   61       -1.260447   1.000000
   62       -0.966049   1.000000
   63       -0.830653   1.032992
   64       -0.794377   0.881596
   65       -0.715880   0.022491
   66       -0.551740   0.000000
   67       -0.225790   0.000000
   68        0.194591   0.000000
   69        0.413736   0.000000
   70        0.870814   0.000000
   71        0.989626   0.000000
   72        1.013923   0.000000
   73        1.843229   0.000000
   74        1.865439   0.000000
   75        3.126171   0.000000
   76        3.145165   0.000000
 
  0.4000000E+00  0.2857143E+00  0.0000000E+00  0.1142857E+00
    1      -36.581271   1.000000
    2      -35.254605   1.000000
    3      -34.293912   1.000000
    4      -33.405139   1.000000
    5      -20.351942   1.000000
    6      -20.153783   1.000000
    7      -19.702163   1.000000
    8      -19.284981   1.000000
    9      -19.054242   1.000000
   10      -18.725701   1.000000
   11      -18.552562   1.000000
   12      -18.387540   1.000000
   13      -18.346420   1.000000
   14      -18.279576   1.000000
   15      -18.132573   1.000000
   16      -17.802915   1.000000
   17      -17.225164   1.000000
   18      -17.184584   1.000000
   19      -17.112245   1.000000
   20      -17.065889   1.000000
   21      -16.553673   1.000000
   22      -16.312157   1.000000
   23      -16.173666   1.000000
   24      -16.134386   1.000000
   25      -16.008726   1.000000
   26      -15.380041   1.000000
   27      -15.174527   1.000000
   28      -15.117880   1.000000
   29       -7.038361   1.000000
   30       -6.944993   1.000000
   31       -6.696649   1.000000
   32       -6.624030   1.000000
   33       -6.499923   1.000000
   34       -6.072337   1.000000
   35       -6.022177   1.000000
   36       -5.858137   1.000000
   37       -5.734848   1.000000
   38       -5.472784   1.000000
   39       -5.335699   1.000000
   40       -5.217292   1.000000
   41       -5.195884   1.000000
   42       -5.072170   1.000000
   43       -4.906950   1.000000
   44       -4.739766   1.000000
   45       -4.242927   1.000000
   46       -4.234360   1.000000
   47       -4.149656   1.000000
   48       -4.090433   1.000000
   49       -3.947665   1.000000
   50       -3.814346   1.000000
   51       -3.684858   1.000000
   52       -3.481076   1.000000
   53       -3.440583   1.000000
   54       -2.918399   1.000000
   55       -2.880996   1.000000
   56       -2.840957   1.000000
   57       -2.153731   1.000000
   58       -2.048508   1.000000
   59       -1.996232   1.000000
   60       -1.738343   1.000000
   61       -1.244493   1.000000
   62       -1.204774   1.000000
   63       -0.943675   1.006197
   64       -0.800995   0.990612
   65       -0.778646   0.519746
   66       -0.339511   0.000000
   67       -0.175357   0.000000
   68        0.257168   0.000000
   69        0.845188   0.000000
   70        1.021179   0.000000
   71        1.046437   0.000000
   72        1.826675   0.000000
   73        1.842279   0.000000
   74        1.885347   0.000000
   75        3.088096   0.000000
   76        3.125724   0.000000
 
  0.0000000E+00  0.4285714E+00  0.0000000E+00  0.5714286E-01
    1      -36.575576   1.000000
    2      -35.248052   1.000000
    3      -34.287364   1.000000
    4      -33.398563   1.000000
    5      -20.394196   1.000000
    6      -19.720712   1.000000
    7      -19.564852   1.000000
    8      -19.193140   1.000000
    9      -19.074416   1.000000
   10      -18.725961   1.000000
   11      -18.545687   1.000000
   12      -18.405439   1.000000
   13      -18.400066   1.000000
   14      -18.188270   1.000000
   15      -18.063451   1.000000
   16      -17.577018   1.000000
   17      -17.434704   1.000000
   18      -17.202676   1.000000
   19      -17.158417   1.000000
   20      -16.978265   1.000000
   21      -16.636961   1.000000
   22      -16.483394   1.000000
   23      -16.180182   1.000000
   24      -16.110314   1.000000
   25      -16.002979   1.000000
   26      -15.525792   1.000000
   27      -15.456908   1.000000
   28      -15.132396   1.000000
   29       -7.577413   1.000000
   30       -6.980688   1.000000
   31       -6.712973   1.000000
   32       -6.600439   1.000000
   33       -6.593808   1.000000
   34       -6.529074   1.000000
   35       -6.362213   1.000000
   36       -5.972927   1.000000
   37       -5.832434   1.000000
   38       -5.643982   1.000000
   39       -5.567991   1.000000
   40       -5.478481   1.000000
   41       -5.143855   1.000000
   42       -4.973232   1.000000
   43       -4.913716   1.000000
   44       -4.730094   1.000000
   45       -4.613111   1.000000
   46       -4.581170   1.000000
   47       -4.438856   1.000000
   48       -4.165687   1.000000
   49       -4.071097   1.000000
   50       -3.717920   1.000000
   51       -3.551257   1.000000
   52       -3.493561   1.000000
   53       -3.006362   1.000000
   54       -2.862223   1.000000
   55       -2.766618   1.000000
   56       -2.738062   1.000000
   57       -2.305342   1.000000
   58       -2.144330   1.000000
   59       -1.888325   1.000000
   60       -1.435227   1.000000
   61       -1.284430   1.000000
   62       -0.872249   1.000000
   63       -0.739486   0.137374
   64       -0.711958  -0.037176
   65       -0.555104   0.000000
   66       -0.414690   0.000000
   67       -0.186410   0.000000
   68        0.647409   0.000000
   69        0.714779   0.000000
   70        0.768072   0.000000
   71        1.392156   0.000000
   72        1.447806   0.000000
   73        2.255266   0.000000
   74        3.044548   0.000000
   75        3.482107   0.000000
   76        3.522982   0.000000
 
  0.2000000E+00  0.4285714E+00  0.0000000E+00  0.1142857E+00
    1      -36.575438   1.000000
    2      -35.247919   1.000000
    3      -34.287235   1.000000
    4      -33.398480   1.000000
    5      -20.332255   1.000000
    6      -19.862158   1.000000
    7      -19.634649   1.000000
    8      -19.158558   1.000000
    9      -19.105571   1.000000
   10      -18.571975   1.000000
   11      -18.514167   1.000000
   12      -18.499415   1.000000
   13      -18.420480   1.000000
   14      -18.165343   1.000000
   15      -18.130579   1.000000
   16      -17.661350   1.000000
   17      -17.304436   1.000000
   18      -17.219181   1.000000
   19      -17.110478   1.000000
   20      -17.042873   1.000000
   21      -16.620002   1.000000
   22      -16.352006   1.000000
   23      -16.219095   1.000000
   24      -16.102142   1.000000
   25      -16.016675   1.000000
   26      -15.458841   1.000000
   27      -15.393443   1.000000
   28      -15.093374   1.000000
   29       -7.587661   1.000000
   30       -6.948938   1.000000
   31       -6.798302   1.000000
   32       -6.757308   1.000000
   33       -6.632406   1.000000
   34       -6.581210   1.000000
   35       -6.274778   1.000000
   36       -5.986387   1.000000
   37       -5.851865   1.000000
   38       -5.775024   1.000000
   39       -5.538786   1.000000
   40       -5.444454   1.000000
   41       -5.161865   1.000000
   42       -5.113337   1.000000
   43       -4.959894   1.000000
   44       -4.818191   1.000000
   45       -4.659164   1.000000
   46       -4.414871   1.000000
   47       -4.301119   1.000000
   48       -4.189841   1.000000
   49       -4.131834   1.000000
   50       -3.766273   1.000000
   51       -3.672325   1.000000
   52       -3.500835   1.000000
   53       -3.203279   1.000000
   54       -2.879258   1.000000
   55       -2.810373   1.000000
   56       -2.635111   1.000000
   57       -2.306022   1.000000
   58       -2.052074   1.000000
   59       -1.922749   1.000000
   60       -1.628694   1.000000
   61       -1.219641   1.000000
   62       -0.853387   1.000000
   63       -0.757022   0.541339
   64       -0.736887   0.019871
   65       -0.703274  -0.005615
   66       -0.385964   0.000000
   67       -0.037395   0.000000
   68        0.670133   0.000000
   69        0.721126   0.000000
   70        0.903580   0.000000
   71        1.407849   0.000000
   72        1.430081   0.000000
   73        1.995726   0.000000
   74        2.252250   0.000000
   75        3.226451   0.000000
   76        3.494535   0.000000
 
  0.4000000E+00  0.4285714E+00  0.0000000E+00  0.1142857E+00
    1      -36.575217   1.000000
    2      -35.247705   1.000000
    3      -34.287028   1.000000
    4      -33.398347   1.000000
    5      -20.177582   1.000000
    6      -20.035592   1.000000
    7      -19.807246   1.000000
    8      -19.225619   1.000000
    9      -18.970002   1.000000
   10      -18.708986   1.000000
   11      -18.495446   1.000000
   12      -18.417285   1.000000
   13      -18.355298   1.000000
   14      -18.237874   1.000000
   15      -18.061244   1.000000
   16      -17.838377   1.000000
   17      -17.234417   1.000000
   18      -17.184630   1.000000
   19      -17.085438   1.000000
   20      -17.024494   1.000000
   21      -16.577808   1.000000
   22      -16.268078   1.000000
   23      -16.162098   1.000000
   24      -16.156406   1.000000
   25      -15.987878   1.000000
   26      -15.461570   1.000000
   27      -15.198401   1.000000
   28      -15.039968   1.000000
   29       -7.608326   1.000000
   30       -7.111818   1.000000
   31       -6.972356   1.000000
   32       -6.848443   1.000000
   33       -6.667341   1.000000
   34       -6.560981   1.000000
   35       -6.092550   1.000000
   36       -6.020212   1.000000
   37       -5.920990   1.000000
   38       -5.846956   1.000000
   39       -5.604810   1.000000
   40       -5.370468   1.000000
   41       -5.296108   1.000000
   42       -5.284081   1.000000
   43       -5.148393   1.000000
   44       -4.750423   1.000000