       N       E                     dE             d eps       ncg     rms          rms(c)
DAV:   1     0.183168651850E+04    0.18317E+04   -0.65122E+04  1840   0.190E+03
DAV:   2     0.261643513719E+03   -0.15700E+04   -0.14965E+04  2160   0.430E+02
DAV:   3    -0.161270093586E+03   -0.42291E+03   -0.41131E+03  2512   0.211E+02
DAV:   4    -0.197134634127E+03   -0.35865E+02   -0.35725E+02  2428   0.677E+01
DAV:   5    -0.198737257986E+03   -0.16026E+01   -0.16018E+01  2936   0.150E+01    0.376E+01
RMM:   6    -0.205397172726E+03   -0.66599E+01   -0.39380E+02  2438   0.587E+01    0.523E+01
RMM:   7    -0.172553487128E+03    0.32844E+02   -0.96592E+01  2183   0.319E+01    0.224E+01
RMM:   8    -0.160846473643E+03    0.11707E+02   -0.24829E+01  2066   0.172E+01    0.156E+01
RMM:   9    -0.156197441154E+03    0.46490E+01   -0.21652E+00  2365   0.568E+00    0.128E+01
RMM:  10    -0.157438799061E+03   -0.12414E+01   -0.40213E+01  2196   0.167E+01    0.306E+01
RMM:  11    -0.155876267138E+03    0.15625E+01   -0.30621E+00  2789   0.378E+00    0.294E+01
RMM:  12    -0.158367671110E+03   -0.24914E+01   -0.14414E+00  2723   0.269E+00    0.329E+01
RMM:  13    -0.159134829606E+03   -0.76716E+00   -0.46874E-01  2703   0.142E+00    0.343E+01
RMM:  14    -0.154503920570E+03    0.46309E+01   -0.17904E+00  2141   0.364E+00    0.288E+01
RMM:  15    -0.151737703679E+03    0.27662E+01   -0.32302E+00  2252   0.466E+00    0.226E+01
RMM:  16    -0.149957703904E+03    0.17800E+01   -0.20046E+00  2364   0.355E+00    0.971E+00
RMM:  17    -0.150046449552E+03   -0.88746E-01   -0.12928E-01  2493   0.930E-01    0.121E+01
RMM:  18    -0.150191884627E+03   -0.14544E+00   -0.46508E-02  2177   0.612E-01    0.136E+01
RMM:  19    -0.149634646844E+03    0.55724E+00   -0.15596E-01  2145   0.919E-01    0.855E+00
RMM:  20    -0.149993313593E+03   -0.35867E+00   -0.47768E+00  2146   0.610E+00    0.981E+00
RMM:  21    -0.149080961917E+03    0.91235E+00   -0.42894E-01  2223   0.195E+00    0.515E+00
RMM:  22    -0.148937859136E+03    0.14310E+00   -0.83874E-02  2290   0.856E-01    0.407E+00
RMM:  23    -0.148865015780E+03    0.72843E-01   -0.45919E-02  2194   0.657E-01    0.248E+00
RMM:  24    -0.148885082138E+03   -0.20066E-01   -0.11614E-02  2382   0.310E-01    0.276E+00
RMM:  25    -0.148788939894E+03    0.96142E-01   -0.12299E-01  2088   0.995E-01    0.116E+00
RMM:  26    -0.148787740541E+03    0.11994E-02   -0.13136E-02  2301   0.352E-01    0.122E+00
RMM:  27    -0.148808206280E+03   -0.20466E-01   -0.17011E-02  2277   0.341E-01    0.261E+00
RMM:  28    -0.148802584960E+03    0.56213E-02   -0.66885E-03  2316   0.222E-01    0.242E+00
RMM:  29    -0.148779743320E+03    0.22842E-01   -0.28903E-02  2098   0.510E-01    0.901E-01
RMM:  30    -0.148774032726E+03    0.57106E-02   -0.94516E-03  2141   0.299E-01    0.449E-01
RMM:  31    -0.148773144284E+03    0.88844E-03   -0.49522E-03  2332   0.171E-01    0.444E-01
RMM:  32    -0.148772820839E+03    0.32344E-03   -0.96845E-04  2214   0.781E-02    0.379E-01
RMM:  33    -0.148772715732E+03    0.10511E-03   -0.52870E-04  2122   0.528E-02    0.327E-01
RMM:  34    -0.148772868081E+03   -0.15235E-03   -0.30884E-03  2083   0.165E-01    0.154E-01
RMM:  35    -0.148772871059E+03   -0.29780E-05   -0.16439E-03  2398   0.993E-02    0.281E-01
RMM:  36    -0.148773105879E+03   -0.23482E-03   -0.21339E-04  1906   0.349E-02    0.118E-01
RMM:  37    -0.148773140157E+03   -0.34278E-04   -0.11453E-04  1769   0.324E-02    0.979E-02
RMM:  38    -0.148773027788E+03    0.11237E-03   -0.11775E-04  1790   0.361E-02    0.109E-01
RMM:  39    -0.148773067577E+03   -0.39788E-04   -0.18136E-04  1808   0.437E-02    0.115E-01
RMM:  40    -0.148773449955E+03   -0.38238E-03   -0.30516E-04  1823   0.554E-02    0.131E-01
RMM:  41    -0.148773286929E+03    0.16303E-03   -0.91084E-05  1667   0.243E-02    0.675E-02
RMM:  42    -0.148773291300E+03   -0.43711E-05   -0.11936E-05  1212   0.126E-02
   1 F= -.14877329E+03 E0= -.14877329E+03  d E =0.000000E+00
