<?xml version="1.0" encoding="ISO-8859-1"?>
<modeling>
 <generator>
  <i name="program" type="string">vasp </i>
  <i name="version" type="string">5.4.4.18Apr17-6-g9f103f2a35  </i>
  <i name="subversion" type="string">(build Jun 30 2017 11:15:00) complex            parallel </i>
  <i name="platform" type="string">STALLO_VASP_5.4.4 </i>
  <i name="date" type="string">2019 11 06 </i>
  <i name="time" type="string">14:04:49 </i>
 </generator>
 <incar>
  <i type="string" name="PREC">normal    ! low/normal/accurate</i>
  <i type="string" name="ALGO"> Fast      ! Algorithm for electronic re</i>
  <i type="int" name="ISPIN">     1</i>
  <i type="int" name="NELMIN">     4</i>
  <i name="EDIFF">      0.00001000</i>
  <i type="int" name="NSW">     0</i>
  <i name="ENCUT">    700.00000000</i>
  <i type="logical" name="LREAL"> F  </i>
  <i type="int" name="ISMEAR">    -5</i>
  <i name="SIGMA">      0.20000000</i>
  <i type="logical" name="LWAVE"> F  </i>
  <v type="int" name="KPOINT_BSE">    -1     0     0     0</v>
 </incar>
 <structure name="primitive_cell" >
  <crystal>
   <varray name="basis" >
    <v>       5.52288297       0.00000000       0.00000000 </v>
    <v>       0.00000000       3.90526800       0.00000000 </v>
    <v>       0.00000000       0.00000000      21.66504520 </v>
   </varray>
   <i name="volume">    467.27902047 </i>
   <varray name="rec_basis" >
    <v>       0.18106485       0.00000000       0.00000000 </v>
    <v>       0.00000000       0.25606437       0.00000000 </v>
    <v>       0.00000000       0.00000000       0.04615730 </v>
   </varray>
  </crystal>
  <varray name="positions" >
   <v>      -0.50000000       0.00000000       0.27694380 </v>
   <v>      -0.50000000      -0.50000000       0.27694380 </v>
   <v>      -0.50000000       0.00000000       0.40440449 </v>
   <v>       0.25000000      -0.50000000       0.34067414 </v>
   <v>      -0.25000000      -0.50000000       0.34067414 </v>
   <v>       0.00000000       0.00000000       0.27694380 </v>
   <v>       0.00000000       0.00000000       0.40440449 </v>
   <v>       0.00000000      -0.50000000       0.40440449 </v>
   <v>      -0.25000000      -0.50000000       0.46813483 </v>
   <v>       0.25000000      -0.50000000       0.46813483 </v>
   <v>      -0.50000000       0.00000000      -0.46813483 </v>
   <v>      -0.50000000      -0.50000000      -0.46813483 </v>
   <v>       0.00000000       0.00000000      -0.46813483 </v>
   <v>       0.25000000      -0.50000000      -0.40440449 </v>
   <v>      -0.25000000      -0.50000000      -0.40440449 </v>
   <v>      -0.50000000       0.00000000      -0.34067414 </v>
   <v>       0.00000000       0.00000000      -0.34067414 </v>
   <v>       0.00000000      -0.50000000      -0.34067414 </v>
   <v>      -0.25000000      -0.50000000      -0.27694380 </v>
   <v>       0.25000000      -0.50000000      -0.27694380 </v>
  </varray>
 </structure>
 <varray name="primitive_index" >
  <v type="int" >        1 </v>
  <v type="int" >       17 </v>
  <v type="int" >       14 </v>
  <v type="int" >        2 </v>
  <v type="int" >        3 </v>
  <v type="int" >       13 </v>
  <v type="int" >        4 </v>
  <v type="int" >       18 </v>
  <v type="int" >        5 </v>
  <v type="int" >        6 </v>
  <v type="int" >        7 </v>
  <v type="int" >       19 </v>
  <v type="int" >       15 </v>
  <v type="int" >        8 </v>
  <v type="int" >        9 </v>
  <v type="int" >       16 </v>
  <v type="int" >       10 </v>
  <v type="int" >       20 </v>
  <v type="int" >       11 </v>
  <v type="int" >       12 </v>
 </varray>
 <kpoints>
  <generation param="Gamma">
   <v type="int" name="divisions">       5        7        1 </v>
   <v name="usershift">      0.00000000       0.00000000       0.00000000 </v>
   <v name="genvec1">      0.20000000       0.00000000       0.00000000 </v>
   <v name="genvec2">      0.00000000       0.14285714       0.00000000 </v>
   <v name="genvec3">      0.00000000       0.00000000       1.00000000 </v>
   <v name="shift">      0.00000000       0.00000000       0.00000000 </v>
  </generation>
  <varray name="kpointlist" >
   <v>       0.00000000       0.00000000       0.00000000 </v>
   <v>       0.20000000       0.00000000       0.00000000 </v>
   <v>       0.40000000       0.00000000       0.00000000 </v>
   <v>       0.00000000       0.14285714       0.00000000 </v>
   <v>       0.20000000       0.14285714       0.00000000 </v>
   <v>       0.40000000       0.14285714       0.00000000 </v>
   <v>       0.00000000       0.28571429       0.00000000 </v>
   <v>       0.20000000       0.28571429       0.00000000 </v>
   <v>       0.40000000       0.28571429       0.00000000 </v>
   <v>       0.00000000       0.42857143       0.00000000 </v>
   <v>       0.20000000       0.42857143       0.00000000 </v>
   <v>       0.40000000       0.42857143       0.00000000 </v>
  </varray>
  <varray name="weights" >
   <v>       0.02857143 </v>
   <v>       0.05714286 </v>
   <v>       0.05714286 </v>
   <v>       0.05714286 </v>
   <v>       0.11428571 </v>
   <v>       0.11428571 </v>
   <v>       0.05714286 </v>
   <v>       0.11428571 </v>
   <v>       0.11428571 </v>
   <v>       0.05714286 </v>
   <v>       0.11428571 </v>
   <v>       0.11428571 </v>
  </varray>
  <varray name="tetrahedronlist"  type="int" >
   <v type="int" >        2        1        1        2        5 </v>
   <v type="int" >        2        1        1        4        5 </v>
   <v type="int" >        2        1        4        4        5 </v>
   <v type="int" >        2        1        2        2        5 </v>
   <v type="int" >        2        1        2        5        5 </v>
   <v type="int" >        2        1        4        5        5 </v>
   <v type="int" >        2        2        2        3        6 </v>
   <v type="int" >        2        2        2        5        6 </v>
   <v type="int" >        2        2        5        5        6 </v>
   <v type="int" >        2        2        3        3        6 </v>
   <v type="int" >        2        2        3        6        6 </v>
   <v type="int" >        2        2        5        6        6 </v>
   <v type="int" >        4        3        3        3        6 </v>
   <v type="int" >        4        3        3        6        6 </v>
   <v type="int" >        4        3        6        6        6 </v>
   <v type="int" >        2        2        3        3        5 </v>
   <v type="int" >        2        3        3        5        6 </v>
   <v type="int" >        2        3        5        6        6 </v>
   <v type="int" >        2        2        2        3        5 </v>
   <v type="int" >        2        2        3        5        5 </v>
   <v type="int" >        2        3        5        5        6 </v>
   <v type="int" >        2        1        2        2        4 </v>
   <v type="int" >        2        2        2        4        5 </v>
   <v type="int" >        2        2        4        5        5 </v>
   <v type="int" >        2        1        1        2        4 </v>
   <v type="int" >        2        1        2        4        4 </v>
   <v type="int" >        2        2        4        4        5 </v>
   <v type="int" >        2        4        4        5        8 </v>
   <v type="int" >        2        4        4        7        8 </v>
   <v type="int" >        2        4        7        7        8 </v>
   <v type="int" >        2        4        5        5        8 </v>
   <v type="int" >        2        4        5        8        8 </v>
   <v type="int" >        2        4        7        8        8 </v>
   <v type="int" >        2        5        5        6        9 </v>
   <v type="int" >        2        5        5        8        9 </v>
   <v type="int" >        2        5        8        8        9 </v>
   <v type="int" >        2        5        6        6        9 </v>
   <v type="int" >        2        5        6        9        9 </v>
   <v type="int" >        2        5        8        9        9 </v>
   <v type="int" >        4        6        6        6        9 </v>
   <v type="int" >        4        6        6        9        9 </v>
   <v type="int" >        4        6        9        9        9 </v>
   <v type="int" >        2        5        6        6        8 </v>
   <v type="int" >        2        6        6        8        9 </v>
   <v type="int" >        2        6        8        9        9 </v>
   <v type="int" >        2        5        5        6        8 </v>
   <v type="int" >        2        5        6        8        8 </v>
   <v type="int" >        2        6        8        8        9 </v>
   <v type="int" >        2        4        5        5        7 </v>
   <v type="int" >        2        5        5        7        8 </v>
   <v type="int" >        2        5        7        8        8 </v>
   <v type="int" >        2        4        4        5        7 </v>
   <v type="int" >        2        4        5        7        7 </v>
   <v type="int" >        2        5        7        7        8 </v>
   <v type="int" >        2        7        7        8       11 </v>
   <v type="int" >        2        7        7       10       11 </v>
   <v type="int" >        2        7       10       10       11 </v>
   <v type="int" >        2        7        8        8       11 </v>
   <v type="int" >        2        7        8       11       11 </v>
   <v type="int" >        2        7       10       11       11 </v>
   <v type="int" >        2        8        8        9       12 </v>
   <v type="int" >        2        8        8       11       12 </v>
   <v type="int" >        2        8       11       11       12 </v>
   <v type="int" >        2        8        9        9       12 </v>
   <v type="int" >        2        8        9       12       12 </v>
   <v type="int" >        2        8       11       12       12 </v>
   <v type="int" >        4        9        9        9       12 </v>
   <v type="int" >        4        9        9       12       12 </v>
   <v type="int" >        4        9       12       12       12 </v>
   <v type="int" >        2        8        9        9       11 </v>
   <v type="int" >        2        9        9       11       12 </v>
   <v type="int" >        2        9       11       12       12 </v>
   <v type="int" >        2        8        8        9       11 </v>
   <v type="int" >        2        8        9       11       11 </v>
   <v type="int" >        2        9       11       11       12 </v>
   <v type="int" >        2        7        8        8       10 </v>
   <v type="int" >        2        8        8       10       11 </v>
   <v type="int" >        2        8       10       11       11 </v>
   <v type="int" >        2        7        7        8       10 </v>
   <v type="int" >        2        7        8       10       10 </v>
   <v type="int" >        2        8       10       10       11 </v>
   <v type="int" >        4       10       10       11       11 </v>
   <v type="int" >        4       10       10       10       11 </v>
   <v type="int" >        4       10       11       11       11 </v>
   <v type="int" >        4       11       11       12       12 </v>
   <v type="int" >        4       11       11       11       12 </v>
   <v type="int" >        4       11       12       12       12 </v>
   <v type="int" >        6       12       12       12       12 </v>
  </varray>
  <i name="volumeweight">      0.00476190 </i>
 </kpoints>
 <parameters>
  <separator name="general" >
   <i type="string" name="SYSTEM">unknown system</i>
   <i type="logical" name="LCOMPAT"> F  </i>
  </separator>
  <separator name="electronic" >
   <i type="string" name="PREC">normal</i>
   <i name="ENMAX">    700.00000000</i>
   <i name="ENAUG">    605.39200000</i>
   <i name="EDIFF">      0.00001000</i>
   <i type="int" name="IALGO">    68</i>
   <i type="int" name="IWAVPR">    10</i>
   <i type="int" name="NBANDS">    76</i>
   <i name="NELECT">    128.00000000</i>
   <i type="int" name="TURBO">     0</i>
   <i type="int" name="IRESTART">     0</i>
   <i type="int" name="NREBOOT">     0</i>
   <i type="int" name="NMIN">     0</i>
   <i name="EREF">      0.00000000</i>
   <separator name="electronic smearing" >
    <i type="int" name="ISMEAR">    -5</i>
    <i name="SIGMA">      0.20000000</i>
    <i name="KSPACING">      0.50000000</i>
    <i type="logical" name="KGAMMA"> T  </i>
   </separator>
   <separator name="electronic projectors" >
    <i type="logical" name="LREAL"> F  </i>
    <v name="ROPT">      0.00000000      0.00000000      0.00000000</v>
    <i type="int" name="LMAXPAW">  -100</i>
    <i type="int" name="LMAXMIX">     2</i>
    <i type="logical" name="NLSPLINE"> F  </i>
   </separator>
   <separator name="electronic startup" >
    <i type="int" name="ISTART">     0</i>
    <i type="int" name="ICHARG">     2</i>
    <i type="int" name="INIWAV">     1</i>
   </separator>
   <separator name="electronic spin" >
    <i type="int" name="ISPIN">     1</i>
    <i type="logical" name="LNONCOLLINEAR"> F  </i>
    <v name="MAGMOM">      1.00000000      1.00000000      1.00000000      1.00000000      1.00000000      1.00000000      1.00000000      1.00000000      1.00000000      1.00000000      1.00000000      1.00000000      1.00000000      1.00000000      1.00000000      1.00000000      1.00000000      1.00000000      1.00000000      1.00000000
</v>
    <i name="NUPDOWN">     -1.00000000</i>
    <i type="logical" name="LSORBIT"> F  </i>
    <v name="SAXIS">      0.00000000      0.00000000      1.00000000</v>
    <i type="logical" name="LSPIRAL"> F  </i>
    <v name="QSPIRAL">      0.00000000      0.00000000      0.00000000</v>
    <i type="logical" name="LZEROZ"> F  </i>
   </separator>
   <separator name="electronic exchange-correlation" >
    <i type="logical" name="LASPH"> F  </i>
    <i type="logical" name="LMETAGGA"> F  </i>
   </separator>
   <separator name="electronic convergence" >
    <i type="int" name="NELM">    60</i>
    <i type="int" name="NELMDL">    -5</i>
    <i type="int" name="NELMIN">     4</i>
    <i name="ENINI">    700.00000000</i>
    <separator name="electronic convergence detail" >
     <i type="logical" name="LDIAG"> T  </i>
     <i type="logical" name="LSUBROT"> F  </i>
     <i name="WEIMIN">      0.00000000</i>
     <i name="EBREAK">      0.00000003</i>
     <i name="DEPER">      0.30000000</i>
     <i type="int" name="NRMM">     4</i>
     <i name="TIME">      0.40000000</i>
    </separator>
   </separator>
   <separator name="electronic mixer" >
    <i name="AMIX">      0.40000000</i>
    <i name="BMIX">      1.00000000</i>
    <i name="AMIN">      0.10000000</i>
    <i name="AMIX_MAG">      1.60000000</i>
    <i name="BMIX_MAG">      1.00000000</i>
    <separator name="electronic mixer details" >
     <i type="int" name="IMIX">     4</i>
     <i type="logical" name="MIXFIRST"> F  </i>
     <i type="int" name="MAXMIX">   -45</i>
     <i name="WC">    100.00000000</i>
     <i type="int" name="INIMIX">     1</i>
     <i type="int" name="MIXPRE">     1</i>
     <i type="int" name="MREMOVE">     5</i>
    </separator>
   </separator>
   <separator name="electronic dipolcorrection" >
    <i type="logical" name="LDIPOL"> F  </i>
    <i type="logical" name="LMONO"> F  </i>
    <i type="int" name="IDIPOL">     0</i>
    <i name="EPSILON">      1.00000000</i>
    <v name="DIPOL">   -100.00000000   -100.00000000   -100.00000000</v>
    <i name="EFIELD">      0.00000000</i>
   </separator>
  </separator>
  <separator name="grids" >
   <i type="int" name="NGX">    36</i>
   <i type="int" name="NGY">    28</i>
   <i type="int" name="NGZ">   140</i>
   <i type="int" name="NGXF">    72</i>
   <i type="int" name="NGYF">    56</i>
   <i type="int" name="NGZF">   280</i>
   <i type="logical" name="ADDGRID"> F  </i>
  </separator>
  <separator name="ionic" >
   <i type="int" name="NSW">     0</i>
   <i type="int" name="IBRION">    -1</i>
   <i type="int" name="MDALGO">     0</i>
   <i type="int" name="ISIF">     2</i>
   <i name="PSTRESS">      0.00000000</i>
   <i name="EDIFFG">      0.00010000</i>
   <i type="int" name="NFREE">     0</i>
   <i name="POTIM">      0.50000000</i>
   <i name="SMASS">     -3.00000000</i>
   <i name="SCALEE">      1.00000000</i>
  </separator>
  <separator name="ionic md" >
   <i name="TEBEG">      0.00010000</i>
   <i name="TEEND">      0.00010000</i>
   <i type="int" name="NBLOCK">     1</i>
   <i type="int" name="KBLOCK">     1</i>
   <i type="int" name="NPACO">   256</i>
   <i name="APACO">     16.00000000</i>
  </separator>
  <separator name="symmetry" >
   <i type="int" name="ISYM">     2</i>
   <i name="SYMPREC">      0.00001000</i>
  </separator>
  <separator name="dos" >
   <i type="int" name="LORBIT">     0</i>
   <v name="RWIGS">     -1.00000000     -1.00000000     -1.00000000</v>
   <i type="int" name="NEDOS">   301</i>
   <i name="EMIN">     10.00000000</i>
   <i name="EMAX">    -10.00000000</i>
   <i name="EFERMI">      0.00000000</i>
  </separator>
  <separator name="writing" >
   <i type="int" name="NWRITE">     2</i>
   <i type="logical" name="LWAVE"> F  </i>
   <i type="logical" name="LDOWNSAMPLE"> F  </i>
   <i type="logical" name="LCHARG"> T  </i>
   <i type="logical" name="LPARD"> F  </i>
   <i type="logical" name="LVTOT"> F  </i>
   <i type="logical" name="LVHAR"> F  </i>
   <i type="logical" name="LELF"> F  </i>
   <i type="logical" name="LOPTICS"> F  </i>
   <v name="STM">      0.00000000      0.00000000      0.00000000      0.00000000      0.00000000      0.00000000      0.00000000</v>
  </separator>
  <separator name="performance" >
   <i type="int" name="NPAR">     2</i>
   <i type="int" name="NSIM">     4</i>
   <i type="int" name="NBLK">    -1</i>
   <i type="logical" name="LPLANE"> T  </i>
   <i type="logical" name="LSCALAPACK"> T  </i>
   <i type="logical" name="LSCAAWARE"> F  </i>
   <i type="logical" name="LSCALU"> F  </i>
   <i type="logical" name="LASYNC"> F  </i>
   <i type="logical" name="LORBITALREAL"> F  </i>
  </separator>
  <separator name="miscellaneous" >
   <i type="int" name="IDIOT">     3</i>
   <i type="int" name="ISPECIAL">     0</i>
   <i type="logical" name="LMUSIC"> F  </i>
   <v name="POMASS">     16.00000000     87.62000000     47.88000000</v>
   <v name="DARWINR">      0.00000000      0.00000000      0.00000000</v>
   <v name="DARWINV">      1.00000000      1.00000000      1.00000000</v>
   <i type="logical" name="LCORR"> T  </i>
  </separator>
  <i type="logical" name="GGA_COMPAT"> T  </i>
  <i type="logical" name="LBERRY"> F  </i>
  <i type="int" name="ICORELEVEL">     0</i>
  <i type="logical" name="LDAU"> F  </i>
  <i type="int" name="I_CONSTRAINED_M">     0</i>
  <separator name="electronic exchange-correlation" >
   <i type="string" name="GGA">--</i>
   <i type="int" name="VOSKOWN">     0</i>
   <i type="logical" name="LHFCALC"> F  </i>
   <i type="string" name="PRECFOCK"></i>
   <i type="logical" name="LSYMGRAD"> F  </i>
   <i type="logical" name="LHFONE"> F  </i>
   <i type="logical" name="LRHFCALC"> F  </i>
   <i type="logical" name="LTHOMAS"> F  </i>
   <i type="logical" name="LMODELHF"> F  </i>
   <i name="ENCUT4O">     -1.00000000</i>
   <i type="int" name="EXXOEP">     0</i>
   <i type="int" name="FOURORBIT">     0</i>
   <i name="AEXX">      0.00000000</i>
   <i name="HFALPHA">      0.00000000</i>
   <i name="MCALPHA">      0.00000000</i>
   <i name="ALDAX">      1.00000000</i>
   <i name="AGGAX">      1.00000000</i>
   <i name="ALDAC">      1.00000000</i>
   <i name="AGGAC">      1.00000000</i>
   <i type="int" name="NKREDX">     1</i>
   <i type="int" name="NKREDY">     1</i>
   <i type="int" name="NKREDZ">     1</i>
   <i type="logical" name="SHIFTRED"> F  </i>
   <i type="logical" name="ODDONLY"> F  </i>
   <i type="logical" name="EVENONLY"> F  </i>
   <i type="int" name="LMAXFOCK">     0</i>
   <i type="int" name="NMAXFOCKAE">     0</i>
   <i type="logical" name="LFOCKAEDFT"> F  </i>
   <i name="HFSCREEN">      0.00000000</i>
   <i name="HFSCREENC">      0.00000000</i>
   <i type="int" name="NBANDSGWLOW">     0</i>
  </separator>
  <separator name="vdW DFT" >
   <i type="logical" name="LUSE_VDW"> F  </i>
   <i name="Zab_VDW">     -0.84910000</i>
   <i name="PARAM1">      0.12340000</i>
   <i name="PARAM2">      1.00000000</i>
   <i name="PARAM3">      0.00000000</i>
  </separator>
  <separator name="model GW" >
   <i type="int" name="MODEL_GW">     0</i>
   <i name="MODEL_EPS0">     14.01837061</i>
   <i name="MODEL_ALPHA">      1.00000000</i>
  </separator>
  <separator name="linear response parameters" >
   <i type="logical" name="LEPSILON"> F  </i>
   <i type="logical" name="LRPA"> F  </i>
   <i type="logical" name="LNABLA"> F  </i>
   <i type="logical" name="LVEL"> F  </i>
   <i type="int" name="KINTER">     0</i>
   <i name="CSHIFT">      0.10000000</i>
   <i name="OMEGAMAX">     -1.00000000</i>
   <i name="DEG_THRESHOLD">      0.00200000</i>
   <i name="RTIME">     -0.10000000</i>
   <i name="WPLASMAI">      0.00000000</i>
   <v name="DFIELD">      0.00000000      0.00000000      0.00000000</v>
   <v name="WPLASMA">      0.00000000      0.00000000      0.00000000      0.00000000      0.00000000      0.00000000      0.00000000      0.00000000      0.00000000</v>
  </separator>
  <separator name="orbital magnetization" >
   <i type="logical" name="NUCIND"> F  </i>
   <v name="MAGPOS">      0.00000000      0.00000000      0.00000000</v>
   <i type="logical" name="LNICSALL"> T  </i>
   <i type="logical" name="ORBITALMAG"> F  </i>
   <i type="logical" name="LMAGBLOCH"> F  </i>
   <i type="logical" name="LCHIMAG"> F  </i>
   <i type="logical" name="LGAUGE"> T  </i>
   <i type="int" name="MAGATOM">     0</i>
   <v name="MAGDIPOL">      0.00000000      0.00000000      0.00000000</v>
   <v name="AVECCONST">      0.00000000      0.00000000      0.00000000</v>
  </separator>
  <separator name="response functions" >
   <i type="logical" name="LADDER"> F  </i>
   <i type="logical" name="LRPAFORCE"> F  </i>
   <i type="logical" name="LFXC"> F  </i>
   <i type="logical" name="LHARTREE"> T  </i>
   <i type="int" name="IBSE">     0</i>
   <v type="int" name="KPOINT">    -1     0     0     0</v>
   <i type="logical" name="LTCTE"> F  </i>
   <i type="logical" name="LTETE"> F  </i>
   <i type="logical" name="LTRIPLET"> F  </i>
   <i type="logical" name="LFXCEPS"> F  </i>
   <i type="logical" name="LFXHEG"> F  </i>
   <i type="int" name="NATURALO">     2</i>
   <i type="logical" name="L2ORDER"> F  </i>
   <i type="logical" name="LMP2LT"> F  </i>
   <i type="logical" name="LUSEW"> F  </i>
   <i name="ENCUTGW">     -2.00000000</i>
   <i name="ENCUTGWSOFT">     -2.00000000</i>
   <i name="ENCUTLF">     -1.00000000</i>
   <i type="int" name="LMAXMP2">    -1</i>
   <i name="SCISSOR">      0.00000000</i>
   <i type="int" name="NOMEGA">     0</i>
   <i type="int" name="NOMEGAR">     0</i>
   <i type="int" name="NBANDSGW">    -1</i>
   <i type="int" name="NBANDSO">    -1</i>
   <i type="int" name="NBANDSV">    -1</i>
   <i type="int" name="NELM">     1</i>
   <i type="int" name="NELMHF">     1</i>
   <i type="int" name="DIM">     3</i>
   <i type="int" name="ANTIRES">     0</i>
   <i name="OMEGAMAX">    -30.00000000</i>
   <i name="OMEGAMIN">    -30.00000000</i>
   <i name="OMEGATL">   -200.00000000</i>
   <i type="int" name="OMEGAGRID">   140</i>
   <i name="CSHIFT">     -0.10000000</i>
   <i type="logical" name="SELFENERGY"> F  </i>
   <i type="logical" name="LSPECTRAL"> F  </i>
   <i type="logical" name="LSPECTRALGW"> F  </i>
   <i type="logical" name="LSINGLES"> F  </i>
   <i type="logical" name="LFERMIGW"> F  </i>
   <i type="logical" name="ODDONLYGW"> F  </i>
   <i type="logical" name="EVENONLYGW"> F  </i>
   <i type="int" name="NKREDLFX">     1</i>
   <i type="int" name="NKREDLFY">     1</i>
   <i type="int" name="NKREDLFZ">     1</i>
   <i type="int" name="MAXMEM">  2800</i>
   <i type="int" name="TELESCOPE">     0</i>
   <i type="int" name="TAUPAR">     1</i>
   <i type="int" name="OMEGAPAR">    -1</i>
   <i name="LAMBDA">      1.00000000</i>
  </separator>
  <separator name="External order field" >
   <i name="OFIELD_KAPPA">      0.00000000</i>
   <v name="OFIELD_K">      0.00000000      0.00000000      0.00000000</v>
   <i name="OFIELD_Q6_NEAR">      0.00000000</i>
   <i name="OFIELD_Q6_FAR">      0.00000000</i>
   <i name="OFIELD_A">      0.00000000</i>
  </separator>
 </parameters>
 <atominfo>
  <atoms>      20 </atoms>
  <types>       3 </types>
  <array name="atoms" >
   <dimension dim="1">ion</dimension>
   <field type="string">element</field>
   <field type="int">atomtype</field>
   <set>
    <rc><c>O </c><c>   1</c></rc>
    <rc><c>O </c><c>   1</c></rc>
    <rc><c>O </c><c>   1</c></rc>
    <rc><c>O </c><c>   1</c></rc>
    <rc><c>O </c><c>   1</c></rc>
    <rc><c>O </c><c>   1</c></rc>
    <rc><c>O </c><c>   1</c></rc>
    <rc><c>O </c><c>   1</c></rc>
    <rc><c>O </c><c>   1</c></rc>
    <rc><c>O </c><c>   1</c></rc>
    <rc><c>O </c><c>   1</c></rc>
    <rc><c>O </c><c>   1</c></rc>
    <rc><c>Sr</c><c>   2</c></rc>
    <rc><c>Sr</c><c>   2</c></rc>
    <rc><c>Sr</c><c>   2</c></rc>
    <rc><c>Sr</c><c>   2</c></rc>
    <rc><c>Ti</c><c>   3</c></rc>
    <rc><c>Ti</c><c>   3</c></rc>
    <rc><c>Ti</c><c>   3</c></rc>
    <rc><c>Ti</c><c>   3</c></rc>
   </set>
  </array>
  <array name="atomtypes" >
   <dimension dim="1">type</dimension>
   <field type="int">atomspertype</field>
   <field type="string">element</field>
   <field>mass</field>
   <field>valence</field>
   <field type="string">pseudopotential</field>
   <set>
    <rc><c>  12</c><c>O </c><c>     16.00000000</c><c>      6.00000000</c><c> PAW_PBE O 08Apr2002                    </c></rc>
    <rc><c>   4</c><c>Sr</c><c>     87.62000000</c><c>     10.00000000</c><c> PAW_PBE Sr_sv 07Sep2000                </c></rc>
    <rc><c>   4</c><c>Ti</c><c>     47.88000000</c><c>      4.00000000</c><c> PAW_PBE Ti 08Apr2002                   </c></rc>
   </set>
  </array>
 </atominfo>
 <structure name="initialpos" >
  <crystal>
   <varray name="basis" >
    <v>       5.52288297       0.00000000       0.00000000 </v>
    <v>       0.00000000       3.90526800       0.00000000 </v>
    <v>       0.00000000       0.00000000      21.66504520 </v>
   </varray>
   <i name="volume">    467.27902047 </i>
   <varray name="rec_basis" >
    <v>       0.18106485       0.00000000       0.00000000 </v>
    <v>       0.00000000       0.25606437       0.00000000 </v>
    <v>       0.00000000       0.00000000       0.04615730 </v>
   </varray>
  </crystal>
  <varray name="positions" >
   <v>       0.50000000       0.00000000       0.27694380 </v>
   <v>       0.25000000       0.50000000       0.34067414 </v>
   <v>       0.75000000       0.50000000       0.34067414 </v>
   <v>       0.00000000       0.00000000       0.40440449 </v>
   <v>       0.75000000       0.50000000       0.46813483 </v>
   <v>       0.25000000       0.50000000       0.46813483 </v>
   <v>       0.50000000       0.00000000       0.53186517 </v>
   <v>       0.25000000       0.50000000       0.59559551 </v>
   <v>       0.75000000       0.50000000       0.59559551 </v>
   <v>       0.00000000       0.00000000       0.65932586 </v>
   <v>       0.75000000       0.50000000       0.72305620 </v>
   <v>       0.25000000       0.50000000       0.72305620 </v>
   <v>       0.00000000       0.00000000       0.27694380 </v>
   <v>       0.50000000       0.00000000       0.40440449 </v>
   <v>       0.00000000       0.00000000       0.53186517 </v>
   <v>       0.50000000       0.00000000       0.65932586 </v>
   <v>       0.50000000       0.50000000       0.27694380 </v>
   <v>       0.00000000       0.50000000       0.40440449 </v>
   <v>       0.50000000       0.50000000       0.53186517 </v>
   <v>       0.00000000       0.50000000       0.65932586 </v>
  </varray>
 </structure>
 <calculation>
  <scstep>
   <time name="dav">   12.99   12.98</time>
   <time name="total">   13.23   13.23</time>
   <energy>
    <i name="alphaZ">    378.09908315 </i>
    <i name="ewald">  22731.27163923 </i>
    <i name="hartreedc"> -30966.93774878 </i>
    <i name="XCdc">    325.41602601 </i>
    <i name="pawpsdc">   5334.45189010 </i>
    <i name="pawaedc">  -5139.13784255 </i>
    <i name="eentropy">      0.00000000 </i>
    <i name="bandstr">    231.09221805 </i>
    <i name="atom">   8937.43125330 </i>
    <i name="e_fr_energy">   1831.68651850 </i>
    <i name="e_wo_entrp">   1831.68651850 </i>
    <i name="e_0_energy">   1831.68651850 </i>
   </energy>
  </scstep>
  <scstep>
   <time name="dav">   14.68   14.68</time>
   <time name="total">   14.69   14.69</time>
   <energy>
    <i name="e_fr_energy">    261.64351372 </i>
    <i name="e_wo_entrp">    261.64351372 </i>
    <i name="e_0_energy">    261.64351372 </i>
   </energy>
  </scstep>
  <scstep>
   <time name="dav">   16.61   16.61</time>
   <time name="total">   16.61   16.61</time>
   <energy>
    <i name="e_fr_energy">   -161.27009359 </i>
    <i name="e_wo_entrp">   -161.27009359 </i>
    <i name="e_0_energy">   -161.27009359 </i>
   </energy>
  </scstep>
  <scstep>
   <time name="dav">   16.16   16.16</time>
   <time name="total">   16.16   16.17</time>
   <energy>
    <i name="e_fr_energy">   -197.13463413 </i>
    <i name="e_wo_entrp">   -197.13463413 </i>
    <i name="e_0_energy">   -197.13463413 </i>
   </energy>
  </scstep>
  <scstep>
   <time name="dav">   18.91   18.91</time>
   <time name="total">   19.41   19.41</time>
   <energy>
    <i name="e_fr_energy">   -198.73725799 </i>
    <i name="e_wo_entrp">   -198.73725799 </i>
    <i name="e_0_energy">   -198.73725799 </i>
   </energy>
  </scstep>
  <scstep>
   <time name="diag">    1.56    1.56</time>
   <time name="diis">   12.51   12.51</time>
   <time name="orth">    0.28    0.28</time>
   <time name="total">   15.09   15.09</time>
   <energy>
    <i name="e_fr_energy">   -205.39717273 </i>
    <i name="e_wo_entrp">   -205.39717273 </i>
    <i name="e_0_energy">   -205.39717273 </i>
   </energy>
  </scstep>
  <scstep>
   <time name="diag">    1.43    1.43</time>
   <time name="diis">   11.30   11.29</time>
   <time name="orth">    0.28    0.28</time>
   <time name="total">   13.71   13.71</time>
   <energy>
    <i name="e_fr_energy">   -172.55348713 </i>
    <i name="e_wo_entrp">   -172.55348713 </i>
    <i name="e_0_energy">   -172.55348713 </i>
   </energy>
  </scstep>
  <scstep>
   <time name="diag">    1.54    1.54</time>
   <time name="diis">   10.66   10.66</time>
   <time name="orth">    0.28    0.28</time>
   <time name="total">   13.17   13.16</time>
   <energy>
    <i name="e_fr_energy">   -160.84647364 </i>
    <i name="e_wo_entrp">   -160.84647364 </i>
    <i name="e_0_energy">   -160.84647364 </i>
   </energy>
  </scstep>
  <scstep>
   <time name="diag">    1.54    1.54</time>
   <time name="diis">   12.34   12.33</time>
   <time name="orth">    0.28    0.28</time>
   <time name="total">   14.87   14.87</time>
   <energy>
    <i name="e_fr_energy">   -156.19744115 </i>
    <i name="e_wo_entrp">   -156.19744115 </i>
    <i name="e_0_energy">   -156.19744115 </i>
   </energy>
  </scstep>
  <scstep>
   <time name="diag">    1.55    1.55</time>
   <time name="diis">   11.38   11.38</time>
   <time name="orth">    0.28    0.28</time>
   <time name="total">   13.94   13.94</time>
   <energy>
    <i name="e_fr_energy">   -157.43879906 </i>
    <i name="e_wo_entrp">   -157.43879906 </i>
    <i name="e_0_energy">   -157.43879906 </i>
   </energy>
  </scstep>
  <scstep>
   <time name="diag">    1.54    1.54</time>
   <time name="diis">   14.25   14.25</time>
   <time name="orth">    0.28    0.28</time>
   <time name="total">   16.81   16.81</time>
   <energy>
    <i name="e_fr_energy">   -155.87626714 </i>
    <i name="e_wo_entrp">   -155.87626714 </i>
    <i name="e_0_energy">   -155.87626714 </i>
   </energy>
  </scstep>
  <scstep>
   <time name="diag">    1.55    1.55</time>
   <time name="diis">   14.00   14.00</time>
   <time name="orth">    0.28    0.28</time>
   <time name="total">   16.57   16.57</time>
   <energy>
    <i name="e_fr_energy">   -158.36767111 </i>
    <i name="e_wo_entrp">   -158.36767111 </i>
    <i name="e_0_energy">   -158.36767111 </i>
   </energy>
  </scstep>
  <scstep>
   <time name="diag">    1.55    1.55</time>
   <time name="diis">   13.92   13.92</time>
   <time name="orth">    0.28    0.28</time>
   <time name="total">   16.49   16.49</time>
   <energy>
    <i name="e_fr_energy">   -159.13482961 </i>
    <i name="e_wo_entrp">   -159.13482961 </i>
    <i name="e_0_energy">   -159.13482961 </i>
   </energy>
  </scstep>
  <scstep>
   <time name="diag">    1.55    1.55</time>
   <time name="diis">   10.92   10.92</time>
   <time name="orth">    0.28    0.28</time>
   <time name="total">   13.49   13.49</time>
   <energy>
    <i name="e_fr_energy">   -154.50392057 </i>
    <i name="e_wo_entrp">   -154.50392057 </i>
    <i name="e_0_energy">   -154.50392057 </i>
   </energy>
  </scstep>
  <scstep>
   <time name="diag">    1.55    1.55</time>
   <time name="diis">   11.53   11.53</time>
   <time name="orth">    0.28    0.28</time>
   <time name="total">   14.10   14.10</time>
   <energy>
    <i name="e_fr_energy">   -151.73770368 </i>
    <i name="e_wo_entrp">   -151.73770368 </i>
    <i name="e_0_energy">   -151.73770368 </i>
   </energy>
  </scstep>
  <scstep>
   <time name="diag">    1.49    1.49</time>
   <time name="diis">   12.10   12.09</time>
   <time name="orth">    0.27    0.27</time>
   <time name="total">   14.54   14.54</time>
   <energy>
    <i name="e_fr_energy">   -149.95770390 </i>
    <i name="e_wo_entrp">   -149.95770390 </i>
    <i name="e_0_energy">   -149.95770390 </i>
   </energy>
  </scstep>
  <scstep>
   <time name="diag">    1.49    1.49</time>
   <time name="diis">   12.72   12.71</time>
   <time name="orth">    0.28    0.28</time>
   <time name="total">   15.23   15.23</time>
   <energy>
    <i name="e_fr_energy">   -150.04644955 </i>
    <i name="e_wo_entrp">   -150.04644955 </i>
    <i name="e_0_energy">   -150.04644955 </i>
   </energy>
  </scstep>
  <scstep>
   <time name="diag">    1.54    1.54</time>
   <time name="diis">   11.34   11.33</time>
   <time name="orth">    0.28    0.28</time>
   <time name="total">   13.90   13.90</time>
   <energy>
    <i name="e_fr_energy">   -150.19188463 </i>
    <i name="e_wo_entrp">   -150.19188463 </i>
    <i name="e_0_energy">   -150.19188463 </i>
   </energy>
  </scstep>
  <scstep>
   <time name="diag">    1.55    1.56</time>
   <time name="diis">   11.07   11.07</time>
   <time name="orth">    0.28    0.28</time>
   <time name="total">   13.65   13.65</time>
   <energy>
    <i name="e_fr_energy">   -149.63464684 </i>
    <i name="e_wo_entrp">   -149.63464684 </i>
    <i name="e_0_energy">   -149.63464684 </i>
   </energy>
  </scstep>
  <scstep>
   <time name="diag">    1.55    1.55</time>
   <time name="diis">   11.19   11.19</time>
   <time name="orth">    0.28    0.28</time>
   <time name="total">   13.75   13.75</time>
   <energy>
    <i name="e_fr_energy">   -149.99331359 </i>
    <i name="e_wo_entrp">   -149.99331359 </i>
    <i name="e_0_energy">   -149.99331359 </i>
   </energy>
  </scstep>
  <scstep>
   <time name="diag">    1.56    1.56</time>
   <time name="diis">   11.43   11.43</time>
   <time name="orth">    0.28    0.28</time>
   <time name="total">   14.01   14.02</time>
   <energy>
    <i name="e_fr_energy">   -149.08096192 </i>
    <i name="e_wo_entrp">   -149.08096192 </i>
    <i name="e_0_energy">   -149.08096192 </i>
   </energy>
  </scstep>
  <scstep>
   <time name="diag">    1.44    1.44</time>
   <time name="diis">   11.89   11.89</time>
   <time name="orth">    0.28    0.28</time>
   <time name="total">   14.32   14.32</time>
   <energy>
    <i name="e_fr_energy">   -148.93785914 </i>
    <i name="e_wo_entrp">   -148.93785914 </i>
    <i name="e_0_energy">   -148.93785914 </i>
   </energy>
  </scstep>
  <scstep>
   <time name="diag">    1.47    1.47</time>
   <time name="diis">   11.40   11.39</time>
   <time name="orth">    0.28    0.28</time>
   <time name="total">   13.85   13.85</time>
   <energy>
    <i name="e_fr_energy">   -148.86501578 </i>
    <i name="e_wo_entrp">   -148.86501578 </i>
    <i name="e_0_energy">   -148.86501578 </i>
   </energy>
  </scstep>
  <scstep>
   <time name="diag">    1.55    1.55</time>
   <time name="diis">   12.33   12.32</time>
   <time name="orth">    0.29    0.29</time>
   <time name="total">   14.91   14.91</time>
   <energy>
    <i name="e_fr_energy">   -148.88508214 </i>
    <i name="e_wo_entrp">   -148.88508214 </i>
    <i name="e_0_energy">   -148.88508214 </i>
   </energy>
  </scstep>
  <scstep>
   <time name="diag">    1.55    1.55</time>
   <time name="diis">   10.81   10.81</time>
   <time name="orth">    0.28    0.28</time>
   <time name="total">   13.40   13.40</time>
   <energy>
    <i name="e_fr_energy">   -148.78893989 </i>
    <i name="e_wo_entrp">   -148.78893989 </i>
    <i name="e_0_energy">   -148.78893989 </i>
   </energy>
  </scstep>
  <scstep>
   <time name="diag">    1.56    1.56</time>
   <time name="diis">   11.78   11.78</time>
   <time name="orth">    0.28    0.28</time>
   <time name="total">   14.37   14.37</time>
   <energy>
    <i name="e_fr_energy">   -148.78774054 </i>
    <i name="e_wo_entrp">   -148.78774054 </i>
    <i name="e_0_energy">   -148.78774054 </i>
   </energy>
  </scstep>
  <scstep>
   <time name="diag">    1.55    1.56</time>
   <time name="diis">   11.69   11.69</time>
   <time name="orth">    0.28    0.28</time>
   <time name="total">   14.28   14.28</time>
   <energy>
    <i name="e_fr_energy">   -148.80820628 </i>
    <i name="e_wo_entrp">   -148.80820628 </i>
    <i name="e_0_energy">   -148.80820628 </i>
   </energy>
  </scstep>
  <scstep>
   <time name="diag">    1.44    1.44</time>
   <time name="diis">   11.94   11.93</time>
   <time name="orth">    0.28    0.28</time>
   <time name="total">   14.38   14.38</time>
   <energy>
    <i name="e_fr_energy">   -148.80258496 </i>
    <i name="e_wo_entrp">   -148.80258496 </i>
    <i name="e_0_energy">   -148.80258496 </i>
   </energy>
  </scstep>
  <scstep>
   <time name="diag">    1.54    1.54</time>
   <time name="diis">   10.89   10.89</time>
   <time name="orth">    0.28    0.28</time>
   <time name="total">   13.47   13.46</time>
   <energy>
    <i name="e_fr_energy">   -148.77974332 </i>
    <i name="e_wo_entrp">   -148.77974332 </i>
    <i name="e_0_energy">   -148.77974332 </i>
   </energy>
  </scstep>
  <scstep>
   <time name="diag">    1.54    1.55</time>
   <time name="diis">   11.11   11.10</time>
   <time name="orth">    0.28    0.28</time>
   <time name="total">   13.68   13.69</time>
   <energy>
    <i name="e_fr_energy">   -148.77403273 </i>
    <i name="e_wo_entrp">   -148.77403273 </i>
    <i name="e_0_energy">   -148.77403273 </i>
   </energy>
  </scstep>
  <scstep>
   <time name="diag">    1.54    1.54</time>
   <time name="diis">   12.03   12.03</time>
   <time name="orth">    0.28    0.28</time>
   <time name="total">   14.62   14.62</time>
   <energy>
    <i name="e_fr_energy">   -148.77314428 </i>
    <i name="e_wo_entrp">   -148.77314428 </i>
    <i name="e_0_energy">   -148.77314428 </i>
   </energy>
  </scstep>
  <scstep>
   <time name="diag">    1.55    1.55</time>
   <time name="diis">   11.53   11.52</time>
   <time name="orth">    0.28    0.28</time>
   <time name="total">   14.12   14.12</time>
   <energy>
    <i name="e_fr_energy">   -148.77282084 </i>
    <i name="e_wo_entrp">   -148.77282084 </i>
    <i name="e_0_energy">   -148.77282084 </i>
   </energy>
  </scstep>
  <scstep>
   <time name="diag">    1.44    1.44</time>
   <time name="diis">   11.20   11.20</time>
   <time name="orth">    0.27    0.27</time>
   <time name="total">   13.63   13.63</time>
   <energy>
    <i name="e_fr_energy">   -148.77271573 </i>
    <i name="e_wo_entrp">   -148.77271573 </i>
    <i name="e_0_energy">   -148.77271573 </i>
   </energy>
  </scstep>
  <scstep>
   <time name="diag">    1.51    1.51</time>
   <time name="diis">   10.69   10.69</time>
   <time name="orth">    0.28    0.28</time>
   <time name="total">   13.24   13.24</time>
   <energy>
    <i name="e_fr_energy">   -148.77286808 </i>
    <i name="e_wo_entrp">   -148.77286808 </i>
    <i name="e_0_energy">   -148.77286808 </i>
   </energy>
  </scstep>
  <scstep>
   <time name="diag">    1.54    1.54</time>
   <time name="diis">   12.43   12.43</time>
   <time name="orth">    0.28    0.28</time>
   <time name="total">   15.01   15.01</time>
   <energy>
    <i name="e_fr_energy">   -148.77287106 </i>
    <i name="e_wo_entrp">   -148.77287106 </i>
    <i name="e_0_energy">   -148.77287106 </i>
   </energy>
  </scstep>
  <scstep>
   <time name="diag">    1.55    1.55</time>
   <time name="diis">    9.97    9.97</time>
   <time name="orth">    0.28    0.28</time>
   <time name="total">   12.54   12.54</time>
   <energy>
    <i name="e_fr_energy">   -148.77310588 </i>
    <i name="e_wo_entrp">   -148.77310588 </i>
    <i name="e_0_energy">   -148.77310588 </i>
   </energy>
  </scstep>
  <scstep>
   <time name="diag">    1.45    1.45</time>
   <time name="diis">    9.21    9.21</time>
   <time name="orth">    0.28    0.28</time>
   <time name="total">   11.69   11.69</time>
   <energy>
    <i name="e_fr_energy">   -148.77314016 </i>
    <i name="e_wo_entrp">   -148.77314016 </i>
    <i name="e_0_energy">   -148.77314016 </i>
   </energy>
  </scstep>
  <scstep>
   <time name="diag">    1.54    1.54</time>
   <time name="diis">    9.34    9.34</time>
   <time name="orth">    0.28    0.28</time>
   <time name="total">   11.92   11.92</time>
   <energy>
    <i name="e_fr_energy">   -148.77302779 </i>
    <i name="e_wo_entrp">   -148.77302779 </i>
    <i name="e_0_energy">   -148.77302779 </i>
   </energy>
  </scstep>
  <scstep>
   <time name="diag">    1.49    1.49</time>
   <time name="diis">    9.38    9.38</time>
   <time name="orth">    0.28    0.28</time>
   <time name="total">   11.91   11.91</time>
   <energy>
    <i name="e_fr_energy">   -148.77306758 </i>
    <i name="e_wo_entrp">   -148.77306758 </i>
    <i name="e_0_energy">   -148.77306758 </i>
   </energy>
  </scstep>
  <scstep>
   <time name="diag">    1.53    1.53</time>
   <time name="diis">    9.52    9.52</time>
   <time name="orth">    0.28    0.28</time>
   <time name="total">   12.10   12.10</time>
   <energy>
    <i name="e_fr_energy">   -148.77344996 </i>
    <i name="e_wo_entrp">   -148.77344996 </i>
    <i name="e_0_energy">   -148.77344996 </i>
   </energy>
  </scstep>
  <scstep>
   <time name="diag">    1.42    1.42</time>
   <time name="diis">    8.72    8.71</time>
   <time name="orth">    0.28    0.28</time>
   <time name="total">   11.18   11.18</time>
   <energy>
    <i name="e_fr_energy">   -148.77328693 </i>
    <i name="e_wo_entrp">   -148.77328693 </i>
    <i name="e_0_energy">   -148.77328693 </i>
   </energy>
  </scstep>
  <scstep>
   <time name="diag">    1.53    1.53</time>
   <time name="diis">    6.18    6.18</time>
   <time name="orth">    0.27    0.27</time>
   <time name="total">    8.21    8.22</time>
   <energy>
    <i name="alphaZ">    378.09908315 </i>
    <i name="ewald">  22731.27163923 </i>
    <i name="hartreedc"> -31289.34640151 </i>
    <i name="XCdc">    340.19071211 </i>
    <i name="pawpsdc">   6159.47993326 </i>
    <i name="pawaedc">  -5988.88861527 </i>
    <i name="eentropy">      0.00000000 </i>
    <i name="bandstr">  -1417.01089557 </i>
    <i name="atom">   8937.43125330 </i>
    <i name="e_fr_energy">   -148.77329130 </i>
    <i name="e_wo_entrp">   -148.77329130 </i>
    <i name="e_0_energy">   -148.77329130 </i>
   </energy>
  </scstep>
  <structure>
   <crystal>
    <varray name="basis" >
     <v>       5.52288297       0.00000000       0.00000000 </v>
     <v>       0.00000000       3.90526800       0.00000000 </v>
     <v>       0.00000000       0.00000000      21.66504520 </v>
    </varray>
    <i name="volume">    467.27902047 </i>
    <varray name="rec_basis" >
     <v>       0.18106485       0.00000000       0.00000000 </v>
     <v>       0.00000000       0.25606437       0.00000000 </v>
     <v>       0.00000000       0.00000000       0.04615730 </v>
    </varray>
   </crystal>
   <varray name="positions" >
    <v>       0.50000000       0.00000000       0.27694380 </v>
    <v>       0.25000000       0.50000000       0.34067414 </v>
    <v>       0.75000000       0.50000000       0.34067414 </v>
    <v>       0.00000000       0.00000000       0.40440449 </v>
    <v>       0.75000000       0.50000000       0.46813483 </v>
    <v>       0.25000000       0.50000000       0.46813483 </v>
    <v>       0.50000000       0.00000000       0.53186517 </v>
    <v>       0.25000000       0.50000000       0.59559551 </v>
    <v>       0.75000000       0.50000000       0.59559551 </v>
    <v>       0.00000000       0.00000000       0.65932586 </v>
    <v>       0.75000000       0.50000000       0.72305620 </v>
    <v>       0.25000000       0.50000000       0.72305620 </v>
    <v>       0.00000000       0.00000000       0.27694380 </v>
    <v>       0.50000000       0.00000000       0.40440449 </v>
    <v>       0.00000000       0.00000000       0.53186517 </v>
    <v>       0.50000000       0.00000000       0.65932586 </v>
    <v>       0.50000000       0.50000000       0.27694380 </v>
    <v>       0.00000000       0.50000000       0.40440449 </v>
    <v>       0.50000000       0.50000000       0.53186517 </v>
    <v>       0.00000000       0.50000000       0.65932586 </v>
   </varray>
  </structure>
  <varray name="forces" >
   <v>       0.00000000       0.00000000      -1.51528570 </v>
   <v>       0.70401344      -0.00000000      -2.07293307 </v>
   <v>      -0.70401344       0.00000000      -2.07293307 </v>
   <v>       0.00000000       0.00000000      -0.75866433 </v>
   <v>       0.55226583       0.00000000      -1.26588668 </v>
   <v>      -0.55226583       0.00000000      -1.26588668 </v>
   <v>       0.00000000       0.00000000      -0.58879028 </v>
   <v>       0.80825868       0.00000000      -1.45229190 </v>
   <v>      -0.80825868       0.00000000      -1.45229190 </v>
   <v>       0.00000000       0.00000000      -1.12180933 </v>
   <v>       0.19534634       0.00000000      -0.99775942 </v>
   <v>      -0.19534634       0.00000000      -0.99775942 </v>
   <v>       0.00000000       0.00000000       0.99393275 </v>
   <v>       0.00000000       0.00000000       0.95918673 </v>
   <v>       0.00000000       0.00000000       0.74482306 </v>
   <v>       0.00000000       0.00000000       1.59219456 </v>
   <v>       0.00000000       0.00000000       2.28383544 </v>
   <v>       0.00000000       0.00000000       2.59264112 </v>
   <v>       0.00000000       0.00000000       2.34697284 </v>
   <v>       0.00000000       0.00000000       4.04870527 </v>
  </varray>
  <varray name="stress" >
   <v>      12.64638489       0.00000000       0.00000000 </v>
   <v>       0.00000000      29.98665805       0.00000000 </v>
   <v>       0.00000000       0.00000000       8.01098704 </v>
  </varray>
  <energy>
   <i name="e_fr_energy">   -148.77329130 </i>
   <i name="e_wo_entrp">   -148.77329130 </i>
   <i name="e_0_energy">      0.00000000 </i>
  </energy>
  <time name="totalsc">  607.84  607.88</time>
  <eigenvalues>
   <array>
    <dimension dim="1">band</dimension>
    <dimension dim="2">kpoint</dimension>
    <dimension dim="3">spin</dimension>
    <field>eigene</field>
    <field>occ</field>
    <set>
     <set comment="spin 1">
      <set comment="kpoint 1">
       <r>  -36.5929    1.0000 </r>
       <r>  -35.2679    1.0000 </r>
       <r>  -34.3071    1.0000 </r>
       <r>  -33.4180    1.0000 </r>
       <r>  -20.5066    1.0000 </r>
       <r>  -20.0356    1.0000 </r>
       <r>  -19.8489    1.0000 </r>
       <r>  -19.3587    1.0000 </r>
       <r>  -19.0471    1.0000 </r>
       <r>  -18.6806    1.0000 </r>
       <r>  -18.5918    1.0000 </r>
       <r>  -18.5359    1.0000 </r>
       <r>  -18.5196    1.0000 </r>
       <r>  -18.3463    1.0000 </r>
       <r>  -18.0929    1.0000 </r>
       <r>  -17.8270    1.0000 </r>
       <r>  -17.3111    1.0000 </r>
       <r>  -17.2891    1.0000 </r>
       <r>  -17.1339    1.0000 </r>
       <r>  -17.0525    1.0000 </r>
       <r>  -16.5197    1.0000 </r>
       <r>  -16.3457    1.0000 </r>
       <r>  -16.2919    1.0000 </r>
       <r>  -16.1600    1.0000 </r>
       <r>  -16.0924    1.0000 </r>
       <r>  -15.4377    1.0000 </r>
       <r>  -15.1698    1.0000 </r>
       <r>  -15.1186    1.0000 </r>
       <r>   -7.1093    1.0000 </r>
       <r>   -6.7989    1.0000 </r>
       <r>   -6.6346    1.0000 </r>
       <r>   -6.0097    1.0000 </r>
       <r>   -5.8919    1.0000 </r>
       <r>   -5.5396    1.0000 </r>
       <r>   -5.4453    1.0000 </r>
       <r>   -5.2988    1.0000 </r>
       <r>   -5.1445    1.0000 </r>
       <r>   -5.0620    1.0000 </r>
       <r>   -5.0017    1.0000 </r>
       <r>   -4.8597    1.0000 </r>
       <r>   -4.7675    1.0000 </r>
       <r>   -4.5829    1.0000 </r>
       <r>   -4.2490    1.0000 </r>
       <r>   -4.1239    1.0000 </r>
       <r>   -4.0839    1.0000 </r>
       <r>   -3.9957    1.0000 </r>
       <r>   -3.8080    1.0000 </r>
       <r>   -3.7709    1.0000 </r>
       <r>   -3.5467    1.0000 </r>
       <r>   -3.2516    1.0000 </r>
       <r>   -3.0184    1.0000 </r>
       <r>   -2.9263    1.0000 </r>
       <r>   -2.9117    1.0000 </r>
       <r>   -2.6995    1.0000 </r>
       <r>   -2.6672    1.0000 </r>
       <r>   -2.3912    1.0000 </r>
       <r>   -2.2969    1.0000 </r>
       <r>   -1.9545    1.0000 </r>
       <r>   -1.9162    1.0000 </r>
       <r>   -1.3710    1.0000 </r>
       <r>   -1.3436    1.0000 </r>
       <r>   -1.0883    1.0000 </r>
       <r>   -1.0803    1.0000 </r>
       <r>   -1.0383    1.0000 </r>
       <r>   -0.8692    1.1204 </r>
       <r>   -0.7789    0.2130 </r>
       <r>   -0.7532    0.0000 </r>
       <r>   -0.5171    0.0000 </r>
       <r>    0.0697    0.0000 </r>
       <r>    0.2879    0.0000 </r>
       <r>    0.3848    0.0000 </r>
       <r>    0.6489    0.0000 </r>
       <r>    1.2930    0.0000 </r>
       <r>    1.5260    0.0000 </r>
       <r>    2.6436    0.0000 </r>
       <r>    4.1102    0.0000 </r>
      </set>
      <set comment="kpoint 2">
       <r>  -36.5926    1.0000 </r>
       <r>  -35.2675    1.0000 </r>
       <r>  -34.3068    1.0000 </r>
       <r>  -33.4178    1.0000 </r>
       <r>  -20.5666    1.0000 </r>
       <r>  -20.1923    1.0000 </r>
       <r>  -19.7208    1.0000 </r>
       <r>  -19.3472    1.0000 </r>
       <r>  -19.1263    1.0000 </r>
       <r>  -18.7167    1.0000 </r>
       <r>  -18.5922    1.0000 </r>
       <r>  -18.4703    1.0000 </r>
       <r>  -18.4014    1.0000 </r>
       <r>  -18.3535    1.0000 </r>
       <r>  -18.1634    1.0000 </r>
       <r>  -17.7935    1.0000 </r>
       <r>  -17.3117    1.0000 </r>
       <r>  -17.2746    1.0000 </r>
       <r>  -17.0937    1.0000 </r>
       <r>  -17.0603    1.0000 </r>
       <r>  -16.4920    1.0000 </r>
       <r>  -16.3464    1.0000 </r>
       <r>  -16.2928    1.0000 </r>
       <r>  -16.1362    1.0000 </r>
       <r>  -16.0320    1.0000 </r>
       <r>  -15.4386    1.0000 </r>
       <r>  -15.1755    1.0000 </r>
       <r>  -15.0998    1.0000 </r>
       <r>   -6.9393    1.0000 </r>
       <r>   -6.7554    1.0000 </r>
       <r>   -6.6640    1.0000 </r>
       <r>   -5.9822    1.0000 </r>
       <r>   -5.7511    1.0000 </r>
       <r>   -5.6117    1.0000 </r>
       <r>   -5.5399    1.0000 </r>
       <r>   -5.3405    1.0000 </r>
       <r>   -5.1778    1.0000 </r>
       <r>   -5.1323    1.0000 </r>
       <r>   -4.9276    1.0000 </r>
       <r>   -4.7745    1.0000 </r>
       <r>   -4.6956    1.0000 </r>
       <r>   -4.6416    1.0000 </r>
       <r>   -4.3712    1.0000 </r>
       <r>   -4.3470    1.0000 </r>
       <r>   -4.0817    1.0000 </r>
       <r>   -4.0373    1.0000 </r>
       <r>   -3.9597    1.0000 </r>
       <r>   -3.7421    1.0000 </r>
       <r>   -3.5084    1.0000 </r>
       <r>   -3.3638    1.0000 </r>
       <r>   -3.1905    1.0000 </r>
       <r>   -3.0305    1.0000 </r>
       <r>   -2.9377    1.0000 </r>
       <r>   -2.7941    1.0000 </r>
       <r>   -2.6140    1.0000 </r>
       <r>   -2.5222    1.0000 </r>
       <r>   -2.3029    1.0000 </r>
       <r>   -2.2039    1.0000 </r>
       <r>   -1.8925    1.0000 </r>
       <r>   -1.4130    1.0000 </r>
       <r>   -1.3893    1.0000 </r>
       <r>   -1.1022    1.0000 </r>
       <r>   -1.0743    1.0000 </r>
       <r>   -0.9629    1.0000 </r>
       <r>   -0.8711    1.0825 </r>
       <r>   -0.7426    0.0453 </r>
       <r>   -0.7256    0.0000 </r>
       <r>   -0.6198    0.0000 </r>
       <r>    0.0885    0.0000 </r>
       <r>    0.3260    0.0000 </r>
       <r>    0.3626    0.0000 </r>
       <r>    0.8135    0.0000 </r>
       <r>    1.3098    0.0000 </r>
       <r>    2.6424    0.0000 </r>
       <r>    2.6938    0.0000 </r>
       <r>    4.2133    0.0000 </r>
      </set>
      <set comment="kpoint 3">
       <r>  -36.5921    1.0000 </r>
       <r>  -35.2670    1.0000 </r>
       <r>  -34.3063    1.0000 </r>
       <r>  -33.4173    1.0000 </r>
       <r>  -20.6676    1.0000 </r>
       <r>  -20.3048    1.0000 </r>
       <r>  -19.6712    1.0000 </r>
       <r>  -19.3046    1.0000 </r>
       <r>  -19.2321    1.0000 </r>
       <r>  -18.7279    1.0000 </r>
       <r>  -18.5927    1.0000 </r>
       <r>  -18.3844    1.0000 </r>
       <r>  -18.3488    1.0000 </r>
       <r>  -18.2957    1.0000 </r>
       <r>  -18.2290    1.0000 </r>
       <r>  -17.7701    1.0000 </r>
       <r>  -17.3127    1.0000 </r>
       <r>  -17.2611    1.0000 </r>
       <r>  -17.0648    1.0000 </r>
       <r>  -17.0270    1.0000 </r>
       <r>  -16.4220    1.0000 </r>
       <r>  -16.3475    1.0000 </r>
       <r>  -16.3131    1.0000 </r>
       <r>  -16.0633    1.0000 </r>
       <r>  -15.9866    1.0000 </r>
       <r>  -15.4401    1.0000 </r>
       <r>  -15.1766    1.0000 </r>
       <r>  -15.0630    1.0000 </r>
       <r>   -6.8279    1.0000 </r>
       <r>   -6.7104    1.0000 </r>
       <r>   -6.3038    1.0000 </r>
       <r>   -5.9220    1.0000 </r>
       <r>   -5.8235    1.0000 </r>
       <r>   -5.6723    1.0000 </r>
       <r>   -5.6130    1.0000 </r>
       <r>   -5.4938    1.0000 </r>
       <r>   -5.3102    1.0000 </r>
       <r>   -5.1079    1.0000 </r>
       <r>   -4.8044    1.0000 </r>
       <r>   -4.7849    1.0000 </r>
       <r>   -4.6893    1.0000 </r>
       <r>   -4.6388    1.0000 </r>
       <r>   -4.5713    1.0000 </r>
       <r>   -4.5021    1.0000 </r>
       <r>   -4.1330    1.0000 </r>
       <r>   -4.1152    1.0000 </r>
       <r>   -3.8992    1.0000 </r>
       <r>   -3.8910    1.0000 </r>
       <r>   -3.6749    1.0000 </r>
       <r>   -3.5167    1.0000 </r>
       <r>   -3.3528    1.0000 </r>
       <r>   -3.1099    1.0000 </r>
       <r>   -3.0701    1.0000 </r>
       <r>   -3.0075    1.0000 </r>
       <r>   -2.7639    1.0000 </r>
       <r>   -2.5086    1.0000 </r>
       <r>   -2.3662    1.0000 </r>
       <r>   -2.3170    1.0000 </r>
       <r>   -1.7485    1.0000 </r>
       <r>   -1.5498    1.0000 </r>
       <r>   -1.4596    1.0000 </r>
       <r>   -1.1997    1.0000 </r>
       <r>   -1.0616    1.0000 </r>
       <r>   -1.0279    1.0000 </r>
       <r>   -0.8491    1.0127 </r>
       <r>   -0.8126    0.6026 </r>
       <r>   -0.7415    0.0000 </r>
       <r>   -0.3980    0.0000 </r>
       <r>    0.0482    0.0000 </r>
       <r>    0.3151    0.0000 </r>
       <r>    0.3943    0.0000 </r>
       <r>    0.9683    0.0000 </r>
       <r>    1.2945    0.0000 </r>
       <r>    1.3295    0.0000 </r>
       <r>    1.8020    0.0000 </r>
       <r>    2.6197    0.0000 </r>
      </set>
      <set comment="kpoint 4">
       <r>  -36.5895    1.0000 </r>
       <r>  -35.2639    1.0000 </r>
       <r>  -34.3032    1.0000 </r>
       <r>  -33.4142    1.0000 </r>
       <r>  -20.4523    1.0000 </r>
       <r>  -19.9951    1.0000 </r>
       <r>  -19.8019    1.0000 </r>
       <r>  -19.3148    1.0000 </r>
       <r>  -19.0651    1.0000 </r>
       <r>  -18.6357    1.0000 </r>
       <r>  -18.6067    1.0000 </r>
       <r>  -18.5500    1.0000 </r>
       <r>  -18.4982    1.0000 </r>
       <r>  -18.3074    1.0000 </r>
       <r>  -18.1082    1.0000 </r>
       <r>  -17.7861    1.0000 </r>
       <r>  -17.2829    1.0000 </r>
       <r>  -17.2370    1.0000 </r>
       <r>  -17.1831    1.0000 </r>
       <r>  -17.0674    1.0000 </r>
       <r>  -16.5670    1.0000 </r>
       <r>  -16.3047    1.0000 </r>
       <r>  -16.2647    1.0000 </r>
       <r>  -16.2033    1.0000 </r>
       <r>  -16.1098    1.0000 </r>
       <r>  -15.3869    1.0000 </r>
       <r>  -15.2009    1.0000 </r>
       <r>  -15.1834    1.0000 </r>
       <r>   -7.0515    1.0000 </r>
       <r>   -6.7288    1.0000 </r>
       <r>   -6.6288    1.0000 </r>
       <r>   -6.3359    1.0000 </r>
       <r>   -5.8601    1.0000 </r>
       <r>   -5.8343    1.0000 </r>
       <r>   -5.5438    1.0000 </r>
       <r>   -5.5001    1.0000 </r>
       <r>   -5.2860    1.0000 </r>
       <r>   -5.2213    1.0000 </r>
       <r>   -5.0564    1.0000 </r>
       <r>   -4.9834    1.0000 </r>
       <r>   -4.8692    1.0000 </r>
       <r>   -4.6244    1.0000 </r>
       <r>   -4.4264    1.0000 </r>
       <r>   -4.4229    1.0000 </r>
       <r>   -4.0804    1.0000 </r>
       <r>   -4.0698    1.0000 </r>
       <r>   -4.0245    1.0000 </r>
       <r>   -3.7287    1.0000 </r>
       <r>   -3.7076    1.0000 </r>
       <r>   -3.3571    1.0000 </r>
       <r>   -3.1699    1.0000 </r>
       <r>   -3.0710    1.0000 </r>
       <r>   -2.9369    1.0000 </r>
       <r>   -2.8241    1.0000 </r>
       <r>   -2.7049    1.0000 </r>
       <r>   -2.5608    1.0000 </r>
       <r>   -2.3408    1.0000 </r>
       <r>   -2.0042    1.0000 </r>
       <r>   -1.9754    1.0000 </r>
       <r>   -1.5030    1.0000 </r>
       <r>   -1.3124    1.0000 </r>
       <r>   -1.0957    1.0000 </r>
       <r>   -0.9729    1.0000 </r>
       <r>   -0.9670    1.0378 </r>
       <r>   -0.7476    0.2664 </r>
       <r>   -0.6553   -0.0331 </r>
       <r>   -0.5237    0.0000 </r>
       <r>   -0.4667    0.0000 </r>
       <r>    0.1283    0.0000 </r>
       <r>    0.4859    0.0000 </r>
       <r>    0.5664    0.0000 </r>
       <r>    0.6791    0.0000 </r>
       <r>    1.4180    0.0000 </r>
       <r>    1.4868    0.0000 </r>
       <r>    1.6937    0.0000 </r>
       <r>    2.8016    0.0000 </r>
      </set>
      <set comment="kpoint 5">
       <r>  -36.5892    1.0000 </r>
       <r>  -35.2637    1.0000 </r>
       <r>  -34.3029    1.0000 </r>
       <r>  -33.4140    1.0000 </r>
       <r>  -20.4928    1.0000 </r>
       <r>  -20.1489    1.0000 </r>
       <r>  -19.6970    1.0000 </r>
       <r>  -19.3127    1.0000 </r>
       <r>  -19.1135    1.0000 </r>
       <r>  -18.7085    1.0000 </r>
       <r>  -18.5898    1.0000 </r>
       <r>  -18.4870    1.0000 </r>
       <r>  -18.3837    1.0000 </r>
       <r>  -18.3208    1.0000 </r>
       <r>  -18.1618    1.0000 </r>
       <r>  -17.7746    1.0000 </r>
       <r>  -17.2785    1.0000 </r>
       <r>  -17.2365    1.0000 </r>
       <r>  -17.1262    1.0000 </r>
       <r>  -17.0838    1.0000 </r>
       <r>  -16.5390    1.0000 </r>
       <r>  -16.3154    1.0000 </r>
       <r>  -16.2607    1.0000 </r>
       <r>  -16.1746    1.0000 </r>
       <r>  -16.0444    1.0000 </r>
       <r>  -15.3820    1.0000 </r>
       <r>  -15.2130    1.0000 </r>
       <r>  -15.1418    1.0000 </r>
       <r>   -6.9156    1.0000 </r>
       <r>   -6.7073    1.0000 </r>
       <r>   -6.6539    1.0000 </r>
       <r>   -6.3175    1.0000 </r>
       <r>   -5.9551    1.0000 </r>
       <r>   -5.7637    1.0000 </r>
       <r>   -5.6058    1.0000 </r>
       <r>   -5.5073    1.0000 </r>
       <r>   -5.3360    1.0000 </r>
       <r>   -5.1755    1.0000 </r>
       <r>   -5.0542    1.0000 </r>
       <r>   -4.9734    1.0000 </r>
       <r>   -4.8221    1.0000 </r>
       <r>   -4.6530    1.0000 </r>
       <r>   -4.5798    1.0000 </r>
       <r>   -4.4157    1.0000 </r>
       <r>   -4.3532    1.0000 </r>
       <r>   -4.0578    1.0000 </r>
       <r>   -3.9335    1.0000 </r>
       <r>   -3.8228    1.0000 </r>
       <r>   -3.6912    1.0000 </r>
       <r>   -3.4812    1.0000 </r>
       <r>   -3.1671    1.0000 </r>
       <r>   -3.0898    1.0000 </r>
       <r>   -3.0246    1.0000 </r>
       <r>   -2.9617    1.0000 </r>
       <r>   -2.8453    1.0000 </r>
       <r>   -2.5383    1.0000 </r>
       <r>   -2.3671    1.0000 </r>
       <r>   -2.1857    1.0000 </r>
       <r>   -1.9391    1.0000 </r>
       <r>   -1.6231    1.0000 </r>
       <r>   -1.3076    1.0000 </r>
       <r>   -1.0998    1.0000 </r>
       <r>   -0.9718    1.0000 </r>
       <r>   -0.9362    1.0176 </r>
       <r>   -0.7312    0.3159 </r>
       <r>   -0.7126   -0.0138 </r>
       <r>   -0.5306    0.0000 </r>
       <r>   -0.4187    0.0000 </r>
       <r>    0.1697    0.0000 </r>
       <r>    0.5170    0.0000 </r>
       <r>    0.5519    0.0000 </r>
       <r>    0.8345    0.0000 </r>
       <r>    1.4466    0.0000 </r>
       <r>    1.4722    0.0000 </r>
       <r>    2.7350    0.0000 </r>
       <r>    2.8104    0.0000 </r>
      </set>
      <set comment="kpoint 6">
       <r>  -36.5888    1.0000 </r>
       <r>  -35.2632    1.0000 </r>
       <r>  -34.3025    1.0000 </r>
       <r>  -33.4136    1.0000 </r>
       <r>  -20.5759    1.0000 </r>
       <r>  -20.2533    1.0000 </r>
       <r>  -19.6679    1.0000 </r>
       <r>  -19.3002    1.0000 </r>
       <r>  -19.1823    1.0000 </r>
       <r>  -18.7369    1.0000 </r>
       <r>  -18.5796    1.0000 </r>
       <r>  -18.3744    1.0000 </r>
       <r>  -18.3354    1.0000 </r>
       <r>  -18.3089    1.0000 </r>
       <r>  -18.2146    1.0000 </r>
       <r>  -17.7753    1.0000 </r>
       <r>  -17.2572    1.0000 </r>
       <r>  -17.2446    1.0000 </r>
       <r>  -17.0979    1.0000 </r>
       <r>  -17.0478    1.0000 </r>
       <r>  -16.4737    1.0000 </r>
       <r>  -16.3341    1.0000 </r>
       <r>  -16.2571    1.0000 </r>
       <r>  -16.1008    1.0000 </r>
       <r>  -15.9998    1.0000 </r>
       <r>  -15.3643    1.0000 </r>
       <r>  -15.2042    1.0000 </r>
       <r>  -15.0923    1.0000 </r>
       <r>   -6.8446    1.0000 </r>
       <r>   -6.7177    1.0000 </r>
       <r>   -6.4194    1.0000 </r>
       <r>   -6.2972    1.0000 </r>
       <r>   -6.0246    1.0000 </r>
       <r>   -5.7836    1.0000 </r>
       <r>   -5.5980    1.0000 </r>
       <r>   -5.5319    1.0000 </r>
       <r>   -5.4483    1.0000 </r>
       <r>   -5.2851    1.0000 </r>
       <r>   -5.0706    1.0000 </r>
       <r>   -4.9490    1.0000 </r>
       <r>   -4.8214    1.0000 </r>
       <r>   -4.7232    1.0000 </r>
       <r>   -4.6811    1.0000 </r>
       <r>   -4.5219    1.0000 </r>
       <r>   -4.3468    1.0000 </r>
       <r>   -4.1394    1.0000 </r>
       <r>   -3.9647    1.0000 </r>
       <r>   -3.8195    1.0000 </r>
       <r>   -3.7814    1.0000 </r>
       <r>   -3.5472    1.0000 </r>
       <r>   -3.4775    1.0000 </r>
       <r>   -3.2245    1.0000 </r>
       <r>   -3.1094    1.0000 </r>
       <r>   -2.9895    1.0000 </r>
       <r>   -2.8882    1.0000 </r>
       <r>   -2.8166    1.0000 </r>
       <r>   -2.4281    1.0000 </r>
       <r>   -2.1488    1.0000 </r>
       <r>   -1.8641    1.0000 </r>
       <r>   -1.7007    1.0000 </r>
       <r>   -1.2993    1.0000 </r>
       <r>   -1.2480    1.0000 </r>
       <r>   -1.1054    1.0000 </r>
       <r>   -0.9315    1.0000 </r>
       <r>   -0.8750    1.0637 </r>
       <r>   -0.6191   -0.0579 </r>
       <r>   -0.3706    0.0000 </r>
       <r>   -0.3321    0.0000 </r>
       <r>    0.1634    0.0000 </r>
       <r>    0.5257    0.0000 </r>
       <r>    0.5824    0.0000 </r>
       <r>    1.0791    0.0000 </r>
       <r>    1.4490    0.0000 </r>
       <r>    1.8123    0.0000 </r>
       <r>    2.7306    0.0000 </r>
       <r>    2.8128    0.0000 </r>
      </set>
      <set comment="kpoint 7">
       <r>  -36.5818    1.0000 </r>
       <r>  -35.2551    1.0000 </r>
       <r>  -34.2944    1.0000 </r>
       <r>  -33.4055    1.0000 </r>
       <r>  -20.3862    1.0000 </r>
       <r>  -19.8710    1.0000 </r>
       <r>  -19.6825    1.0000 </r>
       <r>  -19.2210    1.0000 </r>
       <r>  -19.0922    1.0000 </r>
       <r>  -18.6362    1.0000 </r>
       <r>  -18.5835    1.0000 </r>
       <r>  -18.5185    1.0000 </r>
       <r>  -18.4485    1.0000 </r>
       <r>  -18.2209    1.0000 </r>
       <r>  -18.1168    1.0000 </r>
       <r>  -17.6817    1.0000 </r>
       <r>  -17.3087    1.0000 </r>
       <r>  -17.2228    1.0000 </r>
       <r>  -17.1724    1.0000 </r>
       <r>  -17.0449    1.0000 </r>
       <r>  -16.6337    1.0000 </r>
       <r>  -16.3599    1.0000 </r>
       <r>  -16.2171    1.0000 </r>
       <r>  -16.1388    1.0000 </r>
       <r>  -16.1345    1.0000 </r>
       <r>  -15.3746    1.0000 </r>
       <r>  -15.3486    1.0000 </r>
       <r>  -15.1981    1.0000 </r>
       <r>   -6.9949    1.0000 </r>
       <r>   -6.9332    1.0000 </r>
       <r>   -6.6136    1.0000 </r>
       <r>   -6.5313    1.0000 </r>
       <r>   -6.3734    1.0000 </r>
       <r>   -6.2784    1.0000 </r>
       <r>   -6.0099    1.0000 </r>
       <r>   -5.7977    1.0000 </r>
       <r>   -5.5647    1.0000 </r>
       <r>   -5.4626    1.0000 </r>
       <r>   -5.3048    1.0000 </r>
       <r>   -5.1751    1.0000 </r>
       <r>   -5.0484    1.0000 </r>
       <r>   -4.9864    1.0000 </r>
       <r>   -4.7422    1.0000 </r>
       <r>   -4.5302    1.0000 </r>
       <r>   -4.5192    1.0000 </r>
       <r>   -4.2495    1.0000 </r>
       <r>   -4.1843    1.0000 </r>
       <r>   -3.9904    1.0000 </r>
       <r>   -3.9067    1.0000 </r>
       <r>   -3.7113    1.0000 </r>
       <r>   -3.4136    1.0000 </r>
       <r>   -3.3709    1.0000 </r>
       <r>   -2.9753    1.0000 </r>
       <r>   -2.8163    1.0000 </r>
       <r>   -2.7703    1.0000 </r>
       <r>   -2.6987    1.0000 </r>
       <r>   -2.2660    1.0000 </r>
       <r>   -2.1424    1.0000 </r>
       <r>   -1.9853    1.0000 </r>
       <r>   -1.5012    1.0000 </r>
       <r>   -1.2960    1.0000 </r>
       <r>   -0.9859    1.0000 </r>
       <r>   -0.8133    1.0365 </r>
       <r>   -0.7421    0.3953 </r>
       <r>   -0.6948    0.0000 </r>
       <r>   -0.5383    0.0000 </r>
       <r>   -0.3072    0.0000 </r>
       <r>    0.1612    0.0000 </r>
       <r>    0.3705    0.0000 </r>
       <r>    0.7324    0.0000 </r>
       <r>    0.9764    0.0000 </r>
       <r>    1.0170    0.0000 </r>
       <r>    1.8512    0.0000 </r>
       <r>    1.8786    0.0000 </r>
       <r>    3.1481    0.0000 </r>
       <r>    4.9849    0.0000 </r>
      </set>
      <set comment="kpoint 8">
       <r>  -36.5816    1.0000 </r>
       <r>  -35.2549    1.0000 </r>
       <r>  -34.2942    1.0000 </r>
       <r>  -33.4054    1.0000 </r>
       <r>  -20.3649    1.0000 </r>
       <r>  -20.0313    1.0000 </r>
       <r>  -19.6491    1.0000 </r>
       <r>  -19.2374    1.0000 </r>
       <r>  -19.0917    1.0000 </r>
       <r>  -18.6285    1.0000 </r>
       <r>  -18.5880    1.0000 </r>
       <r>  -18.5087    1.0000 </r>
       <r>  -18.3829    1.0000 </r>
       <r>  -18.2359    1.0000 </r>
       <r>  -18.1457    1.0000 </r>
       <r>  -17.7174    1.0000 </r>
       <r>  -17.2673    1.0000 </r>
       <r>  -17.1773    1.0000 </r>
       <r>  -17.1593    1.0000 </r>
       <r>  -17.0878    1.0000 </r>
       <r>  -16.6096    1.0000 </r>
       <r>  -16.2969    1.0000 </r>
       <r>  -16.2332    1.0000 </r>
       <r>  -16.1764    1.0000 </r>
       <r>  -16.0419    1.0000 </r>
       <r>  -15.3769    1.0000 </r>
       <r>  -15.2990    1.0000 </r>
       <r>  -15.1570    1.0000 </r>
       <r>   -6.9758    1.0000 </r>
       <r>   -6.8979    1.0000 </r>
       <r>   -6.6961    1.0000 </r>
       <r>   -6.5551    1.0000 </r>
       <r>   -6.4189    1.0000 </r>
       <r>   -6.2812    1.0000 </r>
       <r>   -6.0227    1.0000 </r>
       <r>   -5.8021    1.0000 </r>
       <r>   -5.6377    1.0000 </r>
       <r>   -5.4132    1.0000 </r>
       <r>   -5.3572    1.0000 </r>
       <r>   -5.1866    1.0000 </r>
       <r>   -5.0451    1.0000 </r>
       <r>   -4.9662    1.0000 </r>
       <r>   -4.8374    1.0000 </r>
       <r>   -4.7021    1.0000 </r>
       <r>   -4.3872    1.0000 </r>
       <r>   -4.2847    1.0000 </r>
       <r>   -4.1450    1.0000 </r>
       <r>   -4.0637    1.0000 </r>
       <r>   -3.8787    1.0000 </r>
       <r>   -3.7652    1.0000 </r>
       <r>   -3.5444    1.0000 </r>
       <r>   -3.3510    1.0000 </r>
       <r>   -3.1584    1.0000 </r>
       <r>   -2.8961    1.0000 </r>
       <r>   -2.8871    1.0000 </r>
       <r>   -2.5532    1.0000 </r>
       <r>   -2.3275    1.0000 </r>
       <r>   -2.0859    1.0000 </r>
       <r>   -2.0337    1.0000 </r>
       <r>   -1.6605    1.0000 </r>
       <r>   -1.2604    1.0000 </r>
       <r>   -0.9660    1.0000 </r>
       <r>   -0.8307    1.0330 </r>
       <r>   -0.7944    0.8816 </r>
       <r>   -0.7159    0.0225 </r>
       <r>   -0.5517    0.0000 </r>
       <r>   -0.2258    0.0000 </r>
       <r>    0.1946    0.0000 </r>
       <r>    0.4137    0.0000 </r>
       <r>    0.8708    0.0000 </r>
       <r>    0.9896    0.0000 </r>
       <r>    1.0139    0.0000 </r>
       <r>    1.8432    0.0000 </r>
       <r>    1.8654    0.0000 </r>
       <r>    3.1262    0.0000 </r>
       <r>    3.1452    0.0000 </r>
      </set>
      <set comment="kpoint 9">
       <r>  -36.5813    1.0000 </r>
       <r>  -35.2546    1.0000 </r>
       <r>  -34.2939    1.0000 </r>
       <r>  -33.4051    1.0000 </r>
       <r>  -20.3519    1.0000 </r>
       <r>  -20.1538    1.0000 </r>
       <r>  -19.7022    1.0000 </r>
       <r>  -19.2850    1.0000 </r>
       <r>  -19.0542    1.0000 </r>
       <r>  -18.7257    1.0000 </r>
       <r>  -18.5526    1.0000 </r>
       <r>  -18.3875    1.0000 </r>
       <r>  -18.3464    1.0000 </r>
       <r>  -18.2796    1.0000 </r>
       <r>  -18.1326    1.0000 </r>
       <r>  -17.8029    1.0000 </r>
       <r>  -17.2252    1.0000 </r>
       <r>  -17.1846    1.0000 </r>
       <r>  -17.1122    1.0000 </r>
       <r>  -17.0659    1.0000 </r>
       <r>  -16.5537    1.0000 </r>
       <r>  -16.3122    1.0000 </r>
       <r>  -16.1737    1.0000 </r>
       <r>  -16.1344    1.0000 </r>
       <r>  -16.0087    1.0000 </r>
       <r>  -15.3800    1.0000 </r>
       <r>  -15.1745    1.0000 </r>
       <r>  -15.1179    1.0000 </r>
       <r>   -7.0384    1.0000 </r>
       <r>   -6.9450    1.0000 </r>
       <r>   -6.6966    1.0000 </r>
       <r>   -6.6240    1.0000 </r>
       <r>   -6.4999    1.0000 </r>
       <r>   -6.0723    1.0000 </r>
       <r>   -6.0222    1.0000 </r>
       <r>   -5.8581    1.0000 </r>
       <r>   -5.7348    1.0000 </r>
       <r>   -5.4728    1.0000 </r>
       <r>   -5.3357    1.0000 </r>
       <r>   -5.2173    1.0000 </r>
       <r>   -5.1959    1.0000 </r>
       <r>   -5.0722    1.0000 </r>
       <r>   -4.9069    1.0000 </r>
       <r>   -4.7398    1.0000 </r>
       <r>   -4.2429    1.0000 </r>
       <r>   -4.2344    1.0000 </r>
       <r>   -4.1497    1.0000 </r>
       <r>   -4.0904    1.0000 </r>
       <r>   -3.9477    1.0000 </r>
       <r>   -3.8143    1.0000 </r>
       <r>   -3.6849    1.0000 </r>
       <r>   -3.4811    1.0000 </r>
       <r>   -3.4406    1.0000 </r>
       <r>   -2.9184    1.0000 </r>
       <r>   -2.8810    1.0000 </r>
       <r>   -2.8410    1.0000 </r>
       <r>   -2.1537    1.0000 </r>
       <r>   -2.0485    1.0000 </r>
       <r>   -1.9962    1.0000 </r>
       <r>   -1.7383    1.0000 </r>
       <r>   -1.2445    1.0000 </r>
       <r>   -1.2048    1.0000 </r>
       <r>   -0.9437    1.0062 </r>
       <r>   -0.8010    0.9906 </r>
       <r>   -0.7786    0.5197 </r>
       <r>   -0.3395    0.0000 </r>
       <r>   -0.1754    0.0000 </r>
       <r>    0.2572    0.0000 </r>
       <r>    0.8452    0.0000 </r>
       <r>    1.0212    0.0000 </r>
       <r>    1.0464    0.0000 </r>
       <r>    1.8267    0.0000 </r>
       <r>    1.8423    0.0000 </r>
       <r>    1.8853    0.0000 </r>
       <r>    3.0881    0.0000 </r>
       <r>    3.1257    0.0000 </r>
      </set>
      <set comment="kpoint 10">
       <r>  -36.5756    1.0000 </r>
       <r>  -35.2481    1.0000 </r>
       <r>  -34.2874    1.0000 </r>
       <r>  -33.3986    1.0000 </r>
       <r>  -20.3942    1.0000 </r>
       <r>  -19.7207    1.0000 </r>
       <r>  -19.5649    1.0000 </r>
       <r>  -19.1931    1.0000 </r>
       <r>  -19.0744    1.0000 </r>
       <r>  -18.7260    1.0000 </r>
       <r>  -18.5457    1.0000 </r>
       <r>  -18.4054    1.0000 </r>
       <r>  -18.4001    1.0000 </r>
       <r>  -18.1883    1.0000 </r>
       <r>  -18.0635    1.0000 </r>
       <r>  -17.5770    1.0000 </r>
       <r>  -17.4347    1.0000 </r>
       <r>  -17.2027    1.0000 </r>
       <r>  -17.1584    1.0000 </r>
       <r>  -16.9783    1.0000 </r>
       <r>  -16.6370    1.0000 </r>
       <r>  -16.4834    1.0000 </r>
       <r>  -16.1802    1.0000 </r>
       <r>  -16.1103    1.0000 </r>
       <r>  -16.0030    1.0000 </r>
       <r>  -15.5258    1.0000 </r>
       <r>  -15.4569    1.0000 </r>
       <r>  -15.1324    1.0000 </r>
       <r>   -7.5774    1.0000 </r>
       <r>   -6.9807    1.0000 </r>
       <r>   -6.7130    1.0000 </r>
       <r>   -6.6004    1.0000 </r>
       <r>   -6.5938    1.0000 </r>
       <r>   -6.5291    1.0000 </r>
       <r>   -6.3622    1.0000 </r>
       <r>   -5.9729    1.0000 </r>
       <r>   -5.8324    1.0000 </r>
       <r>   -5.6440    1.0000 </r>
       <r>   -5.5680    1.0000 </r>
       <r>   -5.4785    1.0000 </r>
       <r>   -5.1439    1.0000 </r>
       <r>   -4.9732    1.0000 </r>
       <r>   -4.9137    1.0000 </r>
       <r>   -4.7301    1.0000 </r>
       <r>   -4.6131    1.0000 </r>
       <r>   -4.5812    1.0000 </r>
       <r>   -4.4389    1.0000 </r>
       <r>   -4.1657    1.0000 </r>
       <r>   -4.0711    1.0000 </r>
       <r>   -3.7179    1.0000 </r>
       <r>   -3.5513    1.0000 </r>
       <r>   -3.4936    1.0000 </r>
       <r>   -3.0064    1.0000 </r>
       <r>   -2.8622    1.0000 </r>
       <r>   -2.7666    1.0000 </r>
       <r>   -2.7381    1.0000 </r>
       <r>   -2.3053    1.0000 </r>
       <r>   -2.1443    1.0000 </r>
       <r>   -1.8883    1.0000 </r>
       <r>   -1.4352    1.0000 </r>
       <r>   -1.2844    1.0000 </r>
       <r>   -0.8722    1.0000 </r>
       <r>   -0.7395    0.1374 </r>
       <r>   -0.7120   -0.0372 </r>
       <r>   -0.5551    0.0000 </r>
       <r>   -0.4147    0.0000 </r>
       <r>   -0.1864    0.0000 </r>
       <r>    0.6474    0.0000 </r>
       <r>    0.7148    0.0000 </r>
       <r>    0.7681    0.0000 </r>
       <r>    1.3922    0.0000 </r>
       <r>    1.4478    0.0000 </r>
       <r>    2.2553    0.0000 </r>
       <r>    3.0445    0.0000 </r>
       <r>    3.4821    0.0000 </r>
       <r>    3.5230    0.0000 </r>
      </set>
      <set comment="kpoint 11">
       <r>  -36.5754    1.0000 </r>
       <r>  -35.2479    1.0000 </r>
       <r>  -34.2872    1.0000 </r>
       <r>  -33.3985    1.0000 </r>
       <r>  -20.3323    1.0000 </r>
       <r>  -19.8622    1.0000 </r>
       <r>  -19.6346    1.0000 </r>
       <r>  -19.1586    1.0000 </r>
       <r>  -19.1056    1.0000 </r>
       <r>  -18.5720    1.0000 </r>
       <r>  -18.5142    1.0000 </r>
       <r>  -18.4994    1.0000 </r>
       <r>  -18.4205    1.0000 </r>
       <r>  -18.1653    1.0000 </r>
       <r>  -18.1306    1.0000 </r>
       <r>  -17.6614    1.0000 </r>
       <r>  -17.3044    1.0000 </r>
       <r>  -17.2192    1.0000 </r>
       <r>  -17.1105    1.0000 </r>
       <r>  -17.0429    1.0000 </r>
       <r>  -16.6200    1.0000 </r>
       <r>  -16.3520    1.0000 </r>
       <r>  -16.2191    1.0000 </r>
       <r>  -16.1021    1.0000 </r>
       <r>  -16.0167    1.0000 </r>
       <r>  -15.4588    1.0000 </r>
       <r>  -15.3934    1.0000 </r>
       <r>  -15.0934    1.0000 </r>
       <r>   -7.5877    1.0000 </r>
       <r>   -6.9489    1.0000 </r>
       <r>   -6.7983    1.0000 </r>
       <r>   -6.7573    1.0000 </r>
       <r>   -6.6324    1.0000 </r>
       <r>   -6.5812    1.0000 </r>
       <r>   -6.2748    1.0000 </r>
       <r>   -5.9864    1.0000 </r>
       <r>   -5.8519    1.0000 </r>
       <r>   -5.7750    1.0000 </r>
       <r>   -5.5388    1.0000 </r>
       <r>   -5.4445    1.0000 </r>
       <r>   -5.1619    1.0000 </r>
       <r>   -5.1133    1.0000 </r>
       <r>   -4.9599    1.0000 </r>
       <r>   -4.8182    1.0000 </r>
       <r>   -4.6592    1.0000 </r>
       <r>   -4.4149    1.0000 </r>
       <r>   -4.3011    1.0000 </r>
       <r>   -4.1898    1.0000 </r>
       <r>   -4.1318    1.0000 </r>
       <r>   -3.7663    1.0000 </r>
       <r>   -3.6723    1.0000 </r>
       <r>   -3.5008    1.0000 </r>
       <r>   -3.2033    1.0000 </r>
       <r>   -2.8793    1.0000 </r>
       <r>   -2.8104    1.0000 </r>
       <r>   -2.6351    1.0000 </r>
       <r>   -2.3060    1.0000 </r>
       <r>   -2.0521    1.0000 </r>
       <r>   -1.9227    1.0000 </r>
       <r>   -1.6287    1.0000 </r>
       <r>   -1.2196    1.0000 </r>
       <r>   -0.8534    1.0000 </r>
       <r>   -0.7570    0.5413 </r>
       <r>   -0.7369    0.0199 </r>
       <r>   -0.7033   -0.0056 </r>
       <r>   -0.3860    0.0000 </r>
       <r>   -0.0374    0.0000 </r>
       <r>    0.6701    0.0000 </r>
       <r>    0.7211    0.0000 </r>
       <r>    0.9036    0.0000 </r>
       <r>    1.4078    0.0000 </r>
       <r>    1.4301    0.0000 </r>
       <r>    1.9957    0.0000 </r>
       <r>    2.2522    0.0000 </r>
       <r>    3.2265    0.0000 </r>
       <r>    3.4945    0.0000 </r>
      </set>
      <set comment="kpoint 12">
       <r>  -36.5752    1.0000 </r>
       <r>  -35.2477    1.0000 </r>
       <r>  -34.2870    1.0000 </r>
       <r>  -33.3983    1.0000 </r>
       <r>  -20.1776    1.0000 </r>
       <r>  -20.0356    1.0000 </r>
       <r>  -19.8072    1.0000 </r>
       <r>  -19.2256    1.0000 </r>
       <r>  -18.9700    1.0000 </r>
       <r>  -18.7090    1.0000 </r>
       <r>  -18.4954    1.0000 </r>
       <r>  -18.4173    1.0000 </r>
       <r>  -18.3553    1.0000 </r>
       <r>  -18.2379    1.0000 </r>
       <r>  -18.0612    1.0000 </r>
       <r>  -17.8384    1.0000 </r>
       <r>  -17.2344    1.0000 </r>
       <r>  -17.1846    1.0000 </r>
       <r>  -17.0854    1.0000 </r>
       <r>  -17.0245    1.0000 </r>
       <r>  -16.5778    1.0000 </r>
       <r>  -16.2681    1.0000 </r>
       <r>  -16.1621    1.0000 </r>
       <r>  -16.1564    1.0000 </r>
       <r>  -15.9879    1.0000 </r>
       <r>  -15.4616    1.0000 </r>
       <r>  -15.1984    1.0000 </r>
       <r>  -15.0400    1.0000 </r>
       <r>   -7.6083    1.0000 </r>
       <r>   -7.1118    1.0000 </r>
       <r>   -6.9724    1.0000 </r>
       <r>   -6.8484    1.0000 </r>
       <r>   -6.6673    1.0000 </r>
       <r>   -6.5610    1.0000 </r>
       <r>   -6.0926    1.0000 </r>
       <r>   -6.0202    1.0000 </r>
       <r>   -5.9210    1.0000 </r>
       <r>   -5.8470    1.0000 </r>
       <r>   -5.6048    1.0000 </r>
       <r>   -5.3705    1.0000 </r>
       <r>   -5.2961    1.0000 </r>
       <r>   -5.2841    1.0000 </r>
       <r>   -5.1484    1.0000 </r>
       <r>   -4.7504    1.0000 </r>
       <r>   -4.6920    1.0000 </r>
       <r>   -4.2998    1.0000 </r>
       <r>   -4.2014    1.0000 </r>
       <r>   -4.1414    1.0000 </r>
       <r>   -4.0517    1.0000 </r>
       <r>   -3.8565    1.0000 </r>
       <r>   -3.7646    1.0000 </r>
       <r>   -3.6681    1.0000 </r>
       <r>   -3.5660    1.0000 </r>
       <r>   -2.8375    1.0000 </r>
       <r>   -2.8253    1.0000 </r>
       <r>   -2.7560    1.0000 </r>
       <r>   -2.0865    1.0000 </r>
       <r>   -1.9950    1.0000 </r>
       <r>   -1.8945    1.0000 </r>
       <r>   -1.7302    1.0000 </r>
       <r>   -1.2212    1.0000 </r>
       <r>   -1.1559    1.0000 </r>
       <r>   -0.8922    1.0428 </r>
       <r>   -0.7398    0.0642 </r>
       <r>   -0.6435   -0.0482 </r>
       <r>   -0.2600    0.0000 </r>
       <r>    0.0808    0.0000 </r>
       <r>    0.7233    0.0000 </r>
       <r>    1.0776    0.0000 </r>
       <r>    1.3631    0.0000 </r>
       <r>    1.4219    0.0000 </r>
       <r>    1.9151    0.0000 </r>
       <r>    2.2183    0.0000 </r>
       <r>    2.2324    0.0000 </r>
       <r>    3.1784    0.0000 </r>
       <r>    3.4548    0.0000 </r>
      </set>
     </set>
    </set>
   </array>
  </eigenvalues>
  <separator name="orbital magnetization" >
   <v name="MAGDIPOLOUT">      0.00000000      0.00000000      0.00000000</v>
  </separator>
  <dos>
   <i name="efermi">     -0.76663519 </i>
   <total>
    <array>
     <dimension dim="1">gridpoints</dimension>
     <dimension dim="2">spin</dimension>
     <field>energy</field>
     <field>total</field>
     <field>integrated</field>
     <set>
      <set comment="spin 1">
       <r>   -38.6718     0.0000     0.0000 </r>
       <r>   -38.5194     0.0000     0.0000 </r>
       <r>   -38.3669     0.0000     0.0000 </r>
       <r>   -38.2145     0.0000     0.0000 </r>
       <r>   -38.0620     0.0000     0.0000 </r>
       <r>   -37.9096     0.0000     0.0000 </r>
       <r>   -37.7571     0.0000     0.0000 </r>
       <r>   -37.6047     0.0000     0.0000 </r>
       <r>   -37.4522     0.0000     0.0000 </r>
       <r>   -37.2998     0.0000     0.0000 </r>
       <r>   -37.1473     0.0000     0.0000 </r>
       <r>   -36.9949     0.0000     0.0000 </r>
       <r>   -36.8424     0.0000     0.0000 </r>
       <r>   -36.6899     0.0000     0.0000 </r>
       <r>   -36.5375     0.0000     2.0000 </r>
       <r>   -36.3850     0.0000     2.0000 </r>
       <r>   -36.2326     0.0000     2.0000 </r>
       <r>   -36.0801     0.0000     2.0000 </r>
       <r>   -35.9277     0.0000     2.0000 </r>
       <r>   -35.7752     0.0000     2.0000 </r>
       <r>   -35.6228     0.0000     2.0000 </r>
       <r>   -35.4703     0.0000     2.0000 </r>
       <r>   -35.3179     0.0000     2.0000 </r>
       <r>   -35.1654     0.0000     4.0000 </r>
       <r>   -35.0130     0.0000     4.0000 </r>
       <r>   -34.8605     0.0000     4.0000 </r>
       <r>   -34.7081     0.0000     4.0000 </r>
       <r>   -34.5556     0.0000     4.0000 </r>
       <r>   -34.4032     0.0000     4.0000 </r>
       <r>   -34.2507     0.0000     6.0000 </r>
       <r>   -34.0983     0.0000     6.0000 </r>
       <r>   -33.9458     0.0000     6.0000 </r>
       <r>   -33.7934     0.0000     6.0000 </r>
       <r>   -33.6409     0.0000     6.0000 </r>
       <r>   -33.4885     0.0000     6.0000 </r>
       <r>   -33.3360     0.0000     8.0000 </r>
       <r>   -33.1836     0.0000     8.0000 </r>
       <r>   -33.0311     0.0000     8.0000 </r>
       <r>   -32.8786     0.0000     8.0000 </r>
       <r>   -32.7262     0.0000     8.0000 </r>
       <r>   -32.5737     0.0000     8.0000 </r>
       <r>   -32.4213     0.0000     8.0000 </r>
       <r>   -32.2688     0.0000     8.0000 </r>
       <r>   -32.1164     0.0000     8.0000 </r>
       <r>   -31.9639     0.0000     8.0000 </r>
       <r>   -31.8115     0.0000     8.0000 </r>
       <r>   -31.6590     0.0000     8.0000 </r>
       <r>   -31.5066     0.0000     8.0000 </r>
       <r>   -31.3541     0.0000     8.0000 </r>
       <r>   -31.2017     0.0000     8.0000 </r>
       <r>   -31.0492     0.0000     8.0000 </r>
       <r>   -30.8968     0.0000     8.0000 </r>
       <r>   -30.7443     0.0000     8.0000 </r>
       <r>   -30.5919     0.0000     8.0000 </r>
       <r>   -30.4394     0.0000     8.0000 </r>
       <r>   -30.2870     0.0000     8.0000 </r>
       <r>   -30.1345     0.0000     8.0000 </r>
       <r>   -29.9821     0.0000     8.0000 </r>
       <r>   -29.8296     0.0000     8.0000 </r>
       <r>   -29.6772     0.0000     8.0000 </r>
       <r>   -29.5247     0.0000     8.0000 </r>
       <r>   -29.3723     0.0000     8.0000 </r>
       <r>   -29.2198     0.0000     8.0000 </r>
       <r>   -29.0673     0.0000     8.0000 </r>
       <r>   -28.9149     0.0000     8.0000 </r>
       <r>   -28.7624     0.0000     8.0000 </r>
       <r>   -28.6100     0.0000     8.0000 </r>
       <r>   -28.4575     0.0000     8.0000 </r>
       <r>   -28.3051     0.0000     8.0000 </r>
       <r>   -28.1526     0.0000     8.0000 </r>
       <r>   -28.0002     0.0000     8.0000 </r>
       <r>   -27.8477     0.0000     8.0000 </r>
       <r>   -27.6953     0.0000     8.0000 </r>
       <r>   -27.5428     0.0000     8.0000 </r>
       <r>   -27.3904     0.0000     8.0000 </r>
       <r>   -27.2379     0.0000     8.0000 </r>
       <r>   -27.0855     0.0000     8.0000 </r>
       <r>   -26.9330     0.0000     8.0000 </r>
       <r>   -26.7806     0.0000     8.0000 </r>
       <r>   -26.6281     0.0000     8.0000 </r>
       <r>   -26.4757     0.0000     8.0000 </r>
       <r>   -26.3232     0.0000     8.0000 </r>
       <r>   -26.1708     0.0000     8.0000 </r>
       <r>   -26.0183     0.0000     8.0000 </r>
       <r>   -25.8659     0.0000     8.0000 </r>
       <r>   -25.7134     0.0000     8.0000 </r>
       <r>   -25.5610     0.0000     8.0000 </r>
       <r>   -25.4085     0.0000     8.0000 </r>
       <r>   -25.2561     0.0000     8.0000 </r>
       <r>   -25.1036     0.0000     8.0000 </r>
       <r>   -24.9511     0.0000     8.0000 </r>
       <r>   -24.7987     0.0000     8.0000 </r>
       <r>   -24.6462     0.0000     8.0000 </r>
       <r>   -24.4938     0.0000     8.0000 </r>
       <r>   -24.3413     0.0000     8.0000 </r>
       <r>   -24.1889     0.0000     8.0000 </r>
       <r>   -24.0364     0.0000     8.0000 </r>
       <r>   -23.8840     0.0000     8.0000 </r>
       <r>   -23.7315     0.0000     8.0000 </r>
       <r>   -23.5791     0.0000     8.0000 </r>
       <r>   -23.4266     0.0000     8.0000 </r>
       <r>   -23.2742     0.0000     8.0000 </r>
       <r>   -23.1217     0.0000     8.0000 </r>
       <r>   -22.9693     0.0000     8.0000 </r>
       <r>   -22.8168     0.0000     8.0000 </r>
       <r>   -22.6644     0.0000     8.0000 </r>
       <r>   -22.5119     0.0000     8.0000 </r>
       <r>   -22.3595     0.0000     8.0000 </r>
       <r>   -22.2070     0.0000     8.0000 </r>
       <r>   -22.0546     0.0000     8.0000 </r>
       <r>   -21.9021     0.0000     8.0000 </r>
       <r>   -21.7497     0.0000     8.0000 </r>
       <r>   -21.5972     0.0000     8.0000 </r>
       <r>   -21.4448     0.0000     8.0000 </r>
       <r>   -21.2923     0.0000     8.0000 </r>
       <r>   -21.1398     0.0000     8.0000 </r>
       <r>   -20.9874     0.0000     8.0000 </r>
       <r>   -20.8349     0.0000     8.0000 </r>
       <r>   -20.6825     0.0000     8.0000 </r>
       <r>   -20.5300     4.5671     8.3950 </r>
       <r>   -20.3776    10.9291     9.2019 </r>
       <r>   -20.2251     5.8001    10.1310 </r>
       <r>   -20.0727     5.2440    10.9777 </r>
       <r>   -19.9202     2.6881    11.6440 </r>
       <r>   -19.7678     6.4613    12.2146 </r>
       <r>   -19.6153     3.9027    13.8602 </r>
       <r>   -19.4629     0.0000    14.0000 </r>
       <r>   -19.3104    12.4518    14.3789 </r>
       <r>   -19.1580     4.5244    16.2726 </r>
       <r>   -19.0055     3.1972    17.8470 </r>
       <r>   -18.8531     0.0000    18.0000 </r>
       <r>   -18.7006    12.2115    18.8851 </r>
       <r>   -18.5482    10.1668    21.3844 </r>
       <r>   -18.3957    22.8636    24.4841 </r>
       <r>   -18.2433    10.0135    27.2728 </r>
       <r>   -18.0908     8.9271    29.7438 </r>
       <r>   -17.9384     0.0000    30.0000 </r>
       <r>   -17.7859    26.6586    30.5726 </r>
       <r>   -17.6335     3.0697    31.8751 </r>
       <r>   -17.4810     0.0000    32.0000 </r>
       <r>   -17.3285     2.7484    32.1924 </r>
       <r>   -17.1761     5.6605    36.0198 </r>
       <r>   -17.0236     4.4175    39.8596 </r>
       <r>   -16.8712     0.0000    40.0000 </r>
       <r>   -16.7187     0.0000    40.0000 </r>
       <r>   -16.5663    12.8568    41.0196 </r>
       <r>   -16.4138     2.0292    42.1008 </r>
       <r>   -16.2614    14.0447    44.5572 </r>
       <r>   -16.1089    32.3648    47.6901 </r>
       <r>   -15.9565     0.0000    50.0000 </r>
       <r>   -15.8040     0.0000    50.0000 </r>
       <r>   -15.6516     0.0000    50.0000 </r>
       <r>   -15.4991     2.4494    50.0554 </r>
       <r>   -15.3467     3.5579    52.3331 </r>
       <r>   -15.1942    32.5041    53.4448 </r>
       <r>   -15.0418     3.7118    55.9363 </r>
       <r>   -14.8893     0.0000    56.0000 </r>
       <r>   -14.7369     0.0000    56.0000 </r>
       <r>   -14.5844     0.0000    56.0000 </r>
       <r>   -14.4320     0.0000    56.0000 </r>
       <r>   -14.2795     0.0000    56.0000 </r>
       <r>   -14.1271     0.0000    56.0000 </r>
       <r>   -13.9746     0.0000    56.0000 </r>
       <r>   -13.8222     0.0000    56.0000 </r>
       <r>   -13.6697     0.0000    56.0000 </r>
       <r>   -13.5173     0.0000    56.0000 </r>
       <r>   -13.3648     0.0000    56.0000 </r>
       <r>   -13.2123     0.0000    56.0000 </r>
       <r>   -13.0599     0.0000    56.0000 </r>
       <r>   -12.9074     0.0000    56.0000 </r>
       <r>   -12.7550     0.0000    56.0000 </r>
       <r>   -12.6025     0.0000    56.0000 </r>
       <r>   -12.4501     0.0000    56.0000 </r>
       <r>   -12.2976     0.0000    56.0000 </r>
       <r>   -12.1452     0.0000    56.0000 </r>
       <r>   -11.9927     0.0000    56.0000 </r>
       <r>   -11.8403     0.0000    56.0000 </r>
       <r>   -11.6878     0.0000    56.0000 </r>
       <r>   -11.5354     0.0000    56.0000 </r>
       <r>   -11.3829     0.0000    56.0000 </r>
       <r>   -11.2305     0.0000    56.0000 </r>
       <r>   -11.0780     0.0000    56.0000 </r>
       <r>   -10.9256     0.0000    56.0000 </r>
       <r>   -10.7731     0.0000    56.0000 </r>
       <r>   -10.6207     0.0000    56.0000 </r>
       <r>   -10.4682     0.0000    56.0000 </r>
       <r>   -10.3158     0.0000    56.0000 </r>
       <r>   -10.1633     0.0000    56.0000 </r>
       <r>   -10.0109     0.0000    56.0000 </r>
       <r>    -9.8584     0.0000    56.0000 </r>
       <r>    -9.7060     0.0000    56.0000 </r>
       <r>    -9.5535     0.0000    56.0000 </r>
       <r>    -9.4010     0.0000    56.0000 </r>
       <r>    -9.2486     0.0000    56.0000 </r>
       <r>    -9.0961     0.0000    56.0000 </r>
       <r>    -8.9437     0.0000    56.0000 </r>
       <r>    -8.7912     0.0000    56.0000 </r>
       <r>    -8.6388     0.0000    56.0000 </r>
       <r>    -8.4863     0.0000    56.0000 </r>
       <r>    -8.3339     0.0000    56.0000 </r>
       <r>    -8.1814     0.0000    56.0000 </r>
       <r>    -8.0290     0.0000    56.0000 </r>
       <r>    -7.8765     0.0000    56.0000 </r>
       <r>    -7.7241     0.0000    56.0000 </r>
       <r>    -7.5716     0.9710    56.3075 </r>
       <r>    -7.4192     0.9705    56.4555 </r>
       <r>    -7.2667     0.9700    56.6034 </r>
       <r>    -7.1143     0.9694    56.7512 </r>
       <r>    -6.9618    16.6921    57.8861 </r>
       <r>    -6.8094     7.0632    59.6197 </r>
       <r>    -6.6569    20.5287    61.6740 </r>
       <r>    -6.5045     8.3894    63.8021 </r>
       <r>    -6.3520     7.7547    64.9040 </r>
       <r>    -6.1996     5.9862    65.8864 </r>
       <r>    -6.0471     8.4270    66.9898 </r>
       <r>    -5.8947    12.6924    68.7094 </r>
       <r>    -5.7422    11.7072    70.7550 </r>
       <r>    -5.5897    13.9327    72.6309 </r>
       <r>    -5.4373    12.2459    74.7479 </r>
       <r>    -5.2848    12.2786    76.7108 </r>
       <r>    -5.1324    17.3219    79.2178 </r>
       <r>    -4.9799    16.7527    81.4260 </r>
       <r>    -4.8275    11.1098    83.3893 </r>
       <r>    -4.6750    14.5577    85.7703 </r>
       <r>    -4.5226     7.4454    87.5635 </r>
       <r>    -4.3701    11.2363    89.0473 </r>
       <r>    -4.2177    10.7268    91.0518 </r>
       <r>    -4.0652    15.2770    93.9575 </r>
       <r>    -3.9128    10.3390    95.9317 </r>
       <r>    -3.7603    19.3600    97.9057 </r>
       <r>    -3.6079     9.7452    99.8308 </r>
       <r>    -3.4554    10.4660   101.7001 </r>
       <r>    -3.3030     6.9074   103.0547 </r>
       <r>    -3.1505     8.4380   104.1671 </r>
       <r>    -2.9981    14.4687   105.6691 </r>
       <r>    -2.8456    22.8219   108.3248 </r>
       <r>    -2.6932     9.1880   110.6206 </r>
       <r>    -2.5407     6.2174   111.7175 </r>
       <r>    -2.3883     5.8295   112.1610 </r>
       <r>    -2.2358     4.9270   113.6760 </r>
       <r>    -2.0834    10.4936   115.1481 </r>
       <r>    -1.9309    12.8272   116.9936 </r>
       <r>    -1.7785     1.4745   117.9631 </r>
       <r>    -1.6260     5.6983   119.0142 </r>
       <r>    -1.4735     3.1842   119.8321 </r>
       <r>    -1.3211     7.1903   120.4684 </r>
       <r>    -1.1686     6.0633   122.4989 </r>
       <r>    -1.0162    11.6323   124.0048 </r>
       <r>    -0.8637    27.9865   126.2771 </r>
       <r>    -0.7113    19.0531   129.6825 </r>
       <r>    -0.5588     7.4764   131.3576 </r>
       <r>    -0.4064    11.0540   132.5295 </r>
       <r>    -0.2539     3.8739   133.7712 </r>
       <r>    -0.1015     3.7744   134.4017 </r>
       <r>     0.0510     3.7552   134.8894 </r>
       <r>     0.2034     2.7759   135.7881 </r>
       <r>     0.3559     5.6549   136.3384 </r>
       <r>     0.5083     8.2314   137.5606 </r>
       <r>     0.6608    10.8518   138.5860 </r>
       <r>     0.8132     8.1430   139.9594 </r>
       <r>     0.9657     6.4232   141.0882 </r>
       <r>     1.1181     3.5970   142.0118 </r>
       <r>     1.2706     3.3556   142.5417 </r>
       <r>     1.4230     5.5176   143.8581 </r>
       <r>     1.5755     3.9421   144.6126 </r>
       <r>     1.7279     4.1837   145.2309 </r>
       <r>     1.8804     7.5373   146.1131 </r>
       <r>     2.0328     4.5845   146.8783 </r>
       <r>     2.1853     3.6166   147.5035 </r>
       <r>     2.3378     1.2439   148.0289 </r>
       <r>     2.4902     1.2550   148.2194 </r>
       <r>     2.6427     1.9464   148.4262 </r>
       <r>     2.7951     2.6621   148.8728 </r>
       <r>     2.9476     3.1324   149.3542 </r>
       <r>     3.1000     4.3961   149.8292 </r>
       <r>     3.2525     2.8780   150.7274 </r>
       <r>     3.4049     2.4817   151.1359 </r>
       <r>     3.5574     0.5847   151.6418 </r>
       <r>     3.7098     0.5269   151.7265 </r>
       <r>     3.8623     0.4692   151.8025 </r>
       <r>     4.0147     0.4115   151.8696 </r>
       <r>     4.1672     0.2608   151.9253 </r>
       <r>     4.3196     0.1448   151.9518 </r>
       <r>     4.4721     0.1116   151.9714 </r>
       <r>     4.6245     0.0785   151.9859 </r>
       <r>     4.7770     0.0453   151.9953 </r>
       <r>     4.9294     0.0121   151.9997 </r>
       <r>     5.0819     0.0000   152.0000 </r>
       <r>     5.2343     0.0000   152.0000 </r>
       <r>     5.3868     0.0000   152.0000 </r>
       <r>     5.5392     0.0000   152.0000 </r>
       <r>     5.6917     0.0000   152.0000 </r>
       <r>     5.8441     0.0000   152.0000 </r>
       <r>     5.9966     0.0000   152.0000 </r>
       <r>     6.1491     0.0000   152.0000 </r>
       <r>     6.3015     0.0000   152.0000 </r>
       <r>     6.4540     0.0000   152.0000 </r>
       <r>     6.6064     0.0000   152.0000 </r>
       <r>     6.7589     0.0000   152.0000 </r>
       <r>     6.9113     0.0000   152.0000 </r>
       <r>     7.0638     0.0000   152.0000 </r>
      </set>
     </set>
    </array>
   </total>
  </dos>
 </calculation>
 <structure name="finalpos" >
  <crystal>
   <varray name="basis" >
    <v>       5.52288297       0.00000000       0.00000000 </v>
    <v>       0.00000000       3.90526800       0.00000000 </v>
    <v>       0.00000000       0.00000000      21.66504520 </v>
   </varray>
   <i name="volume">    467.27902047 </i>
   <varray name="rec_basis" >
    <v>       0.18106485       0.00000000       0.00000000 </v>
    <v>       0.00000000       0.25606437       0.00000000 </v>
    <v>       0.00000000       0.00000000       0.04615730 </v>
   </varray>
  </crystal>
  <varray name="positions" >
   <v>       0.50000000       0.00000000       0.27694380 </v>
   <v>       0.25000000       0.50000000       0.34067414 </v>
   <v>       0.75000000       0.50000000       0.34067414 </v>
   <v>       0.00000000       0.00000000       0.40440449 </v>
   <v>       0.75000000       0.50000000       0.46813483 </v>
   <v>       0.25000000       0.50000000       0.46813483 </v>
   <v>       0.50000000       0.00000000       0.53186517 </v>
   <v>       0.25000000       0.50000000       0.59559551 </v>
   <v>       0.75000000       0.50000000       0.59559551 </v>
   <v>       0.00000000       0.00000000       0.65932586 </v>
   <v>       0.75000000       0.50000000       0.72305620 </v>
   <v>       0.25000000       0.50000000       0.72305620 </v>
   <v>       0.00000000       0.00000000       0.27694380 </v>
   <v>       0.50000000       0.00000000       0.40440449 </v>
   <v>       0.00000000       0.00000000       0.53186517 </v>
   <v>       0.50000000       0.00000000       0.65932586 </v>
   <v>       0.50000000       0.50000000       0.27694380 </v>
   <v>       0.00000000       0.50000000       0.40440449 </v>
   <v>       0.50000000       0.50000000       0.53186517 </v>
   <v>       0.00000000       0.50000000       0.65932586 </v>
  </varray>
 </structure>
</modeling>
