unknown system                          
   1.00000000000000     
     2.573869    0.000000    0.000000
     1.286934    2.229036    0.000000
     0.000000    0.000000   30.304665
   Cu   H 
     4     1
Direct
  0.000000  0.000000  0.395979
  0.333333  0.333333  0.465326
  0.666667  0.666667  0.534674
  0.000000  0.000000  0.604021
  0.461148  0.000000  0.637020
 
   20   20  240
 -.78054E-02 -.68757E-02 -.48621E-02 -.22509E-02 0.21914E-03 0.17270E-02 0.16796E-02 0.63150E-04 -.23981E-02 -.44911E-02
 -.51364E-02 -.40201E-02 -.17876E-02 0.35363E-03 0.13305E-02 0.72135E-03 -.11818E-02 -.36677E-02 -.59655E-02 -.74673E-02
 -.70352E-02 -.55791E-02 -.32748E-02 -.75711E-03 0.11145E-02 0.15198E-02 0.86094E-04 -.27672E-02 -.58495E-02 -.77209E-02
 -.74774E-02 -.52886E-02 -.22942E-02 0.72171E-04 0.84906E-03 -.82637E-04 -.21494E-02 -.45057E-02 -.63967E-02 -.73182E-02
 -.52220E-02 -.35043E-02 -.13238E-02 0.47885E-03 0.84853E-03 -.10244E-02 -.51123E-02 -.10245E-01 -.14457E-01 -.15946E-01
 -.14079E-01 -.97602E-02 -.48980E-02 -.13402E-02 -.65111E-05 -.69459E-03 -.24996E-02 -.44130E-02 -.57065E-02 -.60074E-02
 -.28633E-02 -.12527E-02 0.22711E-03 0.40994E-03 -.19592E-02 -.74414E-02 -.15172E-01 -.22819E-01 -.27520E-01 -.27361E-01
 -.22459E-01 -.14886E-01 -.74936E-02 -.24536E-02 -.42992E-03 -.73340E-03 -.20973E-02 -.34244E-02 -.40989E-02 -.39044E-02
 -.59664E-03 0.47262E-03 0.50700E-03 -.20313E-02 -.83570E-02 -.18277E-01 -.29588E-01 -.38644E-01 -.42044E-01 -.38454E-01
 -.29355E-01 -.18203E-01 -.85728E-02 -.25337E-02 -.15913E-03 -.18799E-03 -.11075E-02 -.18860E-02 -.20835E-02 -.16124E-02
 0.95867E-03 0.10554E-02 -.11242E-02 -.72902E-02 -.18101E-01 -.32049E-01 -.45393E-01 -.53582E-01 -.53522E-01 -.45261E-01
 -.31959E-01 -.18159E-01 -.75344E-02 -.15107E-02 0.62109E-03 0.57615E-03 -.94278E-04 -.52843E-03 -.43877E-03 0.16227E-03
 0.13742E-02 0.21133E-03 -.46360E-02 -.14568E-01 -.29099E-01 -.45157E-01 -.57862E-01 -.62690E-01 -.57815E-01 -.45104E-01
 -.29099E-01 -.14659E-01 -.48183E-02 -.26933E-04 0.11330E-02 0.60057E-03 -.16524E-03 -.44607E-03 -.59259E-04 0.79309E-03
 0.59939E-03 -.17885E-02 -.90743E-02 -.21762E-01 -.37910E-01 -.53210E-01 -.62577E-01 -.62570E-01 -.53197E-01 -.37907E-01
 -.21787E-01 -.91401E-02 -.18940E-02 0.47008E-03 -.14345E-03 -.17018E-02 -.27902E-02 -.27568E-02 -.16105E-02 -.17871E-04
 -.92635E-03 -.41012E-02 -.12804E-01 -.26262E-01 -.41288E-01 -.53181E-01 -.57713E-01 -.53182E-01 -.41292E-01 -.26272E-01
 -.12826E-01 -.41385E-02 -.98360E-03 -.20795E-02 -.51511E-02 -.79840E-02 -.90825E-02 -.79376E-02 -.50781E-02 -.20059E-02
 -.23907E-02 -.56423E-02 -.14264E-01 -.26265E-01 -.37903E-01 -.45067E-01 -.45067E-01 -.37904E-01 -.26270E-01 -.14275E-01
 -.56584E-02 -.24168E-02 -.43640E-02 -.95618E-02 -.15241E-01 -.18830E-01 -.18810E-01 -.15191E-01 -.95066E-02 -.43219E-02
 -.29957E-02 -.56515E-02 -.12819E-01 -.21785E-01 -.29102E-01 -.31910E-01 -.29100E-01 -.21783E-01 -.12820E-01 -.56588E-02
 -.30140E-02 -.59010E-02 -.13287E-01 -.22435E-01 -.29870E-01 -.32710E-01 -.29842E-01 -.22392E-01 -.13244E-01 -.58688E-02
 -.24149E-02 -.41400E-02 -.91323E-02 -.14654E-01 -.18166E-01 -.18162E-01 -.14644E-01 -.91206E-02 -.41338E-02 -.24211E-02
 -.58990E-02 -.14740E-01 -.26931E-01 -.38712E-01 -.45949E-01 -.45939E-01 -.38686E-01 -.26897E-01 -.14708E-01 -.58781E-02
 -.99698E-03 -.18895E-02 -.47881E-02 -.75075E-02 -.85744E-02 -.74845E-02 -.47522E-02 -.18534E-02 -.96984E-03 -.43475E-02
 -.13251E-01 -.26897E-01 -.42080E-01 -.54076E-01 -.58637E-01 -.54059E-01 -.42057E-01 -.26881E-01 -.13249E-01 -.43611E-02
 0.44451E-03 0.71189E-06 -.14276E-02 -.24482E-02 -.24226E-02 -.13574E-02 0.99308E-04 0.55125E-03 -.20110E-02 -.94713E-02
 -.22330E-01 -.38635E-01 -.54056E-01 -.63485E-01 -.63470E-01 -.54024E-01 -.38616E-01 -.22348E-01 -.95332E-02 -.21049E-02
 0.10959E-02 0.69523E-03 0.18837E-04 -.23418E-03 0.11462E-03 0.87548E-03 0.13320E-02 0.28456E-04 -.49669E-02 -.15049E-01
 -.29726E-01 -.45909E-01 -.58697E-01 -.63551E-01 -.58640E-01 -.45844E-01 -.29720E-01 -.15144E-01 -.51575E-02 -.21437E-03
 0.53893E-03 -.38608E-04 -.42169E-03 -.33437E-03 0.21487E-03 0.92512E-03 0.91641E-03 -.13802E-02 -.76722E-02 -.18613E-01
 -.32682E-01 -.46119E-01 -.54357E-01 -.54292E-01 -.45974E-01 -.32579E-01 -.18668E-01 -.79257E-02 -.17827E-02 0.46917E-03
 -.11321E-02 -.18557E-02 -.20343E-02 -.15825E-02 -.61783E-03 0.37828E-03 0.32494E-03 -.23123E-02 -.87456E-02 -.18775E-01
 -.30180E-01 -.39299E-01 -.42717E-01 -.39094E-01 -.29927E-01 -.18685E-01 -.89602E-02 -.28256E-02 -.35604E-03 -.29282E-03
 -.34349E-02 -.40843E-02 -.38907E-02 -.28736E-02 -.13056E-02 0.11577E-03 0.22609E-03 -.22264E-02 -.77971E-02 -.15612E-01
 -.23324E-01 -.28058E-01 -.27892E-01 -.22945E-01 -.15303E-01 -.78346E-02 -.27201E-02 -.62434E-03 -.85732E-03 -.21567E-02
 -.57099E-02 -.60004E-02 -.52216E-02 -.35259E-02 -.13799E-02 0.37839E-03 0.69480E-03 -.12391E-02 -.53912E-02 -.10581E-01
 -.14831E-01 -.16329E-01 -.14440E-01 -.10077E-01 -.51601E-02 -.15472E-02 -.16224E-03 -.80314E-03 -.25651E-02 -.44420E-02
 -.73176E-02 -.70298E-02 -.55806E-02 -.32934E-02 -.79771E-03 0.10504E-02 0.14285E-02 -.38240E-04 -.29272E-02 -.60380E-02
 -.79216E-02 -.76721E-02 -.54640E-02 -.24433E-02 -.47833E-04 0.75821E-03 -.14738E-03 -.21931E-02 -.45323E-02 -.64083E-02
 0.33021E-03 0.22099E-03 0.76329E-04 -.78253E-04 -.20683E-03 -.27426E-03 -.26258E-03 -.18142E-03 -.65483E-04 0.39754E-04
 0.97827E-04 0.98549E-04 0.63893E-04 0.36502E-04 0.54557E-04 0.12828E-03 0.23466E-03 0.33346E-03 0.39032E-03 0.38929E-03
 0.27833E-03 0.17767E-03 0.63911E-04 -.61833E-04 -.18979E-03 -.30120E-03 -.37819E-03 -.41485E-03 -.41943E-03 -.40561E-03
 -.37966E-03 -.33364E-03 -.25091E-03 -.12110E-03 0.45749E-04 0.21717E-03 0.35182E-03 0.42026E-03 0.41821E-03 0.36318E-03
 0.22817E-03 0.16283E-03 0.78750E-04 -.47628E-04 -.22380E-03 -.43512E-03 -.65036E-03 -.83299E-03 -.95097E-03 -.98118E-03
 -.91047E-03 -.73818E-03 -.48202E-03 -.18259E-03 0.10189E-03 0.31411E-03 0.42128E-03 0.42872E-03 0.37286E-03 0.29736E-03
 0.19469E-03 0.16197E-03 0.74844E-04 -.10737E-03 -.39592E-03 -.76385E-03 -.11495E-02 -.14715E-02 -.16527E-02 -.16434E-02
 -.14364E-02 -.10700E-02 -.61934E-03 -.17850E-03 0.16515E-03 0.35979E-03 0.40728E-03 0.35777E-03 0.27989E-03 0.22313E-03
 0.18397E-03 0.14761E-03 0.23513E-05 -.29864E-03 -.75596E-03 -.13118E-02 -.18567E-02 -.22585E-02 -.24073E-02 -.22562E-02
 -.18385E-02 -.12557E-02 -.64330E-03 -.12897E-03 0.20480E-03 0.34251E-03 0.33289E-03 0.25968E-03 0.19836E-03 0.18062E-03
 0.18907E-03 0.93657E-04 -.16663E-03 -.63197E-03 -.12773E-02 -.19987E-02 -.26321E-02 -.30065E-02 -.30104E-02 -.26384E-02
 -.19920E-02 -.12386E-02 -.55007E-03 -.48193E-04 0.22444E-03 0.30243E-03 0.26871E-03 0.21164E-03 0.18625E-03 0.19456E-03
 0.19439E-03 -.92306E-05 -.41772E-03 -.10512E-02 -.18457E-02 -.26470E-02 -.32506E-02 -.34792E-02 -.32598E-02 -.26565E-02
 -.18421E-02 -.10232E-02 -.36357E-03 0.61153E-04 0.26411E-03 0.31504E-03 0.29762E-03 0.27464E-03 0.26934E-03 0.26155E-03
 0.18681E-03 -.14516E-03 -.69187E-03 -.14432E-02 -.22927E-02 -.30488E-02 -.35000E-02 -.35052E-02 -.30600E-02 -.23003E-02
 -.14390E-02 -.67328E-03 -.11582E-03 0.22018E-03 0.38699E-03 0.45309E-03 0.46977E-03 0.46221E-03 0.43200E-03 0.35671E-03
 0.16566E-03 -.27637E-03 -.90575E-03 -.16813E-02 -.24658E-02 -.30598E-02 -.32841E-02 -.30654E-02 -.24735E-02 -.16860E-02
 -.90341E-03 -.26619E-03 0.18095E-03 0.46693E-03 0.64279E-03 0.74178E-03 0.77267E-03 0.73521E-03 0.63043E-03 0.45107E-03
 0.14315E-03 -.35781E-03 -.98615E-03 -.16801E-02 -.22979E-02 -.26666E-02 -.26676E-02 -.23008E-02 -.16842E-02 -.98844E-03
 -.35480E-03 0.15196E-03 0.53510E-03 0.82245E-03 0.10269E-02 0.11373E-02 0.11363E-02 0.10229E-02 0.81404E-03 0.52414E-03
 0.13517E-03 -.35658E-03 -.90071E-03 -.14330E-02 -.18352E-02 -.19873E-02 -.18374E-02 -.14355E-02 -.90106E-03 -.35371E-03
 0.14057E-03 0.57135E-03 0.94695E-03 0.12582E-02 0.14710E-02 0.15468E-02 0.14689E-02 0.12541E-02 0.94132E-03 0.56507E-03
 0.15012E-03 -.26651E-03 -.66943E-03 -.10100E-02 -.12113E-02 -.12127E-02 -.10132E-02 -.67238E-03 -.26780E-03 0.15049E-03
 0.57014E-03 0.98902E-03 0.13829E-02 0.16986E-02 0.18754E-02 0.18740E-02 0.16952E-02 0.13792E-02 0.98627E-03 0.56854E-03
 0.18485E-03 -.11033E-03 -.35381E-03 -.52416E-03 -.58712E-03 -.52718E-03 -.36220E-03 -.12419E-03 0.17043E-03 0.52566E-03
 0.94037E-03 0.13807E-02 0.17786E-02 0.20563E-02 0.21551E-02 0.20532E-02 0.17728E-02 0.13751E-02 0.94015E-03 0.53402E-03
 0.22946E-03 0.71154E-04 -.32431E-04 -.88989E-04 -.94675E-04 -.50486E-04 0.40932E-04 0.19348E-03 0.43911E-03 0.79805E-03
 0.12435E-02 0.16978E-02 0.20638E-02 0.22643E-02 0.22603E-02 0.20535E-02 0.16872E-02 0.12419E-02 0.81258E-03 0.46912E-03
 0.27497E-03 0.23578E-03 0.22460E-03 0.21315E-03 0.19488E-03 0.18139E-03 0.20664E-03 0.32466E-03 0.58249E-03 0.97962E-03
 0.14497E-02 0.18850E-02 0.21838E-02 0.22841E-02 0.21703E-02 0.18690E-02 0.14471E-02 0.10024E-02 0.63206E-03 0.39149E-03
 0.31671E-03 0.35319E-03 0.37387E-03 0.34683E-03 0.27622E-03 0.20325E-03 0.19759E-03 0.32978E-03 0.62998E-03 0.10599E-02
 0.15221E-02 0.19014E-02 0.21084E-02 0.21013E-02 0.18877E-02 0.15212E-02 0.10923E-02 0.70605E-03 0.44239E-03 0.32450E-03
 0.35209E-03 0.40969E-03 0.40669E-03 0.32642E-03 0.19828E-03 0.92103E-04 0.93229E-04 0.26161E-03 0.59566E-03 0.10256E-02
 0.14413E-02 0.17361E-02 0.18399E-02 0.17341E-02 0.14523E-02 0.10734E-02 0.70026E-03 0.42479E-03 0.29264E-03 0.28864E-03
 0.37676E-03 0.40693E-03 0.34710E-03 0.20696E-03 0.42205E-04 -.64009E-04 -.35457E-04 0.16070E-03 0.49470E-03 0.88318E-03
 0.12205E-02 0.14160E-02 0.14221E-02 0.12474E-02 0.95213E-03 0.62880E-03 0.36928E-03 0.23160E-03 0.22079E-03 0.29263E-03
 0.38407E-03 0.35880E-03 0.24088E-03 0.62678E-04 -.10766E-03 -.19302E-03 -.14059E-03 0.55106E-04 0.34904E-03 0.66058E-03
 0.89990E-03 0.99849E-03 0.93490E-03 0.74401E-03 0.50228E-03 0.29433E-03 0.17843E-03 0.16841E-03 0.23631E-03 0.32817E-03
 0.36843E-03 0.28811E-03 0.13840E-03 -.42158E-04 -.19383E-03 -.25896E-03 -.20725E-03 -.48680E-04 0.17024E-03 0.38207E-03
 0.52073E-03 0.54634E-03 0.46392E-03 0.32324E-03 0.19426E-03 0.13123E-03 0.14871E-03 0.22301E-03 0.31134E-03 0.37075E-03
 0.81959E-02 0.72653E-02 0.52530E-02 0.26465E-02 0.18143E-03 -.13266E-02 -.12874E-02 0.31511E-03 0.27617E-02 0.48434E-02
 0.54830E-02 0.43689E-02 0.21469E-02 0.22172E-04 -.93890E-03 -.32117E-03 0.15821E-02 0.40638E-02 0.63583E-02 0.78588E-02
 0.74246E-02 0.59660E-02 0.36679E-02 0.11593E-02 -.71044E-03 -.11245E-02 0.29519E-03 0.31365E-02 0.62105E-02 0.80756E-02
 0.78296E-02 0.56467E-02 0.26670E-02 0.31673E-03 -.45144E-03 0.48075E-03 0.25463E-02 0.49042E-02 0.67968E-02 0.77147E-02
 0.56140E-02 0.38964E-02 0.17212E-02 -.77362E-04 -.45079E-03 0.14111E-02 0.54872E-02 0.10612E-01 0.14819E-01 0.16307E-01
 0.14441E-01 0.10130E-01 0.52797E-02 0.17317E-02 0.40113E-03 0.10882E-02 0.28936E-02 0.48101E-02 0.61055E-02 0.64035E-02
 0.32617E-02 0.16539E-02 0.17228E-03 -.16080E-04 0.23465E-02 0.78228E-02 0.15548E-01 0.23188E-01 0.27885E-01 0.27726E-01
 0.22828E-01 0.15261E-01 0.78749E-02 0.28402E-02 0.82137E-03 0.11283E-02 0.24927E-02 0.38180E-02 0.44912E-02 0.42985E-02
 0.10013E-02 -.68373E-04 -.11250E-03 0.24155E-02 0.87369E-02 0.18656E-01 0.29961E-01 0.39009E-01 0.42405E-01 0.38818E-01
 0.29726E-01 0.18578E-01 0.89506E-02 0.29181E-02 0.55394E-03 0.58942E-03 0.15060E-02 0.22767E-02 0.24722E-02 0.20084E-02
 -.55472E-03 -.65896E-03 0.15077E-02 0.76664E-02 0.18476E-01 0.32420E-01 0.45753E-01 0.53932E-01 0.53872E-01 0.45621E-01
 0.32329E-01 0.18533E-01 0.79112E-02 0.18969E-02 -.22221E-03 -.17247E-03 0.49110E-03 0.91672E-03 0.82845E-03 0.23694E-03
 -.98075E-03 0.17061E-03 0.50079E-02 0.14938E-01 0.29468E-01 0.45516E-01 0.58204E-01 0.63022E-01 0.58154E-01 0.45462E-01
 0.29469E-01 0.15031E-01 0.51930E-02 0.41013E-03 -.73988E-03 -.20606E-03 0.55266E-03 0.82900E-03 0.44717E-03 -.39778E-03
 -.22284E-03 0.21567E-02 0.94388E-02 0.22127E-01 0.38272E-01 0.53559E-01 0.62910E-01 0.62900E-01 0.53538E-01 0.38265E-01
 0.22155E-01 0.95075E-02 0.22607E-02 -.98389E-04 0.52137E-03 0.20803E-02 0.31649E-02 0.31307E-02 0.19888E-02 0.39897E-03
 0.12863E-02 0.44599E-02 0.13166E-01 0.26626E-01 0.41648E-01 0.53532E-01 0.58055E-01 0.53527E-01 0.41646E-01 0.26634E-01
 0.13187E-01 0.44955E-02 0.13401E-02 0.24403E-02 0.55165E-02 0.83505E-02 0.94482E-02 0.83033E-02 0.54442E-02 0.23698E-02
 0.27395E-02 0.59945E-02 0.14626E-01 0.26632E-01 0.38269E-01 0.45428E-01 0.45426E-01 0.38267E-01 0.26635E-01 0.14635E-01
 0.60107E-02 0.27663E-02 0.47183E-02 0.99227E-02 0.15605E-01 0.19193E-01 0.19173E-01 0.15554E-01 0.98671E-02 0.46756E-02
 0.33408E-02 0.60011E-02 0.13181E-01 0.22156E-01 0.29475E-01 0.32280E-01 0.29470E-01 0.22153E-01 0.13186E-01 0.60143E-02
 0.33625E-02 0.62531E-02 0.13649E-01 0.22803E-01 0.30235E-01 0.33072E-01 0.30206E-01 0.22758E-01 0.13607E-01 0.62212E-02
 0.27641E-02 0.44948E-02 0.94983E-02 0.15028E-01 0.18541E-01 0.18536E-01 0.15016E-01 0.94883E-02 0.44925E-02 0.27723E-02
 0.62517E-02 0.15102E-01 0.27300E-01 0.39077E-01 0.46307E-01 0.46296E-01 0.39049E-01 0.27266E-01 0.15073E-01 0.62325E-02
 0.13574E-02 0.22586E-02 0.51620E-02 0.78811E-02 0.89481E-02 0.78608E-02 0.51275E-02 0.22195E-02 0.13244E-02 0.46994E-02
 0.13611E-01 0.27264E-01 0.42442E-01 0.54425E-01 0.58979E-01 0.54408E-01 0.42419E-01 0.27247E-01 0.13611E-01 0.47178E-02
 -.68304E-04 0.38525E-03 0.18113E-02 0.28254E-02 0.28008E-02 0.17426E-02 0.28575E-03 -.17887E-03 0.23695E-02 0.98284E-02
 0.22694E-01 0.38999E-01 0.54405E-01 0.63816E-01 0.63800E-01 0.54370E-01 0.38976E-01 0.22711E-01 0.98919E-02 0.24678E-02
 -.70492E-03 -.29838E-03 0.37252E-03 0.62029E-03 0.27575E-03 -.47759E-03 -.93683E-03 0.35176E-03 0.53328E-02 0.15412E-01
 0.30091E-01 0.46268E-01 0.59041E-01 0.63883E-01 0.58976E-01 0.46195E-01 0.30082E-01 0.15507E-01 0.55228E-02 0.59061E-03
 -.13942E-03 0.43748E-03 0.81650E-03 0.73003E-03 0.18710E-03 -.52024E-03 -.51950E-03 0.17618E-02 0.80417E-02 0.18979E-01
 0.33047E-01 0.46480E-01 0.54710E-01 0.54641E-01 0.46327E-01 0.32939E-01 0.19034E-01 0.82967E-02 0.21627E-02 -.77382E-04
 0.15327E-02 0.22529E-02 0.24297E-02 0.19811E-02 0.10209E-02 0.23386E-04 0.66888E-04 0.26907E-02 0.91143E-02 0.19140E-01
 0.30546E-01 0.39666E-01 0.43083E-01 0.39460E-01 0.30293E-01 0.19053E-01 0.93318E-02 0.32058E-02 0.74722E-03 0.69207E-03
 0.38325E-02 0.44815E-02 0.42856E-02 0.32672E-02 0.17002E-02 0.27907E-03 0.16342E-03 0.26049E-02 0.81647E-02 0.15975E-01
 0.23690E-01 0.28427E-01 0.28262E-01 0.23314E-01 0.15672E-01 0.82081E-02 0.31003E-02 0.10106E-02 0.12484E-02 0.25518E-02
 0.61045E-02 0.63985E-02 0.56153E-02 0.39134E-02 0.17679E-02 0.15193E-04 -.30092E-03 0.16223E-02 0.57592E-02 0.10940E-01
 0.15190E-01 0.16690E-01 0.14801E-01 0.10439E-01 0.55304E-02 0.19301E-02 0.55279E-03 0.11923E-02 0.29504E-02 0.48293E-02
 0.77100E-02 0.74253E-02 0.59724E-02 0.36816E-02 0.11892E-02 -.65224E-03 -.10311E-02 0.42307E-03 0.32943E-02 0.63926E-02
 0.82719E-02 0.80226E-02 0.58179E-02 0.28064E-02 0.42682E-03 -.36422E-03 0.54589E-03 0.25852E-02 0.49173E-02 0.67942E-02
 -.55278E-04 0.59145E-04 0.23015E-03 0.40909E-03 0.54541E-03 0.61099E-03 0.60809E-03 0.55881E-03 0.48959E-03 0.42281E-03
 0.37447E-03 0.35111E-03 0.34535E-03 0.33735E-03 0.30542E-03 0.23891E-03 0.14351E-03 0.38288E-04 -.49557E-04 -.89336E-04
 0.68315E-05 0.11994E-03 0.26022E-03 0.40344E-03 0.53348E-03 0.65003E-03 0.75905E-03 0.85729E-03 0.92825E-03 0.95268E-03
 0.92018E-03 0.83097E-03 0.69188E-03 0.51618E-03 0.32691E-03 0.15415E-03 0.23287E-04 -.55106E-04 -.82637E-04 -.62116E-04
 0.90281E-04 0.16739E-03 0.26320E-03 0.39511E-03 0.58620E-03 0.84875E-03 0.11624E-02 0.14674E-02 0.16844E-02 0.17485E-02
 0.16351E-02 0.13663E-02 0.10002E-02 0.61440E-03 0.28392E-03 0.58948E-04 -.50019E-04 -.67934E-04 -.33516E-04 0.23399E-04
 0.15766E-03 0.19398E-03 0.27865E-03 0.47496E-03 0.83154E-03 0.13419E-02 0.19231E-02 0.24342E-02 0.27291E-02 0.27155E-02
 0.23897E-02 0.18377E-02 0.12020E-02 0.63061E-03 0.22601E-03 0.16983E-04 -.33886E-04 0.44480E-05 0.68938E-04 0.12263E-03
 0.18457E-03 0.21726E-03 0.36920E-03 0.73514E-03 0.13565E-02 0.21693E-02 0.30008E-02 0.36267E-02 0.38587E-02 0.36203E-02
 0.29767E-02 0.21102E-02 0.12490E-02 0.58014E-03 0.18606E-03 0.38522E-04 0.44279E-04 0.10618E-03 0.16042E-03 0.18265E-03
 0.17786E-03 0.27463E-03 0.58516E-03 0.12054E-02 0.21296E-02 0.32063E-02 0.41712E-02 0.47455E-02 0.47495E-02 0.41774E-02
 0.31994E-02 0.20927E-02 0.11301E-02 0.47860E-03 0.15805E-03 0.76555E-04 0.10852E-03 0.15860E-03 0.18170E-03 0.17543E-03
 0.16847E-03 0.39525E-03 0.92168E-03 0.18102E-02 0.29776E-02 0.41810E-02 0.50937E-02 0.54375E-02 0.51012E-02 0.41889E-02
 0.29746E-02 0.17864E-02 0.87487E-03 0.33387E-03 0.10750E-03 0.66298E-04 0.91205E-04 0.11437E-03 0.11579E-03 0.11299E-03
 0.18458E-03 0.57027E-03 0.13019E-02 0.23820E-02 0.36442E-02 0.47805E-02 0.54571E-02 0.54587E-02 0.47843E-02 0.36470E-02
 0.23782E-02 0.12867E-02 0.54398E-03 0.15340E-03 0.69957E-05 -.22107E-04 -.17330E-04 -.11367E-04 -.43751E-05 0.34466E-04
 0.22823E-03 0.74781E-03 0.16038E-02 0.27310E-02 0.39012E-02 0.47922E-02 0.51250E-02 0.47913E-02 0.39023E-02 0.27340E-02
 0.16028E-02 0.73699E-03 0.20979E-03 -.40791E-04 -.13210E-03 -.15902E-03 -.16483E-03 -.15661E-03 -.12286E-03 -.23616E-04
 0.27453E-03 0.85906E-03 0.17178E-02 0.27306E-02 0.36512E-02 0.42011E-02 0.41994E-02 0.36500E-02 0.27350E-02 0.17250E-02
 0.85967E-03 0.26418E-03 -.64291E-04 -.20833E-03 -.26078E-03 -.27905E-03 -.28068E-03 -.26106E-03 -.20034E-03 -.49939E-04
 0.29223E-03 0.85653E-03 0.15983E-02 0.23738E-02 0.29693E-02 0.31929E-02 0.29691E-02 0.23763E-02 0.16042E-02 0.86137E-03
 0.29093E-03 -.64054E-04 -.24077E-03 -.30907E-03 -.32920E-03 -.33357E-03 -.32950E-03 -.30624E-03 -.23367E-03 -.57036E-04
 0.26716E-03 0.73771E-03 0.12819E-02 0.17720E-02 0.20654E-02 0.20670E-02 0.17758E-02 0.12858E-02 0.74018E-03 0.26752E-03
 -.62167E-04 -.24451E-03 -.31785E-03 -.33238E-03 -.32837E-03 -.32719E-03 -.32941E-03 -.31434E-03 -.24163E-03 -.60654E-04
 0.21016E-03 0.54188E-03 0.86579E-03 0.11030E-02 0.11912E-02 0.11069E-02 0.87311E-03 0.55098E-03 0.21804E-03 -.57277E-04
 -.23604E-03 -.31652E-03 -.32717E-03 -.30937E-03 -.29780E-03 -.30612E-03 -.32195E-03 -.31184E-03 -.23480E-03 -.61054E-04
 0.14607E-03 0.32738E-03 0.46381E-03 0.53605E-03 0.53982E-03 0.47717E-03 0.35217E-03 0.17712E-03 -.18380E-04 -.19013E-03
 -.29875E-03 -.33291E-03 -.31650E-03 -.29153E-03 -.28910E-03 -.30956E-03 -.32451E-03 -.29639E-03 -.20164E-03 -.44192E-04
 0.94801E-04 0.14538E-03 0.16258E-03 0.17183E-03 0.18678E-03 0.19340E-03 0.15934E-03 0.63426E-04 -.79103E-04 -.22013E-03
 -.31094E-03 -.33663E-03 -.32293E-03 -.31001E-03 -.31726E-03 -.32898E-03 -.31072E-03 -.23981E-03 -.12490E-03 -.82030E-06
 0.59281E-04 0.23095E-04 -.21811E-05 0.23033E-04 0.95250E-04 0.16581E-03 0.17383E-03 0.91087E-04 -.56134E-04 -.20628E-03
 -.30683E-03 -.34662E-03 -.35112E-03 -.34921E-03 -.34400E-03 -.31345E-03 -.23718E-03 -.12332E-03 -.10723E-04 0.56045E-04
 0.28237E-04 -.38329E-04 -.43421E-04 0.37463E-04 0.16891E-03 0.27369E-03 0.28197E-03 0.17683E-03 0.22372E-05 -.17127E-03
 -.29306E-03 -.35389E-03 -.37091E-03 -.35745E-03 -.30919E-03 -.21718E-03 -.91459E-04 0.30380E-04 0.10072E-03 0.93787E-04
 -.93782E-05 -.53242E-04 -.14721E-05 0.14012E-03 0.30913E-03 0.41849E-03 0.40712E-03 0.27479E-03 0.76500E-04 -.11646E-03
 -.25571E-03 -.32708E-03 -.33508E-03 -.28505E-03 -.18268E-03 -.46986E-04 0.82928E-04 0.16036E-03 0.15683E-03 0.83249E-04
 -.49864E-04 -.36779E-04 0.79781E-04 0.26475E-03 0.44333E-03 0.53707E-03 0.50445E-03 0.35999E-03 0.16021E-03 -.30030E-04
 -.16492E-03 -.22409E-03 -.20528E-03 -.11931E-03 0.74389E-05 0.13242E-03 0.20857E-03 0.20602E-03 0.13022E-03 0.23900E-04
 -.72756E-04 0.27164E-05 0.16537E-03 0.36366E-03 0.52680E-03 0.59788E-03 0.55915E-03 0.43482E-03 0.27340E-03 0.12489E-03
 0.25938E-04 -.53699E-05 0.29140E-04 0.10746E-03 0.19177E-03 0.24087E-03 0.22734E-03 0.15099E-03 0.41707E-04 -.50055E-04
 -.78376E-02 -.69003E-02 -.48705E-02 -.22513E-02 0.21345E-03 0.17145E-02 0.16703E-02 0.63601E-04 -.23931E-02 -.44900E-02
 -.51395E-02 -.40209E-02 -.17843E-02 0.35379E-03 0.13216E-02 0.70865E-03 -.11883E-02 -.36677E-02 -.59717E-02 -.74897E-02
 -.70590E-02 -.55933E-02 -.32808E-02 -.76469E-03 0.11013E-02 0.15077E-02 0.82663E-04 -.27648E-02 -.58506E-02 -.77282E-02
 -.74835E-02 -.52873E-02 -.22903E-02 0.68073E-04 0.83467E-03 -.98050E-04 -.21574E-02 -.45103E-02 -.64090E-02 -.73411E-02
 -.52298E-02 -.35096E-02 -.13334E-02 0.46086E-03 0.82817E-03 -.10365E-02 -.51138E-02 -.10244E-01 -.14464E-01 -.15960E-01
 -.14089E-01 -.97639E-02 -.49012E-02 -.13512E-02 -.24375E-04 -.71078E-03 -.25089E-02 -.44189E-02 -.57149E-02 -.60177E-02
 -.28630E-02 -.12588E-02 0.21032E-03 0.38558E-03 -.19813E-02 -.74538E-02 -.15177E-01 -.22824E-01 -.27529E-01 -.27373E-01
 -.22469E-01 -.14895E-01 -.75064E-02 -.24717E-02 -.44890E-03 -.74722E-03 -.21041E-02 -.34268E-02 -.40993E-02 -.39033E-02
 -.60093E-03 0.46136E-03 0.48873E-03 -.20519E-02 -.83741E-02 -.18289E-01 -.29596E-01 -.38652E-01 -.42052E-01 -.38460E-01
 -.29361E-01 -.18213E-01 -.85898E-02 -.25544E-02 -.17693E-03 -.19837E-03 -.11111E-02 -.18862E-02 -.20830E-02 -.16129E-02
 0.94749E-03 0.10444E-02 -.11343E-02 -.72996E-02 -.18110E-01 -.32058E-01 -.45401E-01 -.53589E-01 -.53526E-01 -.45263E-01
 -.31961E-01 -.18166E-01 -.75465E-02 -.15259E-02 0.60751E-03 0.56754E-03 -.98672E-04 -.53227E-03 -.44524E-03 0.15264E-03
 0.13644E-02 0.20665E-03 -.46366E-02 -.14568E-01 -.29103E-01 -.45163E-01 -.57867E-01 -.62693E-01 -.57817E-01 -.45108E-01
 -.29103E-01 -.14662E-01 -.48209E-02 -.30721E-04 0.11266E-02 0.59225E-03 -.17394E-03 -.45527E-03 -.70131E-04 0.78114E-03
 0.59743E-03 -.17895E-02 -.90747E-02 -.21763E-01 -.37913E-01 -.53214E-01 -.62579E-01 -.62571E-01 -.53199E-01 -.37913E-01
 -.21794E-01 -.91433E-02 -.18907E-02 0.47557E-03 -.14277E-03 -.17088E-02 -.28013E-02 -.27666E-02 -.16165E-02 -.21099E-04
 -.92389E-03 -.41060E-02 -.12814E-01 -.26270E-01 -.41293E-01 -.53184E-01 -.57716E-01 -.53186E-01 -.41297E-01 -.26279E-01
 -.12833E-01 -.41430E-02 -.98235E-03 -.20741E-02 -.51477E-02 -.79875E-02 -.90910E-02 -.79435E-02 -.50768E-02 -.20002E-02
 -.23908E-02 -.56520E-02 -.14281E-01 -.26278E-01 -.37909E-01 -.45070E-01 -.45073E-01 -.37913E-01 -.26279E-01 -.14280E-01
 -.56628E-02 -.24228E-02 -.43703E-02 -.95647E-02 -.15241E-01 -.18831E-01 -.18814E-01 -.15196E-01 -.95067E-02 -.43182E-02
 -.29991E-02 -.56585E-02 -.12831E-01 -.21797E-01 -.29110E-01 -.31915E-01 -.29106E-01 -.21792E-01 -.12829E-01 -.56639E-02
 -.30179E-02 -.59092E-02 -.13300E-01 -.22446E-01 -.29875E-01 -.32712E-01 -.29847E-01 -.22402E-01 -.13254E-01 -.58745E-02
 -.24169E-02 -.41388E-02 -.91354E-02 -.14663E-01 -.18176E-01 -.18169E-01 -.14648E-01 -.91241E-02 -.41384E-02 -.24270E-02
 -.59068E-02 -.14751E-01 -.26945E-01 -.38725E-01 -.45957E-01 -.45945E-01 -.38695E-01 -.26912E-01 -.14725E-01 -.58886E-02
 -.99618E-03 -.18852E-02 -.47880E-02 -.75164E-02 -.85888E-02 -.74958E-02 -.47548E-02 -.18500E-02 -.96794E-03 -.43524E-02
 -.13262E-01 -.26909E-01 -.42091E-01 -.54084E-01 -.58645E-01 -.54067E-01 -.42067E-01 -.26893E-01 -.13261E-01 -.43677E-02
 0.44280E-03 -.15937E-05 -.14335E-02 -.24606E-02 -.24397E-02 -.13720E-02 0.93998E-04 0.55487E-03 -.20060E-02 -.94726E-02
 -.22338E-01 -.38645E-01 -.54063E-01 -.63489E-01 -.63474E-01 -.54030E-01 -.38622E-01 -.22352E-01 -.95360E-02 -.21071E-02
 0.10880E-02 0.68441E-03 0.61864E-05 -.24843E-03 0.99168E-04 0.86099E-03 0.13220E-02 0.25023E-04 -.49656E-02 -.15048E-01
 -.29728E-01 -.45915E-01 -.58704E-01 -.63557E-01 -.58644E-01 -.45847E-01 -.29721E-01 -.15144E-01 -.51590E-02 -.21875E-03
 0.52927E-03 -.49788E-04 -.43383E-03 -.34567E-03 0.20458E-03 0.91379E-03 0.90321E-03 -.13921E-02 -.76785E-02 -.18614E-01
 -.32682E-01 -.46124E-01 -.54367E-01 -.54301E-01 -.45978E-01 -.32580E-01 -.18671E-01 -.79320E-02 -.17916E-02 0.45998E-03
 -.11363E-02 -.18609E-02 -.20411E-02 -.15882E-02 -.62266E-03 0.37000E-03 0.31069E-03 -.23283E-02 -.87564E-02 -.18779E-01
 -.30184E-01 -.39309E-01 -.42730E-01 -.39104E-01 -.29931E-01 -.18689E-01 -.89699E-02 -.28406E-02 -.36956E-03 -.30046E-03
 -.34353E-02 -.40885E-02 -.38953E-02 -.28750E-02 -.13070E-02 0.10774E-03 0.21116E-03 -.22407E-02 -.78049E-02 -.15616E-01
 -.23334E-01 -.28074E-01 -.27907E-01 -.22952E-01 -.15306E-01 -.78419E-02 -.27354E-02 -.64027E-03 -.86534E-03 -.21573E-02
 -.57183E-02 -.60140E-02 -.52293E-02 -.35250E-02 -.13801E-02 0.36825E-03 0.67908E-03 -.12486E-02 -.53911E-02 -.10581E-01
 -.14841E-01 -.16345E-01 -.14451E-01 -.10079E-01 -.51613E-02 -.15567E-02 -.17638E-03 -.81112E-03 -.25641E-02 -.44413E-02
 -.73416E-02 -.70543E-02 -.55910E-02 -.32918E-02 -.79901E-03 0.10383E-02 0.14142E-02 -.42260E-04 -.29213E-02 -.60343E-02
 -.79274E-02 -.76813E-02 -.54676E-02 -.24424E-02 -.51374E-04 0.74760E-03 -.15639E-03 -.21933E-02 -.45304E-02 -.64181E-02
 0.49895E-03 0.39210E-03 0.22779E-03 0.48495E-04 -.95142E-04 -.17146E-03 -.18801E-03 -.18112E-03 -.18006E-03 -.18145E-03
 -.16060E-03 -.10494E-03 -.29957E-04 0.39760E-04 0.99613E-04 0.16872E-03 0.26483E-03 0.37967E-03 0.47984E-03 0.52746E-03
 0.44017E-03 0.32862E-03 0.19004E-03 0.44703E-04 -.93977E-04 -.23104E-03 -.38456E-03 -.55879E-03 -.72005E-03 -.80611E-03
 -.76829E-03 -.60917E-03 -.37991E-03 -.14207E-03 0.67740E-04 0.24155E-03 0.38000E-03 0.47684E-03 0.52132E-03 0.50794E-03
 0.35868E-03 0.27602E-03 0.17188E-03 0.27026E-04 -.19081E-03 -.51107E-03 -.92705E-03 -.13674E-02 -.17061E-02 -.18190E-02
 -.16535E-02 -.12597E-02 -.76023E-03 -.28406E-03 0.85903E-04 0.32531E-03 0.44960E-03 0.48920E-03 0.47382E-03 0.42591E-03
 0.28531E-03 0.24003E-03 0.13500E-03 -.10015E-03 -.53313E-03 -.11790E-02 -.19521E-02 -.26637E-02 -.30897E-02 -.30766E-02
 -.26210E-02 -.18700E-02 -.10451E-02 -.34325E-03 0.13024E-03 0.37032E-03 0.43819E-03 0.41438E-03 0.36338E-03 0.31905E-03
 0.24559E-03 0.20385E-03 0.13410E-04 -.44152E-03 -.12279E-02 -.22888E-02 -.34099E-02 -.42749E-02 -.45979E-02 -.42631E-02
 -.33812E-02 -.22319E-02 -.11305E-02 -.30158E-03 0.17876E-03 0.36284E-03 0.36682E-03 0.30568E-03 0.25510E-03 0.24155E-03
 0.23949E-03 0.12797E-03 -.25621E-03 -.10436E-02 -.22464E-02 -.36845E-02 -.50022E-02 -.57954E-02 -.57949E-02 -.49979E-02
 -.36691E-02 -.22099E-02 -.97925E-03 -.16639E-03 0.22965E-03 0.33255E-03 0.29525E-03 0.23504E-03 0.21199E-03 0.23059E-03
 0.23512E-03 -.27020E-04 -.68297E-03 -.18295E-02 -.33760E-02 -.50055E-02 -.62609E-02 -.67359E-02 -.62665E-02 -.50115E-02
 -.33733E-02 -.18089E-02 -.64175E-03 0.28383E-04 0.29148E-03 0.32084E-03 0.27253E-03 0.23891E-03 0.24896E-03 0.27676E-03
 0.19206E-03 -.26110E-03 -.11830E-02 -.25905E-02 -.42752E-02 -.58200E-02 -.67515E-02 -.67551E-02 -.58300E-02 -.42867E-02
 -.25943E-02 -.11704E-02 -.23292E-03 0.22472E-03 0.35256E-03 0.33037E-03 0.28848E-03 0.28559E-03 0.31864E-03 0.32818E-03
 0.10157E-03 -.51112E-03 -.15946E-02 -.30653E-02 -.46234E-02 -.58295E-02 -.62871E-02 -.58356E-02 -.46323E-02 -.30716E-02
 -.15937E-02 -.50222E-03 0.11489E-03 0.34625E-03 0.35741E-03 0.30071E-03 0.27076E-03 0.29742E-03 0.34954E-03 0.33392E-03
 0.47470E-05 -.67413E-03 -.17553E-02 -.30691E-02 -.42834E-02 -.50196E-02 -.50224E-02 -.42886E-02 -.30707E-02 -.17518E-02
 -.66933E-03 0.73727E-05 0.29220E-03 0.31337E-03 0.22482E-03 0.14706E-03 0.14441E-03 0.21943E-03 0.30956E-03 0.29053E-03
 -.36028E-04 -.67043E-03 -.15932E-02 -.25926E-02 -.33708E-02 -.36650E-02 -.33705E-02 -.25922E-02 -.15925E-02 -.66897E-03
 -.33494E-04 0.24747E-03 0.23905E-03 0.79151E-04 -.86955E-04 -.15502E-03 -.87848E-04 0.77150E-04 0.23606E-03 0.24425E-03
 0.10100E-04 -.49744E-03 -.11678E-02 -.18033E-02 -.21888E-02 -.21865E-02 -.18001E-02 -.11699E-02 -.50424E-03 0.56884E-05
 0.24670E-03 0.20691E-03 -.30918E-04 -.32172E-03 -.51394E-03 -.51300E-03 -.32168E-03 -.35610E-04 0.19960E-03 0.24368E-03
 0.11661E-03 -.22868E-03 -.63099E-03 -.95198E-03 -.10753E-02 -.95568E-03 -.63902E-03 -.23991E-03 0.10618E-03 0.28569E-03
 0.23610E-03 -.30547E-04 -.41475E-03 -.75285E-03 -.88817E-03 -.75580E-03 -.42008E-03 -.35873E-04 0.23470E-03 0.29085E-03
 0.22591E-03 0.39342E-04 -.14071E-03 -.25332E-03 -.26196E-03 -.16266E-03 0.12841E-04 0.20254E-03 0.32494E-03 0.29776E-03
 0.73220E-04 -.31710E-03 -.74403E-03 -.10264E-02 -.10300E-02 -.75181E-03 -.32305E-03 0.73829E-04 0.30646E-03 0.34151E-03
 0.29956E-03 0.24433E-03 0.20779E-03 0.18784E-03 0.18204E-03 0.19804E-03 0.24339E-03 0.30072E-03 0.31085E-03 0.19255E-03
 -.96760E-04 -.50025E-03 -.86217E-03 -.10107E-02 -.86947E-03 -.50957E-03 -.98863E-04 0.20717E-03 0.34646E-03 0.35267E-03
 0.34225E-03 0.37543E-03 0.39681E-03 0.37709E-03 0.31675E-03 0.25074E-03 0.22004E-03 0.22626E-03 0.20995E-03 0.86855E-04
 -.17303E-03 -.49153E-03 -.71466E-03 -.71787E-03 -.49786E-03 -.17183E-03 0.11176E-03 0.27089E-03 0.32008E-03 0.32604E-03
 0.38203E-03 0.45014E-03 0.45776E-03 0.38465E-03 0.25911E-03 0.14446E-03 0.95078E-04 0.10848E-03 0.11751E-03 0.43912E-04
 -.12439E-03 -.30576E-03 -.38286E-03 -.29897E-03 -.10394E-03 0.91696E-04 0.20727E-03 0.24353E-03 0.25856E-03 0.30401E-03
 0.43442E-03 0.48448E-03 0.43555E-03 0.29566E-03 0.12306E-03 -.30742E-05 -.32651E-04 0.17275E-04 0.74075E-04 0.71484E-04
 0.96062E-05 -.46615E-04 -.32188E-04 0.54160E-04 0.15144E-03 0.19882E-03 0.19298E-03 0.18530E-03 0.22840E-03 0.32722E-03
 0.48743E-03 0.48339E-03 0.36984E-03 0.18152E-03 -.70879E-05 -.11742E-03 -.11395E-03 -.28176E-04 0.67712E-04 0.12035E-03
 0.13312E-03 0.14600E-03 0.18193E-03 0.21982E-03 0.22270E-03 0.18661E-03 0.15417E-03 0.17801E-03 0.27245E-03 0.39820E-03
 0.51503E-03 0.44939E-03 0.29233E-03 0.91172E-04 -.82341E-04 -.16616E-03 -.14542E-03 -.60520E-04 0.27442E-04 0.84292E-04
 0.11784E-03 0.14964E-03 0.18047E-03 0.19075E-03 0.17266E-03 0.15230E-03 0.17284E-03 0.25517E-03 0.37602E-03 0.48084E-03
 0.81683E-02 0.72445E-02 0.52425E-02 0.26408E-02 0.17457E-03 -.13343E-02 -.12916E-02 0.31556E-03 0.27627E-02 0.48419E-02
 0.54816E-02 0.43716E-02 0.21523E-02 0.23853E-04 -.94475E-03 -.33112E-03 0.15733E-02 0.40553E-02 0.63434E-02 0.78344E-02
 0.74025E-02 0.59533E-02 0.36612E-02 0.11520E-02 -.71897E-03 -.11294E-02 0.29626E-03 0.31390E-02 0.62095E-02 0.80728E-02
 0.78313E-02 0.56544E-02 0.26739E-02 0.31536E-03 -.46034E-03 0.47107E-03 0.25387E-02 0.48935E-02 0.67772E-02 0.76890E-02