unknown system                          
   1.00000000000000     
     2.573869    0.000000    0.000000
     1.286934    2.229036    0.000000
     0.000000    0.000000   30.304665
   Cu   H 
     4     1
Direct
  0.000000  0.000000  0.395979
  0.333333  0.333333  0.465326
  0.666667  0.666667  0.534674
  0.000000  0.000000  0.604021
  0.461148  0.000000  0.637020
 
   20   20  240
 -.78054127493E-02 -.68756739228E-02 -.48621317620E-02 -.22508911742E-02 0.21914415970E-03
 0.17269693948E-02 0.16796364557E-02 0.63149740882E-04 -.23981371268E-02 -.44910891094E-02
 -.51363538728E-02 -.40201474431E-02 -.17876134516E-02 0.35362857038E-03 0.13305111006E-02
 0.72135035339E-03 -.11817973918E-02 -.36676514928E-02 -.59654784823E-02 -.74672780368E-02
 -.70351558520E-02 -.55790855245E-02 -.32748114367E-02 -.75711180830E-03 0.11145464659E-02
 0.15197843337E-02 0.86093965017E-04 -.27671824195E-02 -.58495429419E-02 -.77209240701E-02
 -.74773752528E-02 -.52886078062E-02 -.22941908141E-02 0.72171279399E-04 0.84905964749E-03
 -.82637379791E-04 -.21493824687E-02 -.45056716284E-02 -.63966925337E-02 -.73181861973E-02
 -.52220475616E-02 -.35042534068E-02 -.13238016178E-02 0.47884642680E-03 0.84853304793E-03
 -.10243518765E-02 -.51122942844E-02 -.10244639691E-01 -.14456867792E-01 -.15946156330E-01
 -.14078781819E-01 -.97601777058E-02 -.48979522316E-02 -.13401736544E-02 -.65111146483E-05
 -.69459470697E-03 -.24995984203E-02 -.44129976895E-02 -.57065441209E-02 -.60073672809E-02
 -.28633127945E-02 -.12527062465E-02 0.22711295961E-03 0.40993817510E-03 -.19591527484E-02
 -.74413693951E-02 -.15172036366E-01 -.22819021827E-01 -.27519503829E-01 -.27360725472E-01
 -.22459039759E-01 -.14885953598E-01 -.74935581508E-02 -.24535652073E-02 -.42991627834E-03
 -.73340352554E-03 -.20972759905E-02 -.34244371914E-02 -.40989240688E-02 -.39043627378E-02
 -.59663821918E-03 0.47262092900E-03 0.50700294435E-03 -.20312596230E-02 -.83570466393E-02
 -.18277460089E-01 -.29587692478E-01 -.38643899166E-01 -.42044350983E-01 -.38453828497E-01
 -.29355006760E-01 -.18202754801E-01 -.85728256110E-02 -.25336910054E-02 -.15912834510E-03
 -.18799155933E-03 -.11074683968E-02 -.18859711869E-02 -.20835052106E-02 -.16124247003E-02
 0.95867264574E-03 0.10554005702E-02 -.11242017407E-02 -.72901800260E-02 -.18101202440E-01
 -.32048926406E-01 -.45392692443E-01 -.53582368941E-01 -.53522214239E-01 -.45260796426E-01
 -.31958875517E-01 -.18159318202E-01 -.75344238517E-02 -.15106923983E-02 0.62109262271E-03
 0.57615413269E-03 -.94277714112E-04 -.52843093897E-03 -.43876852067E-03 0.16226743801E-03
 0.13741979260E-02 0.21133464612E-03 -.46360017753E-02 -.14567686920E-01 -.29098886766E-01
 -.45156990359E-01 -.57862196689E-01 -.62690435328E-01 -.57814837452E-01 -.45104383262E-01
 -.29098618677E-01 -.14658582136E-01 -.48182842305E-02 -.26933220632E-04 0.11330309082E-02
 0.60057292214E-03 -.16523510479E-03 -.44607343281E-03 -.59259393993E-04 0.79308583386E-03
 0.59938989898E-03 -.17884566663E-02 -.90742637818E-02 -.21761576823E-01 -.37909735907E-01
 -.53209800102E-01 -.62576620812E-01 -.62570253778E-01 -.53197000699E-01 -.37906611645E-01
 -.21786763499E-01 -.91400779730E-02 -.18940449885E-02 0.47007677080E-03 -.14344700905E-03
 -.17018478939E-02 -.27902358230E-02 -.27568358764E-02 -.16105324157E-02 -.17871050161E-04
 -.92634603283E-03 -.41012117757E-02 -.12804254848E-01 -.26261594466E-01 -.41287593998E-01
 -.53181062085E-01 -.57712513822E-01 -.53181871610E-01 -.41291697721E-01 -.26272409430E-01
 -.12825703190E-01 -.41384534424E-02 -.98360045736E-03 -.20795071719E-02 -.51511384839E-02
 -.79839783910E-02 -.90825178604E-02 -.79375656067E-02 -.50781457244E-02 -.20058581603E-02
 -.23906745115E-02 -.56423032521E-02 -.14264483038E-01 -.26264615779E-01 -.37902894985E-01
 -.45067041378E-01 -.45066588930E-01 -.37903609155E-01 -.26269836102E-01 -.14275030481E-01
 -.56584428797E-02 -.24167511675E-02 -.43639939847E-02 -.95617511589E-02 -.15240911247E-01
 -.18830076967E-01 -.18809576711E-01 -.15190850025E-01 -.95065501985E-02 -.43219232260E-02
 -.29956812424E-02 -.56515070709E-02 -.12819251025E-01 -.21784800876E-01 -.29102121602E-01
 -.31910324306E-01 -.29100074699E-01 -.21782579711E-01 -.12819891741E-01 -.56588276157E-02
 -.30140099328E-02 -.59010080885E-02 -.13287331641E-01 -.22434927662E-01 -.29869741285E-01
 -.32709936495E-01 -.29842142702E-01 -.22391582273E-01 -.13244091986E-01 -.58688437583E-02
 -.24149421045E-02 -.41399605610E-02 -.91323494626E-02 -.14654245577E-01 -.18166025500E-01
 -.18162119072E-01 -.14644079972E-01 -.91206287584E-02 -.41337824817E-02 -.24210561416E-02
 -.58990323038E-02 -.14739861620E-01 -.26931203692E-01 -.38711543385E-01 -.45948669261E-01
 -.45939295108E-01 -.38686164985E-01 -.26897439603E-01 -.14707987763E-01 -.58780876990E-02
 -.99697519464E-03 -.18895433536E-02 -.47880949203E-02 -.75074506113E-02 -.85744278494E-02
 -.74845227368E-02 -.47521519402E-02 -.18534232167E-02 -.96983969918E-03 -.43475143442E-02
 -.13251293924E-01 -.26896671920E-01 -.42079729682E-01 -.54075900006E-01 -.58637187236E-01
 -.54059457694E-01 -.42057125894E-01 -.26880617878E-01 -.13249370298E-01 -.43610948773E-02
 0.44451429886E-03 0.71189481332E-06 -.14275793457E-02 -.24481698880E-02 -.24226181415E-02
 -.13573792418E-02 0.99308317807E-04 0.55124528235E-03 -.20109910489E-02 -.94713146027E-02
 -.22329526148E-01 -.38634506482E-01 -.54055748789E-01 -.63484528652E-01 -.63469646492E-01
 -.54024280877E-01 -.38615812976E-01 -.22348146055E-01 -.95332129885E-02 -.21049446915E-02
 0.10959372960E-02 0.69522811397E-03 0.18836513448E-04 -.23418472733E-03 0.11462329624E-03
 0.87548276633E-03 0.13319835211E-02 0.28456029945E-04 -.49668666210E-02 -.15049464292E-01
 -.29726403654E-01 -.45909038281E-01 -.58697187140E-01 -.63551004686E-01 -.58640286047E-01
 -.45844253956E-01 -.29719901820E-01 -.15143636890E-01 -.51575253212E-02 -.21437405402E-03
 0.53892593849E-03 -.38607826610E-04 -.42169488023E-03 -.33437331012E-03 0.21486790416E-03
 0.92511654543E-03 0.91640926904E-03 -.13801830034E-02 -.76722012923E-02 -.18613248972E-01
 -.32682143164E-01 -.46119458672E-01 -.54357472879E-01 -.54291526463E-01 -.45973758968E-01
 -.32579096523E-01 -.18668056471E-01 -.79256700825E-02 -.17827490553E-02 0.46917470911E-03
 -.11321419220E-02 -.18557418292E-02 -.20343277557E-02 -.15825016175E-02 -.61782724629E-03
 0.37827807827E-03 0.32493767438E-03 -.23122826524E-02 -.87456498720E-02 -.18774839561E-01
 -.30180231101E-01 -.39299381962E-01 -.42716518748E-01 -.39094413844E-01 -.29926681066E-01
 -.18685358000E-01 -.89602078339E-02 -.28256284663E-02 -.35604337421E-03 -.29282139013E-03
 -.34348706993E-02 -.40842736400E-02 -.38907307801E-02 -.28736199914E-02 -.13055824721E-02
 0.11576525384E-03 0.22609497978E-03 -.22264116703E-02 -.77970910706E-02 -.15611615362E-01
 -.23324369050E-01 -.28058225910E-01 -.27891930510E-01 -.22945082527E-01 -.15303218561E-01
 -.78345941992E-02 -.27200675077E-02 -.62433598347E-03 -.85731884806E-03 -.21566904882E-02
 -.57099205361E-02 -.60003522347E-02 -.52215884374E-02 -.35258713965E-02 -.13798995487E-02
 0.37838633705E-03 0.69479804094E-03 -.12391282040E-02 -.53912117966E-02 -.10580849442E-01
 -.14830774763E-01 -.16328603358E-01 -.14439532706E-01 -.10076844234E-01 -.51601164911E-02
 -.15472230545E-02 -.16223933062E-03 -.80314434479E-03 -.25651222677E-02 -.44419779057E-02
 -.73175750565E-02 -.70298186521E-02 -.55806111769E-02 -.32934399570E-02 -.79770532136E-03
 0.10503745854E-02 0.14285437702E-02 -.38239536053E-04 -.29271871010E-02 -.60380387105E-02
 -.79216101207E-02 -.76720577071E-02 -.54640082399E-02 -.24433251726E-02 -.47832513175E-04
 0.75820776037E-03 -.14738410741E-03 -.21930518770E-02 -.45323497866E-02 -.64083303876E-02
 0.33020990122E-03 0.22099457215E-03 0.76328658110E-04 -.78253079550E-04 -.20683405819E-03
 -.27426290785E-03 -.26257902577E-03 -.18142050407E-03 -.65483318810E-04 0.39753645652E-04
 0.97826874565E-04 0.98549034384E-04 0.63893331152E-04 0.36502085564E-04 0.54557328113E-04
 0.12827991401E-03 0.23466411841E-03 0.33346257857E-03 0.39031613721E-03 0.38929460845E-03
 0.27832831859E-03 0.17766791791E-03 0.63910598783E-04 -.61833280199E-04 -.18979316243E-03
 -.30119595550E-03 -.37818830568E-03 -.41484940702E-03 -.41942699620E-03 -.40561109748E-03
 -.37965974403E-03 -.33364184560E-03 -.25090968557E-03 -.12109748211E-03 0.45748924052E-04
 0.21716779221E-03 0.35182280305E-03 0.42025789514E-03 0.41820980414E-03 0.36317801778E-03
 0.22817199317E-03 0.16282903891E-03 0.78750309854E-04 -.47628109201E-04 -.22380009381E-03
 -.43512209149E-03 -.65036008800E-03 -.83299293596E-03 -.95097044130E-03 -.98117727387E-03
 -.91047357385E-03 -.73818464746E-03 -.48201758501E-03 -.18259041741E-03 0.10189013092E-03
 0.31410643217E-03 0.42127889384E-03 0.42872351025E-03 0.37285598751E-03 0.29736202623E-03
 0.19468818670E-03 0.16196598796E-03 0.74844297814E-04 -.10737388601E-03 -.39592135548E-03
 -.76385335834E-03 -.11494598903E-02 -.14715005805E-02 -.16527038667E-02 -.16433731666E-02
 -.14364152500E-02 -.10700384785E-02 -.61933570152E-03 -.17849926542E-03 0.16515447334E-03
 0.35979053666E-03 0.40728366457E-03 0.35777073049E-03 0.27988729676E-03 0.22313333591E-03
 0.18397165809E-03 0.14760992804E-03 0.23512539542E-05 -.29864256503E-03 -.75595878397E-03
 -.13118397674E-02 -.18567158259E-02 -.22585145119E-02 -.24073440165E-02 -.22562230093E-02
 -.18385244074E-02 -.12557059789E-02 -.64329693932E-03 -.12896574539E-03 0.20479620771E-03
 0.34251260402E-03 0.33289352450E-03 0.25968403753E-03 0.19835821502E-03 0.18061589458E-03
 0.18907438152E-03 0.93657330453E-04 -.16662801104E-03 -.63197047035E-03 -.12773202942E-02
 -.19987263556E-02 -.26321077834E-02 -.30064543832E-02 -.30104332863E-02 -.26384161542E-02
 -.19919946428E-02 -.12386057126E-02 -.55007039786E-03 -.48192566503E-04 0.22443635541E-03
 0.30243119943E-03 0.26870971695E-03 0.21163786607E-03 0.18625420211E-03 0.19455948672E-03
 0.19438677303E-03 -.92306290895E-05 -.41771591646E-03 -.10511522929E-02 -.18456841783E-02
 -.26470224048E-02 -.32506420280E-02 -.34792449145E-02 -.32597534165E-02 -.26565450323E-02
 -.18420964473E-02 -.10231979721E-02 -.36357461139E-03 0.61153441905E-04 0.26410724342E-03
 0.31504236210E-03 0.29761980444E-03 0.27463899596E-03 0.26934151990E-03 0.26154718903E-03
 0.18681464562E-03 -.14515923731E-03 -.69187423527E-03 -.14432379899E-02 -.22926800838E-02
 -.30487840151E-02 -.35000206488E-02 -.35051577877E-02 -.30599686669E-02 -.23003286243E-02
 -.14389833131E-02 -.67328168010E-03 -.11582130336E-03 0.22017747033E-03 0.38699112631E-03
 0.45308605679E-03 0.46977126297E-03 0.46221026086E-03 0.43200292592E-03 0.35670725524E-03
 0.16565980103E-03 -.27636669242E-03 -.90575083178E-03 -.16812929907E-02 -.24658149723E-02
 -.30598396174E-02 -.32841107534E-02 -.30654258108E-02 -.24735186722E-02 -.16859939641E-02
 -.90341357441E-03 -.26619449244E-03 0.18094803928E-03 0.46693118336E-03 0.64278910163E-03
 0.74177935747E-03 0.77266651125E-03 0.73520979721E-03 0.63042676548E-03 0.45107464321E-03
 0.14315180026E-03 -.35780962909E-03 -.98614857640E-03 -.16801015150E-02 -.22978703971E-02
 -.26666049066E-02 -.26675560524E-02 -.23008113573E-02 -.16842032314E-02 -.98843837591E-03
 -.35479601211E-03 0.15196101677E-03 0.53509711380E-03 0.82244577201E-03 0.10269385717E-02
 0.11372866670E-02 0.11363045139E-02 0.10228869392E-02 0.81404186885E-03 0.52414498781E-03
 0.13517391273E-03 -.35657843364E-03 -.90071087642E-03 -.14329774489E-02 -.18351896819E-02
 -.19872544696E-02 -.18374254960E-02 -.14354669297E-02 -.90106366750E-03 -.35370999153E-03
 0.14057077819E-03 0.57134512064E-03 0.94695367488E-03 0.12581899320E-02 0.14709974044E-02
 0.15467783499E-02 0.14688728815E-02 0.12541000825E-02 0.94131530980E-03 0.56506802748E-03
 0.15012243976E-03 -.26650732550E-03 -.66943272831E-03 -.10099928861E-02 -.12112504637E-02
 -.12126774032E-02 -.10132351126E-02 -.67238132995E-03 -.26780301722E-03 0.15049109007E-03
 0.57014462945E-03 0.98902200919E-03 0.13828895358E-02 0.16986442145E-02 0.18754005005E-02
 0.18739556804E-02 0.16951869554E-02 0.13791948742E-02 0.98626816163E-03 0.56854197664E-03
 0.18484623527E-03 -.11033054072E-03 -.35381374963E-03 -.52416007175E-03 -.58712406463E-03
 -.52718245312E-03 -.36220045388E-03 -.12418535706E-03 0.17042796910E-03 0.52565645168E-03
 0.94036986702E-03 0.13806834484E-02 0.17785957282E-02 0.20563068826E-02 0.21550506700E-02
 0.20531977082E-02 0.17728056912E-02 0.13751012185E-02 0.94014522572E-03 0.53401583082E-03
 0.22945703876E-03 0.71154237659E-04 -.32430558377E-04 -.88989248141E-04 -.94674658449E-04
 -.50485909512E-04 0.40932173640E-04 0.19348119561E-03 0.43910561710E-03 0.79804700781E-03
 0.12435393195E-02 0.16977640941E-02 0.20638385356E-02 0.22643349755E-02 0.22602822762E-02
 0.20535279193E-02 0.16871813626E-02 0.12418575841E-02 0.81258468474E-03 0.46912393497E-03
 0.27496890213E-03 0.23578481841E-03 0.22460480584E-03 0.21315047888E-03 0.19488155797E-03
 0.18139355141E-03 0.20664380024E-03 0.32466006932E-03 0.58249467144E-03 0.97961576173E-03
 0.14496824008E-02 0.18849898286E-02 0.21838091954E-02 0.22840850411E-02 0.21702574018E-02
 0.18689617688E-02 0.14470951843E-02 0.10023703388E-02 0.63206110263E-03 0.39148736538E-03
 0.31671478831E-03 0.35319298820E-03 0.37386971246E-03 0.34683300976E-03 0.27622498379E-03
 0.20324902880E-03 0.19758943580E-03 0.32978085395E-03 0.62998229955E-03 0.10599049022E-02
 0.15221015984E-02 0.19014038246E-02 0.21084123026E-02 0.21012778752E-02 0.18877269348E-02
 0.15211566785E-02 0.10923437912E-02 0.70605337142E-03 0.44239048461E-03 0.32450379896E-03
 0.35208632175E-03 0.40969291342E-03 0.40668987469E-03 0.32641899844E-03 0.19827819472E-03
 0.92102755247E-04 0.93229303971E-04 0.26160764979E-03 0.59566297809E-03 0.10255687529E-02
 0.14413207576E-02 0.17361090663E-02 0.18399279283E-02 0.17340694971E-02 0.14523418600E-02
 0.10734476610E-02 0.70026414207E-03 0.42478564621E-03 0.29263776830E-03 0.28863618908E-03
 0.37676237775E-03 0.40693032258E-03 0.34710175328E-03 0.20696480556E-03 0.42204827707E-04
 -.64008863006E-04 -.35456787515E-04 0.16069541795E-03 0.49470283638E-03 0.88318049675E-03
 0.12204905966E-02 0.14159635250E-02 0.14221125214E-02 0.12473532044E-02 0.95212904025E-03
 0.62880366727E-03 0.36927559131E-03 0.23160299378E-03 0.22079355190E-03 0.29263073890E-03
 0.38407233603E-03 0.35879538495E-03 0.24087688269E-03 0.62677663436E-04 -.10766128867E-03
 -.19301657559E-03 -.14059294341E-03 0.55106177086E-04 0.34903779345E-03 0.66057841270E-03
 0.89989635929E-03 0.99848874791E-03 0.93489741364E-03 0.74400590538E-03 0.50228298688E-03
 0.29432833183E-03 0.17842722364E-03 0.16841035077E-03 0.23631019246E-03 0.32817255749E-03
 0.36843385624E-03 0.28810776712E-03 0.13839815961E-03 -.42157956159E-04 -.19382676544E-03
 -.25895624250E-03 -.20725053909E-03 -.48679689975E-04 0.17023819109E-03 0.38206767547E-03
 0.52073185246E-03 0.54633540240E-03 0.46392325403E-03 0.32324360841E-03 0.19426213269E-03
 0.13122829301E-03 0.14870831316E-03 0.22301404135E-03 0.31133524351E-03 0.37075079911E-03
 0.81959186650E-02 0.72652515721E-02 0.52530068552E-02 0.26464540938E-02 0.18143250890E-03
 -.13265558493E-02 -.12874244782E-02 0.31511212381E-03 0.27617239027E-02 0.48433598341E-02
 0.54830352960E-02 0.43688603454E-02 0.21469028113E-02 0.22172233166E-04 -.93890092434E-03
 -.32116531182E-03 0.15820529720E-02 0.40638030691E-02 0.63583141109E-02 0.78587696077E-02
 0.74246329932E-02 0.59659623338E-02 0.36678557035E-02 0.11592833039E-02 -.71044073661E-03
 -.11245192045E-02 0.29519284916E-03 0.31364824075E-02 0.62104800400E-02 0.80755909702E-02
 0.78295541230E-02 0.56467277953E-02 0.26670349909E-02 0.31672770295E-03 -.45143967976E-03
 0.48075199254E-03 0.25462647125E-02 0.49042101978E-02 0.67968090041E-02 0.77147265004E-02
 0.56139839542E-02 0.38963850654E-02 0.17212481891E-02 -.77362079708E-04 -.45079298197E-03
 0.14111266253E-02 0.54871898722E-02 0.10611547691E-01 0.14819478816E-01 0.16306690758E-01
 0.14440943974E-01 0.10130069793E-01 0.52797387170E-02 0.17316563206E-02 0.40113423628E-03
 0.10881870711E-02 0.28935581354E-02 0.48101078714E-02 0.61054503698E-02 0.64035241658E-02
 0.32617488864E-02 0.16538569685E-02 0.17227852834E-03 -.16079931058E-04 0.23464951201E-02
 0.78227552053E-02 0.15547533421E-01 0.23188497690E-01 0.27884668333E-01 0.27725692358E-01
 0.22828143958E-01 0.15261276178E-01 0.78748985109E-02 0.28402100717E-02 0.82136500062E-03
 0.11282562337E-02 0.24926757430E-02 0.38179719909E-02 0.44911656862E-02 0.42985364231E-02
 0.10012769951E-02 -.68373242755E-04 -.11250351429E-03 0.24155197636E-02 0.87369359435E-02
 0.18655794211E-01 0.29961073314E-01 0.39009322533E-01 0.42405499128E-01 0.38818075523E-01
 0.29725670861E-01 0.18577643754E-01 0.89506317150E-02 0.29181434262E-02 0.55394127371E-03
 0.58942332385E-03 0.15060040807E-02 0.22767079458E-02 0.24721659279E-02 0.20084384875E-02
 -.55471677631E-03 -.65895760716E-03 0.15077085087E-02 0.76664131105E-02 0.18476425253E-01
 0.32420220172E-01 0.45752668466E-01 0.53931588447E-01 0.53871705233E-01 0.45620815288E-01
 0.32329060010E-01 0.18533204178E-01 0.79111546364E-02 0.18968708075E-02 -.22220961552E-03
 -.17246819216E-03 0.49110495436E-03 0.91672464004E-03 0.82844593138E-03 0.23693575736E-03
 -.98075173457E-03 0.17061473216E-03 0.50078893790E-02 0.14937743775E-01 0.29468195933E-01
 0.45515960014E-01 0.58203612919E-01 0.63022108608E-01 0.58154345160E-01 0.45461762962E-01
 0.29468670981E-01 0.15031449396E-01 0.51930117946E-02 0.41012556376E-03 -.73988312703E-03
 -.20605575811E-03 0.55266024172E-03 0.82899812412E-03 0.44717124310E-03 -.39778462663E-03
 -.22284494669E-03 0.21567400901E-02 0.94388160890E-02 0.22127321164E-01 0.38272398918E-01
 0.53559099820E-01 0.62909969552E-01 0.62899508223E-01 0.53538419714E-01 0.38265423655E-01
 0.22154669763E-01 0.95074795284E-02 0.22607105411E-02 -.98389126276E-04 0.52137435105E-03
 0.20803359262E-02 0.31649345736E-02 0.31307443614E-02 0.19887890446E-02 0.39897395761E-03
 0.12863204130E-02 0.44598596533E-02 0.13166133494E-01 0.26626387336E-01 0.41648382024E-01
 0.53531553336E-01 0.58055176067E-01 0.53526572283E-01 0.41645760449E-01 0.26633725876E-01
 0.13186736733E-01 0.44955345451E-02 0.13401242546E-02 0.24403304603E-02 0.55165116966E-02
 0.83504830561E-02 0.94481789006E-02 0.83032967154E-02 0.54442080513E-02 0.23697888208E-02
 0.27395366327E-02 0.59944602828E-02 0.14625880661E-01 0.26632305793E-01 0.38268800066E-01
 0.45427640449E-01 0.45426156047E-01 0.38267113122E-01 0.26635241186E-01 0.14635342873E-01
 0.60107454123E-02 0.27663090971E-02 0.47183192936E-02 0.99226732082E-02 0.15604505855E-01
 0.19193067450E-01 0.19172533815E-01 0.15554314180E-01 0.98671430181E-02 0.46756355320E-02
 0.33408270193E-02 0.60011139192E-02 0.13181440776E-01 0.22156454553E-01 0.29474681259E-01
 0.32280279256E-01 0.29470139202E-01 0.22153459366E-01 0.13185820669E-01 0.60142844096E-02
 0.33625277489E-02 0.62531337492E-02 0.13649306201E-01 0.22802564648E-01 0.30235230466E-01
 0.33071964636E-01 0.30205615096E-01 0.22758008011E-01 0.13606912051E-01 0.62212379397E-02
 0.27640974687E-02 0.44948196195E-02 0.94983457492E-02 0.15027595525E-01 0.18540533710E-01
 0.18535585403E-01 0.15016276409E-01 0.94883298498E-02 0.44925256638E-02 0.27723054602E-02
 0.62516728427E-02 0.15101533844E-01 0.27299542341E-01 0.39077177429E-01 0.46306991544E-01
 0.46296027258E-01 0.39049334122E-01 0.27266145394E-01 0.15072746762E-01 0.62325468293E-02
 0.13573909446E-02 0.22585640781E-02 0.51620387022E-02 0.78810900375E-02 0.89481434344E-02
 0.78607862753E-02 0.51274784363E-02 0.22195227718E-02 0.13243678212E-02 0.46994493953E-02
 0.13611457046E-01 0.27264172362E-01 0.42442305238E-01 0.54424982397E-01 0.58979054288E-01
 0.54408259285E-01 0.42418635195E-01 0.27247060488E-01 0.13610814161E-01 0.47177981781E-02
 -.68304232830E-04 0.38525415576E-03 0.18113276529E-02 0.28253537878E-02 0.28007932489E-02
 0.17425533933E-02 0.28575189690E-03 -.17887397125E-03 0.23695251289E-02 0.98283925240E-02
 0.22694142019E-01 0.38998940780E-01 0.54404830746E-01 0.63816290470E-01 0.63800202097E-01
 0.54370147993E-01 0.38976489581E-01 0.22710843929E-01 0.98919108062E-02 0.24677658818E-02
 -.70491713770E-03 -.29838425466E-03 0.37251778970E-03 0.62028512966E-03 0.27574661787E-03
 -.47759433411E-03 -.93682549273E-03 0.35176455323E-03 0.53327538107E-02 0.15412154826E-01
 0.30091306617E-01 0.46268067617E-01 0.59040539099E-01 0.63882716608E-01 0.58976342683E-01
 0.46195455104E-01 0.30082057715E-01 0.15507287260E-01 0.55228385079E-02 0.59060770142E-03
 -.13942169531E-03 0.43747706249E-03 0.81650135269E-03 0.73002748772E-03 0.18710183372E-03
 -.52023985349E-03 -.51950355824E-03 0.17617890963E-02 0.80416817943E-02 0.18978847053E-01
 0.33046995500E-01 0.46479744304E-01 0.54710193867E-01 0.54640644932E-01 0.46326687284E-01
 0.32939225459E-01 0.19033848852E-01 0.82966754581E-02 0.21627240741E-02 -.77381695633E-04
 0.15326927763E-02 0.22528989429E-02 0.24296732735E-02 0.19810615416E-02 0.10208689497E-02
 0.23386333879E-04 0.66888252121E-04 0.26906693074E-02 0.91142806001E-02 0.19140303378E-01
 0.30546462667E-01 0.39666455049E-01 0.43083231629E-01 0.39460447383E-01 0.30292636825E-01
 0.19052629417E-01 0.93318083061E-02 0.32058462232E-02 0.74722124381E-03 0.69206694576E-03
 0.38324511767E-02 0.44814818393E-02 0.42855762840E-02 0.32671567776E-02 0.17001850283E-02
 0.27906949600E-03 0.16342233188E-03 0.26048890143E-02 0.81646803137E-02 0.15974772351E-01
 0.23689861039E-01 0.28427484206E-01 0.28261855981E-01 0.23313513712E-01 0.15672184503E-01
 0.82081305260E-02 0.31002863928E-02 0.10106214946E-02 0.12484147352E-02 0.25517983690E-02
 0.61044576923E-02 0.63984715418E-02 0.56152526769E-02 0.39133913940E-02 0.17679320321E-02
 0.15192744854E-04 -.30092491025E-03 0.16223188006E-02 0.57592334453E-02 0.10940021051E-01
 0.15189913283E-01 0.16689945501E-01 0.14800599836E-01 0.10439012759E-01 0.55304189004E-02
 0.19300787161E-02 0.55278826662E-03 0.11923131755E-02 0.29503513221E-02 0.48292768599E-02
 0.77100200799E-02 0.74253072637E-02 0.59724070911E-02 0.36816485272E-02 0.11892332787E-02
 -.65223626825E-03 -.10310842327E-02 0.42307415947E-03 0.32943363955E-02 0.63926454800E-02
 0.82718805386E-02 0.80226322010E-02 0.58178503875E-02 0.28064325934E-02 0.42682498043E-03
 -.36421510778E-03 0.54588616348E-03 0.25851772369E-02 0.49172979276E-02 0.67941865252E-02
 -.55277807860E-04 0.59145384057E-04 0.23014799586E-03 0.40908822234E-03 0.54540593106E-03
 0.61099085862E-03 0.60809158298E-03 0.55880687583E-03 0.48959301939E-03 0.42280976399E-03
 0.37447298132E-03 0.35111396186E-03 0.34535307569E-03 0.33734557910E-03 0.30542432470E-03
 0.23890633361E-03 0.14350533161E-03 0.38287964003E-04 -.49557335331E-04 -.89335844336E-04
 0.68314875534E-05 0.11993949511E-03 0.26022079976E-03 0.40343659731E-03 0.53348252484E-03
 0.65002937905E-03 0.75905178128E-03 0.85728584358E-03 0.92824592952E-03 0.95268115465E-03
 0.92017850775E-03 0.83096737794E-03 0.69188131310E-03 0.51618462464E-03 0.32691378355E-03
 0.15415442995E-03 0.23287078420E-04 -.55106319678E-04 -.82636538764E-04 -.62115915512E-04
 0.90281276073E-04 0.16739373916E-03 0.26320243205E-03 0.39510957942E-03 0.58620236274E-03
 0.84875198924E-03 0.11623649720E-02 0.14673714136E-02 0.16844025715E-02 0.17484845821E-02
 0.16351268862E-02 0.13662648372E-02 0.10002262913E-02 0.61439650396E-03 0.28391518211E-03
 0.58948491528E-04 -.50019305860E-04 -.67933618936E-04 -.33516276176E-04 0.23398873680E-04
 0.15765628581E-03 0.19398193072E-03 0.27865039851E-03 0.47496095422E-03 0.83153910924E-03
 0.13419335382E-02 0.19231203791E-02 0.24341887783E-02 0.27291463764E-02 0.27154564648E-02
 0.23897088131E-02 0.18376683869E-02 0.12019725532E-02 0.63060811874E-03 0.22601063219E-03
 0.16983482709E-04 -.33886242221E-04 0.44480302677E-05 0.68937859908E-04 0.12262647994E-03
 0.18456840078E-03 0.21726328733E-03 0.36920297862E-03 0.73514138054E-03 0.13565294372E-02
 0.21692848126E-02 0.30007967079E-02 0.36266808468E-02 0.38587354228E-02 0.36202863881E-02
 0.29766770562E-02 0.21101658164E-02 0.12490447888E-02 0.58014010278E-03 0.18606113488E-03
 0.38521862876E-04 0.44279258617E-04 0.10618271807E-03 0.16041943110E-03 0.18264740174E-03
 0.17786461871E-03 0.27463275357E-03 0.58515755899E-03 0.12054376968E-02 0.21295850213E-02
 0.32063043421E-02 0.41712326684E-02 0.47454640423E-02 0.47495135057E-02 0.41774417924E-02
 0.31994440209E-02 0.20927009418E-02 0.11301053094E-02 0.47860459497E-03 0.15804616557E-03
 0.76554622424E-04 0.10851607169E-03 0.15860104372E-03 0.18170411303E-03 0.17542722317E-03
 0.16847027959E-03 0.39524937995E-03 0.92167916279E-03 0.18101869869E-02 0.29775979215E-02
 0.41809606417E-02 0.50937279658E-02 0.54375014767E-02 0.51011984512E-02 0.41888870241E-02
 0.29746449390E-02 0.17863653401E-02 0.87486678304E-03 0.33386906063E-03 0.10749899693E-03
 0.66297872756E-04 0.91205250058E-04 0.11437257893E-03 0.11578762066E-03 0.11298700903E-03
 0.18457842038E-03 0.57027400377E-03 0.13018671946E-02 0.23820261032E-02 0.36442216583E-02
 0.47804845255E-02 0.54571024345E-02 0.54587040272E-02 0.47843362686E-02 0.36469898061E-02
 0.23781917662E-02 0.12866926983E-02 0.54397538897E-03 0.15340065071E-03 0.69956771078E-05
 -.22106912922E-04 -.17329724486E-04 -.11366974071E-04 -.43750601293E-05 0.34466095855E-04
 0.22823098362E-03 0.74781280779E-03 0.16038389737E-02 0.27310023681E-02 0.39011723684E-02
 0.47922357089E-02 0.51250150509E-02 0.47913304899E-02 0.39023213403E-02 0.27340308850E-02
 0.16027884379E-02 0.73698779421E-03 0.20978587797E-03 -.40790627498E-04 -.13209904481E-03
 -.15902302103E-03 -.16482912773E-03 -.15660733189E-03 -.12286197465E-03 -.23616188823E-04
 0.27452736719E-03 0.85906261552E-03 0.17178372351E-02 0.27306334012E-02 0.36511935029E-02
 0.42010761264E-02 0.41994093970E-02 0.36499708895E-02 0.27350464736E-02 0.17250443839E-02
 0.85967463730E-03 0.26418255894E-03 -.64291337019E-04 -.20832725319E-03 -.26077936934E-03
 -.27904897766E-03 -.28067711516E-03 -.26105698060E-03 -.20034300808E-03 -.49938980261E-04
 0.29222712213E-03 0.85653060513E-03 0.15983121903E-02 0.23738003301E-02 0.29693061130E-02
 0.31928911071E-02 0.29691052259E-02 0.23763408214E-02 0.16042129196E-02 0.86136724255E-03
 0.29092607924E-03 -.64053850620E-04 -.24077244565E-03 -.30906937045E-03 -.32919684322E-03
 -.33357476467E-03 -.32949725838E-03 -.30624313348E-03 -.23367020135E-03 -.57036085519E-04
 0.26715584926E-03 0.73770783813E-03 0.12818555139E-02 0.17719955314E-02 0.20653980485E-02
 0.20669656059E-02 0.17757794492E-02 0.12858305531E-02 0.74017588698E-03 0.26752096623E-03
 -.62167205876E-04 -.24451094623E-03 -.31785252155E-03 -.33238108741E-03 -.32837077152E-03
 -.32719117764E-03 -.32940726407E-03 -.31434332405E-03 -.24162698613E-03 -.60653961381E-04
 0.21015693271E-03 0.54188185667E-03 0.86578971090E-03 0.11029819326E-02 0.11911947390E-02
 0.11068694614E-02 0.87311475548E-03 0.55097755159E-03 0.21803827839E-03 -.57276642199E-04
 -.23604404222E-03 -.31651829615E-03 -.32716791505E-03 -.30936506076E-03 -.29779579819E-03
 -.30612022189E-03 -.32195466319E-03 -.31184224337E-03 -.23479725401E-03 -.61053594532E-04
 0.14607057125E-03 0.32738225689E-03 0.46381485078E-03 0.53604897661E-03 0.53982087832E-03
 0.47717192884E-03 0.35216722851E-03 0.17711697736E-03 -.18380310173E-04 -.19013209515E-03
 -.29874776627E-03 -.33291391043E-03 -.31650334657E-03 -.29153378745E-03 -.28910035061E-03
 -.30956474557E-03 -.32451226210E-03 -.29639277210E-03 -.20163843152E-03 -.44191766690E-04
 0.94800879772E-04 0.14538039144E-03 0.16258403511E-03 0.17183476685E-03 0.18677521538E-03
 0.19340013659E-03 0.15933600033E-03 0.63425868120E-04 -.79103376578E-04 -.22013210218E-03
 -.31093657573E-03 -.33662996232E-03 -.32292707645E-03 -.31000584970E-03 -.31725752011E-03
 -.32898271097E-03 -.31071798094E-03 -.23981491501E-03 -.12489827866E-03 -.82030081927E-06
 0.59281444422E-04 0.23094669203E-04 -.21811340503E-05 0.23033344632E-04 0.95249518807E-04
 0.16581323234E-03 0.17383186555E-03 0.91087422867E-04 -.56133527789E-04 -.20628172014E-03
 -.30683175527E-03 -.34662360508E-03 -.35112495051E-03 -.34920719695E-03 -.34400198708E-03
 -.31344802255E-03 -.23717814179E-03 -.12332464116E-03 -.10722645875E-04 0.56045203266E-04
 0.28237298636E-04 -.38328537812E-04 -.43421266923E-04 0.37462932028E-04 0.16890666387E-03
 0.27369297085E-03 0.28196760269E-03 0.17683462743E-03 0.22371724668E-05 -.17127372730E-03
 -.29305509016E-03 -.35389268287E-03 -.37090559319E-03 -.35745429790E-03 -.30919191040E-03
 -.21717588384E-03 -.91459260336E-04 0.30379873614E-04 0.10071694611E-03 0.93787288435E-04
 -.93782371096E-05 -.53242323247E-04 -.14720521904E-05 0.14012016396E-03 0.30912721164E-03
 0.41849203609E-03 0.40712462419E-03 0.27479263873E-03 0.76499634627E-04 -.11645856842E-03
 -.25571005672E-03 -.32708037484E-03 -.33508170512E-03 -.28505248307E-03 -.18268152297E-03
 -.46986259122E-04 0.82927766542E-04 0.16035600865E-03 0.15683367815E-03 0.83248501795E-04
 -.49863750348E-04 -.36779317838E-04 0.79780572037E-04 0.26474517250E-03 0.44332752663E-03
 0.53706993791E-03 0.50445153543E-03 0.35999081183E-03 0.16021466717E-03 -.30030079380E-04
 -.16492198614E-03 -.22408977095E-03 -.20528331795E-03 -.11931464890E-03 0.74388904459E-05
 0.13242018102E-03 0.20857083449E-03 0.20602006833E-03 0.13021694846E-03 0.23899565974E-04
 -.72756192708E-04 0.27163565619E-05 0.16536641948E-03 0.36366090211E-03 0.52680080447E-03
 0.59787691048E-03 0.55915157121E-03 0.43481960978E-03 0.27340022925E-03 0.12489115039E-03
 0.25937724846E-04 -.53699403928E-05 0.29139764212E-04 0.10745521047E-03 0.19176515579E-03
 0.24087170045E-03 0.22734291156E-03 0.15098788947E-03 0.41706645447E-04 -.50054755775E-04
 -.78375576094E-02 -.69002697584E-02 -.48704743865E-02 -.22513392972E-02 0.21344859337E-03
 0.17145264728E-02 0.16703429758E-02 0.63601256734E-04 -.23930738491E-02 -.44900185240E-02
 -.51394995630E-02 -.40208915985E-02 -.17842832131E-02 0.35378657016E-03 0.13216426967E-02
 0.70864856628E-03 -.11882546322E-02 -.36677454707E-02 -.59717324329E-02 -.74897396378E-02
 -.70590006173E-02 -.55933368366E-02 -.32808443809E-02 -.76469368190E-03 0.11013282661E-02