    5    5    1    1
  0.3477306E+02  0.2573869E-09  0.2573869E-09  0.3030466E-08  0.5000000E-15
  1.000000000000000E-004
  CAR 
 unknown system                          
     45     52     28
 
  0.0000000E+00  0.0000000E+00  0.0000000E+00  0.1000000E-01
    1      -11.618660   1.000000
    2      -10.635656   1.000000
    3       -9.034496   1.000000
    4       -7.586419   1.000000
    5       -6.335705   1.000000
    6       -5.706605   1.000000
    7       -5.554363   1.000000
    8       -5.480978   1.000000
    9       -5.365219   1.000000
   10       -5.350816   1.000000
   11       -5.328900   1.000000
   12       -5.286888   1.000000
   13       -5.284843   1.000000
   14       -5.034324   1.000000
   15       -5.030507   1.000000
   16       -4.933646   1.000000
   17       -4.838771   1.000000
   18       -4.744529   1.000000
   19       -4.541550   1.000000
   20       -4.532536   1.000000
   21       -4.326295   1.000000
   22       -4.310054   1.000000
   23       -4.047733   1.000000
   24       -4.042977   1.000000
   25       -2.965388   1.000000
   26        1.621401   0.000000
   27        1.948680   0.000000
   28        2.375171   0.000000
 
  0.1000000E+00  0.6938894E-17  0.0000000E+00  0.2000000E-01
    1      -11.311277   1.000000
    2      -10.338999   1.000000
    3       -8.775732   1.000000
    4       -7.366933   1.000000
    5       -6.355753   1.000000
    6       -5.742520   1.000000
    7       -5.659192   1.000000
    8       -5.493805   1.000000
    9       -5.427622   1.000000
   10       -5.391823   1.000000
   11       -5.337458   1.000000
   12       -5.250990   1.000000
   13       -5.190321   1.000000
   14       -5.153108   1.000000
   15       -5.055407   1.000000
   16       -4.944822   1.000000
   17       -4.797707   1.000000
   18       -4.748499   1.000000
   19       -4.548354   1.000000
   20       -4.510603   1.000000
   21       -4.346178   1.000000
   22       -4.310486   1.000000
   23       -4.040190   1.000000
   24       -3.801106   1.000000
   25       -2.276262   0.062237
   26        1.864056   0.000000
   27        2.252077   0.000000
   28        2.678113   0.000000
 
  0.2000000E+00 -0.1387779E-16  0.0000000E+00  0.2000000E-01
    1      -10.427125   1.000000
    2       -9.501871   1.000000
    3       -8.112152   1.000000
    4       -6.861199   1.000000
    5       -6.441925   1.000000
    6       -5.991639   1.000000
    7       -5.827732   1.000000
    8       -5.696848   1.000000
    9       -5.549067   1.000000
   10       -5.330272   1.000000
   11       -5.274249   1.000000
   12       -5.245525   1.000000
   13       -5.097668   1.000000
   14       -5.051765   1.000000
   15       -4.935781   1.000000
   16       -4.870512   1.000000
   17       -4.832730   1.000000
   18       -4.654107   1.000000
   19       -4.612803   1.000000
   20       -4.491948   1.000000
   21       -4.315841   1.000000
   22       -4.112822   1.000000
   23       -4.035104   1.000000
   24       -2.914045   1.000000
   25       -0.938483   0.000000
   26        2.585636   0.000000
   27        3.161207   0.000000
   28        3.589323   0.000000
 
  0.3000000E+00 -0.2775558E-16  0.0000000E+00  0.2000000E-01
    1       -9.129603   1.000000
    2       -8.364729   1.000000
    3       -7.483395   1.000000
    4       -6.708260   1.000000
    5       -6.428543   1.000000
    6       -6.252292   1.000000
    7       -5.943177   1.000000
    8       -5.713808   1.000000
    9       -5.594805   1.000000
   10       -5.344039   1.000000
   11       -5.225842   1.000000
   12       -5.107369   1.000000
   13       -4.920746   1.000000
   14       -4.883223   1.000000
   15       -4.802235   1.000000
   16       -4.653863   1.000000
   17       -4.569895   1.000000
   18       -4.421664   1.000000
   19       -4.382706   1.000000
   20       -4.305167   1.000000
   21       -4.187217   1.000000
   22       -4.023118   1.000000
   23       -3.604255   1.000000
   24       -1.724869   0.000000
   25        0.752506   0.000000
   26        3.762321   0.000000
   27        4.632610   0.000000
   28        5.042204   0.000000
 
  0.4000000E+00 -0.2775558E-16  0.0000000E+00  0.2000000E-01
    1       -8.066927   1.000000
    2       -7.459742   1.000000
    3       -7.160212   1.000000
    4       -6.803531   1.000000
    5       -6.560749   1.000000
    6       -6.413418   1.000000
    7       -6.081030   1.000000
    8       -5.533431   1.000000
    9       -5.414971   1.000000
   10       -5.326617   1.000000
   11       -5.262639   1.000000
   12       -4.958204   1.000000
   13       -4.834075   1.000000
   14       -4.521066   1.000000
   15       -4.435493   1.000000
   16       -4.369478   1.000000
   17       -4.160281   1.000000
   18       -4.138720   1.000000
   19       -4.105530   1.000000
   20       -4.024293   1.000000
   21       -3.870664   1.000000
   22       -3.587427   1.000000
   23       -2.530306   0.980132
   24       -0.315424   0.000000
   25        1.958528   0.000000
   26        2.876406   0.000000
   27        3.399929   0.000000
   28        4.377922   0.000000
 
  0.5000000E+00 -0.2775558E-16  0.0000000E+00  0.1000000E-01
    1       -7.859597   1.000000
    2       -7.156072   1.000000
    3       -6.961635   1.000000
    4       -6.866394   1.000000
    5       -6.622868   1.000000
    6       -6.465359   1.000000
    7       -6.120319   1.000000
    8       -5.462385   1.000000
    9       -5.424536   1.000000
   10       -5.267450   1.000000
   11       -5.201381   1.000000
   12       -4.953895   1.000000
   13       -4.586443   1.000000
   14       -4.464917   1.000000
   15       -4.336171   1.000000
   16       -4.250380   1.000000
   17       -4.100989   1.000000
   18       -4.006249   1.000000
   19       -3.951097   1.000000
   20       -3.753938   1.000000
   21       -3.647269   1.000000
   22       -2.249484   0.027749
   23       -1.403473   0.000000
   24       -0.869258   0.000000
   25        1.101588   0.000000
   26        2.191196   0.000000
   27        3.112041   0.000000
   28        3.584207   0.000000
 
  0.0000000E+00  0.1000000E+00  0.0000000E+00  0.2000000E-01
    1      -11.325210   1.000000
    2      -10.340396   1.000000
    3       -8.766066   1.000000
    4       -7.361752   1.000000
    5       -6.284923   1.000000
    6       -5.775586   1.000000
    7       -5.565904   1.000000
    8       -5.455006   1.000000
    9       -5.421290   1.000000
   10       -5.393638   1.000000
   11       -5.323833   1.000000
   12       -5.292230   1.000000
   13       -5.186283   1.000000
   14       -5.156931   1.000000
   15       -5.054691   1.000000
   16       -4.968925   1.000000
   17       -4.890482   1.000000
   18       -4.758540   1.000000
   19       -4.557586   1.000000
   20       -4.502276   1.000000
   21       -4.345223   1.000000
   22       -4.321939   1.000000
   23       -4.043621   1.000000
   24       -3.820753   1.000000
   25       -2.285108   0.079098
   26        1.864895   0.000000
   27        2.251878   0.000000
   28        2.677289   0.000000
 
  0.1000000E+00  0.1000000E+00  0.0000000E+00  0.2000000E-01
    1      -11.311214   1.000000
    2      -10.339146   1.000000
    3       -8.775714   1.000000
    4       -7.366474   1.000000
    5       -6.359375   1.000000
    6       -5.742181   1.000000
    7       -5.649037   1.000000
    8       -5.493224   1.000000
    9       -5.435731   1.000000
   10       -5.381152   1.000000
   11       -5.339290   1.000000
   12       -5.251498   1.000000
   13       -5.191608   1.000000
   14       -5.155442   1.000000
   15       -5.053882   1.000000
   16       -4.945069   1.000000
   17       -4.817705   1.000000
   18       -4.740612   1.000000
   19       -4.546792   1.000000
   20       -4.513989   1.000000
   21       -4.341678   1.000000
   22       -4.309031   1.000000
   23       -4.040004   1.000000
   24       -3.799643   1.000000
   25       -2.275383   0.060729
   26        1.864102   0.000000
   27        2.252151   0.000000
   28        2.677946   0.000000
 
  0.2000000E+00  0.1000000E+00  0.0000000E+00  0.2000000E-01
    1      -10.704454   1.000000
    2       -9.771923   1.000000
    3       -8.322396   1.000000
    4       -6.995025   1.000000
    5       -6.434412   1.000000
    6       -5.876464   1.000000
    7       -5.805268   1.000000
    8       -5.633741   1.000000
    9       -5.527813   1.000000
   10       -5.417384   1.000000
   11       -5.329482   1.000000
   12       -5.213908   1.000000
   13       -5.146773   1.000000
   14       -5.124029   1.000000
   15       -4.983397   1.000000
   16       -4.884192   1.000000
   17       -4.759535   1.000000
   18       -4.651896   1.000000
   19       -4.622318   1.000000
   20       -4.485128   1.000000
   21       -4.393452   1.000000
   22       -4.135828   1.000000
   23       -4.067628   1.000000
   24       -3.142138   1.000000
   25       -1.320974   0.000000
   26        2.346332   0.000000
   27        2.859071   0.000000
   28        3.283764   0.000000
 
  0.3000000E+00  0.1000000E+00  0.0000000E+00  0.2000000E-01
    1       -9.602500   1.000000
    2       -8.772451   1.000000
    3       -7.665499   1.000000
    4       -6.639572   1.000000
    5       -6.351742   1.000000
    6       -6.098829   1.000000
    7       -5.931412   1.000000
    8       -5.801696   1.000000
    9       -5.659582   1.000000
   10       -5.368785   1.000000
   11       -5.323962   1.000000
   12       -5.218919   1.000000
   13       -5.111179   1.000000
   14       -4.993966   1.000000
   15       -4.907209   1.000000
   16       -4.799701   1.000000
   17       -4.650496   1.000000
   18       -4.511251   1.000000
   19       -4.393687   1.000000
   20       -4.352350   1.000000
   21       -4.201272   1.000000
   22       -4.097342   1.000000
   23       -3.725049   1.000000
   24       -2.120055   0.000090
   25        0.151553   0.000000
   26        3.317601   0.000000
   27        4.066203   0.000000
   28        4.506280   0.000000
 
  0.4000000E+00  0.1000000E+00  0.0000000E+00  0.2000000E-01
    1       -8.402042   1.000000
    2       -7.725484   1.000000
    3       -7.185597   1.000000
    4       -6.657663   1.000000
    5       -6.420344   1.000000
    6       -6.247626   1.000000
    7       -5.990222   1.000000
    8       -5.675097   1.000000
    9       -5.599778   1.000000
   10       -5.355545   1.000000
   11       -5.267872   1.000000
   12       -5.128934   1.000000
   13       -4.961449   1.000000
   14       -4.793166   1.000000
   15       -4.700107   1.000000
   16       -4.557424   1.000000
   17       -4.446369   1.000000
   18       -4.324831   1.000000
   19       -4.222870   1.000000
   20       -4.045441   1.000000
   21       -3.991526   1.000000
   22       -3.674807   1.000000
   23       -2.819920   1.000000
   24       -0.705082   0.000000
   25        1.931696   0.000000
   26        3.899474   0.000000
   27        4.584121   0.000000
   28        5.088487   0.000000
 
  0.5000000E+00  0.1000000E+00  0.0000000E+00  0.2000000E-01
    1       -7.883803   1.000000
    2       -7.080894   1.000000
    3       -6.915888   1.000000
    4       -6.718326   1.000000
    5       -6.531357   1.000000
    6       -6.349372   1.000000
    7       -6.082251   1.000000
    8       -5.558081   1.000000
    9       -5.458830   1.000000
   10       -5.368449   1.000000
   11       -5.236892   1.000000
   12       -5.019807   1.000000
   13       -4.828826   1.000000
   14       -4.576680   1.000000
   15       -4.443868   1.000000
   16       -4.300462   1.000000
   17       -4.187722   1.000000
   18       -4.162271   1.000000
   19       -4.080111   1.000000
   20       -3.925811   1.000000
   21       -3.474100   1.000000
   22       -2.376357   0.451965
   23       -1.357335   0.000000
   24        0.076438   0.000000
   25        1.416574   0.000000
   26        2.542174   0.000000
   27        3.244199   0.000000
   28        4.142967   0.000000
 
 -0.4000000E+00  0.1000000E+00  0.0000000E+00  0.2000000E-01
    1       -7.804577   1.000000
    2       -7.074024   1.000000
    3       -6.909915   1.000000
    4       -6.747046   1.000000
    5       -6.532164   1.000000
    6       -6.378798   1.000000
    7       -6.101117   1.000000
    8       -5.625750   1.000000
    9       -5.439278   1.000000
   10       -5.378622   1.000000
   11       -5.274738   1.000000
   12       -5.026363   1.000000
   13       -4.850283   1.000000
   14       -4.561078   1.000000
   15       -4.442721   1.000000
   16       -4.296949   1.000000
   17       -4.197309   1.000000
   18       -4.132015   1.000000
   19       -4.082834   1.000000
   20       -3.921595   1.000000
   21       -3.391258   1.000000
   22       -2.375475   0.447026
   23       -1.380949   0.000000
   24        0.065458   0.000000
   25        1.394061   0.000000
   26        2.519725   0.000000
   27        3.288829   0.000000
   28        4.117561   0.000000
 
 -0.3000000E+00  0.1000000E+00  0.0000000E+00  0.2000000E-01
    1       -8.359554   1.000000
    2       -7.683096   1.000000
    3       -7.164679   1.000000
    4       -6.677168   1.000000
    5       -6.425820   1.000000
    6       -6.283916   1.000000
    7       -6.029874   1.000000
    8       -5.716983   1.000000
    9       -5.622483   1.000000
   10       -5.392170   1.000000
   11       -5.298847   1.000000
   12       -5.154119   1.000000
   13       -4.946131   1.000000
   14       -4.789442   1.000000
   15       -4.659814   1.000000
   16       -4.538506   1.000000
   17       -4.433769   1.000000
   18       -4.274985   1.000000
   19       -4.193807   1.000000
   20       -4.032211   1.000000
   21       -3.965043   1.000000
   22       -3.668689   1.000000
   23       -2.869652   1.000000
   24       -0.808444   0.000000
   25        1.853634   0.000000
   26        3.953797   0.000000
   27        4.653880   0.000000
   28        5.104326   0.000000
 
 -0.2000000E+00  0.1000000E+00  0.0000000E+00  0.2000000E-01
    1       -9.651424   1.000000
    2       -8.746280   1.000000
    3       -7.579037   1.000000
    4       -6.608363   1.000000
    5       -6.335900   1.000000
    6       -6.118025   1.000000
    7       -5.961279   1.000000
    8       -5.806485   1.000000
    9       -5.657728   1.000000
   10       -5.386301   1.000000
   11       -5.328941   1.000000
   12       -5.245348   1.000000
   13       -5.079963   1.000000
   14       -4.975367   1.000000
   15       -4.837168   1.000000
   16       -4.802475   1.000000
   17       -4.631910   1.000000
   18       -4.554520   1.000000
   19       -4.404478   1.000000
   20       -4.348037   1.000000
   21       -4.198702   1.000000
   22       -4.105301   1.000000
   23       -3.768142   1.000000
   24       -2.235025   0.017027
   25        0.094008   0.000000
   26        3.313337   0.000000
   27        4.065867   0.000000
   28        4.519020   0.000000
 
 -0.1000000E+00  0.1000000E+00  0.0000000E+00  0.2000000E-01
    1      -10.744143   1.000000
    2       -9.770287   1.000000
    3       -8.282827   1.000000
    4       -6.975998   1.000000
    5       -6.307772   1.000000
    6       -5.887116   1.000000
    7       -5.789346   1.000000
    8       -5.619005   1.000000
    9       -5.516152   1.000000
   10       -5.389304   1.000000
   11       -5.276143   1.000000
   12       -5.224951   1.000000
   13       -5.154094   1.000000
   14       -5.144674   1.000000
   15       -4.993691   1.000000
   16       -4.923903   1.000000
   17       -4.760543   1.000000
   18       -4.676246   1.000000
   19       -4.655485   1.000000
   20       -4.528144   1.000000
   21       -4.405430   1.000000
   22       -4.131931   1.000000
   23       -4.084463   1.000000
   24       -3.227003   1.000000
   25       -1.353026   0.000000
   26        2.347470   0.000000
   27        2.858394   0.000000
   28        3.282742   0.000000
 
  0.0000000E+00  0.2000000E+00  0.0000000E+00  0.2000000E-01
    1      -10.500938   1.000000
    2       -9.504472   1.000000
    3       -8.056430   1.000000
    4       -6.824505   1.000000
    5       -6.225562   1.000000
    6       -5.938216   1.000000
    7       -5.739147   1.000000
    8       -5.660850   1.000000
    9       -5.539480   1.000000
   10       -5.365300   1.000000
   11       -5.272593   1.000000
   12       -5.252889   1.000000
   13       -5.150407   1.000000
   14       -5.089956   1.000000
   15       -4.955011   1.000000
   16       -4.893284   1.000000
   17       -4.870011   1.000000
   18       -4.675986   1.000000
   19       -4.642554   1.000000
   20       -4.504471   1.000000
   21       -4.324041   1.000000
   22       -4.176883   1.000000
   23       -4.039051   1.000000
   24       -3.037186   1.000000
   25       -0.987938   0.000000
   26        2.582962   0.000000
   27        3.160831   0.000000
   28        3.587801   0.000000
 
  0.1000000E+00  0.2000000E+00  0.0000000E+00  0.2000000E-01
    1      -10.743971   1.000000
    2       -9.770759   1.000000
    3       -8.282720   1.000000
    4       -6.973942   1.000000
    5       -6.314138   1.000000
    6       -5.891226   1.000000
    7       -5.774785   1.000000
    8       -5.631257   1.000000
    9       -5.505688   1.000000
   10       -5.389710   1.000000
   11       -5.246386   1.000000
   12       -5.229520   1.000000
   13       -5.178443   1.000000
   14       -5.148584   1.000000
   15       -4.985229   1.000000
   16       -4.913293   1.000000
   17       -4.768635   1.000000
   18       -4.711297   1.000000
   19       -4.652125   1.000000
   20       -4.508525   1.000000
   21       -4.405351   1.000000
   22       -4.142424   1.000000
   23       -4.081543   1.000000
   24       -3.220150   1.000000
   25       -1.350865   0.000000
   26        2.347474   0.000000
   27        2.858642   0.000000
   28        3.282985   0.000000
 
  0.2000000E+00  0.2000000E+00  0.0000000E+00  0.2000000E-01
    1      -10.426846   1.000000
    2       -9.502619   1.000000
    3       -8.111554   1.000000
    4       -6.856253   1.000000
    5       -6.460650   1.000000
    6       -5.982201   1.000000
    7       -5.819662   1.000000
    8       -5.702839   1.000000
    9       -5.530143   1.000000
   10       -5.330262   1.000000
   11       -5.269027   1.000000
   12       -5.239786   1.000000
   13       -5.124594   1.000000
   14       -5.052596   1.000000
   15       -4.928156   1.000000
   16       -4.875983   1.000000
   17       -4.833637   1.000000
   18       -4.660563   1.000000
   19       -4.615295   1.000000
   20       -4.491147   1.000000
   21       -4.311699   1.000000
   22       -4.116492   1.000000
   23       -4.035231   1.000000
   24       -2.908483   1.000000
   25       -0.935699   0.000000
   26        2.585597   0.000000
   27        3.161613   0.000000
   28        3.587634   0.000000
 
  0.3000000E+00  0.2000000E+00  0.0000000E+00  0.2000000E-01
    1       -9.602205   1.000000
    2       -8.773213   1.000000
    3       -7.664262   1.000000
    4       -6.635438   1.000000
    5       -6.369817   1.000000
    6       -6.093830   1.000000
    7       -5.928365   1.000000
    8       -5.804398   1.000000
    9       -5.646693   1.000000
   10       -5.361931   1.000000
   11       -5.321515   1.000000
   12       -5.208967   1.000000
   13       -5.122958   1.000000
   14       -5.008055   1.000000
   15       -4.909184   1.000000
   16       -4.799300   1.000000
   17       -4.649650   1.000000
   18       -4.513236   1.000000
   19       -4.392390   1.000000
   20       -4.350891   1.000000
   21       -4.201374   1.000000
   22       -4.098223   1.000000
   23       -3.725332   1.000000
   24       -2.117595   0.000078
   25        0.154157   0.000000
   26        3.317672   0.000000
   27        4.066839   0.000000
   28        4.495676   0.000000
 
  0.4000000E+00  0.2000000E+00  0.0000000E+00  0.2000000E-01
    1       -8.549587   1.000000
    2       -7.815318   1.000000
    3       -7.142949   1.000000
    4       -6.519213   1.000000
    5       -6.232577   1.000000
    6       -6.116272   1.000000
    7       -5.968946   1.000000
    8       -5.894619   1.000000
    9       -5.625438   1.000000
   10       -5.468794   1.000000
   11       -5.366859   1.000000
   12       -5.321367   1.000000
   13       -5.048788   1.000000
   14       -4.974560   1.000000
   15       -4.785217   1.000000
   16       -4.731306   1.000000
   17       -4.475301   1.000000
   18       -4.361344   1.000000
   19       -4.269160   1.000000
   20       -4.036237   1.000000
   21       -3.989972   1.000000
   22       -3.620949   1.000000
   23       -2.825866   1.000000
   24       -0.830350   0.000000
   25        1.735014   0.000000
   26        4.547022   0.000000
   27        5.185037   0.000000
   28        5.655063   0.000000
 
  0.5000000E+00  0.2000000E+00  0.0000000E+00  0.2000000E-01
    1       -7.924786   1.000000
    2       -6.930757   1.000000
    3       -6.721772   1.000000
    4       -6.497426   1.000000
    5       -6.324447   1.000000
    6       -6.166076   1.000000
    7       -5.989154   1.000000
    8       -5.806449   1.000000
    9       -5.613373   1.000000
   10       -5.530323   1.000000
   11       -5.391963   1.000000
   12       -5.112736   1.000000
   13       -5.009604   1.000000
   14       -4.868645   1.000000
   15       -4.682993   1.000000
   16       -4.592188   1.000000
   17       -4.435616   1.000000
   18       -4.259223   1.000000
   19       -4.116346   1.000000
   20       -3.944011   1.000000
   21       -3.329108   1.000000
   22       -2.395356   0.558823
   23       -1.213697   0.000000
   24        0.831317   0.000000
   25        2.619199   0.000000
   26        3.608562   0.000000
   27        4.043534   0.000000
   28        4.885389   0.000000
 
 -0.4000000E+00  0.2000000E+00  0.0000000E+00  0.2000000E-01
    1       -7.690752   1.000000
    2       -6.702091   1.000000
    3       -6.627123   1.000000
    4       -6.453653   1.000000
    5       -6.339823   1.000000
    6       -6.186022   1.000000
    7       -6.014687   1.000000
    8       -5.852982   1.000000
    9       -5.616242   1.000000
   10       -5.510598   1.000000
   11       -5.355375   1.000000
   12       -5.150709   1.000000
   13       -4.930487   1.000000
   14       -4.752586   1.000000
   15       -4.614271   1.000000
   16       -4.503159   1.000000
   17       -4.336404   1.000000
   18       -4.181868   1.000000
   19       -4.117049   1.000000
   20       -4.014396   1.000000
   21       -2.509587   0.961088
   22       -0.741538   0.000000
   23       -0.163795   0.000000
   24        0.596708   0.000000
   25        1.503914   0.000000
   26        2.810169   0.000000
   27        3.671793   0.000000
   28        4.161846   0.000000
 
 -0.3000000E+00  0.2000000E+00  0.0000000E+00  0.2000000E-01
    1       -7.788534   1.000000
    2       -6.940804   1.000000
    3       -6.731850   1.000000
    4       -6.503886   1.000000
    5       -6.324768   1.000000
    6       -6.217013   1.000000
    7       -6.004340   1.000000
    8       -5.843603   1.000000
    9       -5.621008   1.000000
   10       -5.571248   1.000000
   11       -5.451630   1.000000
   12       -5.119740   1.000000
   13       -5.011373   1.000000
   14       -4.864805   1.000000
   15       -4.702465   1.000000
   16       -4.585343   1.000000
   17       -4.431538   1.000000
   18       -4.252394   1.000000
   19       -4.085768   1.000000
   20       -3.944547   1.000000
   21       -3.154661   1.000000
   22       -2.403532   0.603959
   23       -1.311242   0.000000
   24        0.654983   0.000000
   25        2.585311   0.000000
   26        3.565157   0.000000
   27        4.073593   0.000000
   28        4.806352   0.000000
 
 -0.2000000E+00  0.2000000E+00  0.0000000E+00  0.2000000E-01
    1       -8.646041   1.000000
    2       -7.719675   1.000000
    3       -7.017395   1.000000
    4       -6.499277   1.000000
    5       -6.201304   1.000000
    6       -6.117482   1.000000
    7       -5.961738   1.000000
    8       -5.905095   1.000000
    9       -5.630875   1.000000
   10       -5.486555   1.000000
   11       -5.455322   1.000000
   12       -5.356175   1.000000
   13       -5.054384   1.000000
   14       -4.989838   1.000000
   15       -4.815849   1.000000
   16       -4.662506   1.000000
   17       -4.489010   1.000000
   18       -4.321676   1.000000
   19       -4.194545   1.000000
   20       -4.041357   1.000000
   21       -3.933176   1.000000
   22       -3.626236   1.000000
   23       -2.940730   1.000000
   24       -1.076176   0.000000
   25        1.539475   0.000000
   26        4.419763   0.000000
   27        5.402959   0.000000
   28        5.616597   0.000000
 
 -0.1000000E+00  0.2000000E+00  0.0000000E+00  0.2000000E-01
    1       -9.740214   1.000000
    2       -8.747330   1.000000
    3       -7.520990   1.000000
    4       -6.517754   1.000000
    5       -6.267694   1.000000
    6       -6.039822   1.000000
    7       -5.869993   1.000000
    8       -5.782072   1.000000
    9       -5.658901   1.000000
   10       -5.361037   1.000000
   11       -5.333997   1.000000
   12       -5.297626   1.000000
   13       -5.144651   1.000000
   14       -5.006637   1.000000
   15       -4.846694   1.000000
   16       -4.813255   1.000000
   17       -4.630913   1.000000
   18       -4.568660   1.000000
   19       -4.435924   1.000000
   20       -4.350558   1.000000
   21       -4.198889   1.000000
   22       -4.107084   1.000000
   23       -3.826091   1.000000
   24       -2.339696   0.261357
   25        0.038197   0.000000
   26        3.295222   0.000000
   27        4.067199   0.000000
   28        4.505325   0.000000
 
  0.0000000E+00  0.3000000E+00  0.0000000E+00  0.2000000E-01
    1       -9.390951   1.000000
    2       -8.337633   1.000000
    3       -7.316401   1.000000
    4       -6.515548   1.000000
    5       -6.369572   1.000000
    6       -6.064229   1.000000
    7       -5.761889   1.000000
    8       -5.668343   1.000000
    9       -5.466284   1.000000
   10       -5.369007   1.000000
   11       -5.317090   1.000000
   12       -5.141493   1.000000
   13       -4.980789   1.000000
   14       -4.892632   1.000000
   15       -4.794857   1.000000
   16       -4.757275   1.000000
   17       -4.570935   1.000000
   18       -4.441955   1.000000
   19       -4.397175   1.000000
   20       -4.309767   1.000000
   21       -4.187490   1.000000
   22       -4.026603   1.000000
   23       -3.796864   1.000000
   24       -2.020232   0.000000
   25        0.556889   0.000000
   26        3.635000   0.000000
   27        4.659725   0.000000
   28        4.883818   0.000000
 
  0.1000000E+00  0.3000000E+00  0.0000000E+00  0.2000000E-01
    1       -9.740002   1.000000
    2       -8.748452   1.000000
    3       -7.520505   1.000000
    4       -6.510905   1.000000
    5       -6.269830   1.000000
    6       -6.046132   1.000000
    7       -5.868304   1.000000
    8       -5.790055   1.000000
    9       -5.656869   1.000000
   10       -5.355958   1.000000
   11       -5.332023   1.000000
   12       -5.289689   1.000000
   13       -5.147324   1.000000
   14       -4.985531   1.000000
   15       -4.870068   1.000000
   16       -4.811763   1.000000
   17       -4.626166   1.000000
   18       -4.566281   1.000000
   19       -4.450956   1.000000
   20       -4.350811   1.000000
   21       -4.198717   1.000000
   22       -4.103076   1.000000
   23       -3.837071   1.000000
   24       -2.331088   0.223359
   25        0.041872   0.000000
   26        3.295163   0.000000
   27        4.067773   0.000000
   28        4.507066   0.000000
 
  0.2000000E+00  0.3000000E+00  0.0000000E+00  0.2000000E-01
    1       -9.650857   1.000000
    2       -8.748459   1.000000
    3       -7.577091   1.000000
    4       -6.592622   1.000000
    5       -6.369045   1.000000
    6       -6.117954   1.000000
    7       -5.951006   1.000000
    8       -5.811532   1.000000
    9       -5.640051   1.000000
   10       -5.373926   1.000000
   11       -5.326333   1.000000
   12       -5.242341   1.000000
   13       -5.090538   1.000000
   14       -4.959658   1.000000
   15       -4.872388   1.000000
   16       -4.799890   1.000000
   17       -4.623486   1.000000
   18       -4.552435   1.000000
   19       -4.415080   1.000000
   20       -4.348002   1.000000
   21       -4.198614   1.000000
   22       -4.102674   1.000000
   23       -3.778764   1.000000
   24       -2.224765   0.011771
   25        0.100178   0.000000
   26        3.313309   0.000000
   27        4.067046   0.000000
   28        4.520983   0.000000
 
  0.3000000E+00  0.3000000E+00  0.0000000E+00  0.2000000E-01
    1       -9.128450   1.000000
    2       -8.368192   1.000000
    3       -7.479321   1.000000
    4       -6.704854   1.000000
    5       -6.447285   1.000000
    6       -6.247444   1.000000
    7       -5.941835   1.000000
    8       -5.709936   1.000000
    9       -5.587441   1.000000
   10       -5.337622   1.000000
   11       -5.217791   1.000000
   12       -5.106899   1.000000
   13       -4.932103   1.000000
   14       -4.882470   1.000000
   15       -4.809129   1.000000
   16       -4.660182   1.000000
   17       -4.566909   1.000000
   18       -4.423170   1.000000
   19       -4.384154   1.000000
   20       -4.303049   1.000000
   21       -4.187450   1.000000
   22       -4.022600   1.000000
   23       -3.609875   1.000000
   24       -1.717300   0.000000
   25        0.762776   0.000000
   26        3.765763   0.000000
   27        4.637304   0.000000
   28        5.069882   0.000000
 
  0.4000000E+00  0.3000000E+00  0.0000000E+00  0.2000000E-01
    1       -8.400678   1.000000
    2       -7.731063   1.000000
    3       -7.179823   1.000000
    4       -6.657144   1.000000