unknown system                          
   1.00000000000000     
     2.573869    0.000000    0.000000
     1.286934    2.229036    0.000000
     0.000000    0.000000   30.304665
   Cu   H 
     4     1
Direct
  0.000000  0.000000  0.395979
  0.333333  0.333333  0.465326
  0.666667  0.666667  0.534674
  0.000000  0.000000  0.604021
  0.461148  0.000000  0.637020
 
   10   10  120
 0.21146E-10 0.75167E-11 0.31614E-12 0.27584E-10 0.12698E-13 0.77817E-12 0.23245E-13 0.27763E-09 0.23197E-12 0.88989E-11
 0.13015E-11 0.47583E-11 0.38605E-12 0.47487E-12 0.76467E-14 0.38752E-11 0.31905E-13 0.12830E-11 0.77511E-13 0.44276E-11
 0.30287E-12 0.36762E-12 0.15804E-12 0.10114E-12 0.42050E-14 0.11452E-12 0.32502E-13 0.68017E-12 0.33411E-13 0.38163E-12
 0.14738E-10 0.10444E-10 0.89415E-13 0.56594E-13 0.74662E-14 0.27074E-12 0.21344E-13 0.28388E-11 0.56498E-12 0.28109E-10
 0.38622E-13 0.35971E-13 0.58287E-14 0.15724E-13 0.12740E-13 0.15113E-13 0.27894E-14 0.44187E-13 0.56483E-13 0.37401E-13
 0.71753E-11 0.58986E-09 0.68154E-13 0.53607E-12 0.13628E-13 0.87799E-10 0.18333E-13 0.51978E-12 0.76827E-13 0.18713E-07
 0.31447E-13 0.31503E-13 0.54082E-13 0.29546E-13 0.22898E-14 0.44617E-13 0.14308E-13 0.12323E-13 0.59674E-14 0.30892E-13
 0.15409E-10 0.32868E-10 0.39124E-12 0.23646E-11 0.14905E-13 0.28919E-12 0.90761E-14 0.49336E-13 0.10619E-12 0.85764E-11
 0.24563E-12 0.25869E-12 0.23745E-13 0.62310E-12 0.26729E-13 0.30753E-13 0.41356E-14 0.11001E-12 0.16280E-12 0.28386E-12
 0.16683E-11 0.11176E-10 0.61381E-13 0.26037E-11 0.22468E-13 0.31784E-12 0.98671E-14 0.14452E-11 0.50819E-12 0.90892E-11
 0.62262E-12 0.24434E-12 0.30506E-12 0.22714E-12 0.40523E-14 0.20704E-12 0.10188E-12 0.29339E-12 0.38101E-13 0.20425E-12
 0.12761E-11 0.32755E-11 0.57204E-12 0.48707E-12 0.51348E-14 0.14378E-11 0.95854E-13 0.14653E-11 0.98328E-13 0.92628E-11
 0.51843E-12 0.52858E-12 0.16163E-12 0.73330E-13 0.23870E-14 0.75384E-13 0.76411E-13 0.76515E-12 0.40398E-13 0.42143E-12
 0.14562E-11 0.37104E-11 0.69195E-13 0.12462E-13 0.28866E-14 0.12890E-12 0.64865E-13 0.28419E-11 0.49632E-12 0.54359E-10
 0.86181E-14 0.17542E-13 0.31503E-14 0.45103E-14 0.57315E-14 0.88679E-14 0.37470E-14 0.25202E-13 0.36665E-13 0.21302E-13
 0.34558E-12 0.87050E-11 0.52111E-13 0.17228E-12 0.79659E-14 0.28113E-10 0.40967E-13 0.34015E-10 0.16342E-12 0.53609E-11
 0.19609E-12 0.99684E-13 0.11786E-12 0.95479E-13 0.29560E-14 0.11234E-12 0.59563E-13 0.65670E-13 0.15959E-13 0.74940E-13
 0.13042E-11 0.21412E-10 0.46968E-12 0.24817E-11 0.10464E-13 0.35361E-11 0.41217E-13 0.90644E-12 0.26086E-12 0.39371E-09
 0.48583E-13 0.29988E-12 0.29577E-13 0.55070E-12 0.18846E-13 0.54304E-13 0.98255E-14 0.26272E-12 0.23222E-12 0.21094E-12
 0.13934E-12 0.31395E-10 0.77889E-13 0.38362E-11 0.14558E-13 0.85201E-12 0.19845E-13 0.51529E-11 0.36998E-12 0.58808E-07
 0.20688E-13 0.19068E-13 0.41606E-13 0.17736E-13 0.11380E-14 0.24425E-13 0.37886E-13 0.19457E-13 0.70777E-14 0.17028E-13
 0.53298E-13 0.17413E-11 0.70950E-12 0.30427E-12 0.30254E-14 0.43535E-12 0.18351E-12 0.14329E-11 0.81483E-13 0.96170E-11
 0.62214E-13 0.64990E-12 0.10220E-12 0.25174E-13 0.12212E-14 0.25535E-13 0.97325E-13 0.72314E-12 0.36172E-13 0.42175E-12
 0.35652E-13 0.13766E-11 0.24855E-13 0.34694E-14 0.11657E-14 0.33834E-13 0.13936E-12 0.29388E-11 0.40760E-12 0.13429E-09
 0.18874E-14 0.82157E-14 0.16653E-14 0.15266E-14 0.25258E-14 0.48850E-14 0.32890E-14 0.11324E-13 0.18374E-13 0.10075E-13
 0.26867E-13 0.94862E-12 0.19817E-13 0.39108E-13 0.44131E-14 0.16097E-10 0.97478E-13 0.15651E-09 0.14108E-12 0.27073E-11
 0.60077E-13 0.22546E-12 0.13545E-12 0.21938E-12 0.25535E-14 0.27224E-12 0.18881E-12 0.22186E-12 0.28061E-13 0.17950E-12
 0.34098E-13 0.14397E-10 0.43152E-12 0.25475E-11 0.56066E-14 0.13559E-10 0.11982E-12 0.37705E-11 0.20015E-12 0.44215E-10
 0.89304E-14 0.22882E-12 0.26742E-13 0.42803E-12 0.10075E-13 0.48822E-13 0.16959E-13 0.20078E-12 0.21536E-12 0.15586E-12
 0.14950E-13 0.35378E-10 0.85709E-13 0.55293E-11 0.73969E-14 0.17294E-11 0.40079E-13 0.18940E-10 0.25645E-12 0.10905E-10
 0.51764E-14 0.55095E-14 0.88124E-14 0.53846E-14 0.41633E-15 0.51625E-14 0.88818E-14 0.53846E-14 0.24147E-14 0.48711E-14
 0.10658E-13 0.12580E-11 0.14324E-11 0.30764E-12 0.25535E-14 0.27311E-12 0.91382E-12 0.16554E-11 0.10071E-12 0.19453E-10
 0.11297E-13 0.11636E-11 0.10236E-12 0.23537E-13 0.94369E-15 0.22066E-13 0.17590E-12 0.86578E-12 0.34861E-13 0.41057E-12
 0.80214E-14 0.88433E-12 0.22926E-13 0.19151E-14 0.72164E-15 0.25618E-13 0.89470E-12 0.29177E-11 0.30308E-12 0.82527E-09
 0.74940E-15 0.56899E-14 0.11657E-14 0.83267E-15 0.15682E-14 0.36360E-14 0.33723E-14 0.77299E-14 0.10561E-13 0.68973E-14
 0.50931E-14 0.44001E-12 0.18027E-13 0.27076E-13 0.32752E-14 0.10595E-10 0.37967E-12 0.41112E-10 0.16344E-12 0.14623E-11
 0.10519E-13 0.13357E-11 0.18688E-12 0.15616E-11 0.26229E-14 0.94763E-12 0.61624E-12 0.20556E-12 0.55206E-13 0.61653E-12
 0.75495E-14 0.10564E-10 0.53330E-12 0.26367E-11 0.45380E-14 0.17365E-09 0.15080E-12 0.44473E-12 0.22898E-12 0.62717E-11
 0.26923E-14 0.24920E-12 0.27187E-13 0.33587E-12 0.68001E-14 0.66946E-13 0.34778E-13 0.23595E-12 0.24847E-12 0.11477E-12
 0.45242E-14 0.11583E-09 0.97658E-13 0.93026E-11 0.57454E-14 0.20042E-10 0.11693E-12 0.84685E-10 0.18420E-12 0.27768E-11
 0.14572E-14 0.17764E-14 0.25258E-14 0.17208E-14 0.16653E-15 0.16098E-14 0.20817E-14 0.16653E-14 0.95757E-15 0.15682E-14
 0.28588E-14 0.86488E-12 0.24630E-11 0.20553E-12 0.18041E-14 0.12992E-12 0.19955E-11 0.16921E-11 0.94286E-13 0.31315E-10
 0.30531E-14 0.19494E-11 0.69666E-13 0.82434E-14 0.38858E-15 0.79936E-14 0.14230E-12 0.87946E-12 0.33515E-13 0.45007E-12
 0.23315E-14 0.48721E-12 0.85210E-14 0.58287E-15 0.33307E-15 0.92842E-14 0.47762E-11 0.29764E-11 0.32246E-12 0.43516E-08
 0.26368E-15 0.33168E-14 0.54123E-15 0.18041E-15 0.68001E-15 0.23176E-14 0.26923E-14 0.40939E-14 0.59813E-14 0.36776E-14
 0.16237E-14 0.18028E-12 0.73136E-14 0.93398E-14 0.19984E-14 0.87284E-11 0.94955E-12 0.20928E-11 0.67668E-13 0.16515E-11
 0.22760E-14 0.59869E-11 0.12682E-12 0.92358E-11 0.20817E-14 0.11827E-11 0.16730E-12 0.30670E-13 0.38469E-13 0.95642E-12
 0.22621E-14 0.80057E-11 0.55876E-12 0.27612E-11 0.26368E-14 0.11722E-11 0.28783E-13 0.34445E-13 0.81046E-13 0.31080E-11
 0.10131E-14 0.21171E-12 0.26076E-13 0.33325E-12 0.38303E-14 0.34084E-13 0.27034E-13 0.78021E-13 0.20817E-12 0.10339E-12
 0.15404E-14 0.43694E-09 0.12207E-12 0.21334E-10 0.31364E-14 0.15634E-10 0.21383E-12 0.12433E-10 0.15776E-12 0.11948E-11
 0.49960E-15 0.66613E-15 0.11657E-14 0.69389E-15 0.11102E-15 0.61062E-15 0.66613E-15 0.58287E-15 0.51348E-15 0.56899E-15
 0.95757E-15 0.64483E-12 0.76855E-11 0.17294E-12 0.11102E-14 0.76356E-13 0.37771E-11 0.18070E-11 0.11596E-12 0.36958E-10
 0.12768E-14 0.54924E-11 0.61340E-13 0.61617E-14 0.33307E-15 0.58287E-14 0.11283E-12 0.10829E-11 0.36957E-13 0.41456E-12
 0.88818E-15 0.34399E-12 0.62728E-14 0.41633E-15 0.24980E-15 0.62450E-14 0.20125E-09 0.29194E-11 0.24178E-12 0.21883E-09
 0.12490E-15 0.21511E-14 0.37470E-15 0.97145E-16 0.55511E-15 0.16237E-14 0.23870E-14 0.26090E-14 0.41633E-14 0.24633E-14
 0.61062E-15 0.10178E-12 0.51764E-14 0.61479E-14 0.14294E-14 0.68704E-11 0.19349E-11 0.40586E-12 0.43063E-13 0.15695E-11
 0.77716E-15 0.25485E-10 0.87125E-13 0.16457E-09 0.19151E-14 0.93560E-12 0.61215E-13 0.87291E-14 0.27534E-13 0.88510E-12
 0.76328E-15 0.62682E-11 0.67243E-12 0.27473E-11 0.18874E-14 0.34697E-12 0.87153E-14 0.94647E-14 0.48878E-13 0.16435E-11
 0.48572E-15 0.24120E-12 0.29671E-13 0.27039E-12 0.29143E-14 0.27228E-13 0.23176E-13 0.48545E-13 0.23831E-12 0.81199E-13
 0.63838E-15 0.32635E-09 0.12611E-12 0.56355E-10 0.21927E-14 0.10348E-08 0.38708E-12 0.35197E-11 0.11852E-12 0.71101E-12
 0.31919E-15 0.36082E-15 0.44409E-15 0.38858E-15 0.83267E-16 0.30531E-15 0.33307E-15 0.38858E-15 0.22204E-15 0.33307E-15
 0.61062E-15 0.46965E-12 0.14947E-09 0.12959E-12 0.91593E-15 0.44437E-13 0.14941E-11 0.18983E-11 0.91926E-13 0.67608E-10
 0.52736E-15 0.41728E-10 0.49849E-13 0.32196E-14 0.24980E-15 0.33307E-14 0.66669E-13 0.11954E-11 0.29851E-13 0.39319E-12
 0.41633E-15 0.23004E-12 0.34694E-14 0.22204E-15 0.16653E-15 0.33862E-14 0.21953E-10 0.29558E-11 0.25432E-12 0.71926E-10
 0.69389E-16 0.14294E-14 0.24980E-15 0.27756E-16 0.29837E-15 0.11657E-14 0.18596E-14 0.18874E-14 0.27478E-14 0.17208E-14
 0.35388E-15 0.57988E-13 0.30392E-14 0.33099E-14 0.10408E-14 0.66523E-11 0.70910E-12 0.75523E-13 0.18568E-13 0.38669E-11
 0.38164E-15 0.50275E-11 0.52597E-13 0.96278E-11 0.14849E-14 0.28058E-12 0.14058E-13 0.24702E-14 0.97700E-14 0.29728E-12
 0.43021E-15 0.49713E-11 0.78172E-12 0.28276E-11 0.13323E-14 0.70166E-13 0.25258E-14 0.27756E-14 0.19582E-13 0.11919E-11
 0.23592E-15 0.17819E-12 0.24064E-13 0.26720E-12 0.19429E-14 0.13101E-13 0.88263E-14 0.19262E-13 0.19643E-12 0.73525E-13
 0.30531E-15 0.19984E-08 0.13228E-12 0.20671E-08 0.14710E-14 0.79486E-11 0.24752E-12 0.20105E-11 0.10268E-12 0.46341E-12
 0.18041E-15 0.19429E-15 0.27756E-15 0.22204E-15  0.0000     0.47184E-15 0.55511E-16 0.13878E-15 0.22204E-15 0.20817E-15
 0.34694E-15 0.35894E-12 0.29091E-10 0.10733E-12 0.58287E-15 0.28311E-13 0.51636E-12 0.19386E-11 0.10507E-12 0.59459E-10
 0.30531E-15 0.72590E-10 0.37997E-13 0.21649E-14 0.24980E-15 0.19984E-14 0.34209E-13 0.14761E-11 0.31961E-13 0.39250E-12
 0.19429E-15 0.17423E-12 0.22204E-14 0.15266E-15 0.11102E-15 0.20955E-14 0.20195E-11 0.28828E-11 0.22664E-12 0.34546E-10
 0.55511E-16 0.94369E-15 0.16653E-15 -.13878E-16 0.26368E-15 0.83267E-15 0.15335E-14 0.12074E-14 0.18041E-14 0.11796E-14
 0.23592E-15 0.36492E-13 0.18804E-14 0.19429E-14 0.79103E-15 0.54845E-11 0.25230E-12 0.29712E-13 0.10450E-13 0.92731E-11
 0.15266E-15 0.97180E-12 0.26978E-13 0.12635E-11 0.12906E-14 0.11520E-12 0.52736E-14 0.98532E-15 0.44964E-14 0.11901E-12
 0.24980E-15 0.40394E-11 0.97275E-12 0.27840E-11 0.95757E-15 0.30170E-13 0.10270E-14 0.12212E-14 0.10839E-13 0.83053E-12
 0.11102E-15 0.18298E-12 0.26271E-13 0.23101E-12 0.13600E-14 0.82712E-14 0.43299E-14 0.10880E-13 0.16703E-12 0.61007E-13
 0.23592E-15 0.38248E-09 0.15198E-12 0.31046E-09 0.11657E-14 0.35388E-11 0.13062E-12 0.12143E-11 0.82725E-13 0.32516E-12
 0.16653E-15 0.83267E-16 0.83267E-16 -.27756E-16 0.83267E-16 0.16653E-15 0.16653E-15 0.11102E-15 0.16653E-15 0.90206E-16
 0.30531E-15 0.28141E-12 0.59170E-11 0.85626E-13 0.52736E-15 0.19013E-13 0.17680E-12 0.18912E-11 0.95729E-13 0.52161E-10
 0.13878E-15 0.87671E-11 0.32412E-13 0.15543E-14 0.16653E-15 0.15266E-14 0.21080E-13 0.14547E-11 0.27159E-13 0.38187E-12
 0.12490E-15 0.12884E-12 0.16098E-14 0.76328E-16  0.0000     0.15023E-14 0.37700E-12 0.28772E-11 0.16302E-12 0.20128E-10
 0.34694E-16 0.63838E-15 0.13704E-15 0.27756E-16 0.14572E-15 0.68695E-15 0.12351E-14 0.80491E-15 0.12351E-14 0.78410E-15
 0.12490E-15 0.24349E-13 0.14364E-14 0.14017E-14 0.51348E-15 0.67954E-11 0.80685E-13 0.14301E-13 0.63630E-14 0.39459E-10
 0.62450E-16 0.25246E-12 0.17215E-13 0.27413E-12 0.11241E-14 0.45769E-13 0.23592E-14 0.45797E-15 0.21927E-14 0.46144E-13
 0.11796E-15 0.33361E-11 0.10241E-11 0.28012E-11 0.73552E-15 0.14086E-13 0.55511E-15 0.55511E-15 0.63768E-14 0.69869E-12
 0.16653E-15 0.15157E-12 0.22995E-13 0.16510E-12 0.99920E-15 0.52180E-14 0.19984E-14 0.62450E-14 0.13789E-12 0.46220E-13
 0.69389E-16 0.23718E-09 0.16745E-12 0.58465E-10 0.74940E-15 0.89578E-12 0.52722E-13 0.96956E-12 0.60930E-13 0.24007E-12
 0.13878E-16 0.69389E-16 0.97145E-16 0.27756E-16 0.27756E-16 0.83267E-16 0.83267E-16 0.48572E-16 0.19429E-15 0.10408E-15
 0.15266E-15 0.22358E-12 0.19308E-11 0.69389E-13 0.48572E-15 0.15550E-13 0.69736E-13 0.18436E-11 0.12690E-12 0.45217E-10
 0.12490E-15 0.23295E-11 0.27617E-13 0.91593E-15 0.14572E-15 0.10755E-14 0.12421E-13 0.20766E-11 0.31447E-13 0.45117E-12
 0.83267E-16 0.10019E-12 0.11519E-14 0.11102E-15 0.58981E-16 0.97838E-15 0.11564E-12 0.28207E-11 0.17506E-12 0.12975E-10
 0.69389E-16 0.57593E-15 0.16306E-15  0.0000     0.18822E-15 0.49960E-15 0.11172E-14 0.67307E-15 0.10270E-14 0.70777E-15
 0.97145E-16 0.19776E-13 0.99920E-15 0.94716E-15 0.55511E-15 0.55317E-11 0.39420E-13 0.73552E-14 0.39344E-14 0.53693E-11
 0.11102E-15 0.85994E-13 0.10381E-13 0.92211E-13 0.10200E-14 0.25251E-13 0.13184E-14 0.22898E-15 0.14086E-14 0.24432E-13
 0.97145E-16 0.27961E-11 0.14116E-11 0.27781E-11 0.61756E-15 0.75773E-14 0.33307E-15 0.37470E-15 0.38997E-14 0.53802E-12
 0.97145E-16 0.18480E-12 0.27325E-13 0.17856E-12 0.83267E-15 0.33168E-14 0.13878E-14 0.39274E-14 0.11786E-12 0.45838E-13
 0.97145E-16 0.11781E-09 0.22406E-12 0.21663E-10 0.66613E-15 0.61806E-12 0.27929E-13 0.68633E-12 0.56948E-13 0.18366E-12
 0.69389E-16 0.90206E-16 -.27756E-16 0.13878E-16 0.97145E-16 0.69389E-16 0.27756E-16 0.20817E-16 0.48572E-16 -.34694E-16
 0.27756E-16 0.17751E-12 0.12198E-11 0.56712E-13 0.31225E-15 0.92495E-14 0.34500E-13 0.17452E-11 0.84717E-13 0.23823E-10
 0.83267E-16 0.13860E-11 0.19026E-13 0.70083E-15 0.55511E-16 0.72511E-15 0.63630E-14 0.20459E-11 0.23856E-13 0.33731E-12
  0.0000     0.78701E-13 0.79797E-15 0.38164E-16 0.86736E-16 0.70083E-15 0.46400E-13 0.27982E-11 0.12505E-12 0.91167E-11
 0.27756E-16 0.36082E-15 0.48572E-16  0.0000     0.20817E-16 0.38858E-15 0.72858E-15 0.45103E-15 0.62450E-15 0.43715E-15
 0.11102E-15 0.11581E-13 0.69042E-15 0.60368E-15 0.37470E-15 0.91977E-11 0.15786E-13 0.38164E-14 0.22413E-14 0.70105E-12
 0.10408E-15 0.38469E-13 0.53221E-14 0.38330E-13 0.75634E-15 0.11838E-13 0.59674E-15 0.55511E-16 0.69389E-15 0.11310E-13
 0.90206E-16 0.23403E-11 0.13880E-11 0.27667E-11 0.45103E-15 0.38580E-14 0.19429E-15 0.15266E-15 0.23037E-14 0.49099E-12
 0.69389E-16 0.11019E-12 0.21663E-13 0.13230E-12 0.58287E-15 0.20262E-14 0.61062E-15 0.21927E-14 0.77501E-13 0.35340E-13
 0.41633E-16 0.37226E-10 0.18999E-12 0.11876E-10 0.47878E-15 0.17971E-12 0.12074E-13 0.61226E-12 0.42855E-13 0.14783E-12
 0.83267E-16 0.83267E-16 0.55511E-16 0.41633E-16 0.62450E-16 0.18735E-15 0.83267E-16 0.20817E-16 0.17347E-15 -.27756E-16
 0.13878E-15 0.14315E-12 0.72155E-12 0.47760E-13 0.31919E-15 0.84724E-14 0.18520E-13 0.16340E-11 0.97103E-13 0.12993E-10
 0.41633E-16 0.77147E-12 0.17528E-13 0.49266E-15 0.15266E-15 0.72164E-15 0.47531E-14 0.27829E-11 0.27922E-13 0.36556E-12
 0.34694E-16 0.64261E-13 0.68001E-15 0.83267E-16 0.20817E-16 0.63838E-15 0.23266E-13 0.27083E-11 0.12235E-12 0.66997E-11
 0.62450E-16 0.29837E-15 0.13878E-16 0.13878E-15 0.16653E-15 0.29143E-15 0.70083E-15 0.37470E-15 0.58287E-15 0.38858E-15
 0.13184E-15 0.10672E-13 0.67307E-15 0.54817E-15 0.32613E-15 0.82277E-11 0.10256E-13 0.32266E-14 0.19568E-14 0.39733E-12
 0.69389E-16 0.20206E-13 0.42397E-14 0.20893E-13 0.63144E-15 0.81879E-14 0.56899E-15 0.11102E-15 0.61756E-15 0.73760E-14
 0.48572E-16 0.19921E-11 0.18434E-11 0.26777E-11 0.38858E-15 0.33099E-14 0.20123E-15 0.11102E-15 0.20192E-14 0.40137E-12
 0.62450E-16 0.12292E-12 0.25091E-13 0.13563E-12 0.44409E-15 0.17833E-14 0.55511E-15 0.18457E-14 0.79284E-13 0.33799E-13
 0.69389E-16 0.15866E-10 0.22533E-12 0.77005E-11 0.38858E-15 0.14959E-12 0.78618E-14 0.48447E-12 0.39045E-13 0.12081E-12
 0.69389E-17  0.0000      0.0000     -.12490E-15 0.20817E-16 -.48572E-16 -.62450E-16 0.55511E-16 0.34694E-16 0.34694E-16
 0.13878E-16 0.11779E-12 0.51108E-12 0.38899E-13 0.25674E-15 0.57454E-14 0.10839E-13 0.14903E-11 0.92558E-13 0.88328E-11
 0.55511E-16 0.52669E-12 0.13718E-13 0.36776E-15 -.76328E-16 0.51348E-15 0.29282E-14 0.27955E-11 0.26111E-13 0.35282E-12
 0.69389E-17 0.51806E-13 0.49266E-15 0.41633E-16 -.48572E-16 0.42327E-15 0.12421E-13 0.26792E-11 0.10222E-12 0.50276E-11
 -.55511E-16 0.16653E-15 0.62450E-16 0.69389E-16 0.69389E-16 0.31919E-15 0.58981E-15 0.31225E-15 0.41633E-15 0.31225E-15
 0.20817E-16 0.72720E-14 0.45103E-15 0.40246E-15 0.24980E-15 0.14551E-10 0.56205E-14 0.17278E-14 0.11449E-14 0.18312E-12
 0.69389E-16 0.11734E-13 0.27131E-14 0.11574E-13 0.57593E-15 0.47323E-14 0.26368E-15  0.0000     0.26368E-15 0.44686E-14
 0.13878E-16 0.17088E-11 0.20127E-11 0.26552E-11 0.37470E-15 0.18874E-14 0.55511E-16 -.69389E-17 0.11588E-14 0.37031E-12
 0.13878E-16 0.10741E-12 0.23898E-13 0.10620E-12 0.42327E-15 0.11310E-14 0.23592E-15 0.10755E-14 0.58994E-13 0.27402E-13
 -.20817E-16 0.87072E-11 0.24006E-12 0.52964E-11 0.15266E-15 0.70534E-13 0.44340E-14 0.43716E-12 0.30857E-13 0.99906E-13
 0.69389E-16 -.27756E-16 0.69389E-17 -.41633E-16 -.69389E-16 -.76328E-16 -.62450E-16 -.34694E-16 0.76328E-16 -.13878E-16
 0.90206E-16 0.94993E-13 0.36744E-12 0.32141E-13 0.14572E-15 0.47462E-14 0.62311E-14 0.13544E-11 0.86008E-13 0.31029E-11
 0.12490E-15 0.36679E-12 0.11935E-13 0.20817E-15 0.48572E-16 0.35388E-15 0.21858E-14 0.34668E-11 0.22163E-13 0.35476E-12
 -.13878E-16 0.42404E-13 0.37470E-15 0.69389E-17 -.76328E-16 0.37470E-15 0.71956E-14 0.25025E-11 0.85765E-13 0.39404E-11
 0.20817E-16 0.10408E-15 0.76328E-16 -.27756E-16 0.62450E-16 0.23592E-15 0.38858E-15 0.23592E-15 0.34694E-15 0.21511E-15
 0.41633E-16 0.59674E-14 0.33307E-15 0.23592E-15 0.10408E-15 0.17358E-10 0.35111E-14 0.12906E-14 0.94369E-15 0.10018E-12
 -.69389E-17 0.68140E-14 0.20192E-14 0.67654E-14 0.40939E-15 0.31364E-14 0.16653E-15 -.69389E-17 0.17347E-15 0.27270E-14
 0.27756E-16 0.14676E-11 0.24408E-11 0.24533E-11 0.29837E-15 0.14988E-14 0.48572E-16 -.27756E-16 0.96451E-15 0.33366E-12
 0.41633E-16 0.94841E-13 0.20699E-13 0.88839E-13 0.29143E-15 0.80491E-15 0.19429E-15 0.80491E-15 0.55525E-13 0.23918E-13
 0.76328E-16 0.29317E-11 0.26884E-12 0.40785E-11 0.90206E-16 0.47309E-13 0.26645E-14 0.40234E-12 0.26208E-13 0.85140E-13
  0.0000     -.48572E-16 -.69389E-17 0.55511E-16 0.83267E-16 -.34694E-16 -.27756E-16 -.13878E-16 0.55511E-16 0.27756E-16
 0.69389E-16 0.79409E-13 0.25840E-12 0.27076E-13 0.27756E-15 0.40523E-14 0.44201E-14 0.12203E-11 0.83503E-13 0.21572E-11
 0.62450E-16 0.25856E-12 0.99920E-14 0.15959E-15 0.27756E-16 0.34001E-15 0.14849E-14 0.49502E-11 0.24571E-13 0.35273E-12
 -.13878E-16 0.34882E-13 0.22204E-15 0.69389E-17  0.0000     0.27756E-15 0.44270E-14 0.24660E-11 0.85300E-13 0.31241E-11
 -.27756E-16 0.17347E-15 0.34694E-16 0.55511E-16 -.13878E-16 0.18735E-15 0.34694E-15 0.15266E-15 0.25674E-15 0.12490E-15
 0.27756E-16 0.49821E-14 0.27062E-15 0.20817E-15 0.15959E-15 0.24036E-10 0.24009E-14 0.96451E-15 0.69042E-15 0.73372E-13
 0.83267E-16 0.45519E-14 0.14433E-14 0.44686E-14 0.35388E-15 0.22829E-14 0.17347E-15 -.17347E-16 0.19776E-15 0.20886E-14
 0.20817E-16 0.12734E-11 0.39406E-11 0.24191E-11 0.24980E-15 0.99920E-15 0.46838E-16 0.93675E-16 0.66613E-15 0.31902E-12
 0.69389E-16 0.87659E-13 0.22857E-13 0.84835E-13 0.26368E-15 0.64185E-15 0.15266E-15 0.65919E-15 0.35909E-13 0.21400E-13
 0.34694E-16 0.18191E-11 0.28825E-12 0.31076E-11 0.23592E-15 0.33529E-13 0.19984E-14 0.37047E-12 0.23009E-13 0.72345E-13
 -.55511E-16 -.55511E-16 -.27756E-16 -.10408E-15 -.17347E-15 -.20123E-15 -.83267E-16 -.69389E-16 0.69389E-17 -.55511E-16
 0.27756E-16 0.63456E-13 0.19814E-12 0.22940E-13 0.76328E-16 0.25882E-14 0.28796E-14 0.10798E-11 0.61971E-13 0.92025E-12
 -.13878E-16 0.19305E-12 0.77369E-14 0.10408E-15  0.0000     0.10408E-15 0.10408E-14 0.82229E-11 0.18291E-13 0.28430E-12
 -.27756E-16 0.29511E-13 0.16653E-15 -.55511E-16 -.27756E-16 0.16653E-15 0.30045E-14 0.23076E-11 0.70256E-13 0.25514E-11
 -.13878E-16 0.27756E-16  0.0000     0.55511E-16 -.41633E-16 0.11102E-15 0.33307E-15 0.83267E-16 0.14572E-15 0.12490E-15
 0.27756E-16 0.32543E-14 0.10408E-15 0.18735E-15 0.41633E-16 0.69156E-10 0.14294E-14 0.56205E-15 0.39552E-15 0.37977E-13
 -.69389E-16 0.30323E-14 0.97145E-15 0.29698E-14 0.29143E-15 0.13392E-14 0.48572E-16 -.78063E-16 0.52042E-17 0.12386E-14
 -.27756E-16 0.10971E-11 0.61834E-11 0.22308E-11 0.13878E-15 0.71124E-15 0.34694E-16 -.20817E-16 0.41633E-15 0.28962E-12
 -.27756E-16 0.61548E-13 0.17389E-13 0.69902E-13 0.24286E-16 0.38164E-15 0.17347E-15 0.39552E-15 0.28800E-13 0.18499E-13
 0.13878E-16 0.78866E-12 0.24784E-12 0.25668E-11 -.27756E-16 0.19266E-13 0.10894E-14 0.34452E-12 0.19068E-13 0.64129E-13
 0.55511E-16 -.69389E-17 0.27756E-16 0.11102E-15 0.11102E-15 0.11102E-15  0.0000      0.0000     0.34694E-16 -.41633E-16
 0.12490E-15 0.53992E-13 0.16412E-12 0.17979E-13 0.24286E-15 0.25535E-14 0.18388E-14 0.95239E-12 0.70541E-13 0.65926E-12
 0.27756E-16 0.15937E-12 0.65573E-14 0.18735E-15 -.13878E-16 0.28449E-15 0.80491E-15 0.83432E-11 0.21247E-13 0.29314E-12
 -.13878E-16 0.23016E-13 0.17347E-15 0.55511E-16 0.48572E-16 0.22204E-15 0.18457E-14 0.22386E-11 0.63935E-13 0.20848E-11
 0.55511E-16 0.13184E-15 -.41633E-16 0.69389E-17 -.41633E-16 0.14572E-15 0.23592E-15 0.69389E-16 0.13531E-15 0.79797E-16
 0.13878E-15 0.31850E-14 0.20123E-15 0.19429E-15 0.14572E-15 0.16347E-09 0.13600E-14 0.57419E-15 0.36082E-15 0.37121E-13
 0.34694E-16 0.18804E-14 0.77716E-15 0.18249E-14 0.28449E-15 0.13045E-14 0.88471E-16 -.27756E-16 0.12056E-15 0.11761E-14
 0.55511E-16 0.96034E-12 0.70805E-11 0.21547E-11 0.13184E-15 0.66093E-15 0.83267E-16 0.11276E-16 0.38164E-15 0.26238E-12
 0.83267E-16 0.67765E-13 0.20373E-13 0.64712E-13 0.17347E-15 0.43715E-15 0.21641E-15 0.52736E-15 0.22246E-13 0.16390E-13
 0.34694E-16 0.52833E-12 0.26748E-12 0.20896E-11 0.16653E-15 0.17160E-13 0.10131E-14 0.29698E-12 0.16535E-13 0.55636E-13
 -.55511E-16 -.13878E-16 -.27756E-16 -.97145E-16 -.97145E-16 -.55511E-16 -.20123E-15 0.27756E-16 -.55511E-16 0.83267E-16
  0.0000     0.44215E-13 0.12746E-12 0.16438E-13 -.76328E-16 0.20817E-14 0.13115E-14 0.83264E-12 0.62575E-13 0.30687E-12
 0.83267E-16 0.12243E-12 0.67446E-14 0.15266E-15 -.41633E-16 0.18041E-15 0.74940E-15 0.15786E-10 0.17444E-13 0.26726E-12
 -.20817E-16 0.20733E-13 0.13184E-15 0.27756E-16 -.55511E-16 0.13878E-15 0.13947E-14 0.21370E-11 0.55185E-13 0.17250E-11
 0.41633E-16 0.55511E-16 -.55511E-16 -.27756E-16 0.27756E-16 0.69389E-16 0.21511E-15 0.76328E-16 0.69389E-16 0.15266E-15
 0.55511E-16 0.24980E-14 0.18041E-15 0.19429E-15 0.97145E-16 0.32886E-08 0.83267E-15 0.38511E-15 0.30531E-15 0.20046E-13
 0.48572E-16 0.15890E-14 0.68001E-15 0.14433E-14 0.21511E-15 0.76328E-15 0.10755E-15 -.83267E-16 0.12143E-16 0.73552E-15
 0.55511E-16 0.83702E-12 0.13516E-10 0.20296E-11 0.48572E-16 0.47878E-15 0.83267E-16 -.52042E-17 0.27756E-15 0.24498E-12
 -.13878E-16 0.56739E-13 0.16820E-13 0.55317E-13 0.45103E-16 0.36082E-15 0.41633E-16 0.24980E-15 0.23693E-13 0.14516E-13
 0.13878E-15 0.25327E-12 0.25570E-12 0.17787E-11 0.83267E-16 0.10339E-13 0.57593E-15 0.28121E-12 0.14364E-13 0.49745E-13
  0.0000     0.55511E-16 0.13878E-16 0.13878E-16 -.11102E-15 0.97145E-16 0.16653E-15  0.0000     0.27756E-16 -.55511E-16
 0.83267E-16 0.37359E-13 0.10707E-12 0.13878E-13  0.0000     0.16376E-14 0.11727E-14 0.72850E-12 0.57412E-13 0.20116E-12
 0.27756E-16 0.10099E-12 0.46352E-14 0.13878E-15  0.0000     0.19429E-15 0.55511E-15 0.31919E-10 0.20151E-13 0.25319E-12
 -.41633E-16 0.17736E-13 0.18041E-15 0.83267E-16 0.13878E-16 0.18041E-15 0.11657E-14 0.20703E-11 0.53110E-13 0.14384E-11
 -.41633E-16 0.10408E-15 -.55511E-16  0.0000     -.27756E-16 0.12490E-15 0.16653E-15 0.83267E-16 0.97145E-16 0.83267E-16
 -.13878E-16 0.19984E-14 0.18041E-15 0.55511E-16 0.97145E-16 0.10126E-09 0.72164E-15 0.36776E-15 0.26368E-15 0.18430E-13
 -.27756E-16 0.11588E-14 0.38858E-15 0.10270E-14 0.13878E-15 0.73552E-15 0.15959E-15 0.27756E-16 0.45103E-16 0.72164E-15
 0.13878E-16 0.73436E-12 0.28408E-10 0.19543E-11 0.83267E-16 0.32613E-15 -.13878E-16 0.65919E-16 0.31919E-15 0.23261E-12
 0.13878E-16 0.49877E-13 0.19901E-13 0.53041E-13 0.14572E-15 0.38858E-15 0.14572E-15 0.31919E-15 0.17639E-13 0.13406E-13
 -.27756E-16 0.16848E-12 0.25280E-12 0.14954E-11 0.19429E-15 0.95410E-14 0.52736E-15 0.28081E-12 0.12879E-13 0.43895E-13
 -.41633E-16 -.41633E-16 0.13878E-16 -.18041E-15 -.55511E-16 -.83267E-16 0.27756E-16 -.55511E-16 0.27756E-16 0.13878E-16
 0.69389E-16 0.30254E-13 0.87014E-13 0.11907E-13 -.12490E-15 0.12212E-14 0.80491E-15 0.62853E-12 0.46560E-13 0.13871E-12
 0.13878E-16 0.81810E-13 0.46352E-14 0.83267E-16 -.69389E-16 0.15266E-15 0.41633E-15 0.94364E-10 0.15085E-13 0.20474E-12
  0.0000     0.15377E-13 0.18041E-15 -.27756E-16 -.11102E-15 0.69389E-16 0.83267E-15 0.19317E-11 0.43535E-13 0.12163E-11
 0.13878E-16 0.83267E-16 -.27756E-16 -.27756E-16 -.27756E-16 0.27756E-16 0.13878E-15 0.83267E-16 0.83267E-16 0.11102E-15
  0.0000     0.16931E-14 0.83267E-16 0.83267E-16 0.55511E-16 0.34107E-10 0.48572E-15 0.23592E-15 0.19429E-15 0.11671E-13
 0.41633E-16 0.87430E-15 0.43021E-15 0.83267E-15 0.11102E-15 0.48572E-15 0.12490E-15  0.0000      0.0000     0.47184E-15
 -.41633E-16 0.64015E-12 0.10268E-09 0.17919E-11 0.55511E-16 0.31919E-15 -.83267E-16 -.97145E-16 0.20817E-15 0.21697E-12
 -.41633E-16 0.39732E-13 0.14710E-13 0.42466E-13 0.69389E-16 0.19429E-15 -.69389E-16 0.23592E-15 0.14239E-13 0.11241E-13
 -.69389E-16 0.11757E-12 0.20761E-12 0.13093E-11 -.55511E-16 0.62728E-14 0.16653E-15 0.26214E-12 0.10714E-13 0.40495E-13
  0.0000     -.13878E-16 0.13878E-16 -.27756E-16  0.0000     0.41633E-16 -.97145E-16 0.27756E-16 -.27756E-16 0.13878E-16
 0.13878E-16 0.25674E-13 0.72109E-13 0.11005E-13 0.13878E-16 0.12212E-14 0.76328E-15 0.54882E-12 0.41911E-13 0.85904E-13
 0.27756E-16 0.67793E-13 0.37748E-14 0.83267E-16 -.13878E-16 0.13878E-16 0.37470E-15 0.11012E-07 0.17639E-13 0.18088E-12
  0.0000     0.13919E-13 0.13878E-15  0.0000     -.83267E-16 0.15266E-15 0.76328E-15 0.18738E-11 0.40648E-13 0.10238E-11
 -.27756E-16 0.27756E-16 -.69389E-16 -.41633E-16 -.27756E-16 0.11102E-15 0.97145E-16 0.83267E-16 0.27756E-16 0.97145E-16
 -.13878E-16 0.14710E-14 0.55511E-16 -.13878E-16 0.27756E-16 0.10077E-10 0.45797E-15 0.20817E-15 0.18041E-15 0.10741E-13
 -.13878E-16 0.87430E-15 0.27756E-15 0.68001E-15 0.97145E-16 0.49960E-15 0.83267E-16 -.27756E-16 -.27756E-16 0.44409E-15
 -.55511E-16 0.56251E-12 0.28090E-08 0.17292E-11 0.83267E-16 0.29143E-15 0.13878E-16 0.55511E-16 0.19429E-15 0.20420E-12
 -.27756E-16 0.34112E-13 0.17944E-13 0.41189E-13 -.13878E-16 0.18041E-15 0.41633E-16 0.23592E-15 0.13309E-13 0.10575E-13
 0.83267E-16 0.74926E-13 0.18544E-12 0.11163E-11  0.0000     0.58842E-14 0.38858E-15 0.25853E-12 0.97700E-14 0.36526E-13
 0.27756E-16 -.69389E-17 0.41633E-16 0.27756E-16 -.55511E-16 0.27756E-16 0.97145E-16 -.55511E-16 0.69389E-16 -.55511E-16
 0.83267E-16 0.21219E-13 0.61229E-13 0.91455E-14 0.13878E-15 0.10270E-14 0.58287E-15 0.47173E-12 0.39385E-13 0.58203E-13
 0.83267E-16 0.57288E-13 0.36360E-14 0.83267E-16 -.27756E-16 0.13878E-15 0.27756E-15 0.23207E-09 0.14946E-13 0.15768E-12
 0.55511E-16 0.11657E-13 0.11102E-15  0.0000     -.13878E-16 0.27756E-16 0.47184E-15 0.17236E-11 0.33362E-13 0.87381E-12
 0.13878E-16 0.12490E-15 -.41633E-16 -.13878E-16 -.69389E-16 0.55511E-16 0.55511E-16 0.27756E-16 0.13878E-15 0.55511E-16
 0.27756E-16 0.12490E-14 0.55511E-16 0.27756E-16 -.55511E-16 0.10795E-10 0.27756E-15 0.19429E-15 0.12490E-15 0.85487E-14
 0.13878E-16 0.59674E-15 0.24980E-15 0.49960E-15 0.69389E-16 0.33307E-15 0.13878E-15 0.13878E-16 0.27756E-16 0.33307E-15
 -.41633E-16 0.48943E-12 0.14945E-09 0.15678E-11 0.41633E-16 0.27756E-15 -.27756E-16 0.55511E-16 0.13878E-15 0.17869E-12
  0.0000     0.31211E-13 0.15044E-13 0.33598E-13 0.13878E-15 0.12490E-15 0.41633E-16 0.20817E-15 0.11185E-13 0.88957E-14
 0.55511E-16 0.49571E-13 0.15901E-12 0.98556E-12 0.27756E-16 0.45519E-14 0.24980E-15 0.22449E-12 0.82157E-14 0.33640E-13
 -.55511E-16 0.38164E-16 -.55511E-16 -.41633E-16 -.69389E-16 -.13878E-16 -.27756E-16 0.27756E-16 0.69389E-17 0.69389E-17
 0.41633E-16 0.17666E-13 0.51778E-13 0.85626E-14 -.13878E-16 0.94369E-15 0.54123E-15 0.40849E-12 0.31766E-13 0.32988E-13
 0.69389E-16 0.48433E-13 0.33307E-14  0.0000     -.12490E-15 0.12490E-15 0.23592E-15 0.45422E-10 0.12018E-13 0.12797E-12
 -.27756E-16 0.10755E-13 0.69389E-16 0.55511E-16 -.27756E-16 0.69389E-16 0.44409E-15 0.16283E-11 0.26673E-13 0.74202E-12
 -.69389E-16 0.27756E-16 0.13878E-16 -.13878E-16 -.12490E-15 0.97145E-16 0.55511E-16 0.83267E-16 0.11102E-15 0.55511E-16
 0.27756E-16 0.11935E-14 0.55511E-16 0.27756E-16 -.83267E-16 0.36797E-11 0.23592E-15 0.19429E-15 0.13878E-15 0.74246E-14
 -.13878E-16 0.47184E-15 0.19429E-15 0.44409E-15 0.83267E-16 0.27756E-15 -.41633E-16 0.83267E-16 -.27756E-16 0.33307E-15
 -.13878E-16 0.42960E-12 0.34497E-10 0.14666E-11 0.83267E-16 0.24980E-15  0.0000     0.55511E-16 0.15266E-15 0.17678E-12
 0.27756E-16 0.24848E-13 0.12434E-13 0.27631E-13 0.15266E-15 0.15266E-15 -.13878E-16 0.16653E-15 0.10436E-13 0.78548E-14
  0.0000     0.28900E-13 0.12767E-12 0.85119E-12 0.13878E-16 0.43299E-14 0.33307E-15 0.22822E-12 0.69944E-14 0.31322E-13
  0.0000     -.10408E-15 0.17347E-16 -.13878E-16 -.13878E-16 0.41633E-16 0.83267E-16 0.27756E-16 0.48572E-16 -.24286E-16
 0.34694E-16 0.14860E-13 0.43639E-13 0.78965E-14 0.55511E-16 0.94369E-15 0.47184E-15 0.35390E-12 0.31287E-13 0.20104E-13
 0.58981E-16 0.41162E-13 0.33168E-14 -.41633E-16 0.55511E-16 0.97145E-16 0.18041E-15 0.15723E-10 0.15214E-13 0.11185E-12
 0.27756E-16 0.99226E-14 0.27756E-16 0.27756E-16 0.11102E-15 0.27756E-16 0.47184E-15 0.15849E-11 0.30725E-13 0.63345E-12
 0.13878E-16 0.27756E-16 -.27756E-16 0.27756E-16 -.41633E-16 0.55511E-16 0.12490E-15 0.55511E-16 0.69389E-16 0.69389E-16
 0.13878E-16 0.11380E-14 0.27756E-16 0.13878E-16  0.0000     0.16427E-10 0.23592E-15 0.11102E-15 0.12490E-15 0.77438E-14
 0.41633E-16 0.44409E-15 0.23592E-15 0.44409E-15 0.41633E-16 0.26368E-15 0.13878E-16 0.27756E-16 0.27756E-16 0.22204E-15
 -.13878E-16 0.37484E-12 0.12461E-10 0.14154E-11 0.41633E-16 0.29143E-15 -.55511E-16 0.13878E-16 0.16653E-15 0.13738E-12
 0.69389E-17 0.23436E-13 0.15876E-13 0.31267E-13 0.69389E-16 0.83267E-16 -.55511E-16 0.11102E-15 0.97561E-14 0.77161E-14
 0.34694E-17 0.17548E-13 0.11105E-12 0.73995E-12 -.41633E-16 0.41217E-14 0.22204E-15 0.16732E-12 0.68556E-14 0.28564E-13
 0.17672E-16 -.30317E-16 -.20708E-16 0.31659E-16 0.42934E-16 0.11276E-15 -.34261E-16 0.57680E-16 -.59740E-16 0.13322E-16
 0.54955E-16 0.12283E-13 0.37126E-13 0.76519E-14 0.14095E-16 0.10131E-14 0.54297E-15 0.30688E-12 0.25343E-13 0.13560E-13
 0.22009E-16 0.35293E-13 0.32192E-14 0.40766E-16 0.18648E-16 0.20817E-16 0.21185E-15 0.84246E-11 0.13463E-13 0.84604E-13
 0.82399E-17 0.94998E-14 0.64944E-16 0.34694E-17 0.25370E-16 0.98879E-16 0.45124E-15 0.14984E-11 0.27589E-13 0.53980E-12