       N       E                     dE             d eps       ncg     rms          rms(c)
DAV:   1     0.197358346774E+03    0.19736E+03   -0.13886E+04  3020   0.920E+02
DAV:   2    -0.105503714059E+02   -0.20791E+03   -0.20182E+03  3072   0.266E+02
DAV:   3    -0.208731290245E+02   -0.10323E+02   -0.10145E+02  3220   0.787E+01
DAV:   4    -0.209957703499E+02   -0.12264E+00   -0.12213E+00  3188   0.775E+00
DAV:   5    -0.209969522868E+02   -0.11819E-02   -0.11819E-02  3276   0.534E-01    0.148E+01
RMM:   6    -0.189185661466E+02    0.20784E+01   -0.44245E+01  3194   0.649E+01    0.746E+00
RMM:   7    -0.170865702236E+02    0.18320E+01   -0.73691E+00  2997   0.275E+01    0.157E+00
RMM:   8    -0.171156927302E+02   -0.29123E-01   -0.13835E-01  3250   0.307E+00    0.198E+00
RMM:   9    -0.170077255868E+02    0.10797E+00   -0.60406E-02  3212   0.187E+00    0.818E-01
RMM:  10    -0.169962857197E+02    0.11440E-01   -0.18114E-02  3196   0.115E+00    0.450E-01
RMM:  11    -0.169906573386E+02    0.56284E-02   -0.10367E-02  3147   0.836E-01    0.126E-01
RMM:  12    -0.169897828927E+02    0.87445E-03   -0.12444E-03  3188   0.299E-01    0.919E-02
RMM:  13    -0.169892589834E+02    0.52391E-03   -0.57844E-04  3140   0.189E-01    0.443E-02
RMM:  14    -0.169891778088E+02    0.81175E-04   -0.22933E-04  3094   0.124E-01    0.261E-02
RMM:  15    -0.169892913762E+02   -0.11357E-03   -0.11357E-04  2996   0.541E-02    0.144E-02
RMM:  16    -0.169894970315E+02   -0.20566E-03   -0.47031E-05  2972   0.358E-02    0.909E-03
RMM:  17    -0.169897298276E+02   -0.23280E-03   -0.49139E-05  2933   0.278E-02    0.588E-03
RMM:  18    -0.169898447450E+02   -0.11492E-03   -0.13413E-05  2448   0.175E-02    0.297E-03
RMM:  19    -0.169899001530E+02   -0.55408E-04   -0.32999E-06  1991   0.879E-03    0.185E-03
RMM:  20    -0.169899310757E+02   -0.30923E-04   -0.14441E-06  1868   0.711E-03    0.850E-04
RMM:  21    -0.169899435519E+02   -0.12476E-04   -0.53090E-07  1819   0.367E-03    0.543E-04
RMM:  22    -0.169899483495E+02   -0.47977E-05   -0.19597E-07  1783   0.269E-03    0.411E-04
RMM:  23    -0.169899497331E+02   -0.13835E-05   -0.78915E-08  1621   0.252E-03    0.481E-04
RMM:  24    -0.169899499067E+02   -0.17361E-06   -0.85411E-09   721   0.136E-03
   1 F= -.16989950E+02 E0= -.16981447E+02  d E =-.170061E-01
