 vasp.5.4.4.18Apr17-6-g9f103f2a35 (build Jun 30 2017 11:15:00) complex          
  
 executed on    STALLO_VASP_5.4.4 date 2019.10.11  10:58:30
 running on    4 total cores
 distrk:  each k-point on    4 cores,    1 groups
 distr:  one band on NCORES_PER_BAND=   2 cores,    2 groups


--------------------------------------------------------------------------------------------------------


 INCAR:
 POTCAR:   PAW_PBE Cu 05Jan2001                   
 POTCAR:   PAW_PBE H 15Jun2001                    
 POTCAR:   PAW_PBE Cu 05Jan2001                   
   VRHFIN =Cu: d10 p1                                                           
   LEXCH  = PE                                                                  
   EATOM  =  1390.9800 eV,  102.2341 Ry                                         
                                                                                
   TITEL  = PAW_PBE Cu 05Jan2001                                                
   LULTRA =        F    use ultrasoft PP ?                                      
   IUNSCR =        1    unscreen: 0-lin 1-nonlin 2-no                           
   RPACOR =    2.000    partial core radius                                     
   POMASS =   63.546; ZVAL   =   11.000    mass and valenz                      
   RCORE  =    2.300    outmost cutoff radius                                   
   RWIGS  =    2.480; RWIGS  =    1.312    wigner-seitz radius (au A)           
   ENMAX  =  273.214; ENMIN  =  204.910 eV                                      
   RCLOC  =    1.712    cutoff for local pot                                    
   LCOR   =        T    correct aug charges                                     
   LPAW   =        T    paw PP                                                  
   EAUG   =  516.456                                                            
   DEXC   =    -.008                                                            
   RMAX   =    2.789    core radius for proj-oper                               
   RAUG   =    1.300    factor for augmentation sphere                          
   RDEP   =    2.302    radius for radial grids                                 
   QCUT   =   -4.481; QGAM   =    8.962    optimization parameters              
                                                                                
   Description                                                                  
     l     E      TYP  RCUT    TYP  RCUT                                        
     2   .000     23  2.300                                                     
     2   .000     23  2.300                                                     
     0   .000     23  2.300                                                     
     0   .000     23  2.300                                                     
     1  -.200     23  2.300                                                     
     1   .000     23  2.300                                                     
     3   .000      7   .000                                                     
  local pseudopotential read in
  partial core-charges read in
  atomic valenz-charges read in
  non local Contribution for L=           2  read in
    real space projection operators read in
  non local Contribution for L=           2  read in
    real space projection operators read in
  non local Contribution for L=           0  read in
    real space projection operators read in
  non local Contribution for L=           0  read in
    real space projection operators read in
  non local Contribution for L=           1  read in
    real space projection operators read in
  non local Contribution for L=           1  read in
    real space projection operators read in
    PAW grid and wavefunctions read in
 
   number of l-projection  operators is LMAX  =           6
   number of lm-projection operators is LMMAX =          18
 
 POTCAR:   PAW_PBE H 15Jun2001                    
   VRHFIN =H: ultrasoft test                                                    
   LEXCH  = PE                                                                  
   EATOM  =    12.4884 eV,     .9179 Ry                                         
                                                                                
   TITEL  = PAW_PBE H 15Jun2001                                                 
   LULTRA =        F    use ultrasoft PP ?                                      
   IUNSCR =        0    unscreen: 0-lin 1-nonlin 2-no                           
   RPACOR =     .000    partial core radius                                     
   POMASS =    1.000; ZVAL   =    1.000    mass and valenz                      
   RCORE  =    1.100    outmost cutoff radius                                   
   RWIGS  =     .700; RWIGS  =     .370    wigner-seitz radius (au A)           
   ENMAX  =  250.000; ENMIN  =  200.000 eV                                      
   RCLOC  =     .701    cutoff for local pot                                    
   LCOR   =        T    correct aug charges                                     
   LPAW   =        T    paw PP                                                  
   EAUG   =  400.000                                                            
   RMAX   =    2.174    core radius for proj-oper                               
   RAUG   =    1.200    factor for augmentation sphere                          
   RDEP   =    1.112    radius for radial grids                                 
   QCUT   =   -5.749; QGAM   =   11.498    optimization parameters              
                                                                                
   Description                                                                  
     l     E      TYP  RCUT    TYP  RCUT                                        
     0   .000     23  1.100                                                     
     0   .500     23  1.100                                                     
     1  -.300     23  1.100                                                     
  local pseudopotential read in
  atomic valenz-charges read in
  non local Contribution for L=           0  read in
    real space projection operators read in
  non local Contribution for L=           0  read in
    real space projection operators read in
  non local Contribution for L=           1  read in
    real space projection operators read in
    PAW grid and wavefunctions read in
 
   number of l-projection  operators is LMAX  =           3
   number of lm-projection operators is LMMAX =           5
 

 ----------------------------------------------------------------------------- 
|                                                                             |
|  ADVICE TO THIS USER RUNNING 'VASP/VAMP'   (HEAR YOUR MASTER'S VOICE ...):  |
|                                                                             |
|      You have a (more or less) 'small supercell' and for smaller cells      |
|      it is recommended  to use the reciprocal-space projection scheme!      |
|      The real space optimization is not  efficient for small cells and it   |
|      is also less accurate ...                                              |
|      Therefore set LREAL=.FALSE. in the  INCAR file                         |
|                                                                             |
 ----------------------------------------------------------------------------- 

 Optimization of the real space projectors (new method)

 maximal supplied QI-value         = 16.25
 optimisation between [QCUT,QGAM] = [  7.96, 16.09] = [ 17.76, 72.49] Ry 
 Optimized for a Real-space Cutoff    1.70 Angstroem

   l    n(q)    QCUT    max X(q) W(low)/X(q) W(high)/X(q)  e(spline) 
   2      7     7.963     4.977    0.65E-04    0.90E-04    0.59E-07
   2      7     7.963    13.467    0.48E-03    0.73E-03    0.12E-06
   0      8     7.963    13.303    0.22E-04    0.12E-04    0.51E-08
   0      8     7.963    44.613    0.10E-03    0.16E-03    0.47E-07
   1      8     7.963     5.276    0.66E-04    0.10E-04    0.22E-07
   1      8     7.963     7.322    0.38E-03    0.18E-03    0.17E-06
 Optimization of the real space projectors (new method)

 maximal supplied QI-value         = 34.20
 optimisation between [QCUT,QGAM] = [  7.87, 16.08] = [ 17.33, 72.37] Ry 
 Optimized for a Real-space Cutoff    1.85 Angstroem

   l    n(q)    QCUT    max X(q) W(low)/X(q) W(high)/X(q)  e(spline) 
   0      9     7.867     4.436    0.44E-04    0.71E-04    0.23E-06
   0      9     7.867    15.341    0.29E-03    0.73E-03    0.99E-06
   1      8     7.867     4.196    0.27E-03    0.13E-02    0.91E-06
 PAW_PBE Cu 05Jan2001                   :
 energy of atom  1       EATOM=-1390.9800
 kinetic energy error for atom=    0.0930 (will be added to EATOM!!)
 PAW_PBE H 15Jun2001                    :
 energy of atom  2       EATOM=  -12.4884
 kinetic energy error for atom=    0.0868 (will be added to EATOM!!)
 
 
 POSCAR: Cu  H                                   
  positions in cartesian coordinates
  velocities in cartesian coordinates
 exchange correlation table for  LEXCH =        8
   RHO(1)=    0.500       N(1)  =     2000
   RHO(2)=  100.500       N(2)  =     4000
 


--------------------------------------------------------------------------------------------------------


 ion  position               nearest neighbor table
   1  0.000  0.000  0.396-   2 2.57   2 2.57   2 2.57
   2  0.333  0.333  0.465-   3 2.57   1 2.57   3 2.57   1 2.57   3 2.57   1 2.57
   3  0.667  0.667  0.535-   4 2.57   2 2.57   2 2.57   4 2.57   2 2.57   4 2.57
   4  0.000  0.000  0.604-   5 1.55   5 1.71   3 2.57   3 2.57   3 2.57
   5  0.461  0.000  0.637-   4 1.55   4 1.71
 
  LATTYP: Found a hexagonal cell.
 ALAT       =     2.5738686835
 C/A-ratio  =    11.7739747694
  
  Lattice vectors:
  
 A1 = (   1.2869343418,  -2.2290356659,   0.0000000000)
 A2 = (  -2.5738686835,   0.0000000000,   0.0000000000)
 A3 = (   0.0000000000,   0.0000000000, -30.3046649396)


Analysis of symmetry for initial positions (statically):
=====================================================================
 Subroutine PRICEL returns:
 Original cell was already a primitive cell.
 

 Routine SETGRP: Setting up the symmetry group for a 
 hexagonal supercell.


 Subroutine GETGRP returns: Found  1 space group operations
 (whereof  1 operations were pure point group operations)
 out of a pool of 24 trial point group operations.


The static configuration has the point symmetry C_1 .


Analysis of symmetry for dynamics (positions and initial velocities):
=====================================================================
 Subroutine PRICEL returns:
 Original cell was already a primitive cell.
 

 Routine SETGRP: Setting up the symmetry group for a 
 hexagonal supercell.


 Subroutine GETGRP returns: Found  1 space group operations
 (whereof  1 operations were pure point group operations)
 out of a pool of 24 trial point group operations.


The dynamic configuration has the point symmetry C_1 .


 Subroutine INISYM returns: Found  1 space group operations
 (whereof  1 operations are pure point group operations),
 and found     1 'primitive' translations

 
 
 KPOINTS: k-density: 4.0                          

Automatic generation of k-mesh.
Space group operators:
 irot       det(A)        alpha          n_x          n_y          n_z        tau_x        tau_y        tau_z
    1     1.000000     0.000001     1.000000     0.000000     0.000000     0.000000     0.000000     0.000000
 
 Subroutine IBZKPT returns following result:
 ===========================================
 
 Found     52 irreducible k-points:
 
 Following reciprocal coordinates:
            Coordinates               Weight
  0.000000  0.000000  0.000000      1.000000
  0.100000  0.000000  0.000000      2.000000
  0.200000 -0.000000  0.000000      2.000000
  0.300000 -0.000000  0.000000      2.000000
  0.400000 -0.000000  0.000000      2.000000
  0.500000 -0.000000  0.000000      1.000000
  0.000000  0.100000  0.000000      2.000000
  0.100000  0.100000  0.000000      2.000000
  0.200000  0.100000  0.000000      2.000000
  0.300000  0.100000  0.000000      2.000000
  0.400000  0.100000  0.000000      2.000000
  0.500000  0.100000  0.000000      2.000000
 -0.400000  0.100000  0.000000      2.000000
 -0.300000  0.100000  0.000000      2.000000
 -0.200000  0.100000  0.000000      2.000000
 -0.100000  0.100000  0.000000      2.000000
  0.000000  0.200000  0.000000      2.000000
  0.100000  0.200000  0.000000      2.000000
  0.200000  0.200000  0.000000      2.000000
  0.300000  0.200000  0.000000      2.000000
  0.400000  0.200000  0.000000      2.000000
  0.500000  0.200000  0.000000      2.000000
 -0.400000  0.200000  0.000000      2.000000
 -0.300000  0.200000  0.000000      2.000000
 -0.200000  0.200000  0.000000      2.000000
 -0.100000  0.200000  0.000000      2.000000
  0.000000  0.300000  0.000000      2.000000
  0.100000  0.300000  0.000000      2.000000
  0.200000  0.300000  0.000000      2.000000
  0.300000  0.300000  0.000000      2.000000
  0.400000  0.300000  0.000000      2.000000
  0.500000  0.300000  0.000000      2.000000
 -0.400000  0.300000  0.000000      2.000000
 -0.300000  0.300000  0.000000      2.000000
 -0.200000  0.300000  0.000000      2.000000
 -0.100000  0.300000  0.000000      2.000000
  0.000000  0.400000  0.000000      2.000000
  0.100000  0.400000  0.000000      2.000000
  0.200000  0.400000  0.000000      2.000000
  0.300000  0.400000  0.000000      2.000000
  0.400000  0.400000  0.000000      2.000000
  0.500000  0.400000  0.000000      2.000000
 -0.400000  0.400000  0.000000      2.000000
 -0.300000  0.400000  0.000000      2.000000
 -0.200000  0.400000  0.000000      2.000000
 -0.100000  0.400000  0.000000      2.000000
  0.000000  0.500000  0.000000      1.000000
  0.100000  0.500000  0.000000      2.000000
  0.200000  0.500000  0.000000      2.000000
  0.300000  0.500000  0.000000      2.000000
  0.400000  0.500000  0.000000      2.000000
  0.500000  0.500000  0.000000      1.000000
 
 Following cartesian coordinates:
            Coordinates               Weight
  0.000000  0.000000  0.000000      1.000000
  0.038852 -0.022431  0.000000      2.000000
  0.077704 -0.044862  0.000000      2.000000
  0.116556 -0.067294  0.000000      2.000000
  0.155408 -0.089725  0.000000      2.000000
  0.194260 -0.112156  0.000000      1.000000
  0.000000  0.044862  0.000000      2.000000
  0.038852  0.022431  0.000000      2.000000
  0.077704 -0.000000  0.000000      2.000000
  0.116556 -0.022431  0.000000      2.000000
  0.155408 -0.044862  0.000000      2.000000
  0.194260 -0.067294  0.000000      2.000000
 -0.155408  0.134587  0.000000      2.000000
 -0.116556  0.112156  0.000000      2.000000
 -0.077704  0.089725  0.000000      2.000000
 -0.038852  0.067294  0.000000      2.000000
  0.000000  0.089725  0.000000      2.000000
  0.038852  0.067294  0.000000      2.000000
  0.077704  0.044862  0.000000      2.000000
  0.116556  0.022431  0.000000      2.000000
  0.155408  0.000000  0.000000      2.000000
  0.194260 -0.022431  0.000000      2.000000
 -0.155408  0.179450  0.000000      2.000000
 -0.116556  0.157019  0.000000      2.000000
 -0.077704  0.134587  0.000000      2.000000
 -0.038852  0.112156  0.000000      2.000000
  0.000000  0.134587  0.000000      2.000000
  0.038852  0.112156  0.000000      2.000000
  0.077704  0.089725  0.000000      2.000000
  0.116556  0.067294  0.000000      2.000000
  0.155408  0.044862  0.000000      2.000000
  0.194260  0.022431  0.000000      2.000000
 -0.155408  0.224312  0.000000      2.000000
 -0.116556  0.201881  0.000000      2.000000
 -0.077704  0.179450  0.000000      2.000000
 -0.038852  0.157019  0.000000      2.000000
  0.000000  0.179450  0.000000      2.000000
  0.038852  0.157019  0.000000      2.000000
  0.077704  0.134587  0.000000      2.000000
  0.116556  0.112156  0.000000      2.000000
  0.155408  0.089725  0.000000      2.000000
  0.194260  0.067294  0.000000      2.000000
 -0.155408  0.269175  0.000000      2.000000
 -0.116556  0.246743  0.000000      2.000000
 -0.077704  0.224312  0.000000      2.000000
 -0.038852  0.201881  0.000000      2.000000
  0.000000  0.224312  0.000000      1.000000
  0.038852  0.201881  0.000000      2.000000
  0.077704  0.179450  0.000000      2.000000
  0.116556  0.157019  0.000000      2.000000
  0.155408  0.134587  0.000000      2.000000
  0.194260  0.112156  0.000000      1.000000
 


--------------------------------------------------------------------------------------------------------




 Dimension of arrays:
   k-points           NKPTS =     52   k-points in BZ     NKDIM =     52   number of bands    NBANDS=     28
   number of dos      NEDOS =   2401   number of ions     NIONS =      5
   non local maximal  LDIM  =      6   non local SUM 2l+1 LMDIM =     18
   total plane-waves  NPLWV =  12000
   max r-space proj   IRMAX =   1888   max aug-charges    IRDMAX=   2622
   dimension x,y,z NGX =    10 NGY =   10 NGZ =  120
   dimension x,y,z NGXF=    20 NGYF=   20 NGZF=  240
   support grid    NGXF=    20 NGYF=   20 NGZF=  240
   ions per type =               4   1
   NGX,Y,Z   is equivalent  to a cutoff of   6.46,  6.46,  6.58 a.u.
   NGXF,Y,Z  is equivalent  to a cutoff of  12.92, 12.92, 13.17 a.u.

 SYSTEM =  unknown system                          
 POSCAR =  Cu  H                                   

 Startparameter for this run:
   NWRITE =      2    write-flag & timer
   PREC   = normal    normal or accurate (medium, high low for compatibility)
   ISTART =      0    job   : 0-new  1-cont  2-samecut
   ICHARG =      2    charge: 1-file 2-atom 10-const
   ISPIN  =      1    spin polarized calculation?
   LNONCOLLINEAR =      F non collinear calculations
   LSORBIT =      F    spin-orbit coupling
   INIWAV =      1    electr: 0-lowe 1-rand  2-diag
   LASPH  =      F    aspherical Exc in radial PAW
   METAGGA=      F    non-selfconsistent MetaGGA calc.

 Electronic Relaxation 1
   ENCUT  =  250.0 eV  18.37 Ry    4.29 a.u.   3.32  3.32 39.07*2*pi/ulx,y,z
   ENINI  =  250.0     initial cutoff
   ENAUG  =  516.5 eV  augmentation charge cutoff
   NELM   =     60;   NELMIN=  4; NELMDL= -5     # of ELM steps 
   EDIFF  = 0.1E-05   stopping-criterion for ELM
   LREAL  =      T    real-space projection
   NLSPLINE    = F    spline interpolate recip. space projectors
   LCOMPAT=      F    compatible to vasp.4.4
   GGA_COMPAT  = T    GGA compatible to vasp.4.4-vasp.4.6
   LMAXPAW     = -100 max onsite density
   LMAXMIX     =    2 max onsite mixed and CHGCAR
   VOSKOWN=      0    Vosko Wilk Nusair interpolation
   ROPT   =   -0.00050  -0.00050
 Ionic relaxation
   EDIFFG = 0.1E-04   stopping-criterion for IOM
   NSW    =      0    number of steps for IOM
   NBLOCK =      1;   KBLOCK =      1    inner block; outer block 
   IBRION =     -1    ionic relax: 0-MD 1-quasi-New 2-CG
   NFREE  =      0    steps in history (QN), initial steepest desc. (CG)
   ISIF   =      2    stress and relaxation
   IWAVPR =     10    prediction:  0-non 1-charg 2-wave 3-comb
   ISYM   =      2    0-nonsym 1-usesym 2-fastsym
   LCORR  =      T    Harris-Foulkes like correction to forces

   POTIM  = 0.5000    time-step for ionic-motion
   TEIN   =    0.0    initial temperature
   TEBEG  =    0.0;   TEEND  =   0.0 temperature during run
   SMASS  =  -3.00    Nose mass-parameter (am)
   estimated Nose-frequenzy (Omega)   =  0.10E-29 period in steps =****** mass=  -0.151E-27a.u.
   SCALEE = 1.0000    scale energy and forces
   NPACO  =    256;   APACO  = 16.0  distance and # of slots for P.C.
   PSTRESS=    0.0 pullay stress

  Mass of Ions in am
   POMASS =  63.55  1.00
  Ionic Valenz
   ZVAL   =  11.00  1.00
  Atomic Wigner-Seitz radii
   RWIGS  =  -1.00 -1.00
  virtual crystal weights 
   VCA    =   1.00  1.00
   NELECT =      45.0000    total number of electrons
   NUPDOWN=      -1.0000    fix difference up-down

 DOS related values:
   EMIN   = -17.00;   EMAX   =  7.00  energy-range for DOS
   EFERMI =   0.00
   ISMEAR =     0;   SIGMA  =   0.10  broadening in eV -4-tet -1-fermi 0-gaus

 Electronic relaxation 2 (details)
   IALGO  =     68    algorithm
   LDIAG  =      T    sub-space diagonalisation (order eigenvalues)
   LSUBROT=      F    optimize rotation matrix (better conditioning)
   TURBO    =      0    0=normal 1=particle mesh
   IRESTART =      0    0=no restart 2=restart with 2 vectors
   NREBOOT  =      0    no. of reboots
   NMIN     =      0    reboot dimension
   EREF     =   0.00    reference energy to select bands
   IMIX   =      4    mixing-type and parameters
     AMIX     =   0.40;   BMIX     =  1.00
     AMIX_MAG =   1.60;   BMIX_MAG =  1.00
     AMIN     =   0.10
     WC   =   100.;   INIMIX=   1;  MIXPRE=   1;  MAXMIX= -45

 Intra band minimization:
   WEIMIN = 0.0000     energy-eigenvalue tresh-hold
   EBREAK =  0.89E-08  absolut break condition
   DEPER  =   0.30     relativ break condition  

   TIME   =   0.40     timestep for ELM

  volume/ion in A,a.u.               =      34.77       234.66
  Fermi-wavevector in a.u.,A,eV,Ry     =   1.043297  1.971546 14.809520  1.088469
  Thomas-Fermi vector in A             =   2.178000
 
 Write flags
   LWAVE        =      F    write WAVECAR
   LDOWNSAMPLE  =      F    k-point downsampling of WAVECAR
   LCHARG       =      T    write CHGCAR
   LVTOT        =      F    write LOCPOT, total local potential
   LVHAR        =      F    write LOCPOT, Hartree potential only
   LELF         =      T    write electronic localiz. function (ELF)
   LORBIT       =     11    0 simple, 1 ext, 2 COOP (PROOUT), +10 PAW based schemes


 Dipole corrections
   LMONO  =      F    monopole corrections only (constant potential shift)
   LDIPOL =      F    correct potential (dipole corrections)
   IDIPOL =      0    1-x, 2-y, 3-z, 4-all directions 
   EPSILON=  1.0000000 bulk dielectric constant

 Exchange correlation treatment:
   GGA     =    --    GGA type
   LEXCH   =     8    internal setting for exchange type
   VOSKOWN=      0    Vosko Wilk Nusair interpolation
   LHFCALC =     F    Hartree Fock is set to
   LHFONE  =     F    Hartree Fock one center treatment
   AEXX    =    0.0000 exact exchange contribution

 Linear response parameters
   LEPSILON=     F    determine dielectric tensor
   LRPA    =     F    only Hartree local field effects (RPA)
   LNABLA  =     F    use nabla operator in PAW spheres
   LVEL    =     F    velocity operator in full k-point grid
   LINTERFAST=   F  fast interpolation
   KINTER  =     0    interpolate to denser k-point grid
   CSHIFT  =0.1000    complex shift for real part using Kramers Kronig
   OMEGAMAX=  -1.0    maximum frequency
   DEG_THRESHOLD= 0.2000000E-02 threshold for treating states as degnerate
   RTIME   =   -0.100 relaxation time in fs
  (WPLASMAI=    0.000 imaginary part of plasma frequency in eV, 0.658/RTIME)
   DFIELD  = 0.0000000 0.0000000 0.0000000 field for delta impulse in time
 
 Orbital magnetization related:
   ORBITALMAG=     F  switch on orbital magnetization
   LCHIMAG   =     F  perturbation theory with respect to B field
   DQ        =  0.001000  dq finite difference perturbation B field
   LLRAUG    =     F  two centre corrections for induced B field



--------------------------------------------------------------------------------------------------------


 Static calculation
 charge density and potential will be updated during run
 non-spin polarized calculation
 RMM-DIIS sequential band-by-band and
  variant of blocked Davidson during initial phase
 perform sub-space diagonalisation
    before iterative eigenvector-optimisation
 modified Broyden-mixing scheme, WC =      100.0
 initial mixing is a Kerker type mixing with AMIX =  0.4000 and BMIX =      1.0000
 Hartree-type preconditioning will be used
 using additional bands            5
 real space projection scheme for non local part
 use partial core corrections
 calculate Harris-corrections to forces 
   (improved forces if not selfconsistent)
 use gradient corrections 
 use of overlap-Matrix (Vanderbilt PP)
 Gauss-broadening in eV      SIGMA  =   0.10


--------------------------------------------------------------------------------------------------------


  energy-cutoff  :      250.00
  volume of cell :      173.87
      direct lattice vectors                 reciprocal lattice vectors
     2.573868684  0.000000000  0.000000000     0.388520209 -0.224312248  0.000000000
     1.286934342  2.229035666  0.000000000     0.000000000  0.448624495  0.000000000
     0.000000000  0.000000000 30.304664940     0.000000000  0.000000000  0.032998220

  length of vectors
     2.573868684  2.573868684 30.304664940     0.448624495  0.448624495  0.032998220


 
 k-points in units of 2pi/SCALE and weight: k-density: 4.0                          
   0.00000000  0.00000000  0.00000000       0.010
   0.03885202 -0.02243122  0.00000000       0.020
   0.07770404 -0.04486245  0.00000000       0.020
   0.11655606 -0.06729367  0.00000000       0.020
   0.15540808 -0.08972490  0.00000000       0.020
   0.19426010 -0.11215612  0.00000000       0.010
   0.00000000  0.04486245  0.00000000       0.020
   0.03885202  0.02243122  0.00000000       0.020
   0.07770404 -0.00000000  0.00000000       0.020
   0.11655606 -0.02243122  0.00000000       0.020
   0.15540808 -0.04486245  0.00000000       0.020
   0.19426010 -0.06729367  0.00000000       0.020
  -0.15540808  0.13458735  0.00000000       0.020
  -0.11655606  0.11215612  0.00000000       0.020
  -0.07770404  0.08972490  0.00000000       0.020
  -0.03885202  0.06729367  0.00000000       0.020
   0.00000000  0.08972490  0.00000000       0.020
   0.03885202  0.06729367  0.00000000       0.020
   0.07770404  0.04486245  0.00000000       0.020
   0.11655606  0.02243122  0.00000000       0.020
   0.15540808  0.00000000  0.00000000       0.020
   0.19426010 -0.02243122  0.00000000       0.020
  -0.15540808  0.17944980  0.00000000       0.020
  -0.11655606  0.15701857  0.00000000       0.020
  -0.07770404  0.13458735  0.00000000       0.020
  -0.03885202  0.11215612  0.00000000       0.020
   0.00000000  0.13458735  0.00000000       0.020
   0.03885202  0.11215612  0.00000000       0.020
   0.07770404  0.08972490  0.00000000       0.020
   0.11655606  0.06729367  0.00000000       0.020
   0.15540808  0.04486245  0.00000000       0.020
   0.19426010  0.02243122  0.00000000       0.020
  -0.15540808  0.22431225  0.00000000       0.020
  -0.11655606  0.20188102  0.00000000       0.020
  -0.07770404  0.17944980  0.00000000       0.020
  -0.03885202  0.15701857  0.00000000       0.020
   0.00000000  0.17944980  0.00000000       0.020
   0.03885202  0.15701857  0.00000000       0.020
   0.07770404  0.13458735  0.00000000       0.020
   0.11655606  0.11215612  0.00000000       0.020
   0.15540808  0.08972490  0.00000000       0.020
   0.19426010  0.06729367  0.00000000       0.020
  -0.15540808  0.26917470  0.00000000       0.020
  -0.11655606  0.24674347  0.00000000       0.020
  -0.07770404  0.22431225  0.00000000       0.020
  -0.03885202  0.20188102  0.00000000       0.020
   0.00000000  0.22431225  0.00000000       0.010
   0.03885202  0.20188102  0.00000000       0.020
   0.07770404  0.17944980  0.00000000       0.020
   0.11655606  0.15701857  0.00000000       0.020
   0.15540808  0.13458735  0.00000000       0.020
   0.19426010  0.11215612  0.00000000       0.010
 
 k-points in reciprocal lattice and weights: k-density: 4.0                          
   0.00000000  0.00000000  0.00000000       0.010
   0.10000000  0.00000000  0.00000000       0.020
   0.20000000 -0.00000000  0.00000000       0.020
   0.30000000 -0.00000000  0.00000000       0.020
   0.40000000 -0.00000000  0.00000000       0.020
   0.50000000 -0.00000000  0.00000000       0.010
   0.00000000  0.10000000  0.00000000       0.020
   0.10000000  0.10000000  0.00000000       0.020
   0.20000000  0.10000000  0.00000000       0.020
   0.30000000  0.10000000  0.00000000       0.020
   0.40000000  0.10000000  0.00000000       0.020
   0.50000000  0.10000000  0.00000000       0.020
  -0.40000000  0.10000000  0.00000000       0.020
  -0.30000000  0.10000000  0.00000000       0.020
  -0.20000000  0.10000000  0.00000000       0.020
  -0.10000000  0.10000000  0.00000000       0.020
   0.00000000  0.20000000  0.00000000       0.020
   0.10000000  0.20000000  0.00000000       0.020
   0.20000000  0.20000000  0.00000000       0.020
   0.30000000  0.20000000  0.00000000       0.020
   0.40000000  0.20000000  0.00000000       0.020
   0.50000000  0.20000000  0.00000000       0.020
  -0.40000000  0.20000000  0.00000000       0.020
  -0.30000000  0.20000000  0.00000000       0.020
  -0.20000000  0.20000000  0.00000000       0.020
  -0.10000000  0.20000000  0.00000000       0.020
   0.00000000  0.30000000  0.00000000       0.020
   0.10000000  0.30000000  0.00000000       0.020
   0.20000000  0.30000000  0.00000000       0.020
   0.30000000  0.30000000  0.00000000       0.020
   0.40000000  0.30000000  0.00000000       0.020
   0.50000000  0.30000000  0.00000000       0.020
  -0.40000000  0.30000000  0.00000000       0.020
  -0.30000000  0.30000000  0.00000000       0.020
  -0.20000000  0.30000000  0.00000000       0.020
  -0.10000000  0.30000000  0.00000000       0.020
   0.00000000  0.40000000  0.00000000       0.020
   0.10000000  0.40000000  0.00000000       0.020
   0.20000000  0.40000000  0.00000000       0.020
   0.30000000  0.40000000  0.00000000       0.020
   0.40000000  0.40000000  0.00000000       0.020
   0.50000000  0.40000000  0.00000000       0.020
  -0.40000000  0.40000000  0.00000000       0.020
  -0.30000000  0.40000000  0.00000000       0.020
  -0.20000000  0.40000000  0.00000000       0.020
  -0.10000000  0.40000000  0.00000000       0.020
   0.00000000  0.50000000  0.00000000       0.010
   0.10000000  0.50000000  0.00000000       0.020
   0.20000000  0.50000000  0.00000000       0.020
   0.30000000  0.50000000  0.00000000       0.020
   0.40000000  0.50000000  0.00000000       0.020
   0.50000000  0.50000000  0.00000000       0.010
 
 position of ions in fractional coordinates (direct lattice) 
   0.00000000  0.00000000  0.39597864
   0.33333333  0.33333333  0.46532621
   0.66666666  0.66666667  0.53467379
   0.00000000  0.00000000  0.60402136
   0.46114798  0.00000000  0.63701958
 
 position of ions in cartesian coordinates  (Angst):
   0.00000000  0.00000000 12.00000000
   1.28693434  0.74301189 14.10155498
   2.57386868  1.48602378 16.20310996
   0.00000000  0.00000000 18.30466494
   1.18693434  0.00000000 19.30466494
 


--------------------------------------------------------------------------------------------------------


 k-point  1 :   0.0000 0.0000 0.0000  plane waves:    1609
 k-point  2 :   0.1000 0.0000 0.0000  plane waves:    1589
 k-point  3 :   0.2000-0.0000 0.0000  plane waves:    1586
 k-point  4 :   0.3000-0.0000 0.0000  plane waves:    1542
 k-point  5 :   0.4000-0.0000 0.0000  plane waves:    1568
 k-point  6 :   0.5000-0.0000 0.0000  plane waves:    1570
 k-point  7 :   0.0000 0.1000 0.0000  plane waves:    1589
 k-point  8 :   0.1000 0.1000 0.0000  plane waves:    1589
 k-point  9 :   0.2000 0.1000 0.0000  plane waves:    1579
 k-point 10 :   0.3000 0.1000 0.0000  plane waves:    1569
 k-point 11 :   0.4000 0.1000 0.0000  plane waves:    1552
 k-point 12 :   0.5000 0.1000 0.0000  plane waves:    1549
 k-point 13 :  -0.4000 0.1000 0.0000  plane waves:    1549
 k-point 14 :  -0.3000 0.1000 0.0000  plane waves:    1552
 k-point 15 :  -0.2000 0.1000 0.0000  plane waves:    1569
 k-point 16 :  -0.1000 0.1000 0.0000  plane waves:    1579
 k-point 17 :   0.0000 0.2000 0.0000  plane waves:    1586
 k-point 18 :   0.1000 0.2000 0.0000  plane waves:    1579
 k-point 19 :   0.2000 0.2000 0.0000  plane waves:    1586
 k-point 20 :   0.3000 0.2000 0.0000  plane waves:    1569
 k-point 21 :   0.4000 0.2000 0.0000  plane waves:    1545
 k-point 22 :   0.5000 0.2000 0.0000  plane waves:    1549
 k-point 23 :  -0.4000 0.2000 0.0000  plane waves:    1546
 k-point 24 :  -0.3000 0.2000 0.0000  plane waves:    1549
 k-point 25 :  -0.2000 0.2000 0.0000  plane waves:    1545
 k-point 26 :  -0.1000 0.2000 0.0000  plane waves:    1569
 k-point 27 :   0.0000 0.3000 0.0000  plane waves:    1542
 k-point 28 :   0.1000 0.3000 0.0000  plane waves:    1569
 k-point 29 :   0.2000 0.3000 0.0000  plane waves:    1569
 k-point 30 :   0.3000 0.3000 0.0000  plane waves:    1542
 k-point 31 :   0.4000 0.3000 0.0000  plane waves:    1552
 k-point 32 :   0.5000 0.3000 0.0000  plane waves:    1549
 k-point 33 :  -0.4000 0.3000 0.0000  plane waves:    1547
 k-point 34 :  -0.3000 0.3000 0.0000  plane waves:    1547
 k-point 35 :  -0.2000 0.3000 0.0000  plane waves:    1549
 k-point 36 :  -0.1000 0.3000 0.0000  plane waves:    1552
 k-point 37 :   0.0000 0.4000 0.0000  plane waves:    1568
 k-point 38 :   0.1000 0.4000 0.0000  plane waves:    1552
 k-point 39 :   0.2000 0.4000 0.0000  plane waves:    1545
 k-point 40 :   0.3000 0.4000 0.0000  plane waves:    1552
 k-point 41 :   0.4000 0.4000 0.0000  plane waves:    1568
 k-point 42 :   0.5000 0.4000 0.0000  plane waves:    1549
 k-point 43 :  -0.4000 0.4000 0.0000  plane waves:    1546
 k-point 44 :  -0.3000 0.4000 0.0000  plane waves:    1547
 k-point 45 :  -0.2000 0.4000 0.0000  plane waves:    1546
 k-point 46 :  -0.1000 0.4000 0.0000  plane waves:    1549
 k-point 47 :   0.0000 0.5000 0.0000  plane waves:    1570
 k-point 48 :   0.1000 0.5000 0.0000  plane waves:    1549
 k-point 49 :   0.2000 0.5000 0.0000  plane waves:    1549
 k-point 50 :   0.3000 0.5000 0.0000  plane waves:    1549
 k-point 51 :   0.4000 0.5000 0.0000  plane waves:    1549
 k-point 52 :   0.5000 0.5000 0.0000  plane waves:    1570

 maximum and minimum number of plane-waves per node :       808      766

 maximum number of plane-waves:      1609
 maximum index in each direction: 
   IXMAX=    3   IYMAX=    3   IZMAX=   39
   IXMIN=   -3   IYMIN=   -3   IZMIN=  -39


 real space projection operators:
  total allocation   :        839.91 KBytes
  max/ min on nodes  :        423.16        416.74


 parallel 3D FFT for wavefunctions:
    minimum data exchange during FFTs selected (reduces bandwidth)
 parallel 3D FFT for charge:
    minimum data exchange during FFTs selected (reduces bandwidth)


 total amount of memory used by VASP MPI-rank0    43139. kBytes
=======================================================================

   base      :      30000. kBytes
   nonlr-proj:        676. kBytes
   fftplans  :        995. kBytes
   grid      :       1592. kBytes
   one-center:         46. kBytes
   wavefun   :       9830. kBytes
 
     INWAV:  cpu time    0.0000: real time    0.0000
 Broyden mixing: mesh for mixing (old mesh)
   NGX =  7   NGY =  7   NGZ = 79
  (NGX  = 20   NGY  = 20   NGZ  =240)
  gives a total of   3871 points

 initial charge density was supplied:
 charge density of overlapping atoms calculated
 number of electron      45.0000000 magnetization 
 keeping initial charge density in first step


--------------------------------------------------------------------------------------------------------


 Maximum index for non-local projection operator          897
 Maximum index for augmentation-charges          593 (set IRDMAX)


--------------------------------------------------------------------------------------------------------


 First call to EWALD:  gamma=   0.318
 Maximum number of real-space cells 6x 6x 1
 Maximum number of reciprocal cells 2x 2x13

    FEWALD:  cpu time    0.0010: real time    0.0016


--------------------------------------- Iteration      1(   1)  ---------------------------------------


    POTLOK:  cpu time    0.0160: real time    0.0636
    SETDIJ:  cpu time    0.0030: real time    0.0033
     EDDAV:  cpu time    1.0308: real time    1.0313
       DOS:  cpu time    0.0090: real time    0.0086
    --------------------------------------------
      LOOP:  cpu time    1.0588: real time    1.1068

 eigenvalue-minimisations  :  3020
 total energy-change (2. order) : 0.1973583E+03  (-0.1388633E+04)
 number of electron      45.0000000 magnetization 
 augmentation part       45.0000000 magnetization 

 Free energy of the ion-electron system (eV)
  ---------------------------------------------------
  alpha Z        PSCENC =       120.87645803
  Ewald energy   TEWEN  =     38007.72388823
  -Hartree energ DENC   =    -43128.21384640
  -exchange      EXHF   =         0.00000000
  -V(xc)+E(xc)   XCENC  =       177.43878869
  PAW double counting   =      4328.99049516    -4905.09836044
  entropy T*S    EENTRO =        -0.01208615
  eigenvalues    EBANDS =        19.70339139
  atomic energy  EATOM  =      5575.94961827
  Solvation  Ediel_sol  =         0.00000000
  ---------------------------------------------------
  free energy    TOTEN  =       197.35834677 eV

  energy without entropy =      197.37043292  energy(sigma->0) =      197.36438985


--------------------------------------------------------------------------------------------------------




--------------------------------------- Iteration      1(   2)  ---------------------------------------


     EDDAV:  cpu time    1.0408: real time    1.0417
       DOS:  cpu time    0.0090: real time    0.0096
    --------------------------------------------
      LOOP:  cpu time    1.0498: real time    1.0513

 eigenvalue-minimisations  :  3072
 total energy-change (2. order) :-0.2079087E+03  (-0.2018204E+03)
 number of electron      45.0000000 magnetization 
 augmentation part       45.0000000 magnetization 

 Free energy of the ion-electron system (eV)
  ---------------------------------------------------
  alpha Z        PSCENC =       120.87645803
  Ewald energy   TEWEN  =     38007.72388823
  -Hartree energ DENC   =    -43128.21384640
  -exchange      EXHF   =         0.00000000
  -V(xc)+E(xc)   XCENC  =       177.43878869
  PAW double counting   =      4328.99049516    -4905.09836044
  entropy T*S    EENTRO =        -0.01376306
  eigenvalues    EBANDS =      -188.20364988
  atomic energy  EATOM  =      5575.94961827
  Solvation  Ediel_sol  =         0.00000000
  ---------------------------------------------------
  free energy    TOTEN  =       -10.55037141 eV

  energy without entropy =      -10.53660834  energy(sigma->0) =      -10.54348987


--------------------------------------------------------------------------------------------------------




--------------------------------------- Iteration      1(   3)  ---------------------------------------


     EDDAV:  cpu time    1.0808: real time    1.0831
       DOS:  cpu time    0.0100: real time    0.0096
    --------------------------------------------
      LOOP:  cpu time    1.0908: real time    1.0927

 eigenvalue-minimisations  :  3220
 total energy-change (2. order) :-0.1032276E+02  (-0.1014465E+02)
 number of electron      45.0000000 magnetization 
 augmentation part       45.0000000 magnetization 

 Free energy of the ion-electron system (eV)
  ---------------------------------------------------
  alpha Z        PSCENC =       120.87645803
  Ewald energy   TEWEN  =     38007.72388823
  -Hartree energ DENC   =    -43128.21384640
  -exchange      EXHF   =         0.00000000
  -V(xc)+E(xc)   XCENC  =       177.43878869
  PAW double counting   =      4328.99049516    -4905.09836044
  entropy T*S    EENTRO =        -0.01120429
  eigenvalues    EBANDS =      -198.52896627
  atomic energy  EATOM  =      5575.94961827
  Solvation  Ediel_sol  =         0.00000000
  ---------------------------------------------------
  free energy    TOTEN  =       -20.87312902 eV

  energy without entropy =      -20.86192473  energy(sigma->0) =      -20.86752688


--------------------------------------------------------------------------------------------------------




--------------------------------------- Iteration      1(   4)  ---------------------------------------


     EDDAV:  cpu time    1.0598: real time    1.0623
       DOS:  cpu time    0.0100: real time    0.0094
    --------------------------------------------
      LOOP:  cpu time    1.0698: real time    1.0718

 eigenvalue-minimisations  :  3188
 total energy-change (2. order) :-0.1226413E+00  (-0.1221346E+00)
 number of electron      45.0000000 magnetization 
 augmentation part       45.0000000 magnetization 

 Free energy of the ion-electron system (eV)
  ---------------------------------------------------
  alpha Z        PSCENC =       120.87645803
  Ewald energy   TEWEN  =     38007.72388823
  -Hartree energ DENC   =    -43128.21384640
  -exchange      EXHF   =         0.00000000
  -V(xc)+E(xc)   XCENC  =       177.43878869
  PAW double counting   =      4328.99049516    -4905.09836044
  entropy T*S    EENTRO =        -0.01016597
  eigenvalues    EBANDS =      -198.65264591
  atomic energy  EATOM  =      5575.94961827
  Solvation  Ediel_sol  =         0.00000000
  ---------------------------------------------------
  free energy    TOTEN  =       -20.99577035 eV

  energy without entropy =      -20.98560438  energy(sigma->0) =      -20.99068736


--------------------------------------------------------------------------------------------------------




--------------------------------------- Iteration      1(   5)  ---------------------------------------


     EDDAV:  cpu time    1.0918: real time    1.0943
       DOS:  cpu time    0.0100: real time    0.0096
    CHARGE:  cpu time    0.0560: real time    0.0560
    MIXING:  cpu time    0.0000: real time    0.0005
    --------------------------------------------
      LOOP:  cpu time    1.1578: real time    1.1604

 eigenvalue-minimisations  :  3276
 total energy-change (2. order) :-0.1181937E-02  (-0.1181910E-02)
 number of electron      45.0000029 magnetization 
 augmentation part       26.6632957 magnetization 

 Broyden mixing:
  rms(total) = 0.14808E+01    rms(broyden)= 0.14805E+01
  rms(prec ) = 0.15334E+01
  weight for this iteration     100.00

 Free energy of the ion-electron system (eV)
  ---------------------------------------------------
  alpha Z        PSCENC =       120.87645803
  Ewald energy   TEWEN  =     38007.72388823
  -Hartree energ DENC   =    -43128.21384640
  -exchange      EXHF   =         0.00000000
  -V(xc)+E(xc)   XCENC  =       177.43878869
  PAW double counting   =      4328.99049516    -4905.09836044
  entropy T*S    EENTRO =        -0.01016463
  eigenvalues    EBANDS =      -198.65382919
  atomic energy  EATOM  =      5575.94961827
  Solvation  Ediel_sol  =         0.00000000
  ---------------------------------------------------
  free energy    TOTEN  =       -20.99695229 eV

  energy without entropy =      -20.98678766  energy(sigma->0) =      -20.99186997


--------------------------------------------------------------------------------------------------------




--------------------------------------- Iteration      1(   6)  ---------------------------------------


    POTLOK:  cpu time    0.0120: real time    0.0131
    SETDIJ:  cpu time    0.0040: real time    0.0034
    EDDIAG:  cpu time    0.1990: real time    0.1999
  RMM-DIIS:  cpu time    0.6319: real time    0.6308
    ORTHCH:  cpu time    0.0240: real time    0.0250
       DOS:  cpu time    0.0100: real time    0.0098
    CHARGE:  cpu time    0.0540: real time    0.0541
    MIXING:  cpu time    0.0010: real time    0.0005
    --------------------------------------------
      LOOP:  cpu time    0.9359: real time    0.9366

 eigenvalue-minimisations  :  3194
 total energy-change (2. order) : 0.2078386E+01  (-0.4424462E+01)
 number of electron      45.0000033 magnetization 
 augmentation part       30.0293534 magnetization 

 Broyden mixing:
  rms(total) = 0.74560E+00    rms(broyden)= 0.74533E+00
  rms(prec ) = 0.77664E+00
  weight for this iteration     100.00

 eigenvalues of (default mixing * dielectric matrix)
  average eigenvalue GAMMA=   0.6686
  0.6686

 Free energy of the ion-electron system (eV)
  ---------------------------------------------------
  alpha Z        PSCENC =       120.87645803
  Ewald energy   TEWEN  =     38007.72388823
  -Hartree energ DENC   =    -43006.21743803
  -exchange      EXHF   =         0.00000000
  -V(xc)+E(xc)   XCENC  =       172.25908282
  PAW double counting   =      4214.69732688    -4755.33673866
  entropy T*S    EENTRO =        -0.00729270
  eigenvalues    EBANDS =      -348.86347098
  atomic energy  EATOM  =      5575.94961827
  Solvation  Ediel_sol  =         0.00000000
  ---------------------------------------------------
  free energy    TOTEN  =       -18.91856615 eV

  energy without entropy =      -18.91127345  energy(sigma->0) =      -18.91491980


--------------------------------------------------------------------------------------------------------




--------------------------------------- Iteration      1(   7)  ---------------------------------------


    POTLOK:  cpu time    0.0110: real time    0.0116
    SETDIJ:  cpu time    0.0040: real time    0.0033
    EDDIAG:  cpu time    0.1980: real time    0.1991
  RMM-DIIS:  cpu time    0.5849: real time    0.5841
    ORTHCH:  cpu time    0.0250: real time    0.0250
       DOS:  cpu time    0.0100: real time    0.0096
    CHARGE:  cpu time    0.0550: real time    0.0554
    MIXING:  cpu time    0.0010: real time    0.0005
    --------------------------------------------
      LOOP:  cpu time    0.8889: real time    0.8888

 eigenvalue-minimisations  :  2997
 total energy-change (2. order) : 0.1831996E+01  (-0.7369065E+00)
 number of electron      45.0000032 magnetization 
 augmentation part       28.7320124 magnetization 

 Broyden mixing:
  rms(total) = 0.15677E+00    rms(broyden)= 0.15665E+00
  rms(prec ) = 0.18689E+00
  weight for this iteration     100.00

 eigenvalues of (default mixing * dielectric matrix)
  average eigenvalue GAMMA=   0.7178
  0.8660  0.5696

 Free energy of the ion-electron system (eV)
  ---------------------------------------------------
  alpha Z        PSCENC =       120.87645803
  Ewald energy   TEWEN  =     38007.72388823
  -Hartree energ DENC   =    -43059.57088609
  -exchange      EXHF   =         0.00000000
  -V(xc)+E(xc)   XCENC  =       173.94203078
  PAW double counting   =      4316.35865868    -4882.00031887
  entropy T*S    EENTRO =        -0.01641810
  eigenvalues    EBANDS =      -270.34960117
  atomic energy  EATOM  =      5575.94961827
  Solvation  Ediel_sol  =         0.00000000
  ---------------------------------------------------
  free energy    TOTEN  =       -17.08657022 eV

  energy without entropy =      -17.07015213  energy(sigma->0) =      -17.07836118


--------------------------------------------------------------------------------------------------------




--------------------------------------- Iteration      1(   8)  ---------------------------------------


    POTLOK:  cpu time    0.0110: real time    0.0130
    SETDIJ:  cpu time    0.0040: real time    0.0034
    EDDIAG:  cpu time    0.2000: real time    0.2005
  RMM-DIIS:  cpu time    0.6349: real time    0.6347
    ORTHCH:  cpu time    0.0240: real time    0.0253
       DOS:  cpu time    0.0100: real time    0.0095
    CHARGE:  cpu time    0.0540: real time    0.0541
    MIXING:  cpu time    0.0010: real time    0.0005
    --------------------------------------------
      LOOP:  cpu time    0.9389: real time    0.9410

 eigenvalue-minimisations  :  3250
 total energy-change (2. order) :-0.2912251E-01  (-0.1383520E-01)
 number of electron      45.0000031 magnetization 
 augmentation part       28.6920318 magnetization 

 Broyden mixing:
  rms(total) = 0.19812E+00    rms(broyden)= 0.19794E+00
  rms(prec ) = 0.26502E+00
  weight for this iteration     100.00

 eigenvalues of (default mixing * dielectric matrix)
  average eigenvalue GAMMA=   0.9195
  1.9063  0.6225  0.2297

 Free energy of the ion-electron system (eV)
  ---------------------------------------------------
  alpha Z        PSCENC =       120.87645803
  Ewald energy   TEWEN  =     38007.72388823
  -Hartree energ DENC   =    -43059.59667057
  -exchange      EXHF   =         0.00000000
  -V(xc)+E(xc)   XCENC  =       173.84251929
  PAW double counting   =      4337.05585089    -4905.83133121
  entropy T*S    EENTRO =        -0.01069627
  eigenvalues    EBANDS =      -267.12532938
  atomic energy  EATOM  =      5575.94961827
  Solvation  Ediel_sol  =         0.00000000
  ---------------------------------------------------
  free energy    TOTEN  =       -17.11569273 eV

  energy without entropy =      -17.10499646  energy(sigma->0) =      -17.11034460


--------------------------------------------------------------------------------------------------------




--------------------------------------- Iteration      1(   9)  ---------------------------------------


    POTLOK:  cpu time    0.0120: real time    0.0117
    SETDIJ:  cpu time    0.0030: real time    0.0033
    EDDIAG:  cpu time    0.2010: real time    0.2005
  RMM-DIIS:  cpu time    0.6439: real time    0.6437
    ORTHCH:  cpu time    0.0250: real time    0.0250
       DOS:  cpu time    0.0090: real time    0.0096
    CHARGE:  cpu time    0.0550: real time    0.0548
    MIXING:  cpu time    0.0010: real time    0.0006
    --------------------------------------------
      LOOP:  cpu time    0.9499: real time    0.9492

 eigenvalue-minimisations  :  3212
 total energy-change (2. order) : 0.1079671E+00  (-0.6040556E-02)
 number of electron      45.0000031 magnetization 
 augmentation part       28.7039985 magnetization 

 Broyden mixing:
  rms(total) = 0.81802E-01    rms(broyden)= 0.81652E-01
  rms(prec ) = 0.92055E-01
  weight for this iteration     100.00

 eigenvalues of (default mixing * dielectric matrix)
  average eigenvalue GAMMA=   0.7633
  1.9019  0.6077  0.3556  0.1879

 Free energy of the ion-electron system (eV)
  ---------------------------------------------------
  alpha Z        PSCENC =       120.87645803
  Ewald energy   TEWEN  =     38007.72388823
  -Hartree energ DENC   =    -43062.20342413
  -exchange      EXHF   =         0.00000000
  -V(xc)+E(xc)   XCENC  =       173.59983619
  PAW double counting   =      4376.41678684    -4950.76695487
  entropy T*S    EENTRO =        -0.01562974
  eigenvalues    EBANDS =      -258.58830441
  atomic energy  EATOM  =      5575.94961827
  Solvation  Ediel_sol  =         0.00000000
  ---------------------------------------------------
  free energy    TOTEN  =       -17.00772559 eV

  energy without entropy =      -16.99209584  energy(sigma->0) =      -16.99991072


--------------------------------------------------------------------------------------------------------




--------------------------------------- Iteration      1(  10)  ---------------------------------------


    POTLOK:  cpu time    0.0110: real time    0.0127
    SETDIJ:  cpu time    0.0040: real time    0.0033
    EDDIAG:  cpu time    0.2000: real time    0.2004
  RMM-DIIS:  cpu time    0.6109: real time    0.6107
    ORTHCH:  cpu time    0.0250: real time    0.0247
       DOS:  cpu time    0.0090: real time    0.0097
    CHARGE:  cpu time    0.0540: real time    0.0538
    MIXING:  cpu time    0.0010: real time    0.0006
    --------------------------------------------
      LOOP:  cpu time    0.9149: real time    0.9160

 eigenvalue-minimisations  :  3196
 total energy-change (2. order) : 0.1143987E-01  (-0.1811397E-02)
 number of electron      45.0000031 magnetization 
 augmentation part       28.7288709 magnetization 

 Broyden mixing:
  rms(total) = 0.44996E-01    rms(broyden)= 0.44988E-01
  rms(prec ) = 0.48190E-01
  weight for this iteration     100.00

 eigenvalues of (default mixing * dielectric matrix)
  average eigenvalue GAMMA=   0.9096
  2.2365  1.0923  0.6496  0.2040  0.3656

 Free energy of the ion-electron system (eV)
  ---------------------------------------------------
  alpha Z        PSCENC =       120.87645803
  Ewald energy   TEWEN  =     38007.72388823
  -Hartree energ DENC   =    -43063.06957460
  -exchange      EXHF   =         0.00000000
  -V(xc)+E(xc)   XCENC  =       173.52409653
  PAW double counting   =      4381.76960486    -4956.56426579
  entropy T*S    EENTRO =        -0.01690626
  eigenvalues    EBANDS =      -257.18920499
  atomic energy  EATOM  =      5575.94961827
  Solvation  Ediel_sol  =         0.00000000
  ---------------------------------------------------
  free energy    TOTEN  =       -16.99628572 eV

  energy without entropy =      -16.97937946  energy(sigma->0) =      -16.98783259


--------------------------------------------------------------------------------------------------------




--------------------------------------- Iteration      1(  11)  ---------------------------------------


    POTLOK:  cpu time    0.0110: real time    0.0113
    SETDIJ:  cpu time    0.0030: real time    0.0031
    EDDIAG:  cpu time    0.1840: real time    0.1848
  RMM-DIIS:  cpu time    0.5699: real time    0.5695
    ORTHCH:  cpu time    0.0230: real time    0.0234
       DOS:  cpu time    0.0090: real time    0.0090
    CHARGE:  cpu time    0.0510: real time    0.0510
    MIXING:  cpu time    0.0010: real time    0.0006
    --------------------------------------------
      LOOP:  cpu time    0.8519: real time    0.8528

 eigenvalue-minimisations  :  3147
 total energy-change (2. order) : 0.5628381E-02  (-0.1036718E-02)
 number of electron      45.0000031 magnetization 
 augmentation part       28.7765547 magnetization 

 Broyden mixing:
  rms(total) = 0.12617E-01    rms(broyden)= 0.12596E-01
  rms(prec ) = 0.16405E-01
  weight for this iteration     100.00

 eigenvalues of (default mixing * dielectric matrix)
  average eigenvalue GAMMA=   0.9500
  2.2626  1.2859  0.9273  0.6524  0.2055  0.3662

 Free energy of the ion-electron system (eV)
  ---------------------------------------------------
  alpha Z        PSCENC =       120.87645803
  Ewald energy   TEWEN  =     38007.72388823
  -Hartree energ DENC   =    -43063.26279466
  -exchange      EXHF   =         0.00000000
  -V(xc)+E(xc)   XCENC  =       173.38905409
  PAW double counting   =      4392.44011317    -4968.09899549
  entropy T*S    EENTRO =        -0.01663473
  eigenvalues    EBANDS =      -255.99136424
  atomic energy  EATOM  =      5575.94961827
  Solvation  Ediel_sol  =         0.00000000
  ---------------------------------------------------
  free energy    TOTEN  =       -16.99065734 eV

  energy without entropy =      -16.97402261  energy(sigma->0) =      -16.98233997


--------------------------------------------------------------------------------------------------------




--------------------------------------- Iteration      1(  12)  ---------------------------------------


    POTLOK:  cpu time    0.0110: real time    0.0120
    SETDIJ:  cpu time    0.0030: real time    0.0031
    EDDIAG:  cpu time    0.1850: real time    0.1847
  RMM-DIIS:  cpu time    0.5739: real time    0.5739
    ORTHCH:  cpu time    0.0230: real time    0.0235
       DOS:  cpu time    0.0090: real time    0.0090
    CHARGE:  cpu time    0.0510: real time    0.0509
    MIXING:  cpu time    0.0010: real time    0.0006
    --------------------------------------------
      LOOP:  cpu time    0.8569: real time    0.8578

 eigenvalue-minimisations  :  3188
 total energy-change (2. order) : 0.8744460E-03  (-0.1244367E-03)
 number of electron      45.0000031 magnetization 
 augmentation part       28.7689671 magnetization 

 Broyden mixing:
  rms(total) = 0.91913E-02    rms(broyden)= 0.91885E-02
  rms(prec ) = 0.11245E-01
  weight for this iteration     100.00

 eigenvalues of (default mixing * dielectric matrix)
  average eigenvalue GAMMA=   0.9753
  2.2739  1.9159  1.0117  0.6488  0.2053  0.3502  0.4215

 Free energy of the ion-electron system (eV)
  ---------------------------------------------------
  alpha Z        PSCENC =       120.87645803
  Ewald energy   TEWEN  =     38007.72388823
  -Hartree energ DENC   =    -43065.91353213
  -exchange      EXHF   =         0.00000000
  -V(xc)+E(xc)   XCENC  =       173.38938031
  PAW double counting   =      4395.70992534    -4971.67876455
  entropy T*S    EENTRO =        -0.01676150
  eigenvalues    EBANDS =      -253.02999489
  atomic energy  EATOM  =      5575.94961827
  Solvation  Ediel_sol  =         0.00000000
  ---------------------------------------------------
  free energy    TOTEN  =       -16.98978289 eV

  energy without entropy =      -16.97302139  energy(sigma->0) =      -16.98140214


--------------------------------------------------------------------------------------------------------




--------------------------------------- Iteration      1(  13)  ---------------------------------------


    POTLOK:  cpu time    0.0110: real time    0.0111
    SETDIJ:  cpu time    0.0030: real time    0.0031
    EDDIAG:  cpu time    0.1840: real time    0.1846
  RMM-DIIS:  cpu time    0.5739: real time    0.5737
    ORTHCH:  cpu time    0.0230: real time    0.0235
       DOS:  cpu time    0.0090: real time    0.0090
    CHARGE:  cpu time    0.0510: real time    0.0510
    MIXING:  cpu time    0.0010: real time    0.0007
    --------------------------------------------
      LOOP:  cpu time    0.8559: real time    0.8567

 eigenvalue-minimisations  :  3140
 total energy-change (2. order) : 0.5239093E-03  (-0.5784448E-04)
 number of electron      45.0000031 magnetization 
 augmentation part       28.7697044 magnetization 

 Broyden mixing:
  rms(total) = 0.44287E-02    rms(broyden)= 0.44264E-02
  rms(prec ) = 0.56813E-02
  weight for this iteration     100.00

 eigenvalues of (default mixing * dielectric matrix)
  average eigenvalue GAMMA=   1.0125
  2.3259  2.3259  1.0319  0.8014  0.6614  0.2053  0.3528  0.3955

 Free energy of the ion-electron system (eV)
  ---------------------------------------------------
  alpha Z        PSCENC =       120.87645803
  Ewald energy   TEWEN  =     38007.72388823
  -Hartree energ DENC   =    -43067.79071765
  -exchange      EXHF   =         0.00000000
  -V(xc)+E(xc)   XCENC  =       173.38589830
  PAW double counting   =      4397.35583792    -4973.40498184
  entropy T*S    EENTRO =        -0.01682182
  eigenvalues    EBANDS =      -251.06843844
  atomic energy  EATOM  =      5575.94961827
  Solvation  Ediel_sol  =         0.00000000
  ---------------------------------------------------
  free energy    TOTEN  =       -16.98925898 eV

  energy without entropy =      -16.97243716  energy(sigma->0) =      -16.98084807


--------------------------------------------------------------------------------------------------------




--------------------------------------- Iteration      1(  14)  ---------------------------------------


    POTLOK:  cpu time    0.0110: real time    0.0117
    SETDIJ:  cpu time    0.0030: real time    0.0031
    EDDIAG:  cpu time    0.1850: real time    0.1849
  RMM-DIIS:  cpu time    0.5659: real time    0.5654
    ORTHCH:  cpu time    0.0230: real time    0.0237
       DOS:  cpu time    0.0090: real time    0.0092
    CHARGE:  cpu time    0.0520: real time    0.0518
    MIXING:  cpu time    0.0010: real time    0.0007
    --------------------------------------------
      LOOP:  cpu time    0.8499: real time    0.8503

 eigenvalue-minimisations  :  3094
 total energy-change (2. order) : 0.8117455E-04  (-0.2293348E-04)
 number of electron      45.0000031 magnetization 
 augmentation part       28.7749759 magnetization 

 Broyden mixing:
  rms(total) = 0.26137E-02    rms(broyden)= 0.26129E-02
  rms(prec ) = 0.40145E-02
  weight for this iteration     100.00

 eigenvalues of (default mixing * dielectric matrix)
  average eigenvalue GAMMA=   1.1328
  2.4674  2.4674  1.7319  0.9566  0.9566  0.6546  0.2053  0.3565  0.3988

 Free energy of the ion-electron system (eV)
  ---------------------------------------------------
  alpha Z        PSCENC =       120.87645803
  Ewald energy   TEWEN  =     38007.72388823
  -Hartree energ DENC   =    -43069.41813303
  -exchange      EXHF   =         0.00000000
  -V(xc)+E(xc)   XCENC  =       173.38365830
  PAW double counting   =      4397.27797361    -4973.21685708
  entropy T*S    EENTRO =        -0.01674854
  eigenvalues    EBANDS =      -249.54903559
  atomic energy  EATOM  =      5575.94961827
  Solvation  Ediel_sol  =         0.00000000
  ---------------------------------------------------
  free energy    TOTEN  =       -16.98917781 eV

  energy without entropy =      -16.97242926  energy(sigma->0) =      -16.98080354


--------------------------------------------------------------------------------------------------------




--------------------------------------- Iteration      1(  15)  ---------------------------------------


    POTLOK:  cpu time    0.0110: real time    0.0109
    SETDIJ:  cpu time    0.0030: real time    0.0031
    EDDIAG:  cpu time    0.1850: real time    0.1857
  RMM-DIIS:  cpu time    0.5439: real time    0.5432
    ORTHCH:  cpu time    0.0240: real time    0.0239
       DOS:  cpu time    0.0090: real time    0.0092
    CHARGE:  cpu time    0.0530: real time    0.0524
    MIXING:  cpu time    0.0000: real time    0.0008
    --------------------------------------------
      LOOP:  cpu time    0.8289: real time    0.8291

 eigenvalue-minimisations  :  2996
 total energy-change (2. order) :-0.1135674E-03  (-0.1135691E-04)
 number of electron      45.0000031 magnetization 
 augmentation part       28.7721356 magnetization 

 Broyden mixing:
  rms(total) = 0.14409E-02    rms(broyden)= 0.14401E-02
  rms(prec ) = 0.21453E-02
  weight for this iteration     100.00

 eigenvalues of (default mixing * dielectric matrix)
  average eigenvalue GAMMA=   1.1753
  2.8442  2.8442  1.7522  1.0318  1.0318  0.2053  0.6409  0.6409  0.3579  0.4032

 Free energy of the ion-electron system (eV)
  ---------------------------------------------------
  alpha Z        PSCENC =       120.87645803
  Ewald energy   TEWEN  =     38007.72388823
  -Hartree energ DENC   =    -43071.57450032
  -exchange      EXHF   =         0.00000000
  -V(xc)+E(xc)   XCENC  =       173.39186809
  PAW double counting   =      4397.29014073    -4973.23242037
  entropy T*S    EENTRO =        -0.01695958
  eigenvalues    EBANDS =      -247.39738446
  atomic energy  EATOM  =      5575.94961827
  Solvation  Ediel_sol  =         0.00000000
  ---------------------------------------------------
  free energy    TOTEN  =       -16.98929138 eV

  energy without entropy =      -16.97233180  energy(sigma->0) =      -16.98081159


--------------------------------------------------------------------------------------------------------




--------------------------------------- Iteration      1(  16)  ---------------------------------------


    POTLOK:  cpu time    0.0110: real time    0.0120
    SETDIJ:  cpu time    0.0030: real time    0.0031
    EDDIAG:  cpu time    0.1860: real time    0.1857
  RMM-DIIS:  cpu time    0.5349: real time    0.5349
    ORTHCH:  cpu time    0.0240: real time    0.0238
       DOS:  cpu time    0.0090: real time    0.0091
    CHARGE:  cpu time    0.0520: real time    0.0515
    MIXING:  cpu time    0.0000: real time    0.0008
    --------------------------------------------
      LOOP:  cpu time    0.8199: real time    0.8209

 eigenvalue-minimisations  :  2972
 total energy-change (2. order) :-0.2056553E-03  (-0.4703145E-05)
 number of electron      45.0000031 magnetization 
 augmentation part       28.7725569 magnetization 

 Broyden mixing:
  rms(total) = 0.90886E-03    rms(broyden)= 0.90872E-03
  rms(prec ) = 0.13788E-02
  weight for this iteration     100.00

 eigenvalues of (default mixing * dielectric matrix)
  average eigenvalue GAMMA=   1.3661
  4.4429  2.7497  2.2697  1.3198  1.0698  0.8455  0.6564  0.7090  0.2053  0.3577
  0.4018

 Free energy of the ion-electron system (eV)
  ---------------------------------------------------
  alpha Z        PSCENC =       120.87645803
  Ewald energy   TEWEN  =     38007.72388823
  -Hartree energ DENC   =    -43072.87337662
  -exchange      EXHF   =         0.00000000
  -V(xc)+E(xc)   XCENC  =       173.39490054
  PAW double counting   =      4396.83465144    -4972.73986303
  entropy T*S    EENTRO =        -0.01696614
  eigenvalues    EBANDS =      -246.13880775
  atomic energy  EATOM  =      5575.94961827
  Solvation  Ediel_sol  =         0.00000000
  ---------------------------------------------------
  free energy    TOTEN  =       -16.98949703 eV

  energy without entropy =      -16.97253089  energy(sigma->0) =      -16.98101396


--------------------------------------------------------------------------------------------------------




--------------------------------------- Iteration      1(  17)  ---------------------------------------


    POTLOK:  cpu time    0.0110: real time    0.0111
    SETDIJ:  cpu time    0.0040: real time    0.0031
    EDDIAG:  cpu time    0.1880: real time    0.1888
  RMM-DIIS:  cpu time    0.5399: real time    0.5392
    ORTHCH:  cpu time    0.0240: real time    0.0242
       DOS:  cpu time    0.0090: real time    0.0092
    CHARGE:  cpu time    0.0520: real time    0.0521
    MIXING:  cpu time    0.0010: real time    0.0008
    --------------------------------------------
      LOOP:  cpu time    0.8289: real time    0.8285

 eigenvalue-minimisations  :  2933
 total energy-change (2. order) :-0.2327960E-03  (-0.4913884E-05)
 number of electron      45.0000031 magnetization 
 augmentation part       28.7720830 magnetization 

 Broyden mixing:
  rms(total) = 0.58792E-03    rms(broyden)= 0.58772E-03
  rms(prec ) = 0.81362E-03
  weight for this iteration     100.00

 eigenvalues of (default mixing * dielectric matrix)
  average eigenvalue GAMMA=   1.4728
  4.8722  3.1350  2.2754  1.9106  1.3058  0.9346  0.9346  0.2053  0.6606  0.6801
  0.3577  0.4017

 Free energy of the ion-electron system (eV)
  ---------------------------------------------------
  alpha Z        PSCENC =       120.87645803
  Ewald energy   TEWEN  =     38007.72388823
  -Hartree energ DENC   =    -43074.09564287
  -exchange      EXHF   =         0.00000000
  -V(xc)+E(xc)   XCENC  =       173.39700591
  PAW double counting   =      4396.52089857    -4972.43625098
  entropy T*S    EENTRO =        -0.01699829
  eigenvalues    EBANDS =      -244.90870669
  atomic energy  EATOM  =      5575.94961827
  Solvation  Ediel_sol  =         0.00000000
  ---------------------------------------------------
  free energy    TOTEN  =       -16.98972983 eV

  energy without entropy =      -16.97273154  energy(sigma->0) =      -16.98123068


--------------------------------------------------------------------------------------------------------




--------------------------------------- Iteration      1(  18)  ---------------------------------------


    POTLOK:  cpu time    0.0110: real time    0.0127
    SETDIJ:  cpu time    0.0030: real time    0.0031
    EDDIAG:  cpu time    0.1890: real time    0.1892
  RMM-DIIS:  cpu time    0.4579: real time    0.4581
    ORTHCH:  cpu time    0.0240: real time    0.0242
       DOS:  cpu time    0.0090: real time    0.0093
    CHARGE:  cpu time    0.0530: real time    0.0525
    MIXING:  cpu time    0.0010: real time    0.0009
    --------------------------------------------
      LOOP:  cpu time    0.7479: real time    0.7499

 eigenvalue-minimisations  :  2448
 total energy-change (2. order) :-0.1149174E-03  (-0.1341261E-05)
 number of electron      45.0000031 magnetization 
 augmentation part       28.7722878 magnetization 

 Broyden mixing:
  rms(total) = 0.29715E-03    rms(broyden)= 0.29698E-03
  rms(prec ) = 0.43384E-03
  weight for this iteration     100.00

 eigenvalues of (default mixing * dielectric matrix)
  average eigenvalue GAMMA=   1.6097
  5.9501  3.6099  2.3607  2.2516  1.2927  1.2927  0.9650  0.8927  0.2053  0.6590
  0.6867  0.3576  0.4017

 Free energy of the ion-electron system (eV)
  ---------------------------------------------------
  alpha Z        PSCENC =       120.87645803
  Ewald energy   TEWEN  =     38007.72388823
  -Hartree energ DENC   =    -43074.66681837
  -exchange      EXHF   =         0.00000000
  -V(xc)+E(xc)   XCENC  =       173.39652226
  PAW double counting   =      4396.52843917    -4972.44971672
  entropy T*S    EENTRO =        -0.01700077
  eigenvalues    EBANDS =      -244.33123484
  atomic energy  EATOM  =      5575.94961827
  Solvation  Ediel_sol  =         0.00000000
  ---------------------------------------------------
  free energy    TOTEN  =       -16.98984474 eV

  energy without entropy =      -16.97284398  energy(sigma->0) =      -16.98134436


--------------------------------------------------------------------------------------------------------




--------------------------------------- Iteration      1(  19)  ---------------------------------------


    POTLOK:  cpu time    0.0110: real time    0.0112
    SETDIJ:  cpu time    0.0030: real time    0.0032
    EDDIAG:  cpu time    0.1900: real time    0.1902
  RMM-DIIS:  cpu time    0.3889: real time    0.3880
    ORTHCH:  cpu time    0.0230: real time    0.0242
       DOS:  cpu time    0.0100: real time    0.0092
    CHARGE:  cpu time    0.0530: real time    0.0526
    MIXING:  cpu time    0.0000: real time    0.0009
    --------------------------------------------
      LOOP:  cpu time    0.6789: real time    0.6796

 eigenvalue-minimisations  :  1991
 total energy-change (2. order) :-0.5540806E-04  (-0.3299947E-06)
 number of electron      45.0000031 magnetization 
 augmentation part       28.7725344 magnetization 

 Broyden mixing:
  rms(total) = 0.18488E-03    rms(broyden)= 0.18482E-03
  rms(prec ) = 0.24987E-03
  weight for this iteration     100.00

 eigenvalues of (default mixing * dielectric matrix)
  average eigenvalue GAMMA=   1.7206
  6.3579  4.3282  2.5062  2.5062  1.8586  1.1694  1.1694  0.2053  0.9845  0.8974
  0.6590  0.6873  0.3576  0.4017

 Free energy of the ion-electron system (eV)
  ---------------------------------------------------
  alpha Z        PSCENC =       120.87645803
  Ewald energy   TEWEN  =     38007.72388823
  -Hartree energ DENC   =    -43074.94246723
  -exchange      EXHF   =         0.00000000
  -V(xc)+E(xc)   XCENC  =       173.39595531
  PAW double counting   =      4396.57511086    -4972.49516794
  entropy T*S    EENTRO =        -0.01699686
  eigenvalues    EBANDS =      -244.05629882
  atomic energy  EATOM  =      5575.94961827
  Solvation  Ediel_sol  =         0.00000000
  ---------------------------------------------------
  free energy    TOTEN  =       -16.98990015 eV

  energy without entropy =      -16.97290329  energy(sigma->0) =      -16.98140172


--------------------------------------------------------------------------------------------------------




--------------------------------------- Iteration      1(  20)  ---------------------------------------


    POTLOK:  cpu time    0.0120: real time    0.0128
    SETDIJ:  cpu time    0.0030: real time    0.0032
    EDDIAG:  cpu time    0.1850: real time    0.1856
  RMM-DIIS:  cpu time    0.3699: real time    0.3690
    ORTHCH:  cpu time    0.0230: real time    0.0239
       DOS:  cpu time    0.0090: real time    0.0090
    CHARGE:  cpu time    0.0510: real time    0.0512
    MIXING:  cpu time    0.0010: real time    0.0010
    --------------------------------------------
      LOOP:  cpu time    0.6539: real time    0.6556

 eigenvalue-minimisations  :  1868
 total energy-change (2. order) :-0.3092262E-04  (-0.1444100E-06)
 number of electron      45.0000031 magnetization 
 augmentation part       28.7723136 magnetization 

 Broyden mixing:
  rms(total) = 0.85023E-04    rms(broyden)= 0.84929E-04
  rms(prec ) = 0.13087E-03
  weight for this iteration     100.00

 eigenvalues of (default mixing * dielectric matrix)
  average eigenvalue GAMMA=   1.8181
  6.9722  4.9315  2.6852  2.6852  2.1273  1.3294  1.3294  0.2053  1.0079  1.0079
  0.8841  0.6588  0.6882  0.3576  0.4017

 Free energy of the ion-electron system (eV)
  ---------------------------------------------------
  alpha Z        PSCENC =       120.87645803
  Ewald energy   TEWEN  =     38007.72388823
  -Hartree energ DENC   =    -43075.08281288
  -exchange      EXHF   =         0.00000000
  -V(xc)+E(xc)   XCENC  =       173.39625563
  PAW double counting   =      4396.62215503    -4972.54353613
  entropy T*S    EENTRO =        -0.01700765
  eigenvalues    EBANDS =      -243.91494960
  atomic energy  EATOM  =      5575.94961827
  Solvation  Ediel_sol  =         0.00000000
  ---------------------------------------------------
  free energy    TOTEN  =       -16.98993108 eV

  energy without entropy =      -16.97292342  energy(sigma->0) =      -16.98142725


--------------------------------------------------------------------------------------------------------




--------------------------------------- Iteration      1(  21)  ---------------------------------------


    POTLOK:  cpu time    0.0110: real time    0.0110
    SETDIJ:  cpu time    0.0040: real time    0.0031
    EDDIAG:  cpu time    0.1850: real time    0.1855
  RMM-DIIS:  cpu time    0.3709: real time    0.3705
    ORTHCH:  cpu time    0.0220: real time    0.0235
       DOS:  cpu time    0.0090: real time    0.0090
    CHARGE:  cpu time    0.0520: real time    0.0511
    MIXING:  cpu time    0.0010: real time    0.0010
    --------------------------------------------
      LOOP:  cpu time    0.6549: real time    0.6546

 eigenvalue-minimisations  :  1819
 total energy-change (2. order) :-0.1247622E-04  (-0.5308970E-07)
 number of electron      45.0000031 magnetization 
 augmentation part       28.7724203 magnetization 

 Broyden mixing:
  rms(total) = 0.54349E-04    rms(broyden)= 0.54269E-04
  rms(prec ) = 0.86529E-04
  weight for this iteration     100.00

 eigenvalues of (default mixing * dielectric matrix)
  average eigenvalue GAMMA=   1.9377
  7.8590  5.4978  3.3106  2.4525  2.4525  1.9079  0.2053  0.3576  0.4017  1.1914
  1.0639  1.0639  0.9998  0.8929  0.6589  0.6881

 Free energy of the ion-electron system (eV)
  ---------------------------------------------------
  alpha Z        PSCENC =       120.87645803
  Ewald energy   TEWEN  =     38007.72388823
  -Hartree energ DENC   =    -43075.14392957
  -exchange      EXHF   =         0.00000000
  -V(xc)+E(xc)   XCENC  =       173.39630481
  PAW double counting   =      4396.59231645    -4972.51021290
  entropy T*S    EENTRO =        -0.01700365
  eigenvalues    EBANDS =      -243.85738321
  atomic energy  EATOM  =      5575.94961827
  Solvation  Ediel_sol  =         0.00000000
  ---------------------------------------------------
  free energy    TOTEN  =       -16.98994355 eV

  energy without entropy =      -16.97293990  energy(sigma->0) =      -16.98144172


--------------------------------------------------------------------------------------------------------




--------------------------------------- Iteration      1(  22)  ---------------------------------------


    POTLOK:  cpu time    0.0110: real time    0.0123
    SETDIJ:  cpu time    0.0030: real time    0.0031
    EDDIAG:  cpu time    0.1860: real time    0.1863
  RMM-DIIS:  cpu time    0.3679: real time    0.3679
    ORTHCH:  cpu time    0.0240: real time    0.0240
       DOS:  cpu time    0.0090: real time    0.0090
    CHARGE:  cpu time    0.0530: real time    0.0527
    MIXING:  cpu time    0.0010: real time    0.0011
    --------------------------------------------
      LOOP:  cpu time    0.6549: real time    0.6564

 eigenvalue-minimisations  :  1783
 total energy-change (2. order) :-0.4797657E-05  (-0.1959716E-07)
 number of electron      45.0000031 magnetization 
 augmentation part       28.7723364 magnetization 

 Broyden mixing:
  rms(total) = 0.41085E-04    rms(broyden)= 0.41061E-04
  rms(prec ) = 0.45043E-04
  weight for this iteration     100.00

 eigenvalues of (default mixing * dielectric matrix)
  average eigenvalue GAMMA=   2.0367
  8.4159  5.8193  3.4568  3.0316  2.3736  2.3736  1.6948  0.2053  0.3576  0.4017
  1.2261  1.0434  0.9933  0.9933  0.8898  0.6588  0.6883

 Free energy of the ion-electron system (eV)
  ---------------------------------------------------
  alpha Z        PSCENC =       120.87645803
  Ewald energy   TEWEN  =     38007.72388823
  -Hartree energ DENC   =    -43075.17014460
  -exchange      EXHF   =         0.00000000
  -V(xc)+E(xc)   XCENC  =       173.39632454
  PAW double counting   =      4396.59951731    -4972.51984400
  entropy T*S    EENTRO =        -0.01700659
  eigenvalues    EBANDS =      -243.82875953
  atomic energy  EATOM  =      5575.94961827
  Solvation  Ediel_sol  =         0.00000000
  ---------------------------------------------------
  free energy    TOTEN  =       -16.98994835 eV

  energy without entropy =      -16.97294176  energy(sigma->0) =      -16.98144505


--------------------------------------------------------------------------------------------------------




--------------------------------------- Iteration      1(  23)  ---------------------------------------


    POTLOK:  cpu time    0.0110: real time    0.0111
    SETDIJ:  cpu time    0.0030: real time    0.0031
    EDDIAG:  cpu time    0.1850: real time    0.1856
  RMM-DIIS:  cpu time    0.3529: real time    0.3521
    ORTHCH:  cpu time    0.0230: real time    0.0240
       DOS:  cpu time    0.0090: real time    0.0093
    CHARGE:  cpu time    0.0530: real time    0.0526
    MIXING:  cpu time    0.0010: real time    0.0011
    --------------------------------------------
      LOOP:  cpu time    0.6379: real time    0.6389

 eigenvalue-minimisations  :  1621
 total energy-change (2. order) :-0.1383523E-05  (-0.7891471E-08)
 number of electron      45.0000031 magnetization 
 augmentation part       28.7724294 magnetization 

 Broyden mixing:
  rms(total) = 0.48074E-04    rms(broyden)= 0.48058E-04
  rms(prec ) = 0.53647E-04
  weight for this iteration     100.00

 eigenvalues of (default mixing * dielectric matrix)
  average eigenvalue GAMMA=   2.0462
  8.7302  6.0580  4.0367  2.9512  2.3947  2.3947  1.8705  0.2053  0.3576  0.4017
  1.1572  1.1572  0.6588  0.6884  0.9980  0.9816  0.9227  0.8673

 Free energy of the ion-electron system (eV)
  ---------------------------------------------------
  alpha Z        PSCENC =       120.87645803
  Ewald energy   TEWEN  =     38007.72388823
  -Hartree energ DENC   =    -43075.17439596
  -exchange      EXHF   =         0.00000000
  -V(xc)+E(xc)   XCENC  =       173.39620171
  PAW double counting   =      4396.59030081    -4972.50912156
  entropy T*S    EENTRO =        -0.01700561
  eigenvalues    EBANDS =      -243.82589365
  atomic energy  EATOM  =      5575.94961827
  Solvation  Ediel_sol  =         0.00000000
  ---------------------------------------------------
  free energy    TOTEN  =       -16.98994973 eV

  energy without entropy =      -16.97294413  energy(sigma->0) =      -16.98144693


--------------------------------------------------------------------------------------------------------




--------------------------------------- Iteration      1(  24)  ---------------------------------------


    POTLOK:  cpu time    0.0120: real time    0.0126
    SETDIJ:  cpu time    0.0030: real time    0.0032
    EDDIAG:  cpu time    0.1860: real time    0.1864
  RMM-DIIS:  cpu time    0.2990: real time    0.2987
    ORTHCH:  cpu time    0.0230: real time    0.0233
       DOS:  cpu time    0.0090: real time    0.0089
    --------------------------------------------
      LOOP:  cpu time    0.5319: real time    0.5331

 eigenvalue-minimisations  :   721
 total energy-change (2. order) :-0.1736098E-06  (-0.8541081E-09)
 number of electron      45.0000031 magnetization 
 augmentation part       28.7724294 magnetization 

 Free energy of the ion-electron system (eV)
  ---------------------------------------------------
  alpha Z        PSCENC =       120.87645803
[...]
      3      -6.4374      2.00000
      4      -6.2864      2.00000
      5      -6.2160      2.00000
      6      -6.1064      2.00000
      7      -6.0094      2.00000
      8      -5.9396      2.00000
      9      -5.7230      2.00000
     10      -5.6085      2.00000
     11      -5.4828      2.00000
     12      -5.0973      2.00000
     13      -5.0452      2.00000
     14      -4.8718      2.00000
     15      -4.7274      2.00000
     16      -4.5794      2.00000
     17      -4.5049      2.00000
     18      -4.2060      2.00000
     19      -4.1282      2.00000
     20      -4.0374      2.00000
     21      -1.9748      0.00000
     22      -0.4504      0.00000
     23       0.6018      0.00000
     24       1.7725      0.00000
     25       2.3298      0.00000
     26       2.5542      0.00000
     27       3.2239      0.00000
     28       3.7326      0.00000

 k-point    45 :      -0.2000    0.4000    0.0000
  band No.  band energies     occupation 
      1      -7.8810      2.00000
      2      -6.6961      2.00000
      3      -6.6062      2.00000
      4      -6.3652      2.00000
      5      -6.2854      2.00000
      6      -6.0549      2.00000
      7      -6.0054      2.00000
      8      -5.9040      2.00000
      9      -5.5215      2.00000
     10      -5.4872      2.00000
     11      -5.2907      2.00000
     12      -5.1496      2.00000
     13      -4.9987      2.00000
     14      -4.7547      2.00000
     15      -4.6511      2.00000
     16      -4.5321      2.00000
     17      -4.3399      2.00000
     18      -4.1642      2.00000
     19      -4.1157      2.00000
     20      -4.0139      2.00000
     21      -1.9324      0.00000
     22      -0.8377      0.00000
     23      -0.4715      0.00000
     24       0.1005      0.00000
     25       0.7583      0.00000
     26       2.4096      0.00000
     27       3.7528      0.00000
     28       5.0273      0.00000

 k-point    46 :      -0.1000    0.4000    0.0000
  band No.  band energies     occupation 
      1      -8.2741      2.00000
      2      -7.0368      2.00000
      3      -6.8903      2.00000
      4      -6.5443      2.00000
      5      -6.4603      2.00000
      6      -6.1889      2.00000
      7      -5.8336      2.00000
      8      -5.6764      2.00000
      9      -5.4291      2.00000
     10      -5.3034      2.00000
     11      -5.2497      2.00000
     12      -4.9395      2.00000
     13      -4.7887      2.00000
     14      -4.6672      2.00000
     15      -4.4532      2.00000
     16      -4.3166      2.00000
     17      -4.1920      2.00000
     18      -4.1272      2.00000
     19      -4.0694      2.00000
     20      -3.9245      2.00000
     21      -2.9054      2.00000
     22      -2.4288      1.46513
     23      -1.6839      0.00000
     24      -0.5502      0.00000
     25       0.2778      0.00000
     26       2.1774      0.00000
     27       3.3577      0.00000
     28       4.9088      0.00000

 k-point    47 :       0.0000    0.5000    0.0000
  band No.  band energies     occupation 
      1      -8.3745      2.00000
      2      -7.1141      2.00000
      3      -6.9881      2.00000
      4      -6.6332      2.00000
      5      -6.5501      2.00000
      6      -6.2653      2.00000
      7      -5.8045      2.00000
      8      -5.4786      2.00000
      9      -5.4640      2.00000
     10      -5.3207      2.00000
     11      -5.0519      2.00000
     12      -4.9681      2.00000
     13      -4.5328      2.00000
     14      -4.4795      2.00000
     15      -4.3104      2.00000
     16      -4.1610      2.00000
     17      -4.1057      2.00000
     18      -4.0054      2.00000
     19      -3.9510      2.00000
     20      -3.7538      2.00000
     21      -2.7376      2.00000
     22      -2.3772      0.91332
     23      -1.7616      0.00000
     24      -1.2312      0.00000
     25      -0.8462      0.00000
     26       1.8736      0.00000
     27       3.0342      0.00000
     28       4.5073      0.00000

 k-point    48 :       0.1000    0.5000    0.0000
  band No.  band energies     occupation 
      1      -8.2747      2.00000
      2      -7.0365      2.00000
      3      -6.8907      2.00000
      4      -6.5442      2.00000
      5      -6.4596      2.00000
      6      -6.1859      2.00000
      7      -5.8428      2.00000
      8      -5.6642      2.00000
      9      -5.4370      2.00000
     10      -5.3134      2.00000
     11      -5.2286      2.00000
     12      -4.9602      2.00000
     13      -4.7905      2.00000
     14      -4.6431      2.00000
     15      -4.4610      2.00000
     16      -4.3178      2.00000
     17      -4.1890      2.00000
     18      -4.1313      2.00000
     19      -4.0686      2.00000
     20      -3.9233      2.00000
     21      -2.8993      2.00000
     22      -2.4452      1.60659
     23      -1.6895      0.00000
     24      -0.5373      0.00000
     25       0.2851      0.00000
     26       2.1746      0.00000
     27       3.3549      0.00000
     28       4.9043      0.00000

 k-point    49 :       0.2000    0.5000    0.0000
  band No.  band energies     occupation 
      1      -8.0209      2.00000
      2      -6.8840      2.00000
      3      -6.6901      2.00000
      4      -6.4240      2.00000
      5      -6.3086      2.00000
      6      -6.0604      2.00000
      7      -5.9718      2.00000
      8      -5.7885      2.00000
      9      -5.6210      2.00000
     10      -5.5603      2.00000
     11      -5.4080      2.00000
     12      -5.1220      2.00000
     13      -5.0497      2.00000
     14      -4.9018      2.00000
     15      -4.6800      2.00000
     16      -4.6367      2.00000
     17      -4.4314      2.00000
     18      -4.2655      2.00000
     19      -4.0772      2.00000
     20      -3.9431      2.00000
     21      -3.0440      2.00000
     22      -2.4318      1.49304
     23      -1.4303      0.00000
     24       0.3669      0.00000
     25       2.1352      0.00000
     26       3.2561      0.00000
     27       4.2862      0.00000
     28       5.5628      0.00000

 k-point    50 :       0.3000    0.5000    0.0000
  band No.  band energies     occupation 
      1      -7.7911      2.00000
      2      -6.9458      2.00000
      3      -6.7231      2.00000
      4      -6.5019      2.00000
      5      -6.3272      2.00000
      6      -6.2185      2.00000
      7      -6.0081      2.00000
      8      -5.8423      2.00000
      9      -5.6219      2.00000
     10      -5.5749      2.00000
     11      -5.4273      2.00000
     12      -5.1163      2.00000
     13      -5.0141      2.00000
     14      -4.8654      2.00000
     15      -4.7168      2.00000
     16      -4.5902      2.00000
     17      -4.4312      2.00000
     18      -4.2561      2.00000
     19      -4.0826      2.00000
     20      -3.9431      2.00000
     21      -3.1570      2.00000
     22      -2.4101      1.27853
     23      -1.3207      0.00000
     24       0.6753      0.00000
     25       2.7935      0.00000
     26       3.5290      0.00000
     27       3.7613      0.00000
     28       4.8762      0.00000

 k-point    51 :       0.4000    0.5000    0.0000
  band No.  band energies     occupation 
      1      -7.8036      2.00000
      2      -7.0921      2.00000
      3      -6.9016      2.00000
      4      -6.7501      2.00000
      5      -6.5253      2.00000
      6      -6.3784      2.00000
      7      -6.0846      2.00000
      8      -5.6304      2.00000
      9      -5.4450      2.00000
     10      -5.3580      2.00000
     11      -5.2755      2.00000
     12      -5.0520      2.00000
     13      -4.8424      2.00000
     14      -4.5557      2.00000
     15      -4.4599      2.00000
     16      -4.3033      2.00000
     17      -4.1912      2.00000
     18      -4.1298      2.00000
     19      -4.0806      2.00000
     20      -3.9211      2.00000
     21      -3.3977      2.00000
     22      -2.3770      0.91105
     23      -1.3915      0.00000
     24       0.0533      0.00000
     25       1.6915      0.00000
     26       2.4115      0.00000
     27       2.9778      0.00000
     28       4.1454      0.00000

 k-point    52 :       0.5000    0.5000    0.0000
  band No.  band energies     occupation 
      1      -7.8572      2.00000
      2      -7.1706      2.00000
      3      -6.9613      2.00000
      4      -6.8713      2.00000
      5      -6.6176      2.00000
      6      -6.4634      2.00000
      7      -6.0927      2.00000
      8      -5.4594      2.00000
      9      -5.4439      2.00000
     10      -5.2835      2.00000
     11      -5.1614      2.00000
     12      -4.9580      2.00000
     13      -4.6283      2.00000
     14      -4.4682      2.00000
     15      -4.3324      2.00000
     16      -4.2313      2.00000
     17      -4.1010      2.00000
     18      -4.0067      2.00000
     19      -3.9509      2.00000
     20      -3.7545      2.00000
     21      -3.6625      2.00000
     22      -2.2469      0.05102
     23      -1.4114      0.00000
     24      -0.8714      0.00000
     25       1.4061      0.00000
     26       2.0694      0.00000
     27       2.7247      0.00000
     28       3.6886      0.00000


--------------------------------------------------------------------------------------------------------


 soft charge-density along one line, spin component           1
         0         1         2         3         4         5         6         7         8         9
 total charge-density along one line
 
 pseudopotential strength for first ion, spin component:           1
-10.854   0.000  -0.000  -0.005   0.000   1.746  -0.000   0.000
  0.000 -10.827  -0.000   0.000  -0.004  -0.000   1.733   0.000
 -0.000  -0.000 -10.829   0.000   0.003   0.000   0.000   1.734
 -0.005   0.000   0.000 -10.831   0.000   0.002  -0.000  -0.000
  0.000  -0.004   0.003   0.000 -10.854  -0.000   0.002  -0.001
  1.746  -0.000   0.000   0.002  -0.000   0.773   0.000  -0.000
 -0.000   1.733   0.000  -0.000   0.002   0.000   0.779  -0.000
  0.000   0.000   1.734  -0.000  -0.001  -0.000  -0.000   0.779
  0.002  -0.000  -0.000   1.735  -0.000  -0.001   0.000   0.000
 -0.000   0.002  -0.001  -0.000   1.746   0.000  -0.001   0.001
 -0.000   0.000  -0.005  -0.000   0.000   0.000  -0.000   0.002
  0.000  -0.000   0.000   0.000  -0.000  -0.000   0.000  -0.000
 -0.000  -0.010   0.000   0.000   0.000   0.000   0.006  -0.000
  0.000  -0.000  -0.011  -0.000   0.000  -0.000   0.000   0.006
  0.000   0.000   0.000  -0.010  -0.000   0.000  -0.000  -0.000
  0.000   0.005  -0.000   0.000  -0.000  -0.000  -0.003   0.000
  0.000  -0.000   0.006   0.000  -0.000  -0.000   0.000  -0.003
 -0.000   0.000  -0.000   0.005   0.000   0.000  -0.000   0.000
 total augmentation occupancy for first ion, spin component:           1
  1.927   0.000  -0.000  -0.002  -0.000  -0.003  -0.000   0.000   0.009   0.000   0.000   0.000   0.000   0.000   0.005   0.000
  0.000   1.932  -0.000   0.000  -0.002  -0.000  -0.036   0.000   0.000   0.010   0.001   0.000  -0.004   0.000  -0.000  -0.005
 -0.000  -0.000   1.934   0.000   0.001   0.000   0.000  -0.026  -0.000  -0.000   0.015   0.040   0.001   0.035  -0.000  -0.000
 -0.002   0.000   0.000   1.932   0.000   0.010   0.000  -0.000  -0.036  -0.000  -0.000  -0.000  -0.000  -0.000  -0.002   0.000
 -0.000  -0.002   0.001   0.000   1.927   0.000   0.010  -0.000  -0.000  -0.003   0.000   0.000   0.006  -0.001   0.000  -0.001
 -0.003  -0.000   0.000   0.010   0.000   0.059   0.000  -0.000   0.001  -0.000  -0.000   0.000   0.000  -0.000   0.005   0.000
 -0.000  -0.036   0.000   0.000   0.010   0.000   0.038  -0.000  -0.000   0.001  -0.001  -0.000   0.030  -0.000   0.000  -0.002
  0.000   0.000  -0.026  -0.000  -0.000  -0.000  -0.000   0.055   0.000   0.000  -0.077   0.014  -0.001   0.041   0.000   0.000
  0.009   0.000  -0.000  -0.036  -0.000   0.001  -0.000   0.000   0.038   0.000   0.000   0.000   0.000   0.000   0.029   0.000
  0.000   0.010  -0.000  -0.000  -0.003  -0.000   0.001   0.000   0.000   0.059  -0.001  -0.000   0.005   0.000  -0.000  -0.000
  0.000   0.001   0.015  -0.000   0.000  -0.000  -0.001  -0.077   0.000  -0.001   1.239  -0.278  -0.001   0.068   0.000   0.000
  0.000   0.000   0.040  -0.000   0.000   0.000  -0.000   0.014   0.000  -0.000  -0.278   0.108  -0.000  -0.044   0.000  -0.000
  0.000  -0.004   0.001  -0.000   0.006   0.000   0.030  -0.001   0.000   0.005  -0.001  -0.000   0.168  -0.001   0.000  -0.010
  0.000   0.000   0.035  -0.000  -0.001  -0.000  -0.000   0.041   0.000   0.000   0.068  -0.044  -0.001   0.090  -0.000   0.000
  0.005  -0.000  -0.000  -0.002   0.000   0.005   0.000   0.000   0.029  -0.000   0.000   0.000   0.000  -0.000   0.169   0.000
  0.000  -0.005  -0.000   0.000  -0.001   0.000  -0.002   0.000   0.000  -0.000   0.000  -0.000  -0.010   0.000   0.000   0.001
  0.000   0.000  -0.008  -0.000  -0.000   0.000  -0.000  -0.002   0.000  -0.000  -0.013   0.006   0.000  -0.006  -0.000  -0.000
 -0.001   0.000   0.000  -0.005  -0.000  -0.000   0.000  -0.000  -0.002  -0.000  -0.000   0.000   0.000  -0.000  -0.010  -0.000


------------------------ aborting loop because EDIFF is reached ----------------------------------------


 


 total charge     
 
# of ion       s       p       d       tot
------------------------------------------
    1        0.454   0.283   9.218   9.956
    2        0.441   0.363   9.219  10.024
    3        0.453   0.371   9.209  10.033
    4        0.451   0.458   9.203  10.112
    5        0.517   0.017   0.000   0.534
--------------------------------------------------
tot          2.317   1.492  36.850  40.659
 
    CHARGE:  cpu time    0.0500: real time    0.0509
    FORLOC:  cpu time    0.0010: real time    0.0013
    FORNL :  cpu time    0.2750: real time    0.2736
    STRESS:  cpu time    0.8259: real time    0.8265
    FORCOR:  cpu time    0.0110: real time    0.0112
    FORHAR:  cpu time    0.0040: real time    0.0029
    MIXING:  cpu time    0.0000: real time    0.0011
    OFIELD:  cpu time    0.0000: real time    0.0000

  FORCE on cell =-STRESS in cart. coord.  units (eV):
  Direction    XX          YY          ZZ          XY          YZ          ZX
  --------------------------------------------------------------------------------------
  Alpha Z   120.87646   120.87646   120.87646
  Ewald   40959.01132 40909.49464-43860.78574    -0.03456     0.29180     7.25185
  Hartree 42255.53445 42236.82321-41417.17336    -0.03962     0.10949     1.98309
  E(xc)    -253.00175  -253.17952  -253.58377    -0.00515     0.00005     0.01736
  Local  -83479.57336-83416.51004 85009.03571     0.07299    -0.32775    -7.94761
  n-local  -155.59232  -155.76094  -156.25404     0.02690    -0.03432     0.17854
  augment   224.92591   226.66862   226.34541    -0.01518    -0.03091    -0.46794
  Kinetic   323.11585   326.74147   326.72751     0.01335    -0.14761    -0.37086
  Fock        0.00000     0.00000     0.00000     0.00000     0.00000     0.00000
  -------------------------------------------------------------------------------------
  Total      -4.70345    -4.84611    -4.81182     0.01872    -0.13925     0.64442
  in kB     -43.34248   -44.65714   -44.34120     0.17255    -1.28320     5.93838
  external pressure =      -44.11 kB  Pullay stress =        0.00 kB


 VOLUME and BASIS-vectors are now :
 -----------------------------------------------------------------------------
  energy-cutoff  :      250.00
  volume of cell :      173.87
      direct lattice vectors                 reciprocal lattice vectors
     2.573868684  0.000000000  0.000000000     0.388520209 -0.224312248  0.000000000
     1.286934342  2.229035666  0.000000000     0.000000000  0.448624495  0.000000000
     0.000000000  0.000000000 30.304664940     0.000000000  0.000000000  0.032998220

  length of vectors
     2.573868684  2.573868684 30.304664940     0.448624495  0.448624495  0.032998220


 FORCES acting on ions
    electron-ion (+dipol)            ewald-force                    non-local-force                 convergence-correction
 -----------------------------------------------------------------------------------------------
   0.481E-03 -.784E-01 0.421E+04   -.572E-06 0.283E-07 -.421E+04   -.533E-03 0.898E-01 -.147E+01   -.160E-06 -.541E-06 0.214E-03
   0.117E-02 -.535E-01 0.149E+04   0.310E-04 0.252E-03 -.149E+04   -.156E-02 0.561E-01 -.788E+00   -.186E-06 0.828E-05 0.820E-03
   -.647E-02 0.246E+00 -.124E+04   0.116E-01 -.945E-01 0.124E+04   -.109E-01 -.135E+00 0.890E-01   0.442E-05 -.671E-05 0.800E-03
   0.719E+01 0.666E-01 -.398E+04   -.729E+01 0.563E-07 0.398E+04   -.530E+00 -.829E-01 -.513E+00   -.949E-05 -.219E-04 -.400E-03
   -.633E+01 -.108E+00 -.483E+03   0.728E+01 0.943E-01 0.485E+03   -.313E+00 -.831E-03 -.161E+01   0.663E-06 -.347E-06 -.529E-04
 -----------------------------------------------------------------------------------------------
   0.856E+00 0.730E-01 0.429E+01   -.150E-12 0.336E-13 0.000E+00   -.856E+00 -.730E-01 -.430E+01   -.475E-05 -.212E-04 0.138E-02
 
 
 POSITION                                       TOTAL-FORCE (eV/Angst)
 -----------------------------------------------------------------------------------
      0.00000      0.00000     12.00000        -0.000156      0.011441      0.142948
      1.28693      0.74301     14.10155        -0.000465      0.002805     -0.019086
      2.57387      1.48602     16.20311        -0.005858      0.016764     -0.278891
      0.00000      0.00000     18.30466        -0.628411     -0.016239     -0.060773
      1.18693      0.00000     19.30466         0.634890     -0.014770      0.215803
 -----------------------------------------------------------------------------------
    total drift:                                0.000516     -0.000040      0.000411


--------------------------------------------------------------------------------------------------------



  FREE ENERGIE OF THE ION-ELECTRON SYSTEM (eV)
  ---------------------------------------------------
  free  energy   TOTEN  =       -16.98994991 eV

  energy  without entropy=      -16.97294380  energy(sigma->0) =      -16.98144685
 


--------------------------------------------------------------------------------------------------------


    POTLOK:  cpu time    0.0140: real time    0.0138


--------------------------------------------------------------------------------------------------------


     LOOP+:  cpu time   21.7937: real time   21.9178
    4ORBIT:  cpu time    0.0000: real time    0.0000
 


 total charge     
 
# of ion       s       p       d       tot
------------------------------------------
    1        0.454   0.283   9.218   9.956
    2        0.441   0.363   9.219  10.024
    3        0.453   0.371   9.209  10.033
    4        0.451   0.458   9.203  10.112
    5        0.517   0.017   0.000   0.534
--------------------------------------------------
tot          2.317   1.492  36.850  40.659
 

 total amount of memory used by VASP MPI-rank0    43139. kBytes
=======================================================================

   base      :      30000. kBytes
   nonlr-proj:        676. kBytes
   fftplans  :        995. kBytes
   grid      :       1592. kBytes
   one-center:         46. kBytes
   wavefun   :       9830. kBytes
 
  
  
 General timing and accounting informations for this job:
 ========================================================
  
                  Total CPU time used (sec):       23.349
                            User time (sec):       23.045
                          System time (sec):        0.304
                         Elapsed time (sec):       23.974
  
                   Maximum memory used (kb):       43544.
                   Average memory used (kb):           0.
  
                          Minor page faults:        22769
                          Major page faults:           63
                 Voluntary context switches:         3163
