PROCAR lm decomposed
# of k-points:   52         # of bands:   28         # of ions:    5

 k-point     1 :    0.00000000 0.00000000 0.00000000     weight = 0.01000000

band     1 # energy  -11.61866029 # occ.  2.00000000
 
ion      s     py     pz     px    dxy    dyz    dz2    dxz  x2-y2    tot
    1  0.008  0.000  0.001  0.000  0.000  0.000  0.000  0.000  0.000  0.009
    2  0.049  0.000  0.002  0.000  0.000  0.000  0.000  0.000  0.000  0.050
    3  0.141  0.000  0.002  0.000  0.000  0.000  0.000  0.000  0.000  0.144
    4  0.299  0.000  0.000  0.000  0.000  0.000  0.006  0.001  0.006  0.312
    5  0.087  0.000  0.001  0.000  0.000  0.000  0.000  0.000  0.000  0.088
tot    0.584  0.000  0.007  0.000  0.000  0.000  0.006  0.001  0.006  0.604
 
band     2 # energy  -10.63565567 # occ.  2.00000000
 
ion      s     py     pz     px    dxy    dyz    dz2    dxz  x2-y2    tot
    1  0.118  0.000  0.010  0.000  0.000  0.000  0.000  0.000  0.000  0.129
    2  0.258  0.000  0.000  0.000  0.000  0.000  0.003  0.000  0.000  0.261
    3  0.043  0.000  0.018  0.000  0.000  0.000  0.001  0.000  0.000  0.062
    4  0.076  0.000  0.009  0.000  0.000  0.000  0.010  0.000  0.004  0.099
    5  0.044  0.000  0.000  0.000  0.000  0.000  0.000  0.000  0.000  0.044
tot    0.539  0.000  0.038  0.000  0.000  0.000  0.013  0.000  0.004  0.595
 
band     3 # energy   -9.03449625 # occ.  2.00000000
 
ion      s     py     pz     px    dxy    dyz    dz2    dxz  x2-y2    tot
    1  0.188  0.000  0.002  0.000  0.000  0.000  0.020  0.000  0.000  0.211
    2  0.003  0.000  0.045  0.000  0.000  0.000  0.001  0.000  0.000  0.049
    3  0.202  0.000  0.000  0.000  0.000  0.000  0.039  0.000  0.000  0.241
    4  0.010  0.000  0.033  0.000  0.000  0.000  0.022  0.001  0.007  0.072
    5  0.035  0.000  0.000  0.000  0.000  0.000  0.000  0.000  0.000  0.036
tot    0.438  0.000  0.081  0.000  0.000  0.000  0.082  0.001  0.007  0.609
 
band     4 # energy   -7.58641873 # occ.  2.00000000
 
ion      s     py     pz     px    dxy    dyz    dz2    dxz  x2-y2    tot
    1  0.108  0.000  0.005  0.000  0.000  0.000  0.131  0.000  0.000  0.244
    2  0.100  0.000  0.003  0.000  0.000  0.000  0.226  0.000  0.000  0.329
    3  0.032  0.000  0.014  0.000  0.000  0.000  0.089  0.000  0.000  0.136
    4  0.000  0.000  0.012  0.000  0.000  0.000  0.012  0.000  0.004  0.028
    5  0.007  0.000  0.000  0.000  0.000  0.000  0.000  0.000  0.000  0.007
tot    0.247  0.000  0.034  0.000  0.000  0.000  0.458  0.000  0.004  0.744
 
band     5 # energy   -6.33570531 # occ.  2.00000000
 
ion      s     py     pz     px    dxy    dyz    dz2    dxz  x2-y2    tot
    1  0.000  0.000  0.000  0.000  0.000  0.000  0.002  0.000  0.000  0.002
    2  0.001  0.000  0.000  0.000  0.000  0.000  0.000  0.000  0.000  0.001
    3  0.000  0.000  0.004  0.000  0.000  0.001  0.083  0.000  0.000  0.090
    4  0.011  0.000  0.038  0.000  0.000  0.000  0.493  0.012  0.133  0.688
    5  0.054  0.000  0.000  0.000  0.000  0.000  0.000  0.000  0.000  0.054
tot    0.066  0.000  0.043  0.000  0.000  0.001  0.579  0.012  0.133  0.835
 
band     6 # energy   -5.70660514 # occ.  2.00000000
 
ion      s     py     pz     px    dxy    dyz    dz2    dxz  x2-y2    tot
    1  0.000  0.000  0.001  0.000  0.000  0.000  0.016  0.000  0.000  0.017
    2  0.001  0.000  0.000  0.000  0.000  0.000  0.023  0.000  0.001  0.026
    3  0.000  0.000  0.012  0.000  0.000  0.009  0.195  0.000  0.003  0.220
    4  0.008  0.000  0.004  0.000  0.000  0.000  0.305  0.001  0.356  0.673
    5  0.001  0.000  0.001  0.000  0.000  0.000  0.000  0.000  0.000  0.002
tot    0.010  0.000  0.018  0.000  0.000  0.009  0.539  0.001  0.360  0.938
 
band     7 # energy   -5.55436334 # occ.  2.00000000
 
ion      s     py     pz     px    dxy    dyz    dz2    dxz  x2-y2    tot
    1  0.000  0.000  0.000  0.000  0.000  0.000  0.000  0.000  0.000  0.000
    2  0.000  0.000  0.000  0.000  0.012  0.000  0.000  0.000  0.000  0.013
    3  0.000  0.000  0.000  0.000  0.012  0.000  0.000  0.035  0.001  0.048
    4  0.000  0.000  0.000  0.000  0.903  0.002  0.000  0.002  0.000  0.907
    5  0.000  0.000  0.000  0.000  0.000  0.000  0.000  0.000  0.000  0.000
tot    0.000  0.000  0.000  0.000  0.927  0.002  0.000  0.037  0.001  0.968
 
band     8 # energy   -5.48097821 # occ.  2.00000000
 
ion      s     py     pz     px    dxy    dyz    dz2    dxz  x2-y2    tot
    1  0.002  0.000  0.000  0.000  0.000  0.000  0.014  0.000  0.000  0.015
    2  0.000  0.000  0.009  0.000  0.000  0.000  0.138  0.000  0.007  0.155
    3  0.003  0.000  0.001  0.000  0.000  0.012  0.463  0.000  0.006  0.486
    4  0.001  0.000  0.008  0.000  0.000  0.000  0.015  0.000  0.252  0.276
    5  0.001  0.000  0.000  0.000  0.000  0.000  0.000  0.000  0.000  0.002
tot    0.007  0.000  0.019  0.000  0.000  0.013  0.630  0.000  0.265  0.934
 
band     9 # energy   -5.36521887 # occ.  2.00000000
 
ion      s     py     pz     px    dxy    dyz    dz2    dxz  x2-y2    tot
    1  0.000  0.000  0.002  0.000  0.006  0.000  0.114  0.000  0.000  0.124
    2  0.001  0.000  0.000  0.000  0.002  0.000  0.164  0.028  0.020  0.216
    3  0.001  0.000  0.003  0.000  0.393  0.003  0.002  0.015  0.023  0.440
    4  0.000  0.000  0.003  0.000  0.001  0.001  0.001  0.129  0.040  0.174
    5  0.001  0.000  0.000  0.000  0.000  0.000  0.000  0.000  0.000  0.001
tot    0.003  0.000  0.009  0.001  0.402  0.005  0.281  0.173  0.083  0.955
 
band    10 # energy   -5.35081551 # occ.  2.00000000
 
ion      s     py     pz     px    dxy    dyz    dz2    dxz  x2-y2    tot
    1  0.000  0.000  0.003  0.000  0.005  0.000  0.208  0.000  0.001  0.218
    2  0.002  0.000  0.002  0.000  0.003  0.001  0.234  0.021  0.027  0.288
    3  0.001  0.000  0.004  0.000  0.282  0.002  0.001  0.009  0.037  0.336
    4  0.000  0.000  0.006  0.000  0.002  0.001  0.001  0.065  0.023  0.099
    5  0.002  0.000  0.000  0.000  0.000  0.000  0.000  0.000  0.000  0.002
tot    0.005  0.000  0.014  0.000  0.292  0.005  0.443  0.096  0.088  0.943
 
band    11 # energy   -5.32890017 # occ.  2.00000000
 
ion      s     py     pz     px    dxy    dyz    dz2    dxz  x2-y2    tot
    1  0.000  0.000  0.000  0.000  0.000  0.000  0.033  0.000  0.017  0.050
    2  0.000  0.000  0.001  0.000  0.001  0.051  0.023  0.000  0.021  0.097
    3  0.000  0.000  0.000  0.000  0.000  0.018  0.000  0.000  0.688  0.708
    4  0.000  0.000  0.001  0.000  0.001  0.087  0.000  0.000  0.019  0.108
    5  0.000  0.000  0.000  0.000  0.000  0.000  0.000  0.000  0.000  0.000
tot    0.001  0.000  0.002  0.000  0.003  0.156  0.056  0.000  0.745  0.963
 
band    12 # energy   -5.28688806 # occ.  2.00000000
 
ion      s     py     pz     px    dxy    dyz    dz2    dxz  x2-y2    tot
    1  0.000  0.000  0.000  0.000  0.008  0.004  0.006  0.023  0.001  0.042
    2  0.000  0.000  0.000  0.000  0.716  0.002  0.002  0.005  0.117  0.842
    3  0.000  0.000  0.000  0.000  0.001  0.007  0.000  0.038  0.001  0.047
    4  0.000  0.000  0.000  0.000  0.021  0.002  0.000  0.008  0.003  0.034
    5  0.000  0.000  0.000  0.000  0.000  0.000  0.000  0.000  0.000  0.000
tot    0.000  0.000  0.000  0.000  0.746  0.014  0.009  0.075  0.121  0.966
 
band    13 # energy   -5.28484324 # occ.  2.00000000
 
ion      s     py     pz     px    dxy    dyz    dz2    dxz  x2-y2    tot
    1  0.000  0.000  0.000  0.000  0.001  0.024  0.015  0.004  0.004  0.048
    2  0.000  0.000  0.000  0.000  0.125  0.013  0.004  0.001  0.669  0.812
    3  0.000  0.000  0.000  0.000  0.000  0.044  0.001  0.006  0.017  0.069
    4  0.000  0.000  0.000  0.000  0.005  0.011  0.000  0.001  0.018  0.036
    5  0.000  0.000  0.000  0.000  0.000  0.000  0.000  0.000  0.000  0.000
tot    0.000  0.000  0.001  0.000  0.131  0.092  0.020  0.013  0.708  0.965
 
band    14 # energy   -5.03432414 # occ.  2.00000000
 
ion      s     py     pz     px    dxy    dyz    dz2    dxz  x2-y2    tot
    1  0.000  0.000  0.000  0.000  0.805  0.000  0.002  0.008  0.005  0.821
    2  0.000  0.000  0.000  0.000  0.003  0.001  0.000  0.093  0.000  0.097
    3  0.000  0.000  0.000  0.000  0.009  0.000  0.000  0.002  0.000  0.011
    4  0.000  0.000  0.000  0.000  0.000  0.000  0.000  0.037  0.001  0.039
    5  0.000  0.000  0.000  0.000  0.000  0.000  0.000  0.000  0.000  0.000
tot    0.000  0.000  0.000  0.000  0.818  0.001  0.002  0.140  0.006  0.968
 
band    15 # energy   -5.03050737 # occ.  2.00000000
 
ion      s     py     pz     px    dxy    dyz    dz2    dxz  x2-y2    tot
    1  0.000  0.000  0.000  0.000  0.006  0.006  0.001  0.000  0.829  0.842
    2  0.000  0.000  0.000  0.000  0.000  0.079  0.000  0.001  0.001  0.081
    3  0.000  0.000  0.000  0.000  0.000  0.004  0.000  0.000  0.034  0.038
    4  0.000  0.000  0.000  0.000  0.000  0.006  0.000  0.000  0.001  0.007
    5  0.000  0.000  0.000  0.000  0.000  0.000  0.000  0.000  0.000  0.000
tot    0.000  0.000  0.000  0.000  0.006  0.095  0.001  0.001  0.865  0.968
 
band    16 # energy   -4.93364586 # occ.  2.00000000
 
ion      s     py     pz     px    dxy    dyz    dz2    dxz  x2-y2    tot
    1  0.006  0.000  0.000  0.000  0.025  0.000  0.092  0.002  0.001  0.126
    2  0.003  0.000  0.010  0.000  0.012  0.000  0.011  0.005  0.002  0.043
    3  0.000  0.000  0.018  0.000  0.181  0.005  0.000  0.021  0.001  0.226
    4  0.003  0.000  0.009  0.000  0.009  0.005  0.013  0.465  0.024  0.528
    5  0.004  0.000  0.000  0.002  0.000  0.000  0.000  0.000  0.000  0.005
tot    0.016  0.000  0.038  0.002  0.226  0.010  0.117  0.492  0.028  0.929
 
band    17 # energy   -4.83877070 # occ.  2.00000000
 
ion      s     py     pz     px    dxy    dyz    dz2    dxz  x2-y2    tot
    1  0.019  0.000  0.001  0.000  0.001  0.000  0.215  0.001  0.001  0.237
    2  0.011  0.000  0.025  0.000  0.004  0.000  0.047  0.002  0.004  0.094
    3  0.000  0.000  0.057  0.000  0.044  0.017  0.001  0.016  0.004  0.139
    4  0.006  0.000  0.044  0.000  0.004  0.018  0.010  0.187  0.030  0.299
    5  0.013  0.000  0.000  0.001  0.000  0.000  0.000  0.000  0.000  0.014
tot    0.049  0.000  0.127  0.001  0.053  0.036  0.272  0.206  0.039  0.783
 
band    18 # energy   -4.74452946 # occ.  2.00000000
 
ion      s     py     pz     px    dxy    dyz    dz2    dxz  x2-y2    tot
    1  0.001  0.000  0.000  0.000  0.000  0.004  0.010  0.000  0.000  0.015
    2  0.001  0.000  0.001  0.000  0.000  0.002  0.003  0.000  0.019  0.026
    3  0.000  0.000  0.003  0.000  0.000  0.114  0.000  0.001  0.113  0.232
    4  0.000  0.000  0.003  0.000  0.001  0.671  0.000  0.000  0.023  0.698
    5  0.001  0.000  0.000  0.000  0.000  0.000  0.000  0.000  0.000  0.001
tot    0.003  0.000  0.007  0.000  0.001  0.791  0.013  0.001  0.155  0.972
 
band    19 # energy   -4.54154952 # occ.  2.00000000
 
ion      s     py     pz     px    dxy    dyz    dz2    dxz  x2-y2    tot
    1  0.000  0.000  0.000  0.000  0.091  0.000  0.000  0.040  0.001  0.132
    2  0.000  0.000  0.000  0.000  0.066  0.003  0.000  0.419  0.000  0.488
    3  0.000  0.000  0.000  0.000  0.032  0.002  0.000  0.294  0.000  0.329
    4  0.000  0.000  0.000  0.000  0.011  0.000  0.000  0.022  0.000  0.034
    5  0.000  0.000  0.000  0.000  0.000  0.000  0.000  0.000  0.000  0.000
tot    0.000  0.000  0.000  0.000  0.200  0.006  0.000  0.775  0.001  0.984
 
band    20 # energy   -4.53253617 # occ.  2.00000000
 
ion      s     py     pz     px    dxy    dyz    dz2    dxz  x2-y2    tot
    1  0.000  0.000  0.000  0.000  0.001  0.054  0.001  0.000  0.093  0.148
    2  0.000  0.000  0.000  0.000  0.000  0.456  0.000  0.003  0.057  0.517
    3  0.000  0.000  0.000  0.000  0.000  0.214  0.000  0.002  0.022  0.238
    4  0.000  0.000  0.000  0.000  0.000  0.070  0.000  0.000  0.009  0.079
    5  0.000  0.000  0.000  0.000  0.000  0.000  0.000  0.000  0.000  0.000
tot    0.000  0.000  0.001  0.000  0.002  0.794  0.001  0.005  0.180  0.983
 
band    21 # energy   -4.32629539 # occ.  2.00000000
 
ion      s     py     pz     px    dxy    dyz    dz2    dxz  x2-y2    tot
    1  0.000  0.000  0.000  0.000  0.013  0.003  0.000  0.321  0.000  0.337
    2  0.000  0.000  0.000  0.000  0.000  0.001  0.000  0.136  0.000  0.138
    3  0.000  0.000  0.000  0.000  0.008  0.004  0.000  0.445  0.000  0.457
    4  0.000  0.000  0.000  0.000  0.009  0.001  0.000  0.043  0.000  0.053
    5  0.000  0.000  0.000  0.000  0.000  0.000  0.000  0.000  0.000  0.000
tot    0.000  0.000  0.000  0.001  0.031  0.009  0.000  0.945  0.000  0.986
 
band    22 # energy   -4.31005383 # occ.  2.00000000
 
ion      s     py     pz     px    dxy    dyz    dz2    dxz  x2-y2    tot
    1  0.000  0.000  0.000  0.000  0.000  0.315  0.000  0.003  0.010  0.328
    2  0.000  0.000  0.000  0.000  0.000  0.105  0.000  0.001  0.000  0.107
    3  0.000  0.000  0.000  0.000  0.000  0.426  0.000  0.005  0.011  0.442
    4  0.000  0.000  0.000  0.000  0.000  0.099  0.000  0.000  0.008  0.109
    5  0.000  0.000  0.000  0.000  0.000  0.000  0.000  0.000  0.000  0.000
tot    0.000  0.000  0.000  0.000  0.000  0.946  0.000  0.009  0.029  0.986
 
band    23 # energy   -4.04773323 # occ.  2.00000000
 
ion      s     py     pz     px    dxy    dyz    dz2    dxz  x2-y2    tot
    1  0.000  0.000  0.000  0.000  0.007  0.000  0.000  0.581  0.000  0.588
    2  0.000  0.000  0.000  0.000  0.023  0.000  0.000  0.270  0.000  0.293
    3  0.000  0.000  0.000  0.000  0.006  0.000  0.000  0.096  0.000  0.102
    4  0.000  0.000  0.000  0.000  0.001  0.000  0.000  0.006  0.000  0.007
    5  0.000  0.000  0.000  0.000  0.000  0.000  0.000  0.000  0.000  0.000
tot    0.000  0.000  0.000  0.000  0.038  0.000  0.000  0.952  0.000  0.990
 
band    24 # energy   -4.04297733 # occ.  2.00000000
 
ion      s     py     pz     px    dxy    dyz    dz2    dxz  x2-y2    tot
    1  0.000  0.000  0.000  0.000  0.000  0.573  0.000  0.000  0.007  0.580
    2  0.000  0.000  0.000  0.000  0.000  0.269  0.000  0.000  0.023  0.292
    3  0.000  0.000  0.000  0.000  0.000  0.099  0.000  0.000  0.007  0.106
    4  0.000  0.000  0.000  0.000  0.000  0.011  0.000  0.000  0.001  0.012
    5  0.000  0.000  0.000  0.000  0.000  0.000  0.000  0.000  0.000  0.000
tot    0.000  0.000  0.000  0.000  0.000  0.951  0.000  0.000  0.038  0.990
 
band    25 # energy   -2.96538846 # occ.  2.00000000
 
ion      s     py     pz     px    dxy    dyz    dz2    dxz  x2-y2    tot
    1  0.020  0.000  0.151  0.000  0.000  0.000  0.030  0.000  0.000  0.201
    2  0.014  0.000  0.080  0.000  0.000  0.000  0.022  0.000  0.000  0.117
    3  0.011  0.000  0.037  0.000  0.000  0.000  0.017  0.000  0.000  0.065
    4  0.008  0.000  0.014  0.000  0.000  0.000  0.009  0.000  0.001  0.032
    5  0.004  0.000  0.000  0.000  0.000  0.000  0.000  0.000  0.000  0.005
tot    0.058  0.000  0.283  0.000  0.000  0.000  0.078  0.000  0.001  0.420
 
band    26 # energy    1.62140131 # occ.  0.00000000
 
ion      s     py     pz     px    dxy    dyz    dz2    dxz  x2-y2    tot
    1  0.021  0.000  0.001  0.000  0.000  0.000  0.022  0.000  0.000  0.044
    2  0.028  0.000  0.001  0.000  0.000  0.000  0.025  0.000  0.000  0.053
    3  0.033  0.000  0.000  0.000  0.000  0.000  0.029  0.000  0.000  0.062
    4  0.032  0.000  0.000  0.000  0.000  0.000  0.032  0.000  0.000  0.064
    5  0.000  0.000  0.002  0.000  0.000  0.000  0.000  0.000  0.000  0.002
tot    0.114  0.000  0.004  0.000  0.000  0.000  0.108  0.000  0.000  0.226
 
band    27 # energy    1.94868013 # occ.  0.00000000
 
ion      s     py     pz     px    dxy    dyz    dz2    dxz  x2-y2    tot
    1  0.003  0.000  0.005  0.000  0.000  0.000  0.003  0.000  0.000  0.010
    2  0.000  0.000  0.005  0.000  0.000  0.000  0.000  0.000  0.000  0.005
    3  0.002  0.000  0.005  0.000  0.000  0.000  0.002  0.000  0.000  0.008
    4  0.007  0.000  0.003  0.000  0.000  0.000  0.009  0.000  0.000  0.019
    5  0.001  0.000  0.001  0.000  0.000  0.000  0.000  0.000  0.000  0.002
tot    0.013  0.000  0.018  0.000  0.000  0.000  0.013  0.000  0.000  0.045
 
band    28 # energy    2.37517105 # occ.  0.00000000
 
ion      s     py     pz     px    dxy    dyz    dz2    dxz  x2-y2    tot
    1  0.005  0.000  0.002  0.000  0.000  0.000  0.005  0.000  0.000  0.012
    2  0.001  0.000  0.003  0.000  0.000  0.000  0.001  0.000  0.000  0.005
    3  0.000  0.000  0.003  0.000  0.000  0.000  0.000  0.000  0.000  0.003
    4  0.002  0.000  0.002  0.000  0.000  0.000  0.003  0.000  0.000  0.007
    5  0.001  0.000  0.000  0.000  0.000  0.000  0.000  0.000  0.000  0.001
tot    0.009  0.000  0.011  0.000  0.000  0.000  0.009  0.000  0.000  0.029
 

 k-point     2 :    0.10000000 0.00000000 0.00000000     weight = 0.02000000

band     1 # energy  -11.31127653 # occ.  2.00000000
 
ion      s     py     pz     px    dxy    dyz    dz2    dxz  x2-y2    tot
    1  0.007  0.000  0.001  0.000  0.000  0.000  0.000  0.000  0.000  0.009
    2  0.045  0.000  0.002  0.001  0.000  0.000  0.000  0.000  0.000  0.048
    3  0.134  0.001  0.003  0.003  0.000  0.000  0.000  0.000  0.000  0.141
    4  0.291  0.002  0.000  0.009  0.000  0.000  0.005  0.001  0.005  0.314
    5  0.091  0.000  0.001  0.000  0.000  0.000  0.000  0.000  0.000  0.092
tot    0.569  0.003  0.007  0.013  0.000  0.000  0.005  0.002  0.005  0.604
 
band     2 # energy  -10.33899931 # occ.  2.00000000
 
ion      s     py     pz     px    dxy    dyz    dz2    dxz  x2-y2    tot
    1  0.112  0.001  0.010  0.002  0.000  0.000  0.000  0.001  0.000  0.127
    2  0.251  0.002  0.000  0.006  0.000  0.000  0.002  0.000  0.000  0.261
    3  0.046  0.000  0.017  0.001  0.000  0.000  0.000  0.001  0.000  0.067
    4  0.069  0.000  0.009  0.003  0.000  0.000  0.009  0.003  0.004  0.096
    5  0.044  0.000  0.000  0.000  0.000  0.000  0.000  0.000  0.000  0.045
tot    0.522  0.003  0.037  0.012  0.000  0.001  0.011  0.005  0.004  0.596
 
band     3 # energy   -8.77573225 # occ.  2.00000000
 
ion      s     py     pz     px    dxy    dyz    dz2    dxz  x2-y2    tot
    1  0.178  0.001  0.002  0.004  0.000  0.000  0.017  0.000  0.000  0.204
    2  0.004  0.000  0.044  0.000  0.000  0.002  0.001  0.005  0.000  0.056
    3  0.193  0.002  0.000  0.005  0.000  0.000  0.036  0.000  0.000  0.236
    4  0.007  0.000  0.033  0.001  0.000  0.001  0.022  0.009  0.007  0.081
    5  0.036  0.000  0.000  0.000  0.000  0.000  0.000  0.000  0.000  0.037
tot    0.418  0.003  0.080  0.010  0.001  0.003  0.076  0.014  0.007  0.613
 
band     4 # energy   -7.36693313 # occ.  2.00000000
 
ion      s     py     pz     px    dxy    dyz    dz2    dxz  x2-y2    tot
    1  0.105  0.001  0.004  0.004  0.001  0.000  0.134  0.000  0.000  0.249
    2  0.090  0.001  0.004  0.004  0.001  0.000  0.228  0.001  0.000  0.329
    3  0.025  0.000  0.015  0.001  0.000  0.001  0.084  0.003  0.000  0.131
    4  0.000  0.000  0.012  0.000  0.000  0.001  0.011  0.006  0.004  0.034
    5  0.007  0.000  0.000  0.000  0.000  0.000  0.000  0.000  0.000  0.007
tot    0.228  0.003  0.035  0.009  0.002  0.002  0.457  0.010  0.005  0.750
 
band     5 # energy   -6.35575315 # occ.  2.00000000
 
ion      s     py     pz     px    dxy    dyz    dz2    dxz  x2-y2    tot
    1  0.000  0.000  0.000  0.000  0.000  0.000  0.002  0.000  0.000  0.002
    2  0.001  0.000  0.000  0.000  0.001  0.000  0.001  0.000  0.000  0.003
    3  0.000  0.000  0.007  0.000  0.006  0.001  0.120  0.001  0.002  0.137
    4  0.014  0.001  0.034  0.000  0.007  0.009  0.388  0.096  0.108  0.657
    5  0.047  0.000  0.000  0.000  0.000  0.000  0.000  0.000  0.000  0.048
tot    0.062  0.001  0.041  0.001  0.014  0.010  0.510  0.097  0.110  0.846
 
band     6 # energy   -5.74252020 # occ.  2.00000000
 
ion      s     py     pz     px    dxy    dyz    dz2    dxz  x2-y2    tot
    1  0.001  0.000  0.001  0.000  0.001  0.000  0.019  0.000  0.000  0.022
    2  0.002  0.000  0.001  0.000  0.019  0.001  0.073  0.001  0.007  0.104
    3  0.000  0.000  0.017  0.000  0.016  0.020  0.150  0.048  0.008  0.260
    4  0.006  0.000  0.006  0.000  0.026  0.001  0.359  0.012  0.130  0.540
    5  0.001  0.000  0.001  0.000  0.000  0.000  0.000  0.000  0.000  0.002
tot    0.010  0.000  0.025  0.001  0.062  0.022  0.601  0.061  0.145  0.928
 
band     7 # energy   -5.65919224 # occ.  2.00000000
 
ion      s     py     pz     px    dxy    dyz    dz2    dxz  x2-y2    tot
    1  0.000  0.000  0.000  0.000  0.002  0.000  0.019  0.000  0.001  0.023
    2  0.000  0.000  0.003  0.000  0.012  0.004  0.034  0.010  0.005  0.068
    3  0.001  0.000  0.002  0.000  0.007  0.011  0.140  0.035  0.002  0.198
    4  0.000  0.000  0.003  0.000  0.470  0.006  0.014  0.047  0.118  0.659
    5  0.000  0.000  0.000  0.000  0.000  0.000  0.000  0.000  0.000  0.001
tot    0.002  0.000  0.009  0.001  0.492  0.020  0.207  0.092  0.126  0.948
 
band     8 # energy   -5.49380472 # occ.  2.00000000
 
ion      s     py     pz     px    dxy    dyz    dz2    dxz  x2-y2    tot
    1  0.001  0.000  0.000  0.000  0.002  0.001  0.006  0.005  0.001  0.016
    2  0.000  0.000  0.003  0.000  0.066  0.002  0.051  0.008  0.014  0.144
    3  0.000  0.000  0.002  0.000  0.061  0.015  0.092  0.014  0.010  0.195
    4  0.002  0.001  0.000  0.000  0.297  0.010  0.003  0.024  0.263  0.600
    5  0.000  0.000  0.000  0.000  0.000  0.000  0.000  0.000  0.000  0.001
tot    0.004  0.001  0.006  0.000  0.425  0.028  0.153  0.050  0.288  0.956
 
band     9 # energy   -5.42762196 # occ.  2.00000000
 
ion      s     py     pz     px    dxy    dyz    dz2    dxz  x2-y2    tot
    1  0.001  0.000  0.001  0.000  0.027  0.002  0.089  0.006  0.008  0.134
    2  0.001  0.000  0.008  0.000  0.013  0.031  0.037  0.118  0.001  0.209
    3  0.001  0.000  0.010  0.000  0.287  0.002  0.015  0.004  0.075  0.394
    4  0.001  0.000  0.001  0.000  0.048  0.007  0.039  0.100  0.004  0.201
    5  0.000  0.000  0.000  0.000  0.000  0.000  0.000  0.000  0.000  0.001
tot    0.004  0.000  0.020  0.001  0.375  0.042  0.179  0.227  0.089  0.937
 
band    10 # energy   -5.39182321 # occ.  2.00000000
 
ion      s     py     pz     px    dxy    dyz    dz2    dxz  x2-y2    tot
    1  0.002  0.000  0.002  0.000  0.014  0.005  0.065  0.010  0.004  0.101
    2  0.002  0.000  0.002  0.001  0.072  0.005  0.251  0.010  0.062  0.403
    3  0.001  0.000  0.008  0.000  0.034  0.026  0.067  0.011  0.031  0.178
    4  0.001  0.000  0.004  0.000  0.036  0.004  0.018  0.043  0.148  0.254
    5  0.001  0.000  0.000  0.000  0.000  0.000  0.000  0.000  0.000  0.002
tot    0.006  0.000  0.016  0.001  0.156  0.040  0.401  0.074  0.245  0.939
 
band    11 # energy   -5.33745767 # occ.  2.00000000
 
ion      s     py     pz     px    dxy    dyz    dz2    dxz  x2-y2    tot
    1  0.001  0.000  0.001  0.000  0.023  0.004  0.039  0.014  0.008  0.091
    2  0.001  0.000  0.000  0.000  0.407  0.002  0.069  0.003  0.124  0.607
    3  0.000  0.000  0.002  0.000  0.032  0.001  0.074  0.008  0.026  0.143
    4  0.000  0.000  0.002  0.000  0.029  0.001  0.012  0.028  0.041  0.114
    5  0.000  0.000  0.000  0.000  0.000  0.000  0.000  0.000  0.000  0.001
tot    0.002  0.000  0.005  0.001  0.491  0.008  0.195  0.053  0.199  0.955
 
band    12 # energy   -5.25098985 # occ.  2.00000000
 
ion      s     py     pz     px    dxy    dyz    dz2    dxz  x2-y2    tot
    1  0.000  0.000  0.000  0.000  0.002  0.005  0.009  0.001  0.013  0.030
    2  0.000  0.000  0.000  0.000  0.007  0.057  0.008  0.016  0.005  0.094
    3  0.000  0.000  0.000  0.000  0.110  0.029  0.000  0.006  0.543  0.689
    4  0.000  0.000  0.000  0.000  0.002  0.128  0.000  0.020  0.003  0.154
    5  0.000  0.000  0.000  0.000  0.000  0.000  0.000  0.000  0.000  0.000
tot    0.000  0.001  0.001  0.000  0.121  0.219  0.018  0.042  0.564  0.967
 
band    13 # energy   -5.19032081 # occ.  2.00000000
 
ion      s     py     pz     px    dxy    dyz    dz2    dxz  x2-y2    tot
    1  0.000  0.000  0.000  0.000  0.005  0.021  0.029  0.009  0.003  0.067
    2  0.000  0.001  0.001  0.000  0.220  0.009  0.007  0.002  0.545  0.786
    3  0.000  0.000  0.000  0.000  0.022  0.039  0.000  0.018  0.012  0.093
    4  0.000  0.000  0.000  0.000  0.009  0.001  0.000  0.001  0.008  0.019
    5  0.000  0.000  0.000  0.000  0.000  0.000  0.000  0.000  0.000  0.000
tot    0.001  0.001  0.002  0.000  0.257  0.069  0.036  0.030  0.568  0.965
 
band    14 # energy   -5.15310833 # occ.  2.00000000
 
ion      s     py     pz     px    dxy    dyz    dz2    dxz  x2-y2    tot
    1  0.003  0.000  0.002  0.000  0.023  0.004  0.283  0.007  0.019  0.341
    2  0.001  0.000  0.016  0.000  0.018  0.018  0.047  0.015  0.073  0.187
    3  0.000  0.000  0.009  0.000  0.242  0.007  0.003  0.035  0.024  0.322
    4  0.001  0.000  0.007  0.000  0.001  0.003  0.001  0.015  0.043  0.071
    5  0.002  0.000  0.000  0.000  0.000  0.000  0.000  0.000  0.000  0.002
tot    0.007  0.000  0.035  0.000  0.285  0.031  0.334  0.073  0.160  0.924
 
band    15 # energy   -5.05540709 # occ.  2.00000000
 
ion      s     py     pz     px    dxy    dyz    dz2    dxz  x2-y2    tot
    1  0.001  0.000  0.000  0.001  0.565  0.001  0.038  0.005  0.164  0.777
    2  0.000  0.000  0.007  0.000  0.008  0.002  0.015  0.015  0.003  0.049
    3  0.001  0.000  0.003  0.000  0.005  0.011  0.034  0.038  0.007  0.100
    4  0.000  0.000  0.001  0.000  0.008  0.001  0.000  0.011  0.009  0.029
    5  0.000  0.000  0.000  0.000  0.000  0.000  0.000  0.000  0.000  0.000
tot    0.003  0.000  0.011  0.001  0.585  0.015  0.088  0.069  0.183  0.955
 
band    16 # energy   -4.94482196 # occ.  2.00000000
 
ion      s     py     pz     px    dxy    dyz    dz2    dxz  x2-y2    tot
    1  0.000  0.001  0.000  0.000  0.168  0.010  0.001  0.004  0.556  0.739
    2  0.000  0.000  0.000  0.000  0.000  0.095  0.000  0.035  0.001  0.132
    3  0.000  0.000  0.000  0.000  0.010  0.010  0.000  0.003  0.025  0.048
    4  0.000  0.000  0.000  0.000  0.001  0.039  0.000  0.006  0.003  0.050
    5  0.000  0.000  0.000  0.000  0.000  0.000  0.000  0.000  0.000  0.000
tot    0.000  0.001  0.001  0.000  0.179  0.154  0.001  0.049  0.585  0.969
 
band    17 # energy   -4.79770748 # occ.  2.00000000
 
ion      s     py     pz     px    dxy    dyz    dz2    dxz  x2-y2    tot
    1  0.000  0.000  0.000  0.000  0.006  0.001  0.004  0.010  0.052  0.073
    2  0.000  0.000  0.000  0.000  0.017  0.011  0.000  0.003  0.013  0.045
    3  0.001  0.000  0.001  0.000  0.066  0.024  0.005  0.104  0.094  0.296
    4  0.000  0.000  0.004  0.000  0.016  0.306  0.001  0.209  0.016  0.552
    5  0.001  0.000  0.000  0.001  0.000  0.000  0.000  0.000  0.000  0.002
tot    0.002  0.000  0.006  0.001  0.105  0.342  0.011  0.326  0.174  0.968
 
band    18 # energy   -4.74849886 # occ.  2.00000000
 
ion      s     py     pz     px    dxy    dyz    dz2    dxz  x2-y2    tot
    1  0.000  0.000  0.000  0.000  0.043  0.013  0.004  0.016  0.001  0.077
    2  0.000  0.000  0.000  0.000  0.027  0.002  0.004  0.045  0.019  0.097
    3  0.002  0.000  0.001  0.000  0.032  0.134  0.021  0.173  0.048  0.412
    4  0.000  0.000  0.008  0.000  0.006  0.214  0.004  0.115  0.020  0.367
    5  0.004  0.000  0.000  0.000  0.000  0.000  0.000  0.000  0.000  0.004
tot    0.007  0.000  0.009  0.001  0.109  0.364  0.032  0.348  0.088  0.959
 
band    19 # energy   -4.54835439 # occ.  2.00000000
 
ion      s     py     pz     px    dxy    dyz    dz2    dxz  x2-y2    tot
    1  0.000  0.000  0.000  0.000  0.020  0.078  0.000  0.003  0.111  0.212
    2  0.000  0.000  0.000  0.000  0.004  0.310  0.000  0.044  0.059  0.419
    3  0.000  0.000  0.000  0.000  0.007  0.165  0.002  0.028  0.045  0.247
    4  0.000  0.000  0.000  0.000  0.001  0.062  0.000  0.037  0.004  0.104
    5  0.000  0.000  0.000  0.000  0.000  0.000  0.000  0.000  0.000  0.000
tot    0.000  0.000  0.001  0.000  0.032  0.615  0.002  0.112  0.219  0.982
 
band    20 # energy   -4.51060331 # occ.  2.00000000
 
ion      s     py     pz     px    dxy    dyz    dz2    dxz  x2-y2    tot
    1  0.000  0.000  0.004  0.000  0.042  0.053  0.001  0.331  0.006  0.437
    2  0.000  0.000  0.004  0.000  0.051  0.028  0.000  0.203  0.003  0.289
    3  0.003  0.000  0.001  0.000  0.013  0.004  0.024  0.066  0.001  0.112
    4  0.000  0.000  0.003  0.000  0.003  0.061  0.000  0.048  0.002  0.118
    5  0.002  0.000  0.000  0.000  0.000  0.000  0.000  0.000  0.000  0.002
tot    0.005  0.000  0.013  0.000  0.108  0.145  0.026  0.649  0.012  0.958
 
band    21 # energy   -4.34617808 # occ.  2.00000000
 
ion      s     py     pz     px    dxy    dyz    dz2    dxz  x2-y2    tot
    1  0.011  0.000  0.013  0.000  0.017  0.172  0.079  0.157  0.002  0.450
    2  0.001  0.000  0.001  0.000  0.009  0.038  0.002  0.283  0.005  0.340
    3  0.001  0.000  0.003  0.000  0.005  0.024  0.009  0.015  0.000  0.058
    4  0.000  0.000  0.005  0.000  0.001  0.009  0.000  0.040  0.001  0.057
    5  0.002  0.000  0.000  0.000  0.000  0.000  0.000  0.000  0.000  0.002
tot    0.015  0.000  0.023  0.001  0.032  0.244  0.090  0.494  0.008  0.907
 
band    22 # energy   -4.31048557 # occ.  2.00000000
 
ion      s     py     pz     px    dxy    dyz    dz2    dxz  x2-y2    tot
    1  0.001  0.000  0.001  0.000  0.001  0.162  0.007  0.145  0.012  0.329
    2  0.000  0.000  0.000  0.000  0.005  0.113  0.000  0.007  0.011  0.137
    3  0.000  0.000  0.000  0.000  0.000  0.303  0.002  0.104  0.006  0.416
    4  0.000  0.000  0.001  0.000  0.002  0.077  0.000  0.009  0.009  0.097
    5  0.000  0.000  0.000  0.000  0.000  0.000  0.000  0.000  0.000  0.000
tot    0.002  0.000  0.002  0.000  0.008  0.655  0.009  0.265  0.038  0.980
 
band    23 # energy   -4.04018997 # occ.  2.00000000
 
ion      s     py     pz     px    dxy    dyz    dz2    dxz  x2-y2    tot
    1  0.000  0.000  0.000  0.000  0.002  0.409  0.000  0.136  0.007  0.554
    2  0.000  0.000  0.000  0.000  0.005  0.226  0.000  0.068  0.016  0.316
    3  0.000  0.000  0.000  0.000  0.002  0.076  0.000  0.025  0.006  0.109