<?xml version="1.0" encoding="ISO-8859-1"?>
<modeling>
 <generator>
  <i name="program" type="string">vasp </i>
  <i name="version" type="string">5.4.4.18Apr17-6-g9f103f2a35  </i>
  <i name="subversion" type="string">(build Jun 30 2017 11:15:00) complex            parallel </i>
  <i name="platform" type="string">STALLO_VASP_5.4.4 </i>
  <i name="date" type="string">2019 10 11 </i>
  <i name="time" type="string">10:58:30 </i>
 </generator>
 <incar>
  <i type="string" name="PREC">normal    ! low/normal/accurate</i>
  <i type="string" name="ALGO"> Fast      ! Algorithm for electronic re</i>
  <i type="int" name="ISPIN">     1</i>
  <i type="int" name="NELMIN">     4</i>
  <i name="EDIFF">      0.00000100</i>
  <i type="int" name="NSW">     0</i>
  <i name="ENCUT">    250.00000000</i>
  <i type="int" name="NEDOS">  2401</i>
  <i type="string" name="LREAL"> Auto      ! Projection in reciprocal sp</i>
  <i name="EMIN">    -17.00000000</i>
  <i name="EMAX">      7.00000000</i>
  <i type="int" name="ISMEAR">     0</i>
  <i name="SIGMA">      0.10000000</i>
  <i type="logical" name="LWAVE"> F  </i>
  <i type="int" name="LORBIT">    11</i>
  <i type="logical" name="LELF"> T  </i>
  <v type="int" name="KPOINT_BSE">    -1     0     0     0</v>
 </incar>
 <structure name="primitive_cell" >
  <crystal>
   <varray name="basis" >
    <v>       2.57386868       0.00000000       0.00000000 </v>
    <v>       1.28693434       2.22903567       0.00000000 </v>
    <v>       0.00000000       0.00000000      30.30466494 </v>
   </varray>
   <i name="volume">    173.86529028 </i>
   <varray name="rec_basis" >
    <v>       0.38852021      -0.22431225       0.00000000 </v>
    <v>       0.00000000       0.44862450       0.00000000 </v>
    <v>       0.00000000       0.00000000       0.03299822 </v>
   </varray>
  </crystal>
  <varray name="positions" >
   <v>       0.00000000       0.00000000       0.39597864 </v>
   <v>       0.33333333       0.33333333       0.46532621 </v>
   <v>      -0.33333334      -0.33333333      -0.46532621 </v>
   <v>       0.00000000       0.00000000      -0.39597864 </v>
   <v>       0.46114798       0.00000000      -0.36298042 </v>
  </varray>
 </structure>
 <varray name="primitive_index" >
  <v type="int" >        1 </v>
  <v type="int" >        2 </v>
  <v type="int" >        3 </v>
  <v type="int" >        4 </v>
  <v type="int" >        5 </v>
 </varray>
 <kpoints>
  <generation param="Gamma">
   <v type="int" name="divisions">      10       10        1 </v>
   <v name="usershift">      0.00000000       0.00000000       0.00000000 </v>
   <v name="genvec1">      0.10000000       0.00000000       0.00000000 </v>
   <v name="genvec2">      0.00000000       0.10000000       0.00000000 </v>
   <v name="genvec3">      0.00000000       0.00000000       1.00000000 </v>
   <v name="shift">      0.00000000       0.00000000       0.00000000 </v>
  </generation>
  <varray name="kpointlist" >
   <v>       0.00000000       0.00000000       0.00000000 </v>
   <v>       0.10000000       0.00000000       0.00000000 </v>
   <v>       0.20000000      -0.00000000       0.00000000 </v>
   <v>       0.30000000      -0.00000000       0.00000000 </v>
   <v>       0.40000000      -0.00000000       0.00000000 </v>
   <v>       0.50000000      -0.00000000       0.00000000 </v>
   <v>       0.00000000       0.10000000       0.00000000 </v>
   <v>       0.10000000       0.10000000       0.00000000 </v>
   <v>       0.20000000       0.10000000       0.00000000 </v>
   <v>       0.30000000       0.10000000       0.00000000 </v>
   <v>       0.40000000       0.10000000       0.00000000 </v>
   <v>       0.50000000       0.10000000       0.00000000 </v>
   <v>      -0.40000000       0.10000000       0.00000000 </v>
   <v>      -0.30000000       0.10000000       0.00000000 </v>
   <v>      -0.20000000       0.10000000       0.00000000 </v>
   <v>      -0.10000000       0.10000000       0.00000000 </v>
   <v>       0.00000000       0.20000000       0.00000000 </v>
   <v>       0.10000000       0.20000000       0.00000000 </v>
   <v>       0.20000000       0.20000000       0.00000000 </v>
   <v>       0.30000000       0.20000000       0.00000000 </v>
   <v>       0.40000000       0.20000000       0.00000000 </v>
   <v>       0.50000000       0.20000000       0.00000000 </v>
   <v>      -0.40000000       0.20000000       0.00000000 </v>
   <v>      -0.30000000       0.20000000       0.00000000 </v>
   <v>      -0.20000000       0.20000000       0.00000000 </v>
   <v>      -0.10000000       0.20000000       0.00000000 </v>
   <v>       0.00000000       0.30000000       0.00000000 </v>
   <v>       0.10000000       0.30000000       0.00000000 </v>
   <v>       0.20000000       0.30000000       0.00000000 </v>
   <v>       0.30000000       0.30000000       0.00000000 </v>
   <v>       0.40000000       0.30000000       0.00000000 </v>
   <v>       0.50000000       0.30000000       0.00000000 </v>
   <v>      -0.40000000       0.30000000       0.00000000 </v>
   <v>      -0.30000000       0.30000000       0.00000000 </v>
   <v>      -0.20000000       0.30000000       0.00000000 </v>
   <v>      -0.10000000       0.30000000       0.00000000 </v>
   <v>       0.00000000       0.40000000       0.00000000 </v>
   <v>       0.10000000       0.40000000       0.00000000 </v>
   <v>       0.20000000       0.40000000       0.00000000 </v>
   <v>       0.30000000       0.40000000       0.00000000 </v>
   <v>       0.40000000       0.40000000       0.00000000 </v>
   <v>       0.50000000       0.40000000       0.00000000 </v>
   <v>      -0.40000000       0.40000000       0.00000000 </v>
   <v>      -0.30000000       0.40000000       0.00000000 </v>
   <v>      -0.20000000       0.40000000       0.00000000 </v>
   <v>      -0.10000000       0.40000000       0.00000000 </v>
   <v>       0.00000000       0.50000000       0.00000000 </v>
   <v>       0.10000000       0.50000000       0.00000000 </v>
   <v>       0.20000000       0.50000000       0.00000000 </v>
   <v>       0.30000000       0.50000000       0.00000000 </v>
   <v>       0.40000000       0.50000000       0.00000000 </v>
   <v>       0.50000000       0.50000000       0.00000000 </v>
  </varray>
  <varray name="weights" >
   <v>       0.01000000 </v>
   <v>       0.02000000 </v>
   <v>       0.02000000 </v>
   <v>       0.02000000 </v>
   <v>       0.02000000 </v>
   <v>       0.01000000 </v>
   <v>       0.02000000 </v>
   <v>       0.02000000 </v>
   <v>       0.02000000 </v>
   <v>       0.02000000 </v>
   <v>       0.02000000 </v>
   <v>       0.02000000 </v>
   <v>       0.02000000 </v>
   <v>       0.02000000 </v>
   <v>       0.02000000 </v>
   <v>       0.02000000 </v>
   <v>       0.02000000 </v>
   <v>       0.02000000 </v>
   <v>       0.02000000 </v>
   <v>       0.02000000 </v>
   <v>       0.02000000 </v>
   <v>       0.02000000 </v>
   <v>       0.02000000 </v>
   <v>       0.02000000 </v>
   <v>       0.02000000 </v>
   <v>       0.02000000 </v>
   <v>       0.02000000 </v>
   <v>       0.02000000 </v>
   <v>       0.02000000 </v>
   <v>       0.02000000 </v>
   <v>       0.02000000 </v>
   <v>       0.02000000 </v>
   <v>       0.02000000 </v>
   <v>       0.02000000 </v>
   <v>       0.02000000 </v>
   <v>       0.02000000 </v>
   <v>       0.02000000 </v>
   <v>       0.02000000 </v>
   <v>       0.02000000 </v>
   <v>       0.02000000 </v>
   <v>       0.02000000 </v>
   <v>       0.02000000 </v>
   <v>       0.02000000 </v>
   <v>       0.02000000 </v>
   <v>       0.02000000 </v>
   <v>       0.02000000 </v>
   <v>       0.01000000 </v>
   <v>       0.02000000 </v>
   <v>       0.02000000 </v>
   <v>       0.02000000 </v>
   <v>       0.02000000 </v>
   <v>       0.01000000 </v>
  </varray>
 </kpoints>
 <parameters>
  <separator name="general" >
   <i type="string" name="SYSTEM">unknown system</i>
   <i type="logical" name="LCOMPAT"> F  </i>
  </separator>
  <separator name="electronic" >
   <i type="string" name="PREC">normal</i>
   <i name="ENMAX">    250.00000000</i>
   <i name="ENAUG">    516.45600000</i>
   <i name="EDIFF">      0.00000100</i>
   <i type="int" name="IALGO">    68</i>
   <i type="int" name="IWAVPR">    10</i>
   <i type="int" name="NBANDS">    28</i>
   <i name="NELECT">     45.00000000</i>
   <i type="int" name="TURBO">     0</i>
   <i type="int" name="IRESTART">     0</i>
   <i type="int" name="NREBOOT">     0</i>
   <i type="int" name="NMIN">     0</i>
   <i name="EREF">      0.00000000</i>
   <separator name="electronic smearing" >
    <i type="int" name="ISMEAR">     0</i>
    <i name="SIGMA">      0.10000000</i>
    <i name="KSPACING">      0.50000000</i>
    <i type="logical" name="KGAMMA"> T  </i>
   </separator>
   <separator name="electronic projectors" >
    <i type="logical" name="LREAL"> T  </i>
    <v name="ROPT">     -0.00050000     -0.00050000</v>
    <i type="int" name="LMAXPAW">  -100</i>
    <i type="int" name="LMAXMIX">     2</i>
    <i type="logical" name="NLSPLINE"> F  </i>
   </separator>
   <separator name="electronic startup" >
    <i type="int" name="ISTART">     0</i>
    <i type="int" name="ICHARG">     2</i>
    <i type="int" name="INIWAV">     1</i>
   </separator>
   <separator name="electronic spin" >
    <i type="int" name="ISPIN">     1</i>
    <i type="logical" name="LNONCOLLINEAR"> F  </i>
    <v name="MAGMOM">      1.00000000      1.00000000      1.00000000      1.00000000      1.00000000</v>
    <i name="NUPDOWN">     -1.00000000</i>
    <i type="logical" name="LSORBIT"> F  </i>
    <v name="SAXIS">      0.00000000      0.00000000      1.00000000</v>
    <i type="logical" name="LSPIRAL"> F  </i>
    <v name="QSPIRAL">      0.00000000      0.00000000      0.00000000</v>
    <i type="logical" name="LZEROZ"> F  </i>
   </separator>
   <separator name="electronic exchange-correlation" >
    <i type="logical" name="LASPH"> F  </i>
    <i type="logical" name="LMETAGGA"> F  </i>
   </separator>
   <separator name="electronic convergence" >
    <i type="int" name="NELM">    60</i>
    <i type="int" name="NELMDL">    -5</i>
    <i type="int" name="NELMIN">     4</i>
    <i name="ENINI">    250.00000000</i>
    <separator name="electronic convergence detail" >
     <i type="logical" name="LDIAG"> T  </i>
     <i type="logical" name="LSUBROT"> F  </i>
     <i name="WEIMIN">      0.00000000</i>
     <i name="EBREAK">      0.00000001</i>
     <i name="DEPER">      0.30000000</i>
     <i type="int" name="NRMM">     4</i>
     <i name="TIME">      0.40000000</i>
    </separator>
   </separator>
   <separator name="electronic mixer" >
    <i name="AMIX">      0.40000000</i>
    <i name="BMIX">      1.00000000</i>
    <i name="AMIN">      0.10000000</i>
    <i name="AMIX_MAG">      1.60000000</i>
    <i name="BMIX_MAG">      1.00000000</i>
    <separator name="electronic mixer details" >
     <i type="int" name="IMIX">     4</i>
     <i type="logical" name="MIXFIRST"> F  </i>
     <i type="int" name="MAXMIX">   -45</i>
     <i name="WC">    100.00000000</i>
     <i type="int" name="INIMIX">     1</i>
     <i type="int" name="MIXPRE">     1</i>
     <i type="int" name="MREMOVE">     5</i>
    </separator>
   </separator>
   <separator name="electronic dipolcorrection" >
    <i type="logical" name="LDIPOL"> F  </i>
    <i type="logical" name="LMONO"> F  </i>
    <i type="int" name="IDIPOL">     0</i>
    <i name="EPSILON">      1.00000000</i>
    <v name="DIPOL">   -100.00000000   -100.00000000   -100.00000000</v>
    <i name="EFIELD">      0.00000000</i>
   </separator>
  </separator>
  <separator name="grids" >
   <i type="int" name="NGX">    10</i>
   <i type="int" name="NGY">    10</i>
   <i type="int" name="NGZ">   120</i>
   <i type="int" name="NGXF">    20</i>
   <i type="int" name="NGYF">    20</i>
   <i type="int" name="NGZF">   240</i>
   <i type="logical" name="ADDGRID"> F  </i>
  </separator>
  <separator name="ionic" >
   <i type="int" name="NSW">     0</i>
   <i type="int" name="IBRION">    -1</i>
   <i type="int" name="MDALGO">     0</i>
   <i type="int" name="ISIF">     2</i>
   <i name="PSTRESS">      0.00000000</i>
   <i name="EDIFFG">      0.00001000</i>
   <i type="int" name="NFREE">     0</i>
   <i name="POTIM">      0.50000000</i>
   <i name="SMASS">     -3.00000000</i>
   <i name="SCALEE">      1.00000000</i>
  </separator>
  <separator name="ionic md" >
   <i name="TEBEG">      0.00010000</i>
   <i name="TEEND">      0.00010000</i>
   <i type="int" name="NBLOCK">     1</i>
   <i type="int" name="KBLOCK">     1</i>
   <i type="int" name="NPACO">   256</i>
   <i name="APACO">     16.00000000</i>
  </separator>
  <separator name="symmetry" >
   <i type="int" name="ISYM">     2</i>
   <i name="SYMPREC">      0.00001000</i>
  </separator>
  <separator name="dos" >
   <i type="int" name="LORBIT">    11</i>
   <v name="RWIGS">     -1.00000000     -1.00000000</v>
   <i type="int" name="NEDOS">  2401</i>
   <i name="EMIN">    -17.00000000</i>
   <i name="EMAX">      7.00000000</i>
   <i name="EFERMI">      0.00000000</i>
  </separator>
  <separator name="writing" >
   <i type="int" name="NWRITE">     2</i>
   <i type="logical" name="LWAVE"> F  </i>
   <i type="logical" name="LDOWNSAMPLE"> F  </i>
   <i type="logical" name="LCHARG"> T  </i>
   <i type="logical" name="LPARD"> F  </i>
   <i type="logical" name="LVTOT"> F  </i>
   <i type="logical" name="LVHAR"> F  </i>
   <i type="logical" name="LELF"> T  </i>
   <i type="logical" name="LOPTICS"> F  </i>
   <v name="STM">      0.00000000      0.00000000      0.00000000      0.00000000      0.00000000      0.00000000      0.00000000</v>
  </separator>
  <separator name="performance" >
   <i type="int" name="NPAR">     2</i>
   <i type="int" name="NSIM">     4</i>
   <i type="int" name="NBLK">    -1</i>
   <i type="logical" name="LPLANE"> T  </i>
   <i type="logical" name="LSCALAPACK"> T  </i>
   <i type="logical" name="LSCAAWARE"> F  </i>
   <i type="logical" name="LSCALU"> F  </i>
   <i type="logical" name="LASYNC"> F  </i>
   <i type="logical" name="LORBITALREAL"> F  </i>
  </separator>
  <separator name="miscellaneous" >
   <i type="int" name="IDIOT">     3</i>
   <i type="int" name="ISPECIAL">     0</i>
   <i type="logical" name="LMUSIC"> F  </i>
   <v name="POMASS">     63.54600000      1.00000000</v>
   <v name="DARWINR">      0.00000000      0.00000000</v>
   <v name="DARWINV">      1.00000000      1.00000000</v>
   <i type="logical" name="LCORR"> T  </i>
  </separator>
  <i type="logical" name="GGA_COMPAT"> T  </i>
  <i type="logical" name="LBERRY"> F  </i>
  <i type="int" name="ICORELEVEL">     0</i>
  <i type="logical" name="LDAU"> F  </i>
  <i type="int" name="I_CONSTRAINED_M">     0</i>
  <separator name="electronic exchange-correlation" >
   <i type="string" name="GGA">--</i>
   <i type="int" name="VOSKOWN">     0</i>
   <i type="logical" name="LHFCALC"> F  </i>
   <i type="string" name="PRECFOCK"></i>
   <i type="logical" name="LSYMGRAD"> F  </i>
   <i type="logical" name="LHFONE"> F  </i>
   <i type="logical" name="LRHFCALC"> F  </i>
   <i type="logical" name="LTHOMAS"> F  </i>
   <i type="logical" name="LMODELHF"> F  </i>
   <i name="ENCUT4O">     -1.00000000</i>
   <i type="int" name="EXXOEP">     0</i>
   <i type="int" name="FOURORBIT">     0</i>
   <i name="AEXX">      0.00000000</i>
   <i name="HFALPHA">      0.00000000</i>
   <i name="MCALPHA">      0.00000000</i>
   <i name="ALDAX">      1.00000000</i>
   <i name="AGGAX">      1.00000000</i>
   <i name="ALDAC">      1.00000000</i>
   <i name="AGGAC">      1.00000000</i>
   <i type="int" name="NKREDX">     1</i>
   <i type="int" name="NKREDY">     1</i>
   <i type="int" name="NKREDZ">     1</i>
   <i type="logical" name="SHIFTRED"> F  </i>
   <i type="logical" name="ODDONLY"> F  </i>
   <i type="logical" name="EVENONLY"> F  </i>
   <i type="int" name="LMAXFOCK">     0</i>
   <i type="int" name="NMAXFOCKAE">     0</i>
   <i type="logical" name="LFOCKAEDFT"> F  </i>
   <i name="HFSCREEN">      0.00000000</i>
   <i name="HFSCREENC">      0.00000000</i>
   <i type="int" name="NBANDSGWLOW">     0</i>
  </separator>
  <separator name="vdW DFT" >
   <i type="logical" name="LUSE_VDW"> F  </i>
   <i name="Zab_VDW">     -0.84910000</i>
   <i name="PARAM1">      0.12340000</i>
   <i name="PARAM2">      1.00000000</i>
   <i name="PARAM3">      0.00000000</i>
  </separator>
  <separator name="model GW" >
   <i type="int" name="MODEL_GW">     0</i>
   <i name="MODEL_EPS0">     20.86383483</i>
   <i name="MODEL_ALPHA">      1.00000000</i>
  </separator>
  <separator name="linear response parameters" >
   <i type="logical" name="LEPSILON"> F  </i>
   <i type="logical" name="LRPA"> F  </i>
   <i type="logical" name="LNABLA"> F  </i>
   <i type="logical" name="LVEL"> F  </i>
   <i type="int" name="KINTER">     0</i>
   <i name="CSHIFT">      0.10000000</i>
   <i name="OMEGAMAX">     -1.00000000</i>
   <i name="DEG_THRESHOLD">      0.00200000</i>
   <i name="RTIME">     -0.10000000</i>
   <i name="WPLASMAI">      0.00000000</i>
   <v name="DFIELD">      0.00000000      0.00000000      0.00000000</v>
   <v name="WPLASMA">      0.00000000      0.00000000      0.00000000      0.00000000      0.00000000      0.00000000      0.00000000      0.00000000      0.00000000</v>
  </separator>
  <separator name="orbital magnetization" >
   <i type="logical" name="NUCIND"> F  </i>
   <v name="MAGPOS">      0.00000000      0.00000000      0.00000000</v>
   <i type="logical" name="LNICSALL"> T  </i>
   <i type="logical" name="ORBITALMAG"> F  </i>
   <i type="logical" name="LMAGBLOCH"> F  </i>
   <i type="logical" name="LCHIMAG"> F  </i>
   <i type="logical" name="LGAUGE"> T  </i>
   <i type="int" name="MAGATOM">     0</i>
   <v name="MAGDIPOL">      0.00000000      0.00000000      0.00000000</v>
   <v name="AVECCONST">      0.00000000      0.00000000      0.00000000</v>
  </separator>
  <separator name="response functions" >
   <i type="logical" name="LADDER"> F  </i>
   <i type="logical" name="LRPAFORCE"> F  </i>
   <i type="logical" name="LFXC"> F  </i>
   <i type="logical" name="LHARTREE"> T  </i>
   <i type="int" name="IBSE">     0</i>
   <v type="int" name="KPOINT">    -1     0     0     0</v>
   <i type="logical" name="LTCTE"> F  </i>
   <i type="logical" name="LTETE"> F  </i>
   <i type="logical" name="LTRIPLET"> F  </i>
   <i type="logical" name="LFXCEPS"> F  </i>
   <i type="logical" name="LFXHEG"> F  </i>
   <i type="int" name="NATURALO">     2</i>
   <i type="logical" name="L2ORDER"> F  </i>
   <i type="logical" name="LMP2LT"> F  </i>
   <i type="logical" name="LUSEW"> F  </i>
   <i name="ENCUTGW">     -2.00000000</i>
   <i name="ENCUTGWSOFT">     -2.00000000</i>
   <i name="ENCUTLF">     -1.00000000</i>
   <i type="int" name="LMAXMP2">    -1</i>
   <i name="SCISSOR">      0.00000000</i>
   <i type="int" name="NOMEGA">     0</i>
   <i type="int" name="NOMEGAR">     0</i>
   <i type="int" name="NBANDSGW">    -1</i>
   <i type="int" name="NBANDSO">    -1</i>
   <i type="int" name="NBANDSV">    -1</i>
   <i type="int" name="NELM">     1</i>
   <i type="int" name="NELMHF">     1</i>
   <i type="int" name="DIM">     3</i>
   <i type="int" name="ANTIRES">     0</i>
   <i name="OMEGAMAX">    -30.00000000</i>
   <i name="OMEGAMIN">    -30.00000000</i>
   <i name="OMEGATL">   -200.00000000</i>
   <i type="int" name="OMEGAGRID">   140</i>
   <i name="CSHIFT">     -0.10000000</i>
   <i type="logical" name="SELFENERGY"> F  </i>
   <i type="logical" name="LSPECTRAL"> F  </i>
   <i type="logical" name="LSPECTRALGW"> F  </i>
   <i type="logical" name="LSINGLES"> F  </i>
   <i type="logical" name="LFERMIGW"> F  </i>
   <i type="logical" name="ODDONLYGW"> F  </i>
   <i type="logical" name="EVENONLYGW"> F  </i>
   <i type="int" name="NKREDLFX">     1</i>
   <i type="int" name="NKREDLFY">     1</i>
   <i type="int" name="NKREDLFZ">     1</i>
   <i type="int" name="MAXMEM">  2800</i>
   <i type="int" name="TELESCOPE">     0</i>
   <i type="int" name="TAUPAR">     1</i>
   <i type="int" name="OMEGAPAR">    -1</i>
   <i name="LAMBDA">      1.00000000</i>
  </separator>
  <separator name="External order field" >
   <i name="OFIELD_KAPPA">      0.00000000</i>
   <v name="OFIELD_K">      0.00000000      0.00000000      0.00000000</v>
   <i name="OFIELD_Q6_NEAR">      0.00000000</i>
   <i name="OFIELD_Q6_FAR">      0.00000000</i>
   <i name="OFIELD_A">      0.00000000</i>
  </separator>
 </parameters>
 <atominfo>
  <atoms>       5 </atoms>
  <types>       2 </types>
  <array name="atoms" >
   <dimension dim="1">ion</dimension>
   <field type="string">element</field>
   <field type="int">atomtype</field>
   <set>
    <rc><c>Cu</c><c>   1</c></rc>
    <rc><c>Cu</c><c>   1</c></rc>
    <rc><c>Cu</c><c>   1</c></rc>
    <rc><c>Cu</c><c>   1</c></rc>
    <rc><c>H </c><c>   2</c></rc>
   </set>
  </array>
  <array name="atomtypes" >
   <dimension dim="1">type</dimension>
   <field type="int">atomspertype</field>
   <field type="string">element</field>
   <field>mass</field>
   <field>valence</field>
   <field type="string">pseudopotential</field>
   <set>
    <rc><c>   4</c><c>Cu</c><c>     63.54600000</c><c>     11.00000000</c><c> PAW_PBE Cu 05Jan2001                   </c></rc>
    <rc><c>   1</c><c>H </c><c>      1.00000000</c><c>      1.00000000</c><c> PAW_PBE H 15Jun2001                    </c></rc>
   </set>
  </array>
 </atominfo>
 <structure name="initialpos" >
  <crystal>
   <varray name="basis" >
    <v>       2.57386868       0.00000000       0.00000000 </v>
    <v>       1.28693434       2.22903567       0.00000000 </v>
    <v>       0.00000000       0.00000000      30.30466494 </v>
   </varray>
   <i name="volume">    173.86529028 </i>
   <varray name="rec_basis" >
    <v>       0.38852021      -0.22431225       0.00000000 </v>
    <v>       0.00000000       0.44862450       0.00000000 </v>
    <v>       0.00000000       0.00000000       0.03299822 </v>
   </varray>
  </crystal>
  <varray name="positions" >
   <v>       0.00000000       0.00000000       0.39597864 </v>
   <v>       0.33333333       0.33333333       0.46532621 </v>
   <v>       0.66666666       0.66666667       0.53467379 </v>
   <v>       0.00000000       0.00000000       0.60402136 </v>
   <v>       0.46114798       0.00000000       0.63701958 </v>
  </varray>
 </structure>
 <calculation>
  <scstep>
   <time name="dav">    1.03    1.03</time>
   <time name="total">    1.06    1.11</time>
   <energy>
    <i name="alphaZ">    120.87645803 </i>
    <i name="ewald">  38007.72388823 </i>
    <i name="hartreedc"> -43128.21384640 </i>
    <i name="XCdc">    177.43878869 </i>
    <i name="pawpsdc">   4328.99049516 </i>
    <i name="pawaedc">  -4905.09836044 </i>
    <i name="eentropy">     -0.01208615 </i>
    <i name="bandstr">     19.70339139 </i>
    <i name="atom">   5575.94961827 </i>
    <i name="e_fr_energy">    197.35834677 </i>
    <i name="e_wo_entrp">    197.37043292 </i>
    <i name="e_0_energy">    197.36438985 </i>
   </energy>
  </scstep>
  <scstep>
   <time name="dav">    1.04    1.04</time>
   <time name="total">    1.05    1.05</time>
   <energy>
    <i name="e_fr_energy">    -10.55037141 </i>
    <i name="e_wo_entrp">    -10.53660834 </i>
    <i name="e_0_energy">    -10.54348987 </i>
   </energy>
  </scstep>
  <scstep>
   <time name="dav">    1.08    1.08</time>
   <time name="total">    1.09    1.09</time>
   <energy>
    <i name="e_fr_energy">    -20.87312902 </i>
    <i name="e_wo_entrp">    -20.86192473 </i>
    <i name="e_0_energy">    -20.86752688 </i>
   </energy>
  </scstep>
  <scstep>
   <time name="dav">    1.06    1.06</time>
   <time name="total">    1.07    1.07</time>
   <energy>
    <i name="e_fr_energy">    -20.99577035 </i>
    <i name="e_wo_entrp">    -20.98560438 </i>
    <i name="e_0_energy">    -20.99068736 </i>
   </energy>
  </scstep>
  <scstep>
   <time name="dav">    1.09    1.09</time>
   <time name="total">    1.16    1.16</time>
   <energy>
    <i name="e_fr_energy">    -20.99695229 </i>
    <i name="e_wo_entrp">    -20.98678766 </i>
    <i name="e_0_energy">    -20.99186997 </i>
   </energy>
  </scstep>
  <scstep>
   <time name="diag">    0.20    0.20</time>
   <time name="diis">    0.63    0.63</time>
   <time name="orth">    0.02    0.03</time>
   <time name="total">    0.94    0.94</time>
   <energy>
    <i name="e_fr_energy">    -18.91856615 </i>
    <i name="e_wo_entrp">    -18.91127345 </i>
    <i name="e_0_energy">    -18.91491980 </i>
   </energy>
  </scstep>
  <scstep>
   <time name="diag">    0.20    0.20</time>
   <time name="diis">    0.58    0.58</time>
   <time name="orth">    0.02    0.03</time>
   <time name="total">    0.89    0.89</time>
   <energy>
    <i name="e_fr_energy">    -17.08657022 </i>
    <i name="e_wo_entrp">    -17.07015213 </i>
    <i name="e_0_energy">    -17.07836118 </i>
   </energy>
  </scstep>
  <scstep>
   <time name="diag">    0.20    0.20</time>
   <time name="diis">    0.63    0.63</time>
   <time name="orth">    0.02    0.03</time>
   <time name="total">    0.94    0.94</time>
   <energy>
    <i name="e_fr_energy">    -17.11569273 </i>
    <i name="e_wo_entrp">    -17.10499646 </i>
    <i name="e_0_energy">    -17.11034460 </i>
   </energy>
  </scstep>
  <scstep>
   <time name="diag">    0.20    0.20</time>
   <time name="diis">    0.64    0.64</time>
   <time name="orth">    0.02    0.03</time>
   <time name="total">    0.95    0.95</time>
   <energy>
    <i name="e_fr_energy">    -17.00772559 </i>
    <i name="e_wo_entrp">    -16.99209584 </i>
    <i name="e_0_energy">    -16.99991072 </i>
   </energy>
  </scstep>
  <scstep>
   <time name="diag">    0.20    0.20</time>
   <time name="diis">    0.61    0.61</time>
   <time name="orth">    0.02    0.02</time>
   <time name="total">    0.91    0.92</time>
   <energy>
    <i name="e_fr_energy">    -16.99628572 </i>
    <i name="e_wo_entrp">    -16.97937946 </i>
    <i name="e_0_energy">    -16.98783259 </i>
   </energy>
  </scstep>
  <scstep>
   <time name="diag">    0.18    0.18</time>
   <time name="diis">    0.57    0.57</time>
   <time name="orth">    0.02    0.02</time>
   <time name="total">    0.85    0.85</time>
   <energy>
    <i name="e_fr_energy">    -16.99065734 </i>
    <i name="e_wo_entrp">    -16.97402261 </i>
    <i name="e_0_energy">    -16.98233997 </i>
   </energy>
  </scstep>
  <scstep>
   <time name="diag">    0.18    0.18</time>
   <time name="diis">    0.57    0.57</time>
   <time name="orth">    0.02    0.02</time>
   <time name="total">    0.86    0.86</time>
   <energy>
    <i name="e_fr_energy">    -16.98978289 </i>
    <i name="e_wo_entrp">    -16.97302139 </i>
    <i name="e_0_energy">    -16.98140214 </i>
   </energy>
  </scstep>
  <scstep>
   <time name="diag">    0.18    0.18</time>
   <time name="diis">    0.57    0.57</time>
   <time name="orth">    0.02    0.02</time>
   <time name="total">    0.86    0.86</time>
   <energy>
    <i name="e_fr_energy">    -16.98925898 </i>
    <i name="e_wo_entrp">    -16.97243716 </i>
    <i name="e_0_energy">    -16.98084807 </i>
   </energy>
  </scstep>
  <scstep>
   <time name="diag">    0.18    0.18</time>
   <time name="diis">    0.57    0.57</time>
   <time name="orth">    0.02    0.02</time>
   <time name="total">    0.85    0.85</time>
   <energy>
    <i name="e_fr_energy">    -16.98917781 </i>
    <i name="e_wo_entrp">    -16.97242926 </i>
    <i name="e_0_energy">    -16.98080354 </i>
   </energy>
  </scstep>
  <scstep>
   <time name="diag">    0.18    0.19</time>
   <time name="diis">    0.54    0.54</time>
   <time name="orth">    0.02    0.02</time>
   <time name="total">    0.83    0.83</time>
   <energy>
    <i name="e_fr_energy">    -16.98929138 </i>
    <i name="e_wo_entrp">    -16.97233180 </i>
    <i name="e_0_energy">    -16.98081159 </i>
   </energy>
  </scstep>
  <scstep>
   <time name="diag">    0.19    0.19</time>
   <time name="diis">    0.53    0.53</time>
   <time name="orth">    0.02    0.02</time>
   <time name="total">    0.82    0.82</time>
   <energy>
    <i name="e_fr_energy">    -16.98949703 </i>
    <i name="e_wo_entrp">    -16.97253089 </i>
    <i name="e_0_energy">    -16.98101396 </i>
   </energy>
  </scstep>
  <scstep>
   <time name="diag">    0.19    0.19</time>
   <time name="diis">    0.54    0.54</time>
   <time name="orth">    0.02    0.02</time>
   <time name="total">    0.83    0.83</time>
   <energy>
    <i name="e_fr_energy">    -16.98972983 </i>
    <i name="e_wo_entrp">    -16.97273154 </i>
    <i name="e_0_energy">    -16.98123068 </i>
   </energy>
  </scstep>
  <scstep>
   <time name="diag">    0.19    0.19</time>
   <time name="diis">    0.46    0.46</time>
   <time name="orth">    0.02    0.02</time>
   <time name="total">    0.75    0.75</time>
   <energy>
    <i name="e_fr_energy">    -16.98984474 </i>
    <i name="e_wo_entrp">    -16.97284398 </i>
    <i name="e_0_energy">    -16.98134436 </i>
   </energy>
  </scstep>
  <scstep>
   <time name="diag">    0.19    0.19</time>
   <time name="diis">    0.39    0.39</time>
   <time name="orth">    0.02    0.02</time>
   <time name="total">    0.68    0.68</time>
   <energy>
    <i name="e_fr_energy">    -16.98990015 </i>
    <i name="e_wo_entrp">    -16.97290329 </i>
    <i name="e_0_energy">    -16.98140172 </i>
   </energy>
  </scstep>
  <scstep>
   <time name="diag">    0.18    0.19</time>
   <time name="diis">    0.37    0.37</time>
   <time name="orth">    0.02    0.02</time>
   <time name="total">    0.65    0.66</time>
   <energy>
    <i name="e_fr_energy">    -16.98993108 </i>
    <i name="e_wo_entrp">    -16.97292342 </i>
    <i name="e_0_energy">    -16.98142725 </i>
   </energy>
  </scstep>
  <scstep>
   <time name="diag">    0.18    0.19</time>
   <time name="diis">    0.37    0.37</time>
   <time name="orth">    0.02    0.02</time>
   <time name="total">    0.65    0.65</time>
   <energy>
    <i name="e_fr_energy">    -16.98994355 </i>
    <i name="e_wo_entrp">    -16.97293990 </i>
    <i name="e_0_energy">    -16.98144172 </i>
   </energy>
  </scstep>
  <scstep>
   <time name="diag">    0.19    0.19</time>
   <time name="diis">    0.37    0.37</time>
   <time name="orth">    0.02    0.02</time>
   <time name="total">    0.65    0.66</time>
   <energy>
    <i name="e_fr_energy">    -16.98994835 </i>
    <i name="e_wo_entrp">    -16.97294176 </i>
    <i name="e_0_energy">    -16.98144505 </i>
   </energy>
  </scstep>
  <scstep>
   <time name="diag">    0.18    0.19</time>
   <time name="diis">    0.35    0.35</time>
   <time name="orth">    0.02    0.02</time>
   <time name="total">    0.64    0.64</time>
   <energy>
    <i name="e_fr_energy">    -16.98994973 </i>
    <i name="e_wo_entrp">    -16.97294413 </i>
    <i name="e_0_energy">    -16.98144693 </i>
   </energy>
  </scstep>
  <scstep>
   <time name="diag">    0.19    0.19</time>
   <time name="diis">    0.30    0.30</time>
   <time name="orth">    0.02    0.02</time>
   <time name="total">    0.53    0.53</time>
   <energy>
    <i name="alphaZ">    120.87645803 </i>
    <i name="ewald">  38007.72388823 </i>
    <i name="hartreedc"> -43075.17963022 </i>
    <i name="XCdc">    173.39625088 </i>
    <i name="pawpsdc">   4396.59392942 </i>
    <i name="pawaedc">  -4972.51370815 </i>
    <i name="eentropy">     -0.01700611 </i>
    <i name="bandstr">   -243.81975025 </i>
    <i name="atom">   5575.94961827 </i>
    <i name="e_fr_energy">    -16.98994991 </i>
    <i name="e_wo_entrp">    -16.97294380 </i>
    <i name="e_0_energy">    -16.98144685 </i>
   </energy>
  </scstep>
  <structure>
   <crystal>
    <varray name="basis" >
     <v>       2.57386868       0.00000000       0.00000000 </v>
     <v>       1.28693434       2.22903567       0.00000000 </v>
     <v>       0.00000000       0.00000000      30.30466494 </v>
    </varray>
    <i name="volume">    173.86529028 </i>
    <varray name="rec_basis" >
     <v>       0.38852021      -0.22431225       0.00000000 </v>
     <v>       0.00000000       0.44862450       0.00000000 </v>
     <v>       0.00000000       0.00000000       0.03299822 </v>
    </varray>
   </crystal>
   <varray name="positions" >
    <v>       0.00000000       0.00000000       0.39597864 </v>
    <v>       0.33333333       0.33333333       0.46532621 </v>
    <v>       0.66666666       0.66666667       0.53467379 </v>
    <v>       0.00000000       0.00000000       0.60402136 </v>
    <v>       0.46114798       0.00000000       0.63701958 </v>
   </varray>
  </structure>
  <varray name="forces" >
   <v>      -0.00015609       0.01144059       0.14294808 </v>
   <v>      -0.00046475       0.00280459      -0.01908639 </v>
   <v>      -0.00585790       0.01676353      -0.27889137 </v>
   <v>      -0.62841123      -0.01623913      -0.06077308 </v>
   <v>       0.63488997      -0.01476957       0.21580276 </v>
  </varray>
  <varray name="stress" >
   <v>     -43.34248154       0.17254719       5.93838049 </v>
   <v>       0.17254714     -44.65714432      -1.28320071 </v>
   <v>       5.93838054      -1.28320069     -44.34119855 </v>
  </varray>
  <energy>
   <i name="e_fr_energy">    -16.98994991 </i>
   <i name="e_wo_entrp">    -16.98144685 </i>
   <i name="e_0_energy">     -0.01700611 </i>
  </energy>
  <time name="totalsc">   21.79   21.92</time>
  <eigenvalues>
   <array>
    <dimension dim="1">band</dimension>
    <dimension dim="2">kpoint</dimension>
    <dimension dim="3">spin</dimension>
    <field>eigene</field>
    <field>occ</field>
    <set>
     <set comment="spin 1">
      <set comment="kpoint 1">
       <r>  -11.6187    1.0000 </r>
       <r>  -10.6357    1.0000 </r>
       <r>   -9.0345    1.0000 </r>
       <r>   -7.5864    1.0000 </r>
       <r>   -6.3357    1.0000 </r>
       <r>   -5.7066    1.0000 </r>
       <r>   -5.5544    1.0000 </r>
       <r>   -5.4810    1.0000 </r>
       <r>   -5.3652    1.0000 </r>
       <r>   -5.3508    1.0000 </r>
       <r>   -5.3289    1.0000 </r>
       <r>   -5.2869    1.0000 </r>
       <r>   -5.2848    1.0000 </r>
       <r>   -5.0343    1.0000 </r>
       <r>   -5.0305    1.0000 </r>
       <r>   -4.9336    1.0000 </r>
       <r>   -4.8388    1.0000 </r>
       <r>   -4.7445    1.0000 </r>
       <r>   -4.5415    1.0000 </r>
       <r>   -4.5325    1.0000 </r>
       <r>   -4.3263    1.0000 </r>
       <r>   -4.3101    1.0000 </r>
       <r>   -4.0477    1.0000 </r>
       <r>   -4.0430    1.0000 </r>
       <r>   -2.9654    1.0000 </r>
       <r>    1.6214    0.0000 </r>
       <r>    1.9487    0.0000 </r>
       <r>    2.3752    0.0000 </r>
      </set>
      <set comment="kpoint 2">
       <r>  -11.3113    1.0000 </r>
       <r>  -10.3390    1.0000 </r>
       <r>   -8.7757    1.0000 </r>
       <r>   -7.3669    1.0000 </r>
       <r>   -6.3558    1.0000 </r>
       <r>   -5.7425    1.0000 </r>
       <r>   -5.6592    1.0000 </r>
       <r>   -5.4938    1.0000 </r>
       <r>   -5.4276    1.0000 </r>
       <r>   -5.3918    1.0000 </r>
       <r>   -5.3375    1.0000 </r>
       <r>   -5.2510    1.0000 </r>
       <r>   -5.1903    1.0000 </r>
       <r>   -5.1531    1.0000 </r>
       <r>   -5.0554    1.0000 </r>
       <r>   -4.9448    1.0000 </r>
       <r>   -4.7977    1.0000 </r>
       <r>   -4.7485    1.0000 </r>
       <r>   -4.5484    1.0000 </r>
       <r>   -4.5106    1.0000 </r>
       <r>   -4.3462    1.0000 </r>
       <r>   -4.3105    1.0000 </r>
       <r>   -4.0402    1.0000 </r>
       <r>   -3.8011    1.0000 </r>
       <r>   -2.2763    0.0622 </r>
       <r>    1.8641    0.0000 </r>
       <r>    2.2521    0.0000 </r>
       <r>    2.6781    0.0000 </r>
      </set>
      <set comment="kpoint 3">
       <r>  -10.4271    1.0000 </r>
       <r>   -9.5019    1.0000 </r>
       <r>   -8.1122    1.0000 </r>
       <r>   -6.8612    1.0000 </r>
       <r>   -6.4419    1.0000 </r>
       <r>   -5.9916    1.0000 </r>
       <r>   -5.8277    1.0000 </r>
       <r>   -5.6968    1.0000 </r>
       <r>   -5.5491    1.0000 </r>
       <r>   -5.3303    1.0000 </r>
       <r>   -5.2742    1.0000 </r>
       <r>   -5.2455    1.0000 </r>
       <r>   -5.0977    1.0000 </r>
       <r>   -5.0518    1.0000 </r>
       <r>   -4.9358    1.0000 </r>
       <r>   -4.8705    1.0000 </r>
       <r>   -4.8327    1.0000 </r>
       <r>   -4.6541    1.0000 </r>
       <r>   -4.6128    1.0000 </r>
       <r>   -4.4919    1.0000 </r>
       <r>   -4.3158    1.0000 </r>
       <r>   -4.1128    1.0000 </r>
       <r>   -4.0351    1.0000 </r>
       <r>   -2.9140    1.0000 </r>
       <r>   -0.9385    0.0000 </r>
       <r>    2.5856    0.0000 </r>
       <r>    3.1612    0.0000 </r>
       <r>    3.5893    0.0000 </r>
      </set>
      <set comment="kpoint 4">
       <r>   -9.1296    1.0000 </r>
       <r>   -8.3647    1.0000 </r>
       <r>   -7.4834    1.0000 </r>
       <r>   -6.7083    1.0000 </r>
       <r>   -6.4285    1.0000 </r>
       <r>   -6.2523    1.0000 </r>
       <r>   -5.9432    1.0000 </r>
       <r>   -5.7138    1.0000 </r>
       <r>   -5.5948    1.0000 </r>
       <r>   -5.3440    1.0000 </r>
       <r>   -5.2258    1.0000 </r>
       <r>   -5.1074    1.0000 </r>
       <r>   -4.9207    1.0000 </r>
       <r>   -4.8832    1.0000 </r>
       <r>   -4.8022    1.0000 </r>
       <r>   -4.6539    1.0000 </r>
       <r>   -4.5699    1.0000 </r>
       <r>   -4.4217    1.0000 </r>
       <r>   -4.3827    1.0000 </r>
       <r>   -4.3052    1.0000 </r>
       <r>   -4.1872    1.0000 </r>
       <r>   -4.0231    1.0000 </r>
       <r>   -3.6043    1.0000 </r>
       <r>   -1.7249    0.0000 </r>
       <r>    0.7525    0.0000 </r>
       <r>    3.7623    0.0000 </r>
       <r>    4.6326    0.0000 </r>
       <r>    5.0422    0.0000 </r>
      </set>
      <set comment="kpoint 5">
       <r>   -8.0669    1.0000 </r>
       <r>   -7.4597    1.0000 </r>
       <r>   -7.1602    1.0000 </r>
       <r>   -6.8035    1.0000 </r>
       <r>   -6.5607    1.0000 </r>
       <r>   -6.4134    1.0000 </r>
       <r>   -6.0810    1.0000 </r>
       <r>   -5.5334    1.0000 </r>
       <r>   -5.4150    1.0000 </r>
       <r>   -5.3266    1.0000 </r>
       <r>   -5.2626    1.0000 </r>
       <r>   -4.9582    1.0000 </r>
       <r>   -4.8341    1.0000 </r>
       <r>   -4.5211    1.0000 </r>
       <r>   -4.4355    1.0000 </r>
       <r>   -4.3695    1.0000 </r>
       <r>   -4.1603    1.0000 </r>
       <r>   -4.1387    1.0000 </r>
       <r>   -4.1055    1.0000 </r>
       <r>   -4.0243    1.0000 </r>
       <r>   -3.8707    1.0000 </r>
       <r>   -3.5874    1.0000 </r>
       <r>   -2.5303    0.9801 </r>
       <r>   -0.3154    0.0000 </r>
       <r>    1.9585    0.0000 </r>
       <r>    2.8764    0.0000 </r>
       <r>    3.3999    0.0000 </r>
       <r>    4.3779    0.0000 </r>
      </set>
      <set comment="kpoint 6">
       <r>   -7.8596    1.0000 </r>
       <r>   -7.1561    1.0000 </r>
       <r>   -6.9616    1.0000 </r>
       <r>   -6.8664    1.0000 </r>
       <r>   -6.6229    1.0000 </r>
       <r>   -6.4654    1.0000 </r>
       <r>   -6.1203    1.0000 </r>
       <r>   -5.4624    1.0000 </r>
       <r>   -5.4245    1.0000 </r>
       <r>   -5.2674    1.0000 </r>
       <r>   -5.2014    1.0000 </r>
       <r>   -4.9539    1.0000 </r>
       <r>   -4.5864    1.0000 </r>
       <r>   -4.4649    1.0000 </r>
       <r>   -4.3362    1.0000 </r>
       <r>   -4.2504    1.0000 </r>
       <r>   -4.1010    1.0000 </r>
       <r>   -4.0062    1.0000 </r>
       <r>   -3.9511    1.0000 </r>
       <r>   -3.7539    1.0000 </r>
       <r>   -3.6473    1.0000 </r>
       <r>   -2.2495    0.0277 </r>
       <r>   -1.4035    0.0000 </r>
       <r>   -0.8693    0.0000 </r>
       <r>    1.1016    0.0000 </r>
       <r>    2.1912    0.0000 </r>
       <r>    3.1120    0.0000 </r>
       <r>    3.5842    0.0000 </r>
      </set>
      <set comment="kpoint 7">
       <r>  -11.3252    1.0000 </r>
       <r>  -10.3404    1.0000 </r>
       <r>   -8.7661    1.0000 </r>
       <r>   -7.3618    1.0000 </r>
       <r>   -6.2849    1.0000 </r>
       <r>   -5.7756    1.0000 </r>
       <r>   -5.5659    1.0000 </r>
       <r>   -5.4550    1.0000 </r>
       <r>   -5.4213    1.0000 </r>
       <r>   -5.3936    1.0000 </r>
       <r>   -5.3238    1.0000 </r>
       <r>   -5.2922    1.0000 </r>
       <r>   -5.1863    1.0000 </r>
       <r>   -5.1569    1.0000 </r>
       <r>   -5.0547    1.0000 </r>
       <r>   -4.9689    1.0000 </r>
       <r>   -4.8905    1.0000 </r>
       <r>   -4.7585    1.0000 </r>
       <r>   -4.5576    1.0000 </r>
       <r>   -4.5023    1.0000 </r>
       <r>   -4.3452    1.0000 </r>
       <r>   -4.3219    1.0000 </r>
       <r>   -4.0436    1.0000 </r>
       <r>   -3.8208    1.0000 </r>
       <r>   -2.2851    0.0791 </r>
       <r>    1.8649    0.0000 </r>
       <r>    2.2519    0.0000 </r>
       <r>    2.6773    0.0000 </r>
      </set>
      <set comment="kpoint 8">
       <r>  -11.3112    1.0000 </r>
       <r>  -10.3391    1.0000 </r>
       <r>   -8.7757    1.0000 </r>
       <r>   -7.3665    1.0000 </r>
       <r>   -6.3594    1.0000 </r>
       <r>   -5.7422    1.0000 </r>
       <r>   -5.6490    1.0000 </r>
       <r>   -5.4932    1.0000 </r>
       <r>   -5.4357    1.0000 </r>
       <r>   -5.3812    1.0000 </r>
       <r>   -5.3393    1.0000 </r>
       <r>   -5.2515    1.0000 </r>
       <r>   -5.1916    1.0000 </r>
       <r>   -5.1554    1.0000 </r>
       <r>   -5.0539    1.0000 </r>
       <r>   -4.9451    1.0000 </r>
       <r>   -4.8177    1.0000 </r>
       <r>   -4.7406    1.0000 </r>
       <r>   -4.5468    1.0000 </r>
       <r>   -4.5140    1.0000 </r>
       <r>   -4.3417    1.0000 </r>
       <r>   -4.3090    1.0000 </r>
       <r>   -4.0400    1.0000 </r>
       <r>   -3.7996    1.0000 </r>
       <r>   -2.2754    0.0607 </r>
       <r>    1.8641    0.0000 </r>
       <r>    2.2522    0.0000 </r>
       <r>    2.6779    0.0000 </r>
      </set>
      <set comment="kpoint 9">
       <r>  -10.7045    1.0000 </r>
       <r>   -9.7719    1.0000 </r>
       <r>   -8.3224    1.0000 </r>
       <r>   -6.9950    1.0000 </r>
       <r>   -6.4344    1.0000 </r>
       <r>   -5.8765    1.0000 </r>
       <r>   -5.8053    1.0000 </r>
       <r>   -5.6337    1.0000 </r>
       <r>   -5.5278    1.0000 </r>
       <r>   -5.4174    1.0000 </r>
       <r>   -5.3295    1.0000 </r>
       <r>   -5.2139    1.0000 </r>
       <r>   -5.1468    1.0000 </r>
       <r>   -5.1240    1.0000 </r>
       <r>   -4.9834    1.0000 </r>
       <r>   -4.8842    1.0000 </r>
       <r>   -4.7595    1.0000 </r>
       <r>   -4.6519    1.0000 </r>
       <r>   -4.6223    1.0000 </r>
       <r>   -4.4851    1.0000 </r>
       <r>   -4.3935    1.0000 </r>
       <r>   -4.1358    1.0000 </r>
       <r>   -4.0676    1.0000 </r>
       <r>   -3.1421    1.0000 </r>
       <r>   -1.3210    0.0000 </r>
       <r>    2.3463    0.0000 </r>
       <r>    2.8591    0.0000 </r>
       <r>    3.2838    0.0000 </r>
      </set>
      <set comment="kpoint 10">
       <r>   -9.6025    1.0000 </r>
       <r>   -8.7725    1.0000 </r>
       <r>   -7.6655    1.0000 </r>
       <r>   -6.6396    1.0000 </r>
       <r>   -6.3517    1.0000 </r>
       <r>   -6.0988    1.0000 </r>
       <r>   -5.9314    1.0000 </r>
       <r>   -5.8017    1.0000 </r>
       <r>   -5.6596    1.0000 </r>
       <r>   -5.3688    1.0000 </r>
       <r>   -5.3240    1.0000 </r>
       <r>   -5.2189    1.0000 </r>
       <r>   -5.1112    1.0000 </r>
       <r>   -4.9940    1.0000 </r>
       <r>   -4.9072    1.0000 </r>
       <r>   -4.7997    1.0000 </r>
       <r>   -4.6505    1.0000 </r>
       <r>   -4.5113    1.0000 </r>
       <r>   -4.3937    1.0000 </r>
       <r>   -4.3523    1.0000 </r>
       <r>   -4.2013    1.0000 </r>
       <r>   -4.0973    1.0000 </r>
       <r>   -3.7250    1.0000 </r>
       <r>   -2.1201    0.0001 </r>
       <r>    0.1516    0.0000 </r>
       <r>    3.3176    0.0000 </r>
       <r>    4.0662    0.0000 </r>
       <r>    4.5063    0.0000 </r>
      </set>
      <set comment="kpoint 11">
       <r>   -8.4020    1.0000 </r>
       <r>   -7.7255    1.0000 </r>
       <r>   -7.1856    1.0000 </r>
       <r>   -6.6577    1.0000 </r>
       <r>   -6.4203    1.0000 </r>
       <r>   -6.2476    1.0000 </r>
       <r>   -5.9902    1.0000 </r>
       <r>   -5.6751    1.0000 </r>
       <r>   -5.5998    1.0000 </r>
       <r>   -5.3555    1.0000 </r>
       <r>   -5.2679    1.0000 </r>
       <r>   -5.1289    1.0000 </r>
       <r>   -4.9614    1.0000 </r>
       <r>   -4.7932    1.0000 </r>
       <r>   -4.7001    1.0000 </r>
       <r>   -4.5574    1.0000 </r>
       <r>   -4.4464    1.0000 </r>
       <r>   -4.3248    1.0000 </r>
       <r>   -4.2229    1.0000 </r>
       <r>   -4.0454    1.0000 </r>
       <r>   -3.9915    1.0000 </r>
       <r>   -3.6748    1.0000 </r>
       <r>   -2.8199    1.0000 </r>
       <r>   -0.7051    0.0000 </r>
       <r>    1.9317    0.0000 </r>
       <r>    3.8995    0.0000 </r>
       <r>    4.5841    0.0000 </r>
       <r>    5.0885    0.0000 </r>
      </set>
      <set comment="kpoint 12">
       <r>   -7.8838    1.0000 </r>
       <r>   -7.0809    1.0000 </r>
       <r>   -6.9159    1.0000 </r>
       <r>   -6.7183    1.0000 </r>
       <r>   -6.5314    1.0000 </r>
       <r>   -6.3494    1.0000 </r>
       <r>   -6.0823    1.0000 </r>
       <r>   -5.5581    1.0000 </r>
       <r>   -5.4588    1.0000 </r>
       <r>   -5.3684    1.0000 </r>
       <r>   -5.2369    1.0000 </r>
       <r>   -5.0198    1.0000 </r>
       <r>   -4.8288    1.0000 </r>
       <r>   -4.5767    1.0000 </r>
       <r>   -4.4439    1.0000 </r>
       <r>   -4.3005    1.0000 </r>
       <r>   -4.1877    1.0000 </r>
       <r>   -4.1623    1.0000 </r>
       <r>   -4.0801    1.0000 </r>
       <r>   -3.9258    1.0000 </r>
       <r>   -3.4741    1.0000 </r>
       <r>   -2.3764    0.4520 </r>
       <r>   -1.3573    0.0000 </r>
       <r>    0.0764    0.0000 </r>
       <r>    1.4166    0.0000 </r>
       <r>    2.5422    0.0000 </r>
       <r>    3.2442    0.0000 </r>
       <r>    4.1430    0.0000 </r>
      </set>
      <set comment="kpoint 13">
       <r>   -7.8046    1.0000 </r>
       <r>   -7.0740    1.0000 </r>
       <r>   -6.9099    1.0000 </r>
       <r>   -6.7470    1.0000 </r>
       <r>   -6.5322    1.0000 </r>
       <r>   -6.3788    1.0000 </r>
       <r>   -6.1011    1.0000 </r>
       <r>   -5.6257    1.0000 </r>
       <r>   -5.4393    1.0000 </r>
       <r>   -5.3786    1.0000 </r>
       <r>   -5.2747    1.0000 </r>
       <r>   -5.0264    1.0000 </r>
       <r>   -4.8503    1.0000 </r>
       <r>   -4.5611    1.0000 </r>
       <r>   -4.4427    1.0000 </r>
       <r>   -4.2969    1.0000 </r>
       <r>   -4.1973    1.0000 </r>
       <r>   -4.1320    1.0000 </r>
       <r>   -4.0828    1.0000 </r>
       <r>   -3.9216    1.0000 </r>
       <r>   -3.3913    1.0000 </r>
       <r>   -2.3755    0.4470 </r>
       <r>   -1.3809    0.0000 </r>
       <r>    0.0655    0.0000 </r>
       <r>    1.3941    0.0000 </r>
       <r>    2.5197    0.0000 </r>
       <r>    3.2888    0.0000 </r>
       <r>    4.1176    0.0000 </r>
      </set>
      <set comment="kpoint 14">
       <r>   -8.3596    1.0000 </r>
       <r>   -7.6831    1.0000 </r>
       <r>   -7.1647    1.0000 </r>
       <r>   -6.6772    1.0000 </r>
       <r>   -6.4258    1.0000 </r>
       <r>   -6.2839    1.0000 </r>
       <r>   -6.0299    1.0000 </r>
       <r>   -5.7170    1.0000 </r>
       <r>   -5.6225    1.0000 </r>
       <r>   -5.3922    1.0000 </r>
       <r>   -5.2988    1.0000 </r>
       <r>   -5.1541    1.0000 </r>
       <r>   -4.9461    1.0000 </r>
       <r>   -4.7894    1.0000 </r>
       <r>   -4.6598    1.0000 </r>
       <r>   -4.5385    1.0000 </r>
       <r>   -4.4338    1.0000 </r>
       <r>   -4.2750    1.0000 </r>
       <r>   -4.1938    1.0000 </r>
       <r>   -4.0322    1.0000 </r>
       <r>   -3.9650    1.0000 </r>
       <r>   -3.6687    1.0000 </r>
       <r>   -2.8697    1.0000 </r>
       <r>   -0.8084    0.0000 </r>
       <r>    1.8536    0.0000 </r>
       <r>    3.9538    0.0000 </r>
       <r>    4.6539    0.0000 </r>
       <r>    5.1043    0.0000 </r>
      </set>
      <set comment="kpoint 15">
       <r>   -9.6514    1.0000 </r>
       <r>   -8.7463    1.0000 </r>
       <r>   -7.5790    1.0000 </r>
       <r>   -6.6084    1.0000 </r>
       <r>   -6.3359    1.0000 </r>
       <r>   -6.1180    1.0000 </r>
       <r>   -5.9613    1.0000 </r>
       <r>   -5.8065    1.0000 </r>
       <r>   -5.6577    1.0000 </r>
       <r>   -5.3863    1.0000 </r>
       <r>   -5.3289    1.0000 </r>
       <r>   -5.2453    1.0000 </r>
       <r>   -5.0800    1.0000 </r>
       <r>   -4.9754    1.0000 </r>
       <r>   -4.8372    1.0000 </r>
       <r>   -4.8025    1.0000 </r>
       <r>   -4.6319    1.0000 </r>
       <r>   -4.5545    1.0000 </r>
       <r>   -4.4045    1.0000 </r>
       <r>   -4.3480    1.0000 </r>
       <r>   -4.1987    1.0000 </r>
       <r>   -4.1053    1.0000 </r>
       <r>   -3.7681    1.0000 </r>
       <r>   -2.2350    0.0170 </r>
       <r>    0.0940    0.0000 </r>
       <r>    3.3133    0.0000 </r>
       <r>    4.0659    0.0000 </r>
       <r>    4.5190    0.0000 </r>
      </set>
      <set comment="kpoint 16">
       <r>  -10.7441    1.0000 </r>
       <r>   -9.7703    1.0000 </r>
       <r>   -8.2828    1.0000 </r>
       <r>   -6.9760    1.0000 </r>
       <r>   -6.3078    1.0000 </r>
       <r>   -5.8871    1.0000 </r>
       <r>   -5.7893    1.0000 </r>
       <r>   -5.6190    1.0000 </r>
       <r>   -5.5162    1.0000 </r>
       <r>   -5.3893    1.0000 </r>
       <r>   -5.2761    1.0000 </r>
       <r>   -5.2250    1.0000 </r>
       <r>   -5.1541    1.0000 </r>
       <r>   -5.1447    1.0000 </r>
       <r>   -4.9937    1.0000 </r>
       <r>   -4.9239    1.0000 </r>
       <r>   -4.7605    1.0000 </r>
       <r>   -4.6762    1.0000 </r>
       <r>   -4.6555    1.0000 </r>
       <r>   -4.5281    1.0000 </r>
       <r>   -4.4054    1.0000 </r>
       <r>   -4.1319    1.0000 </r>
       <r>   -4.0845    1.0000 </r>
       <r>   -3.2270    1.0000 </r>
       <r>   -1.3530    0.0000 </r>
       <r>    2.3475    0.0000 </r>
       <r>    2.8584    0.0000 </r>
       <r>    3.2827    0.0000 </r>
      </set>
      <set comment="kpoint 17">
       <r>  -10.5009    1.0000 </r>
       <r>   -9.5045    1.0000 </r>
       <r>   -8.0564    1.0000 </r>
       <r>   -6.8245    1.0000 </r>
       <r>   -6.2256    1.0000 </r>
       <r>   -5.9382    1.0000 </r>
       <r>   -5.7391    1.0000 </r>
       <r>   -5.6608    1.0000 </r>
       <r>   -5.5395    1.0000 </r>
       <r>   -5.3653    1.0000 </r>
       <r>   -5.2726    1.0000 </r>
       <r>   -5.2529    1.0000 </r>
       <r>   -5.1504    1.0000 </r>
       <r>   -5.0900    1.0000 </r>
       <r>   -4.9550    1.0000 </r>
       <r>   -4.8933    1.0000 </r>
       <r>   -4.8700    1.0000 </r>
       <r>   -4.6760    1.0000 </r>
       <r>   -4.6426    1.0000 </r>
       <r>   -4.5045    1.0000 </r>
       <r>   -4.3240    1.0000 </r>
       <r>   -4.1769    1.0000 </r>
       <r>   -4.0391    1.0000 </r>
       <r>   -3.0372    1.0000 </r>
       <r>   -0.9879    0.0000 </r>
       <r>    2.5830    0.0000 </r>
       <r>    3.1608    0.0000 </r>
       <r>    3.5878    0.0000 </r>
      </set>
      <set comment="kpoint 18">
       <r>  -10.7440    1.0000 </r>
       <r>   -9.7708    1.0000 </r>
       <r>   -8.2827    1.0000 </r>
       <r>   -6.9739    1.0000 </r>
       <r>   -6.3141    1.0000 </r>
       <r>   -5.8912    1.0000 </r>
       <r>   -5.7748    1.0000 </r>
       <r>   -5.6313    1.0000 </r>
       <r>   -5.5057    1.0000 </r>
       <r>   -5.3897    1.0000 </r>
       <r>   -5.2464    1.0000 </r>
       <r>   -5.2295    1.0000 </r>
       <r>   -5.1784    1.0000 </r>
       <r>   -5.1486    1.0000 </r>
       <r>   -4.9852    1.0000 </r>
       <r>   -4.9133    1.0000 </r>
       <r>   -4.7686    1.0000 </r>
       <r>   -4.7113    1.0000 </r>
       <r>   -4.6521    1.0000 </r>
       <r>   -4.5085    1.0000 </r>
       <r>   -4.4054    1.0000 </r>
       <r>   -4.1424    1.0000 </r>
       <r>   -4.0815    1.0000 </r>
       <r>   -3.2202    1.0000 </r>
       <r>   -1.3509    0.0000 </r>
       <r>    2.3475    0.0000 </r>
       <r>    2.8586    0.0000 </r>
       <r>    3.2830    0.0000 </r>
      </set>
      <set comment="kpoint 19">
       <r>  -10.4268    1.0000 </r>
       <r>   -9.5026    1.0000 </r>
       <r>   -8.1116    1.0000 </r>
       <r>   -6.8563    1.0000 </r>
       <r>   -6.4606    1.0000 </r>
       <r>   -5.9822    1.0000 </r>
       <r>   -5.8197    1.0000 </r>
       <r>   -5.7028    1.0000 </r>
       <r>   -5.5301    1.0000 </r>
       <r>   -5.3303    1.0000 </r>
       <r>   -5.2690    1.0000 </r>
       <r>   -5.2398    1.0000 </r>
       <r>   -5.1246    1.0000 </r>
       <r>   -5.0526    1.0000 </r>
       <r>   -4.9282    1.0000 </r>
       <r>   -4.8760    1.0000 </r>
       <r>   -4.8336    1.0000 </r>
       <r>   -4.6606    1.0000 </r>
       <r>   -4.6153    1.0000 </r>
       <r>   -4.4911    1.0000 </r>
       <r>   -4.3117    1.0000 </r>
       <r>   -4.1165    1.0000 </r>
       <r>   -4.0352    1.0000 </r>
       <r>   -2.9085    1.0000 </r>
       <r>   -0.9357    0.0000 </r>
       <r>    2.5856    0.0000 </r>
       <r>    3.1616    0.0000 </r>
       <r>    3.5876    0.0000 </r>
      </set>
      <set comment="kpoint 20">
       <r>   -9.6022    1.0000 </r>
       <r>   -8.7732    1.0000 </r>
       <r>   -7.6643    1.0000 </r>
       <r>   -6.6354    1.0000 </r>
       <r>   -6.3698    1.0000 </r>
       <r>   -6.0938    1.0000 </r>
       <r>   -5.9284    1.0000 </r>
       <r>   -5.8044    1.0000 </r>
       <r>   -5.6467    1.0000 </r>
       <r>   -5.3619    1.0000 </r>
       <r>   -5.3215    1.0000 </r>
       <r>   -5.2090    1.0000 </r>
       <r>   -5.1230    1.0000 </r>
       <r>   -5.0081    1.0000 </r>
       <r>   -4.9092    1.0000 </r>
       <r>   -4.7993    1.0000 </r>
       <r>   -4.6496    1.0000 </r>
       <r>   -4.5132    1.0000 </r>
       <r>   -4.3924    1.0000 </r>
       <r>   -4.3509    1.0000 </r>
       <r>   -4.2014    1.0000 </r>
       <r>   -4.0982    1.0000 </r>
       <r>   -3.7253    1.0000 </r>
       <r>   -2.1176    0.0001 </r>
       <r>    0.1542    0.0000 </r>
       <r>    3.3177    0.0000 </r>
       <r>    4.0668    0.0000 </r>
       <r>    4.4957    0.0000 </r>
      </set>
      <set comment="kpoint 21">
       <r>   -8.5496    1.0000 </r>
       <r>   -7.8153    1.0000 </r>
       <r>   -7.1429    1.0000 </r>
       <r>   -6.5192    1.0000 </r>
       <r>   -6.2326    1.0000 </r>
       <r>   -6.1163    1.0000 </r>
       <r>   -5.9689    1.0000 </r>
       <r>   -5.8946    1.0000 </r>
       <r>   -5.6254    1.0000 </r>
       <r>   -5.4688    1.0000 </r>
       <r>   -5.3669    1.0000 </r>
       <r>   -5.3214    1.0000 </r>
       <r>   -5.0488    1.0000 </r>
       <r>   -4.9746    1.0000 </r>
       <r>   -4.7852    1.0000 </r>
       <r>   -4.7313    1.0000 </r>
       <r>   -4.4753    1.0000 </r>
       <r>   -4.3613    1.0000 </r>
       <r>   -4.2692    1.0000 </r>
       <r>   -4.0362    1.0000 </r>
       <r>   -3.9900    1.0000 </r>
       <r>   -3.6209    1.0000 </r>
       <r>   -2.8259    1.0000 </r>
       <r>   -0.8303    0.0000 </r>
       <r>    1.7350    0.0000 </r>
       <r>    4.5470    0.0000 </r>
       <r>    5.1850    0.0000 </r>
       <r>    5.6551    0.0000 </r>
      </set>
      <set comment="kpoint 22">
       <r>   -7.9248    1.0000 </r>
       <r>   -6.9308    1.0000 </r>
       <r>   -6.7218    1.0000 </r>
       <r>   -6.4974    1.0000 </r>
       <r>   -6.3244    1.0000 </r>
       <r>   -6.1661    1.0000 </r>
       <r>   -5.9892    1.0000 </r>
       <r>   -5.8064    1.0000 </r>
       <r>   -5.6134    1.0000 </r>
       <r>   -5.5303    1.0000 </r>
       <r>   -5.3920    1.0000 </r>
       <r>   -5.1127    1.0000 </r>
       <r>   -5.0096    1.0000 </r>
       <r>   -4.8686    1.0000 </r>
       <r>   -4.6830    1.0000 </r>
       <r>   -4.5922    1.0000 </r>
       <r>   -4.4356    1.0000 </r>
       <r>   -4.2592    1.0000 </r>
       <r>   -4.1163    1.0000 </r>
       <r>   -3.9440    1.0000 </r>
       <r>   -3.3291    1.0000 </r>
       <r>   -2.3954    0.5588 </r>
       <r>   -1.2137    0.0000 </r>
       <r>    0.8313    0.0000 </r>
       <r>    2.6192    0.0000 </r>
       <r>    3.6086    0.0000 </r>
       <r>    4.0435    0.0000 </r>
       <r>    4.8854    0.0000 </r>
      </set>
      <set comment="kpoint 23">
       <r>   -7.6908    1.0000 </r>
       <r>   -6.7021    1.0000 </r>
       <r>   -6.6271    1.0000 </r>
       <r>   -6.4537    1.0000 </r>
       <r>   -6.3398    1.0000 </r>
       <r>   -6.1860    1.0000 </r>
       <r>   -6.0147    1.0000 </r>
       <r>   -5.8530    1.0000 </r>
       <r>   -5.6162    1.0000 </r>
       <r>   -5.5106    1.0000 </r>
       <r>   -5.3554    1.0000 </r>
       <r>   -5.1507    1.0000 </r>
       <r>   -4.9305    1.0000 </r>
       <r>   -4.7526    1.0000 </r>
       <r>   -4.6143    1.0000 </r>
       <r>   -4.5032    1.0000 </r>
       <r>   -4.3364    1.0000 </r>
       <r>   -4.1819    1.0000 </r>
       <r>   -4.1170    1.0000 </r>
       <r>   -4.0144    1.0000 </r>
       <r>   -2.5096    0.9611 </r>
       <r>   -0.7415    0.0000 </r>
       <r>   -0.1638    0.0000 </r>
       <r>    0.5967    0.0000 </r>
       <r>    1.5039    0.0000 </r>
       <r>    2.8102    0.0000 </r>
       <r>    3.6718    0.0000 </r>
       <r>    4.1618    0.0000 </r>
      </set>
      <set comment="kpoint 24">
       <r>   -7.7885    1.0000 </r>
       <r>   -6.9408    1.0000 </r>
       <r>   -6.7318    1.0000 </r>
       <r>   -6.5039    1.0000 </r>
       <r>   -6.3248    1.0000 </r>
       <r>   -6.2170    1.0000 </r>
       <r>   -6.0043    1.0000 </r>
       <r>   -5.8436    1.0000 </r>
       <r>   -5.6210    1.0000 </r>
       <r>   -5.5712    1.0000 </r>
       <r>   -5.4516    1.0000 </r>
       <r>   -5.1197    1.0000 </r>
       <r>   -5.0114    1.0000 </r>
       <r>   -4.8648    1.0000 </r>
       <r>   -4.7025    1.0000 </r>
       <r>   -4.5853    1.0000 </r>
       <r>   -4.4315    1.0000 </r>
       <r>   -4.2524    1.0000 </r>
       <r>   -4.0858    1.0000 </r>
       <r>   -3.9445    1.0000 </r>
       <r>   -3.1547    1.0000 </r>
       <r>   -2.4035    0.6040 </r>
       <r>   -1.3112    0.0000 </r>
       <r>    0.6550    0.0000 </r>
       <r>    2.5853    0.0000 </r>
       <r>    3.5652    0.0000 </r>
       <r>    4.0736    0.0000 </r>
       <r>    4.8064    0.0000 </r>
      </set>
      <set comment="kpoint 25">
       <r>   -8.6460    1.0000 </r>
       <r>   -7.7197    1.0000 </r>
       <r>   -7.0174    1.0000 </r>
       <r>   -6.4993    1.0000 </r>
       <r>   -6.2013    1.0000 </r>
       <r>   -6.1175    1.0000 </r>
       <r>   -5.9617    1.0000 </r>
       <r>   -5.9051    1.0000 </r>
       <r>   -5.6309    1.0000 </r>
       <r>   -5.4866    1.0000 </r>
       <r>   -5.4553    1.0000 </r>
       <r>   -5.3562    1.0000 </r>
       <r>   -5.0544    1.0000 </r>
       <r>   -4.9898    1.0000 </r>
       <r>   -4.8158    1.0000 </r>
       <r>   -4.6625    1.0000 </r>
       <r>   -4.4890    1.0000 </r>
       <r>   -4.3217    1.0000 </r>
       <r>   -4.1945    1.0000 </r>
       <r>   -4.0414    1.0000 </r>
       <r>   -3.9332    1.0000 </r>
       <r>   -3.6262    1.0000 </r>
       <r>   -2.9407    1.0000 </r>
       <r>   -1.0762    0.0000 </r>
       <r>    1.5395    0.0000 </r>
       <r>    4.4198    0.0000 </r>
       <r>    5.4030    0.0000 </r>
       <r>    5.6166    0.0000 </r>
      </set>
      <set comment="kpoint 26">
       <r>   -9.7402    1.0000 </r>
       <r>   -8.7473    1.0000 </r>
       <r>   -7.5210    1.0000 </r>
       <r>   -6.5178    1.0000 </r>
       <r>   -6.2677    1.0000 </r>
       <r>   -6.0398    1.0000 </r>
       <r>   -5.8700    1.0000 </r>
       <r>   -5.7821    1.0000 </r>
       <r>   -5.6589    1.0000 </r>
       <r>   -5.3610    1.0000 </r>
       <r>   -5.3340    1.0000 </r>
       <r>   -5.2976    1.0000 </r>
       <r>   -5.1447    1.0000 </r>
       <r>   -5.0066    1.0000 </r>
       <r>   -4.8467    1.0000 </r>
       <r>   -4.8133    1.0000 </r>
       <r>   -4.6309    1.0000 </r>
       <r>   -4.5687    1.0000 </r>
       <r>   -4.4359    1.0000 </r>
       <r>   -4.3506    1.0000 </r>
       <r>   -4.1989    1.0000 </r>
       <r>   -4.1071    1.0000 </r>
       <r>   -3.8261    1.0000 </r>
       <r>   -2.3397    0.2614 </r>
       <r>    0.0382    0.0000 </r>
       <r>    3.2952    0.0000 </r>
       <r>    4.0672    0.0000 </r>
       <r>    4.5053    0.0000 </r>
      </set>
      <set comment="kpoint 27">
       <r>   -9.3910    1.0000 </r>
       <r>   -8.3376    1.0000 </r>
       <r>   -7.3164    1.0000 </r>
       <r>   -6.5155    1.0000 </r>
       <r>   -6.3696    1.0000 </r>
       <r>   -6.0642    1.0000 </r>
       <r>   -5.7619    1.0000 </r>
       <r>   -5.6683    1.0000 </r>
       <r>   -5.4663    1.0000 </r>
       <r>   -5.3690    1.0000 </r>
       <r>   -5.3171    1.0000 </r>
       <r>   -5.1415    1.0000 </r>
       <r>   -4.9808    1.0000 </r>
       <r>   -4.8926    1.0000 </r>
       <r>   -4.7949    1.0000 </r>
       <r>   -4.7573    1.0000 </r>
       <r>   -4.5709    1.0000 </r>
       <r>   -4.4420    1.0000 </r>
       <r>   -4.3972    1.0000 </r>
       <r>   -4.3098    1.0000 </r>
       <r>   -4.1875    1.0000 </r>
       <r>   -4.0266    1.0000 </r>
       <r>   -3.7969    1.0000 </r>
       <r>   -2.0202    0.0000 </r>
       <r>    0.5569    0.0000 </r>
       <r>    3.6350    0.0000 </r>
       <r>    4.6597    0.0000 </r>
       <r>    4.8838    0.0000 </r>
      </set>
      <set comment="kpoint 28">
       <r>   -9.7400    1.0000 </r>
       <r>   -8.7485    1.0000 </r>
       <r>   -7.5205    1.0000 </r>
       <r>   -6.5109    1.0000 </r>
       <r>   -6.2698    1.0000 </r>
       <r>   -6.0461    1.0000 </r>
       <r>   -5.8683    1.0000 </r>
       <r>   -5.7901    1.0000 </r>
       <r>   -5.6569    1.0000 </r>
       <r>   -5.3560    1.0000 </r>
       <r>   -5.3320    1.0000 </r>
       <r>   -5.2897    1.0000 </r>
       <r>   -5.1473    1.0000 </r>
       <r>   -4.9855    1.0000 </r>
       <r>   -4.8701    1.0000 </r>
       <r>   -4.8118    1.0000 </r>
       <r>   -4.6262    1.0000 </r>
       <r>   -4.5663    1.0000 </r>
       <r>   -4.4510    1.0000 </r>
       <r>   -4.3508    1.0000 </r>
       <r>   -4.1987    1.0000 </r>
       <r>   -4.1031    1.0000 </r>
       <r>   -3.8371    1.0000 </r>
       <r>   -2.3311    0.2234 </r>
       <r>    0.0419    0.0000 </r>
       <r>    3.2952    0.0000 </r>
       <r>    4.0678    0.0000 </r>
       <r>    4.5071    0.0000 </r>
      </set>
      <set comment="kpoint 29">
       <r>   -9.6509    1.0000 </r>
       <r>   -8.7485    1.0000 </r>
       <r>   -7.5771    1.0000 </r>
       <r>   -6.5926    1.0000 </r>
       <r>   -6.3690    1.0000 </r>
       <r>   -6.1180    1.0000 </r>
       <r>   -5.9510    1.0000 </r>
       <r>   -5.8115    1.0000 </r>
       <r>   -5.6401    1.0000 </r>
       <r>   -5.3739    1.0000 </r>
       <r>   -5.3263    1.0000 </r>
       <r>   -5.2423    1.0000 </r>
       <r>   -5.0905    1.0000 </r>
       <r>   -4.9597    1.0000 </r>
       <r>   -4.8724    1.0000 </r>
       <r>   -4.7999    1.0000 </r>
       <r>   -4.6235    1.0000 </r>
       <r>   -4.5524    1.0000 </r>
       <r>   -4.4151    1.0000 </r>
       <r>   -4.3480    1.0000 </r>
       <r>   -4.1986    1.0000 </r>
       <r>   -4.1027    1.0000 </r>
       <r>   -3.7788    1.0000 </r>
       <r>   -2.2248    0.0118 </r>
       <r>    0.1002    0.0000 </r>
       <r>    3.3133    0.0000 </r>
       <r>    4.0670    0.0000 </r>
       <r>    4.5210    0.0000 </r>
      </set>
      <set comment="kpoint 30">
       <r>   -9.1285    1.0000 </r>
       <r>   -8.3682    1.0000 </r>
       <r>   -7.4793    1.0000 </r>
       <r>   -6.7049    1.0000 </r>
       <r>   -6.4473    1.0000 </r>
       <r>   -6.2474    1.0000 </r>
       <r>   -5.9418    1.0000 </r>
       <r>   -5.7099    1.0000 </r>
       <r>   -5.5874    1.0000 </r>
       <r>   -5.3376    1.0000 </r>
       <r>   -5.2178    1.0000 </r>
       <r>   -5.1069    1.0000 </r>
       <r>   -4.9321    1.0000 </r>
       <r>   -4.8825    1.0000 </r>
       <r>   -4.8091    1.0000 </r>
       <r>   -4.6602    1.0000 </r>
       <r>   -4.5669    1.0000 </r>
       <r>   -4.4232    1.0000 </r>
       <r>   -4.3842    1.0000 </r>
       <r>   -4.3030    1.0000 </r>
       <r>   -4.1875    1.0000 </r>
       <r>   -4.0226    1.0000 </r>
       <r>   -3.6099    1.0000 </r>
       <r>   -1.7173    0.0000 </r>
       <r>    0.7628    0.0000 </r>
       <r>    3.7658    0.0000 </r>
       <r>    4.6373    0.0000 </r>
       <r>    5.0699    0.0000 </r>
      </set>
      <set comment="kpoint 31">
       <r>   -8.4007    1.0000 </r>
       <r>   -7.7311    1.0000 </r>
       <r>   -7.1798    1.0000 </r>
       <r>   -6.6571    1.0000 </r>
       <r>   -6.4253    1.0000 </r>
       <r>   -6.2498    1.0000 </r>
       <r>   -5.9860    1.0000 </r>
       <r>   -5.6733    1.0000 </r>
       <r>   -5.6010    1.0000 </r>
       <r>   -5.3514    1.0000 </r>
       <r>   -5.2646    1.0000 </r>
       <r>   -5.1318    1.0000 </r>
       <r>   -4.9527    1.0000 </r>
       <r>   -4.7882    1.0000 </r>
       <r>   -4.7336    1.0000 </r>
       <r>   -4.5544    1.0000 </r>
       <r>   -4.4421    1.0000 </r>
       <r>   -4.3206    1.0000 </r>
       <r>   -4.2208    1.0000 </r>
       <r>   -4.0454    1.0000 </r>
       <r>   -3.9938    1.0000 </r>
       <r>   -3.6743    1.0000 </r>
       <r>   -2.8214    1.0000 </r>
       <r>   -0.7000    0.0000 </r>
       <r>    1.9660    0.0000 </r>
       <r>    3.9582    0.0000 </r>
       <r>    4.4097    0.0000 </r>
       <r>    5.1231    0.0000 </r>
      </set>
      <set comment="kpoint 32">
       <r>   -7.9251    1.0000 </r>
       <r>   -6.9356    1.0000 </r>
       <r>   -6.7158    1.0000 </r>
       <r>   -6.4951    1.0000 </r>
       <r>   -6.3259    1.0000 </r>
       <r>   -6.1711    1.0000 </r>
       <r>   -5.9863    1.0000 </r>
       <r>   -5.8080    1.0000 </r>
       <r>   -5.6092    1.0000 </r>
       <r>   -5.5394    1.0000 </r>
       <r>   -5.3767    1.0000 </r>
       <r>   -5.1132    1.0000 </r>
       <r>   -5.0104    1.0000 </r>
       <r>   -4.8662    1.0000 </r>
       <r>   -4.7049    1.0000 </r>
       <r>   -4.5837    1.0000 </r>
       <r>   -4.4379    1.0000 </r>
       <r>   -4.2582    1.0000 </r>
       <r>   -4.1137    1.0000 </r>
       <r>   -3.9439    1.0000 </r>
       <r>   -3.3289    1.0000 </r>
       <r>   -2.3956    0.5600 </r>
       <r>   -1.2170    0.0000 </r>
       <r>    0.8341    0.0000 </r>
       <r>    2.7969    0.0000 </r>
       <r>    3.5365    0.0000 </r>
       <r>    3.7847    0.0000 </r>
       <r>    4.9744    0.0000 </r>
      </set>
      <set comment="kpoint 33">
       <r>   -7.6593    1.0000 </r>
       <r>   -6.4776    1.0000 </r>
       <r>   -6.4146    1.0000 </r>
       <r>   -6.2934    1.0000 </r>
       <r>   -6.2191    1.0000 </r>
       <r>   -6.1102    1.0000 </r>
       <r>   -6.0046    1.0000 </r>
       <r>   -5.9470    1.0000 </r>
       <r>   -5.7542    1.0000 </r>
       <r>   -5.5803    1.0000 </r>
       <r>   -5.4785    1.0000 </r>
       <r>   -5.0951    1.0000 </r>
       <r>   -5.0458    1.0000 </r>
       <r>   -4.8563    1.0000 </r>
       <r>   -4.7120    1.0000 </r>
       <r>   -4.5673    1.0000 </r>
       <r>   -4.5055    1.0000 </r>
       <r>   -4.2203    1.0000 </r>
       <r>   -4.1305    1.0000 </r>
       <r>   -4.0371    1.0000 </r>
       <r>   -2.1355    0.0002 </r>
       <r>   -0.4180    0.0000 </r>
       <r>    0.7592    0.0000 </r>
       <r>    2.1820    0.0000 </r>
       <r>    2.2371    0.0000 </r>
       <r>    2.5303    0.0000 </r>
       <r>    3.3078    0.0000 </r>
       <r>    3.9278    0.0000 </r>
      </set>
      <set comment="kpoint 34">
       <r>   -7.6156    1.0000 </r>
       <r>   -6.5034    1.0000 </r>
       <r>   -6.4301    1.0000 </r>
       <r>   -6.2897    1.0000 </r>
       <r>   -6.2195    1.0000 </r>
       <r>   -6.1032    1.0000 </r>
       <r>   -6.0099    1.0000 </r>
       <r>   -5.9303    1.0000 </r>
       <r>   -5.7088    1.0000 </r>
       <r>   -5.6351    1.0000 </r>
       <r>   -5.4831    1.0000 </r>
       <r>   -5.0970    1.0000 </r>
       <r>   -5.0452    1.0000 </r>
       <r>   -4.8832    1.0000 </r>
       <r>   -4.7092    1.0000 </r>
       <r>   -4.5787    1.0000 </r>
       <r>   -4.5033    1.0000 </r>
       <r>   -4.2063    1.0000 </r>
       <r>   -4.1285    1.0000 </r>
       <r>   -4.0389    1.0000 </r>
       <r>   -1.9708    0.0000 </r>
       <r>   -0.4418    0.0000 </r>
       <r>    0.6101    0.0000 </r>
       <r>    1.7528    0.0000 </r>
       <r>    2.3152    0.0000 </r>
       <r>    2.4581    0.0000 </r>
       <r>    3.2126    0.0000 </r>
       <r>    3.8181    0.0000 </r>
      </set>
      <set comment="kpoint 35">
       <r>   -8.0189    1.0000 </r>
       <r>   -6.8864    1.0000 </r>
       <r>   -6.6894    1.0000 </r>
       <r>   -6.4273    1.0000 </r>
       <r>   -6.3052    1.0000 </r>
       <r>   -6.0719    1.0000 </r>
       <r>   -5.9531    1.0000 </r>
       <r>   -5.7921    1.0000 </r>
       <r>   -5.6157    1.0000 </r>
       <r>   -5.5701    1.0000 </r>
       <r>   -5.4180    1.0000 </r>
       <r>   -5.1288    1.0000 </r>
       <r>   -5.0410    1.0000 </r>
       <r>   -4.8984    1.0000 </r>
       <r>   -4.6983    1.0000 </r>
       <r>   -4.6140    1.0000 </r>
       <r>   -4.4352    1.0000 </r>
       <r>   -4.2603    1.0000 </r>
       <r>   -4.0776    1.0000 </r>
       <r>   -3.9447    1.0000 </r>
       <r>   -3.0436    1.0000 </r>
       <r>   -2.4213    0.6967 </r>
       <r>   -1.4234    0.0000 </r>
       <r>    0.3454    0.0000 </r>
       <r>    2.1082    0.0000 </r>
       <r>    3.2648    0.0000 </r>
       <r>    4.3009    0.0000 </r>
       <r>    5.5916    0.0000 </r>
      </set>
      <set comment="kpoint 36">
       <r>   -8.7300    1.0000 </r>
       <r>   -7.6229    1.0000 </r>
       <r>   -7.0123    1.0000 </r>
       <r>   -6.4919    1.0000 </r>
       <r>   -6.3893    1.0000 </r>
       <r>   -6.1074    1.0000 </r>
       <r>   -5.8380    1.0000 </r>
       <r>   -5.6389    1.0000 </r>
       <r>   -5.5393    1.0000 </r>
       <r>   -5.4426    1.0000 </r>
       <r>   -5.2605    1.0000 </r>
       <r>   -5.1854    1.0000 </r>
       <r>   -5.0003    1.0000 </r>
       <r>   -4.7942    1.0000 </r>
       <r>   -4.7521    1.0000 </r>
       <r>   -4.5549    1.0000 </r>
       <r>   -4.4378    1.0000 </r>
       <r>   -4.2514    1.0000 </r>
       <r>   -4.2064    1.0000 </r>
       <r>   -4.0416    1.0000 </r>
       <r>   -3.9606    1.0000 </r>
       <r>   -3.6885    1.0000 </r>
       <r>   -3.0380    1.0000 </r>
       <r>   -1.1290    0.0000 </r>
       <r>    1.4745    0.0000 </r>
       <r>    3.5989    0.0000 </r>
       <r>    4.5809    0.0000 </r>
       <r>    5.4228    0.0000 </r>
      </set>
      <set comment="kpoint 37">
       <r>   -8.5904    1.0000 </r>
       <r>   -7.3789    1.0000 </r>
       <r>   -7.0323    1.0000 </r>
       <r>   -6.5815    1.0000 </r>
       <r>   -6.5201    1.0000 </r>
       <r>   -6.2018    1.0000 </r>
       <r>   -5.8030    1.0000 </r>
       <r>   -5.4944    1.0000 </r>
       <r>   -5.4290    1.0000 </r>
       <r>   -5.3492    1.0000 </r>
       <r>   -5.1123    1.0000 </r>
       <r>   -5.0192    1.0000 </r>
       <r>   -4.6972    1.0000 </r>
       <r>   -4.5419    1.0000 </r>
       <r>   -4.4200    1.0000 </r>
       <r>   -4.4019    1.0000 </r>
       <r>   -4.1615    1.0000 </r>
       <r>   -4.1045    1.0000 </r>
       <r>   -4.0418    1.0000 </r>
       <r>   -4.0270    1.0000 </r>
       <r>   -3.8709    1.0000 </r>
       <r>   -3.5800    1.0000 </r>
       <r>   -2.8546    1.0000 </r>
       <r>   -0.9315    0.0000 </r>
       <r>    1.0108    0.0000 </r>
       <r>    2.6035    0.0000 </r>
       <r>    3.5278    0.0000 </r>
       <r>    4.9957    0.0000 </r>
      </set>
      <set comment="kpoint 38">
       <r>   -8.7305    1.0000 </r>
       <r>   -7.6237    1.0000 </r>
       <r>   -7.0118    1.0000 </r>
       <r>   -6.4894    1.0000 </r>
       <r>   -6.3897    1.0000 </r>
       <r>   -6.1033    1.0000 </r>
       <r>   -5.8472    1.0000 </r>
       <r>   -5.6531    1.0000 </r>
       <r>   -5.5200    1.0000 </r>
       <r>   -5.4245    1.0000 </r>
       <r>   -5.2855    1.0000 </r>
       <r>   -5.1564    1.0000 </r>
       <r>   -5.0379    1.0000 </r>
       <r>   -4.8030    1.0000 </r>
       <r>   -4.6981    1.0000 </r>
       <r>   -4.5764    1.0000 </r>
       <r>   -4.4361    1.0000 </r>
       <r>   -4.2537    1.0000 </r>
       <r>   -4.2167    1.0000 </r>
       <r>   -4.0372    1.0000 </r>
       <r>   -3.9581    1.0000 </r>
       <r>   -3.6960    1.0000 </r>
       <r>   -3.0462    1.0000 </r>
       <r>   -1.1191    0.0000 </r>
       <r>    1.4832    0.0000 </r>
       <r>    3.5979    0.0000 </r>
       <r>    4.5740    0.0000 </r>
       <r>    5.4223    0.0000 </r>
      </set>
      <set comment="kpoint 39">
       <r>   -8.6463    1.0000 </r>
       <r>   -7.7234    1.0000 </r>
       <r>   -7.0126    1.0000 </r>
       <r>   -6.4887    1.0000 </r>
       <r>   -6.2244    1.0000 </r>
       <r>   -6.1141    1.0000 </r>
       <r>   -5.9718    1.0000 </r>
       <r>   -5.8946    1.0000 </r>
       <r>   -5.6239    1.0000 </r>
       <r>   -5.4782    1.0000 </r>
       <r>   -5.4511    1.0000 </r>
       <r>   -5.3541    1.0000 </r>
       <r>   -5.0464    1.0000 </r>
       <r>   -4.9750    1.0000 </r>
       <r>   -4.8568    1.0000 </r>
       <r>   -4.6565    1.0000 </r>
       <r>   -4.4815    1.0000 </r>
       <r>   -4.3302    1.0000 </r>
       <r>   -4.1972    1.0000 </r>
       <r>   -4.0376    1.0000 </r>
       <r>   -3.9336    1.0000 </r>
       <r>   -3.6323    1.0000 </r>
       <r>   -2.9502    1.0000 </r>
       <r>   -1.0627    0.0000 </r>
       <r>    1.5542    0.0000 </r>
       <r>    4.4255    0.0000 </r>
       <r>    5.4012    0.0000 </r>
       <r>    5.6133    0.0000 </r>
      </set>
      <set comment="kpoint 40">
       <r>   -8.3578    1.0000 </r>
       <r>   -7.6930    1.0000 </r>
       <r>   -7.1554    1.0000 </r>
       <r>   -6.6730    1.0000 </r>
       <r>   -6.4342    1.0000 </r>
       <r>   -6.2863    1.0000 </r>
       <r>   -6.0287    1.0000 </r>
       <r>   -5.7158    1.0000 </r>
       <r>   -5.6173    1.0000 </r>
       <r>   -5.3785    1.0000 </r>
       <r>   -5.3042    1.0000 </r>
       <r>   -5.1425    1.0000 </r>
       <r>   -4.9599    1.0000 </r>
       <r>   -4.7919    1.0000 </r>
       <r>   -4.6604    1.0000 </r>
       <r>   -4.5515    1.0000 </r>
       <r>   -4.4289    1.0000 </r>
       <r>   -4.2730    1.0000 </r>
       <r>   -4.1956    1.0000 </r>
       <r>   -4.0307    1.0000 </r>
       <r>   -3.9657    1.0000 </r>
       <r>   -3.6714    1.0000 </r>
       <r>   -2.8778    1.0000 </r>
       <r>   -0.7963    0.0000 </r>
       <r>    1.8939    0.0000 </r>
       <r>    4.0265    0.0000 </r>
       <r>    4.4591    0.0000 </r>
       <r>    5.1411    0.0000 </r>
      </set>
      <set comment="kpoint 41">
       <r>   -8.0632    1.0000 </r>
       <r>   -7.4772    1.0000 </r>
       <r>   -7.1480    1.0000 </r>
       <r>   -6.8093    1.0000 </r>
       <r>   -6.5594    1.0000 </r>
       <r>   -6.4115    1.0000 </r>
       <r>   -6.0653    1.0000 </r>
       <r>   -5.5351    1.0000 </r>
       <r>   -5.4182    1.0000 </r>
       <r>   -5.3186    1.0000 </r>
       <r>   -5.2618    1.0000 </r>
       <r>   -4.9676    1.0000 </r>
       <r>   -4.8488    1.0000 </r>
       <r>   -4.5345    1.0000 </r>
       <r>   -4.4236    1.0000 </r>
       <r>   -4.3661    1.0000 </r>
       <r>   -4.1619    1.0000 </r>
       <r>   -4.1399    1.0000 </r>
       <r>   -4.1061    1.0000 </r>
       <r>   -4.0237    1.0000 </r>
       <r>   -3.8712    1.0000 </r>
       <r>   -3.5841    1.0000 </r>
       <r>   -2.5338    0.9824 </r>
       <r>   -0.3098    0.0000 </r>
       <r>    2.1864    0.0000 </r>
       <r>    2.7895    0.0000 </r>
       <r>    3.1603    0.0000 </r>
       <r>    4.3905    0.0000 </r>
      </set>
      <set comment="kpoint 42">
       <r>   -7.8832    1.0000 </r>
       <r>   -7.0931    1.0000 </r>
       <r>   -6.9096    1.0000 </r>
       <r>   -6.7242    1.0000 </r>
       <r>   -6.5258    1.0000 </r>
       <r>   -6.3507    1.0000 </r>
       <r>   -6.0633    1.0000 </r>
       <r>   -5.5701    1.0000 </r>
       <r>   -5.4569    1.0000 </r>
       <r>   -5.3483    1.0000 </r>
       <r>   -5.2342    1.0000 </r>
       <r>   -5.0481    1.0000 </r>
       <r>   -4.8196    1.0000 </r>
       <r>   -4.5872    1.0000 </r>
       <r>   -4.4518    1.0000 </r>
       <r>   -4.3035    1.0000 </r>
       <r>   -4.1855    1.0000 </r>
       <r>   -4.1553    1.0000 </r>
       <r>   -4.0791    1.0000 </r>
       <r>   -3.9260    1.0000 </r>
       <r>   -3.4774    1.0000 </r>
       <r>   -2.3754    0.4466 </r>
       <r>   -1.3654    0.0000 </r>
       <r>    0.0639    0.0000 </r>
       <r>    1.6987    0.0000 </r>
       <r>    2.4435    0.0000 </r>
       <r>    2.9355    0.0000 </r>
       <r>    4.1664    0.0000 </r>
      </set>
      <set comment="kpoint 43">
       <r>   -7.6926    1.0000 </r>
       <r>   -6.7060    1.0000 </r>
       <r>   -6.6260    1.0000 </r>
       <r>   -6.4550    1.0000 </r>
       <r>   -6.3302    1.0000 </r>
       <r>   -6.1918    1.0000 </r>
       <r>   -6.0092    1.0000 </r>
       <r>   -5.8572    1.0000 </r>
       <r>   -5.6145    1.0000 </r>
       <r>   -5.5103    1.0000 </r>
       <r>   -5.3410    1.0000 </r>
       <r>   -5.1532    1.0000 </r>
       <r>   -4.9346    1.0000 </r>
       <r>   -4.7526    1.0000 </r>
       <r>   -4.6165    1.0000 </r>
       <r>   -4.5192    1.0000 </r>
       <r>   -4.3362    1.0000 </r>
       <r>   -4.1762    1.0000 </r>
       <r>   -4.1177    1.0000 </r>
       <r>   -4.0130    1.0000 </r>
       <r>   -2.5114    0.9632 </r>
       <r>   -0.7559    0.0000 </r>
       <r>   -0.1875    0.0000 </r>
       <r>    0.5742    0.0000 </r>
       <r>    1.8095    0.0000 </r>
       <r>    2.7313    0.0000 </r>
       <r>    3.2734    0.0000 </r>
       <r>    4.3011    0.0000 </r>
      </set>
      <set comment="kpoint 44">
       <r>   -7.6175    1.0000 </r>
       <r>   -6.4949    1.0000 </r>
       <r>   -6.4374    1.0000 </r>
       <r>   -6.2864    1.0000 </r>
       <r>   -6.2160    1.0000 </r>
       <r>   -6.1064    1.0000 </r>
       <r>   -6.0094    1.0000 </r>
       <r>   -5.9396    1.0000 </r>
       <r>   -5.7230    1.0000 </r>
       <r>   -5.6085    1.0000 </r>
       <r>   -5.4828    1.0000 </r>
       <r>   -5.0973    1.0000 </r>
       <r>   -5.0452    1.0000 </r>
       <r>   -4.8718    1.0000 </r>
       <r>   -4.7274    1.0000 </r>
       <r>   -4.5794    1.0000 </r>
       <r>   -4.5049    1.0000 </r>
       <r>   -4.2060    1.0000 </r>
       <r>   -4.1282    1.0000 </r>
       <r>   -4.0374    1.0000 </r>
       <r>   -1.9748    0.0000 </r>
       <r>   -0.4504    0.0000 </r>
       <r>    0.6018    0.0000 </r>
       <r>    1.7725    0.0000 </r>
       <r>    2.3298    0.0000 </r>
       <r>    2.5542    0.0000 </r>
       <r>    3.2239    0.0000 </r>
       <r>    3.7326    0.0000 </r>
      </set>
      <set comment="kpoint 45">
       <r>   -7.8810    1.0000 </r>
       <r>   -6.6961    1.0000 </r>
[...]
        <r>  0.0003  0.0004  0.0007  0.0002  0.0348  0.0370  0.0850  0.0075  0.0359 </r>
        <r>  0.0001  0.0009  0.0005  0.0015  0.0343  0.0109  0.0187  0.0003  0.0395 </r>
        <r>  0.0006  0.0000  0.0000  0.0001  0.0000  0.0000  0.0000  0.0000  0.0000 </r>
       </set>
       <set comment="band 19">
        <r>  0.0010  0.0007  0.0009  0.0029  0.0139  0.0028  0.2271  0.0126  0.1269 </r>
        <r>  0.0001  0.0001  0.0001  0.0004  0.0349  0.0222  0.0600  0.0372  0.1194 </r>
        <r>  0.0002  0.0001  0.0003  0.0004  0.0852  0.0211  0.0327  0.0000  0.1222 </r>
        <r>  0.0001  0.0003  0.0000  0.0010  0.0160  0.0063  0.0014  0.0006  0.0288 </r>
        <r>  0.0006  0.0000  0.0000  0.0000  0.0000  0.0000  0.0000  0.0000  0.0000 </r>
       </set>
       <set comment="band 20">
        <r>  0.0017  0.0008  0.0003  0.0028  0.1604  0.0033  0.0542  0.0170  0.2973 </r>
        <r>  0.0000  0.0000  0.0004  0.0001  0.1114  0.0134  0.1432  0.0077  0.0487 </r>
        <r>  0.0000  0.0001  0.0001  0.0003  0.0228  0.0041  0.0108  0.0250  0.0449 </r>
        <r>  0.0001  0.0001  0.0002  0.0000  0.0043  0.0036  0.0049  0.0006  0.0011 </r>
        <r>  0.0000  0.0000  0.0000  0.0000  0.0000  0.0000  0.0000  0.0000  0.0000 </r>
       </set>
       <set comment="band 21">
        <r>  0.0003  0.0005  0.0004  0.0009  0.0102  0.0030  0.0129  0.0031  0.0077 </r>
        <r>  0.0007  0.0013  0.0006  0.0036  0.0077  0.0011  0.0091  0.0182  0.0182 </r>
        <r>  0.0052  0.0043  0.0057  0.0076  0.0733  0.0233  0.1077  0.0092  0.0169 </r>
        <r>  0.0170  0.0184  0.0011  0.0649  0.1046  0.0001  0.0056  0.1163  0.1444 </r>
        <r>  0.0480  0.0000  0.0001  0.0000  0.0000  0.0000  0.0000  0.0000  0.0000 </r>
       </set>
       <set comment="band 22">
        <r>  0.0203  0.0149  0.0051  0.0299  0.0644  0.0070  0.0384  0.0078  0.0118 </r>
        <r>  0.0424  0.0353  0.0011  0.0671  0.1107  0.0001  0.0315  0.0001  0.0158 </r>
        <r>  0.0235  0.0145  0.0058  0.0291  0.0559  0.0093  0.0387  0.0064  0.0097 </r>
        <r>  0.0047  0.0012  0.0039  0.0056  0.0071  0.0028  0.0134  0.0208  0.0061 </r>
        <r>  0.0076  0.0000  0.0000  0.0001  0.0000  0.0000  0.0000  0.0000  0.0000 </r>
       </set>
       <set comment="band 23">
        <r>  0.0352  0.0439  0.0004  0.0874  0.0498  0.0014  0.0018  0.0017  0.0151 </r>
        <r>  0.0125  0.0009  0.0341  0.0013  0.0117  0.0255  0.0159  0.0137  0.0021 </r>
        <r>  0.0166  0.0407  0.0035  0.0886  0.0217  0.0003  0.0026  0.0021  0.0186 </r>
        <r>  0.0113  0.0001  0.0151  0.0058  0.0105  0.0096  0.0179  0.0277  0.0098 </r>
        <r>  0.0149  0.0000  0.0000  0.0001  0.0000  0.0000  0.0000  0.0000  0.0000 </r>
       </set>
       <set comment="band 24">
        <r>  0.0141  0.0298  0.0184  0.0811  0.0086  0.0029  0.0187  0.0022  0.0188 </r>
        <r>  0.0051  0.0373  0.0140  0.1176  0.0019  0.0011  0.0352  0.0032  0.0331 </r>
        <r>  0.0087  0.0122  0.0209  0.0439  0.0039  0.0064  0.0172  0.0058  0.0148 </r>
        <r>  0.0182  0.0006  0.0078  0.0015  0.0097  0.0036  0.0055  0.0100  0.0041 </r>
        <r>  0.0075  0.0000  0.0000  0.0001  0.0000  0.0000  0.0000  0.0000  0.0000 </r>
       </set>
       <set comment="band 25">
        <r>  0.0170  0.0020  0.0042  0.0085  0.0059  0.0008  0.0035  0.0014  0.0041 </r>
        <r>  0.0620  0.0019  0.0031  0.0073  0.0219  0.0032  0.0058  0.0089  0.0092 </r>
        <r>  0.1285  0.0004  0.0074  0.0080  0.0450  0.0090  0.0114  0.0200  0.0188 </r>
        <r>  0.1458  0.0012  0.0086  0.0158  0.0484  0.0088  0.0112  0.0305  0.0209 </r>
        <r>  0.0119  0.0006  0.0003  0.0048  0.0000  0.0000  0.0000  0.0000  0.0000 </r>
       </set>
       <set comment="band 26">
        <r>  0.0523  0.0021  0.0037  0.0049  0.0156  0.0032  0.0026  0.0064  0.0058 </r>
        <r>  0.0825  0.0019  0.0008  0.0033  0.0253  0.0013  0.0026  0.0030  0.0090 </r>
        <r>  0.0154  0.0014  0.0263  0.0033  0.0045  0.0069  0.0007  0.0134  0.0020 </r>
        <r>  0.0908  0.0118  0.0618  0.0379  0.0210  0.0090  0.0075  0.0236  0.0111 </r>
        <r>  0.0177  0.0018  0.0008  0.0101  0.0000  0.0000  0.0000  0.0000  0.0000 </r>
       </set>
       <set comment="band 27">
        <r>  0.1472  0.0020  0.0090  0.0300  0.0397  0.0040  0.0079  0.0059  0.0231 </r>
        <r>  0.0134  0.0013  0.0192  0.0008  0.0042  0.0037  0.0001  0.0198  0.0010 </r>
        <r>  0.0360  0.0063  0.0064  0.0406  0.0091  0.0023  0.0056  0.0034  0.0123 </r>
        <r>  0.0405  0.0142  0.0139  0.0026  0.0158  0.0033  0.0003  0.0493  0.0040 </r>
        <r>  0.0363  0.0009  0.0005  0.0027  0.0000  0.0000  0.0000  0.0000  0.0000 </r>
       </set>
       <set comment="band 28">
        <r>  0.0572  0.0018  0.0780  0.0194  0.0118  0.0071  0.0018  0.0049  0.0087 </r>
        <r>  0.0368  0.0023  0.0162  0.0104  0.0105  0.0129  0.0003  0.0253  0.0056 </r>
        <r>  0.0251  0.0058  0.0416  0.0124  0.0070  0.0020  0.0010  0.0053  0.0032 </r>
        <r>  0.0074  0.0224  0.0014  0.0096  0.0050  0.0043  0.0020  0.0361  0.0009 </r>
        <r>  0.0293  0.0002  0.0015  0.0005  0.0000  0.0000  0.0000  0.0000  0.0000 </r>
       </set>
      </set>
      <set comment="kpoint 52">
       <set comment="band 1">
        <r>  0.0000  0.0000  0.0000  0.0000  0.0000  0.0000  0.0000  0.0000  0.0000 </r>
        <r>  0.0000  0.0001  0.0000  0.0002  0.0000  0.0004  0.0000  0.0015  0.0000 </r>
        <r>  0.0045  0.0003  0.0005  0.0006  0.0055  0.0033  0.0025  0.0053  0.0016 </r>
        <r>  0.0017  0.0042  0.0004  0.0449  0.0001  0.0429  0.0024  0.5325  0.0006 </r>
        <r>  0.1779  0.0000  0.0017  0.0001  0.0000  0.0000  0.0000  0.0000  0.0000 </r>
       </set>
       <set comment="band 2">
        <r>  0.0048  0.0006  0.0012  0.0017  0.0074  0.0048  0.0044  0.0145  0.0025 </r>
        <r>  0.0422  0.0001  0.0006  0.0004  0.1243  0.0047  0.0131  0.0141  0.0415 </r>
        <r>  0.0352  0.0000  0.0000  0.0000  0.0746  0.0317  0.0267  0.0916  0.0249 </r>
        <r>  0.0365  0.0006  0.0023  0.0029  0.1737  0.0016  0.0032  0.0003  0.0537 </r>
        <r>  0.0017  0.0005  0.0000  0.0001  0.0000  0.0000  0.0000  0.0000  0.0000 </r>
       </set>
       <set comment="band 3">
        <r>  0.0056  0.0002  0.0006  0.0006  0.0229  0.0026  0.0002  0.0078  0.0076 </r>
        <r>  0.0005  0.0004  0.0001  0.0012  0.0157  0.0454  0.0070  0.1355  0.0052 </r>
        <r>  0.0370  0.0000  0.0008  0.0001  0.2379  0.0139  0.0012  0.0474  0.0799 </r>
        <r>  0.0027  0.0034  0.0000  0.0161  0.0809  0.0030  0.0222  0.0008  0.0288 </r>
        <r>  0.0112  0.0002  0.0001  0.0000  0.0000  0.0000  0.0000  0.0000  0.0000 </r>
       </set>
       <set comment="band 4">
        <r>  0.0010  0.0012  0.0005  0.0037  0.0002  0.0147  0.0043  0.0442  0.0001 </r>
        <r>  0.0421  0.0000  0.0001  0.0001  0.2069  0.0053  0.0017  0.0156  0.0690 </r>
        <r>  0.0008  0.0030  0.0026  0.0089  0.0002  0.0038  0.0030  0.0125  0.0001 </r>
        <r>  0.0240  0.0002  0.0000  0.0008  0.2826  0.0007  0.0122  0.0000  0.0886 </r>
        <r>  0.0006  0.0007  0.0000  0.0000  0.0000  0.0000  0.0000  0.0000  0.0000 </r>
       </set>
       <set comment="band 5">
        <r>  0.0181  0.0002  0.0030  0.0006  0.0441  0.0030  0.0135  0.0089  0.0147 </r>
        <r>  0.0011  0.0003  0.0022  0.0009  0.0854  0.0521  0.0418  0.1563  0.0284 </r>
        <r>  0.0014  0.0000  0.0018  0.0000  0.1318  0.0284  0.0715  0.0880  0.0439 </r>
        <r>  0.0027  0.0003  0.0019  0.0013  0.0032  0.0001  0.0443  0.0004  0.0009 </r>
        <r>  0.0008  0.0000  0.0000  0.0001  0.0000  0.0000  0.0000  0.0000  0.0000 </r>
       </set>
       <set comment="band 6">
        <r>  0.0361  0.0000  0.0002  0.0001  0.3944  0.0002  0.0205  0.0006  0.1314 </r>
        <r>  0.0006  0.0030  0.0008  0.0090  0.0392  0.0000  0.0734  0.0001  0.0131 </r>
        <r>  0.0083  0.0000  0.0000  0.0000  0.0156  0.0159  0.0162  0.0565  0.0054 </r>
        <r>  0.0000  0.0024  0.0002  0.0109  0.0012  0.0060  0.0010  0.0001  0.0002 </r>
        <r>  0.0058  0.0000  0.0001  0.0000  0.0000  0.0000  0.0000  0.0000  0.0000 </r>
       </set>
       <set comment="band 7">
        <r>  0.0001  0.0016  0.0011  0.0048  0.0257  0.0643  0.0330  0.1918  0.0085 </r>
        <r>  0.0022  0.0028  0.0059  0.0082  0.0017  0.0214  0.0386  0.0704  0.0005 </r>
        <r>  0.0016  0.0018  0.0013  0.0063  0.0026  0.0426  0.0060  0.1655  0.0010 </r>
        <r>  0.0016  0.0048  0.0024  0.0215  0.0157  0.0197  0.0797  0.0003  0.0034 </r>
        <r>  0.0106  0.0000  0.0001  0.0001  0.0000  0.0000  0.0000  0.0000  0.0000 </r>
       </set>
       <set comment="band 8">
        <r>  0.0008  0.0000  0.0002  0.0001  0.0428  0.0464  0.0116  0.1382  0.0142 </r>
        <r>  0.0000  0.0016  0.0007  0.0048  0.0728  0.0305  0.1030  0.0866  0.0240 </r>
        <r>  0.0005  0.0008  0.0008  0.0022  0.0679  0.0077  0.1600  0.0176  0.0227 </r>
        <r>  0.0005  0.0000  0.0003  0.0001  0.0126  0.0010  0.0638  0.0006  0.0039 </r>
        <r>  0.0000  0.0000  0.0000  0.0001  0.0000  0.0000  0.0000  0.0000  0.0000 </r>
       </set>
       <set comment="band 9">
        <r>  0.0004  0.0000  0.0008  0.0000  0.0146  0.0074  0.0445  0.0662  0.0056 </r>
        <r>  0.0006  0.0003  0.0014  0.0002  0.0000  0.0007  0.0137  0.0804  0.0003 </r>
        <r>  0.0023  0.0000  0.0050  0.0005  0.0131  0.0994  0.1195  0.0047  0.0015 </r>
        <r>  0.0013  0.0056  0.0000  0.0186  0.0073  0.3145  0.0867  0.0001  0.0033 </r>
        <r>  0.0107  0.0000  0.0001  0.0001  0.0000  0.0000  0.0000  0.0000  0.0000 </r>
       </set>
       <set comment="band 10">
        <r>  0.0009  0.0001  0.0011  0.0000  0.0186  0.0132  0.0738  0.0063  0.0042 </r>
        <r>  0.0016  0.0015  0.0003  0.0073  0.0033  0.1454  0.0649  0.0021  0.0000 </r>
        <r>  0.0015  0.0022  0.0008  0.0068  0.0001  0.1951  0.0573  0.0205  0.0019 </r>
        <r>  0.0038  0.0004  0.0001  0.0059  0.0000  0.0961  0.1708  0.0290  0.0006 </r>
        <r>  0.0016  0.0000  0.0000  0.0002  0.0000  0.0000  0.0000  0.0000  0.0000 </r>
       </set>
       <set comment="band 11">
        <r>  0.0001  0.0000  0.0000  0.0008  0.0053  0.0983  0.0014  0.0521  0.0032 </r>
        <r>  0.0024  0.0006  0.0071  0.0012  0.0022  0.1052  0.1265  0.0132  0.0027 </r>
        <r>  0.0017  0.0081  0.0003  0.0312  0.0001  0.0209  0.0666  0.0966  0.0007 </r>
        <r>  0.0046  0.0036  0.0001  0.0219  0.0078  0.0039  0.1783  0.0068  0.0078 </r>
        <r>  0.0082  0.0000  0.0001  0.0003  0.0000  0.0000  0.0000  0.0000  0.0000 </r>
       </set>
       <set comment="band 12">
        <r>  0.0014  0.0007  0.0002  0.0000  0.0003  0.0618  0.0386  0.1015  0.0003 </r>
        <r>  0.0001  0.0006  0.0014  0.0041  0.0001  0.2118  0.0072  0.1051  0.0007 </r>
        <r>  0.0018  0.0027  0.0002  0.0004  0.0007  0.0006  0.0722  0.0012  0.0003 </r>
        <r>  0.0004  0.0010  0.0000  0.0044  0.0039  0.2776  0.0168  0.0333  0.0005 </r>
        <r>  0.0004  0.0000  0.0000  0.0001  0.0000  0.0000  0.0000  0.0000  0.0000 </r>
       </set>
       <set comment="band 13">
        <r>  0.0072  0.0002  0.0003  0.0001  0.0008  0.0477  0.3357  0.0393  0.0010 </r>
        <r>  0.0001  0.0104  0.0011  0.0185  0.0008  0.0016  0.0237  0.0567  0.0002 </r>
        <r>  0.0006  0.0014  0.0088  0.0029  0.0058  0.1394  0.0165  0.0002  0.0023 </r>
        <r>  0.0008  0.0026  0.0015  0.0198  0.0203  0.0067  0.1011  0.0229  0.0017 </r>
        <r>  0.0100  0.0000  0.0000  0.0002  0.0000  0.0000  0.0000  0.0000  0.0000 </r>
       </set>
       <set comment="band 14">
        <r>  0.0008  0.0003  0.0000  0.0014  0.0003  0.2497  0.0576  0.0189  0.0000 </r>
        <r>  0.0002  0.0001  0.0001  0.0032  0.0002  0.0115  0.0377  0.0104  0.0001 </r>
        <r>  0.0000  0.0009  0.0009  0.0008  0.0003  0.1397  0.0029  0.1648  0.0005 </r>
        <r>  0.0000  0.0024  0.0005  0.0035  0.0027  0.1395  0.0375  0.0289  0.0485 </r>
        <r>  0.0006  0.0000  0.0000  0.0000  0.0000  0.0000  0.0000  0.0000  0.0000 </r>
       </set>
       <set comment="band 15">
        <r>  0.0000  0.0000  0.0000  0.0000  0.0000  0.0278  0.0000  0.0123  0.0000 </r>
        <r>  0.0000  0.0001  0.0000  0.0001  0.0000  0.0028  0.0005  0.0008  0.0001 </r>
        <r>  0.0000  0.0000  0.0000  0.0000  0.0010  0.0166  0.0000  0.0035  0.0027 </r>
        <r>  0.0001  0.0000  0.0000  0.0000  0.2126  0.0069  0.0002  0.0038  0.7008 </r>
        <r>  0.0000  0.0000  0.0000  0.0004  0.0000  0.0000  0.0000  0.0000  0.0000 </r>
       </set>
       <set comment="band 16">
        <r>  0.0020  0.0033  0.0002  0.0106  0.0166  0.0008  0.1234  0.0941  0.0066 </r>
        <r>  0.0013  0.0013  0.0001  0.0055  0.0396  0.0005  0.3090  0.0134  0.0186 </r>
        <r>  0.0003  0.0000  0.0048  0.0000  0.0132  0.0268  0.0305  0.0575  0.0042 </r>
        <r>  0.0000  0.0033  0.0015  0.0149  0.0257  0.0022  0.0801  0.0192  0.0000 </r>
        <r>  0.0054  0.0001  0.0001  0.0002  0.0000  0.0000  0.0000  0.0000  0.0000 </r>
       </set>
       <set comment="band 17">
        <r>  0.0001  0.0003  0.0000  0.0000  0.0023  0.2703  0.0080  0.0830  0.0005 </r>
        <r>  0.0000  0.0001  0.0000  0.0000  0.0233  0.2654  0.0021  0.0583  0.0406 </r>
        <r>  0.0000  0.0002  0.0000  0.0000  0.0166  0.1199  0.0052  0.0375  0.0250 </r>
        <r>  0.0000  0.0003  0.0000  0.0000  0.0006  0.0211  0.0003  0.0025  0.0051 </r>
        <r>  0.0000  0.0000  0.0000  0.0000  0.0000  0.0000  0.0000  0.0000  0.0000 </r>
       </set>
       <set comment="band 18">
        <r>  0.0000  0.0000  0.0000  0.0000  0.0004  0.0008  0.0001  0.0003  0.0019 </r>
        <r>  0.0000  0.0000  0.0000  0.0000  0.0980  0.0013  0.0000  0.0002  0.2865 </r>
        <r>  0.0000  0.0000  0.0000  0.0000  0.1473  0.0004  0.0001  0.0002  0.4527 </r>
        <r>  0.0000  0.0000  0.0000  0.0000  0.0005  0.0006  0.0000  0.0001  0.0021 </r>
        <r>  0.0000  0.0000  0.0000  0.0000  0.0000  0.0000  0.0000  0.0000  0.0000 </r>
       </set>
       <set comment="band 19">
        <r>  0.0000  0.0000  0.0000  0.0000  0.0046  0.0299  0.0013  0.0112  0.0089 </r>
        <r>  0.0000  0.0000  0.0000  0.0000  0.1279  0.0255  0.0000  0.0042  0.4048 </r>
        <r>  0.0000  0.0000  0.0000  0.0000  0.0789  0.0133  0.0014  0.0057  0.2682 </r>
        <r>  0.0000  0.0000  0.0000  0.0001  0.0006  0.0048  0.0000  0.0002  0.0026 </r>
        <r>  0.0001  0.0000  0.0000  0.0000  0.0000  0.0000  0.0000  0.0000  0.0000 </r>
       </set>
       <set comment="band 20">
        <r>  0.0000  0.0000  0.0000  0.0000  0.2385  0.0005  0.0002  0.0004  0.7360 </r>
        <r>  0.0000  0.0000  0.0000  0.0000  0.0027  0.0042  0.0000  0.0006  0.0086 </r>
        <r>  0.0000  0.0000  0.0000  0.0000  0.0000  0.0005  0.0004  0.0004  0.0005 </r>
        <r>  0.0000  0.0000  0.0000  0.0001  0.0000  0.0001  0.0000  0.0001  0.0000 </r>
        <r>  0.0001  0.0000  0.0000  0.0000  0.0000  0.0000  0.0000  0.0000  0.0000 </r>
       </set>
       <set comment="band 21">
        <r>  0.0000  0.0019  0.0021  0.0052  0.0173  0.0066  0.1204  0.0097  0.0015 </r>
        <r>  0.0000  0.0040  0.0011  0.0131  0.0014  0.0091  0.0030  0.0619  0.0000 </r>
        <r>  0.0009  0.0054  0.0070  0.0131  0.0426  0.0229  0.2120  0.0072  0.0083 </r>
        <r>  0.0000  0.0152  0.0014  0.0736  0.0005  0.0001  0.0021  0.1421  0.0026 </r>
        <r>  0.0392  0.0000  0.0001  0.0000  0.0000  0.0000  0.0000  0.0000  0.0000 </r>
       </set>
       <set comment="band 22">
        <r>  0.0050  0.0212  0.0055  0.0637  0.0119  0.0040  0.0367  0.0121  0.0039 </r>
        <r>  0.0000  0.0334  0.0114  0.0998  0.0001  0.0000  0.0001  0.0000  0.0000 </r>
        <r>  0.0172  0.0216  0.0008  0.0672  0.0336  0.0051  0.0780  0.0111  0.0110 </r>
        <r>  0.0109  0.0015  0.0051  0.0101  0.0143  0.0031  0.0283  0.0339  0.0033 </r>
        <r>  0.0100  0.0000  0.0000  0.0000  0.0000  0.0000  0.0000  0.0000  0.0000 </r>
       </set>
       <set comment="band 23">
        <r>  0.0008  0.0239  0.0005  0.0718  0.0011  0.0006  0.0019  0.0019  0.0004 </r>
        <r>  0.0652  0.0065  0.0020  0.0196  0.0698  0.0038  0.1005  0.0113  0.0231 </r>
        <r>  0.0016  0.0390  0.0112  0.1184  0.0014  0.0003  0.0027  0.0014  0.0005 </r>
        <r>  0.0299  0.0001  0.0105  0.0014  0.0260  0.0013  0.0299  0.0098  0.0071 </r>
        <r>  0.0028  0.0000  0.0000  0.0000  0.0000  0.0000  0.0000  0.0000  0.0000 </r>
       </set>
       <set comment="band 24">
        <r>  0.0346  0.0451  0.0160  0.1354  0.0333  0.0000  0.0367  0.0000  0.0110 </r>
        <r>  0.0114  0.0291  0.0465  0.0874  0.0088  0.0004  0.0101  0.0013  0.0029 </r>
        <r>  0.0193  0.0070  0.0151  0.0213  0.0156  0.0007  0.0164  0.0023  0.0052 </r>
        <r>  0.0075  0.0000  0.0017  0.0001  0.0052  0.0002  0.0043  0.0015  0.0014 </r>
        <r>  0.0004  0.0000  0.0000  0.0000  0.0000  0.0000  0.0000  0.0000  0.0000 </r>
       </set>
       <set comment="band 25">
        <r>  0.0185  0.0019  0.0009  0.0057  0.0072  0.0004  0.0023  0.0012  0.0024 </r>
        <r>  0.0573  0.0003  0.0065  0.0009  0.0224  0.0041  0.0050  0.0125  0.0075 </r>
        <r>  0.1147  0.0010  0.0004  0.0034  0.0450  0.0108  0.0098  0.0302  0.0151 </r>
        <r>  0.1983  0.0000  0.0016  0.0016  0.0687  0.0055  0.0126  0.0278  0.0187 </r>
        <r>  0.0075  0.0009  0.0001  0.0068  0.0000  0.0000  0.0000  0.0000  0.0000 </r>
       </set>
       <set comment="band 26">
        <r>  0.0837  0.0015  0.0001  0.0044  0.0278  0.0005  0.0052  0.0015  0.0093 </r>
        <r>  0.0140  0.0000  0.0010  0.0001  0.0055  0.0087  0.0004  0.0266  0.0018 </r>
        <r>  0.0797  0.0055  0.0003  0.0145  0.0252  0.0000  0.0039  0.0003  0.0084 </r>
        <r>  0.1119  0.0065  0.0733  0.0061  0.0303  0.0025  0.0031  0.0229  0.0060 </r>
        <r>  0.0172  0.0022  0.0003  0.0111  0.0000  0.0000  0.0000  0.0000  0.0000 </r>
       </set>
       <set comment="band 27">
        <r>  0.1624  0.0040  0.0089  0.0121  0.0475  0.0021  0.0045  0.0062  0.0158 </r>
        <r>  0.0232  0.0071  0.0006  0.0209  0.0074  0.0038  0.0003  0.0110  0.0025 </r>
        <r>  0.0350  0.0001  0.0503  0.0010  0.0099  0.0001  0.0007  0.0000  0.0034 </r>
        <r>  0.0001  0.0135  0.0225  0.0086  0.0003  0.0122  0.0000  0.0822  0.0004 </r>
        <r>  0.0462  0.0002  0.0013  0.0006  0.0000  0.0000  0.0000  0.0000  0.0000 </r>
       </set>
       <set comment="band 28">
        <r>  0.0778  0.0025  0.0641  0.0074  0.0181  0.0024  0.0006  0.0071  0.0060 </r>
        <r>  0.1382  0.0021  0.0019  0.0067  0.0361  0.0014  0.0002  0.0039  0.0120 </r>
        <r>  0.0004  0.0043  0.0223  0.0156  0.0003  0.0076  0.0000  0.0263  0.0001 </r>
        <r>  0.0037  0.0091  0.0113  0.0068  0.0013  0.0063  0.0000  0.0400  0.0004 </r>
        <r>  0.0221  0.0003  0.0010  0.0013  0.0000  0.0000  0.0000  0.0000  0.0000 </r>
       </set>
      </set>
     </set>
    </set>
   </array>
  </projected>
 </calculation>
 <structure name="finalpos" >
  <crystal>
   <varray name="basis" >
    <v>       2.57386868       0.00000000       0.00000000 </v>
    <v>       1.28693434       2.22903567       0.00000000 </v>
    <v>       0.00000000       0.00000000      30.30466494 </v>
   </varray>
   <i name="volume">    173.86529028 </i>
   <varray name="rec_basis" >
    <v>       0.38852021      -0.22431225       0.00000000 </v>
    <v>       0.00000000       0.44862450       0.00000000 </v>
    <v>       0.00000000       0.00000000       0.03299822 </v>
   </varray>
  </crystal>
  <varray name="positions" >
   <v>       0.00000000       0.00000000       0.39597864 </v>
   <v>       0.33333333       0.33333333       0.46532621 </v>
   <v>       0.66666666       0.66666667       0.53467379 </v>
   <v>       0.00000000       0.00000000       0.60402136 </v>
   <v>       0.46114798       0.00000000       0.63701958 </v>
  </varray>
 </structure>
</modeling>
