unknown system                          
   2.80000000000000     
     1.010871    0.000000    0.000000
    -0.505435    0.875440   -0.000000
     0.000000   -0.000000    1.714077
   Pt
     2
Direct
  0.333333  0.666667  0.250000
  0.666667  0.333333  0.750000
 
   40   40   72
  4.1172      4.1434      4.2225      4.3551      4.5423      4.7849      5.0831      5.4360      5.8411      6.2943    
  6.7894      7.3177      7.8679      8.4256      8.9731      9.4904      9.9552      10.345      10.641      10.825    
  10.888      10.825      10.641      10.345      9.9552      9.4904      8.9731      8.4256      7.8679      7.3177    
  6.7894      6.2943      5.8411      5.4360      5.0831      4.7849      4.5423      4.3551      4.2225      4.1434    
  4.1434      4.1434      4.1961      4.3019      4.4618      4.6767      4.9473      5.2730      5.6525      6.0825    
  6.5581      7.0718      7.6139      8.1713      8.7281      9.2650      9.7604      10.192      10.539      10.781    
  10.906      10.906      10.781      10.539      10.192      9.7604      9.2650      8.7281      8.1713      7.6139    
  7.0718      6.5581      6.0825      5.6525      5.2730      4.9473      4.6767      4.4618      4.3019      4.1961    
  4.2225      4.1961      4.2225      4.3019      4.4350      4.6227      4.8656      5.1640      5.5170      5.9227    
  6.3772      6.8747      7.4068      7.9621      8.5261      9.0805      9.6047      10.076      10.472      10.772    
  10.959      11.022      10.959      10.772      10.472      10.076      9.6047      9.0805      8.5261      7.9622    
  7.4068      6.8747      6.3772      5.9227      5.5170      5.1640      4.8656      4.6227      4.4350      4.3019    
  4.3551      4.3019      4.3019      4.3551      4.4618      4.6227      4.8383      5.1092      5.4353      5.8153    
  6.2469      6.7259      7.2453      7.7957      8.3637      8.9326      9.4826      9.9909      10.434      10.789    
  11.038      11.166      11.166      11.038      10.789      10.434      9.9908      9.4826      8.9326      8.3637    
  7.7957      7.2453      6.7259      6.2469      5.8153      5.4353      5.1093      4.8383      4.6227      4.4618    
  4.5423      4.4618      4.4350      4.4618      4.5423      4.6767      4.8656      5.1093      5.4079      5.7613    
  6.1682      6.6258      7.1292      7.6706      8.2382      8.8173      9.3884      9.9291      10.415      10.824    
  11.133      11.326      11.392      11.326      11.133      10.824      10.415      9.9291      9.3884      8.8173    
  8.2383      7.6706      7.1292      6.6258      6.1682      5.7613      5.4079      5.1092      4.8656      4.6767    
  4.7849      4.6767      4.6227      4.6227      4.6767      4.7849      4.9473      5.1640      5.4353      5.7613    
  6.1419      6.5755      7.0590      7.5866      8.1486      8.7318      9.3177      9.8849      10.410      10.867    
  11.234      11.490      11.622      11.622      11.491      11.234      10.867      10.410      9.8849      9.3177    
  8.7317      8.1486      7.5866      7.0590      6.5755      6.1419      5.7613      5.4353      5.1640      4.9473    
  5.0831      4.9473      4.8656      4.8383      4.8656      4.9473      5.0831      5.2730      5.5170      5.8153    
  6.1682      6.5755      7.0356      7.5444      8.0946      8.6747      9.2680      9.8541      10.410      10.910    
  11.328      11.644      11.841      11.908      11.841      11.644      11.328      10.910      10.410      9.8541    
  9.2680      8.6747      8.0946      7.5444      7.0356      6.5755      6.1682      5.8153      5.5170      5.2730    
  5.4360      5.2730      5.1640      5.1093      5.1092      5.1640      5.2730      5.4360      5.6525      5.9227    
  6.2469      6.6258      7.0590      7.5444      8.0765      8.6462      9.2383      9.8344      10.412      10.945    
  11.408      11.777      12.035      12.168      12.168      12.035      11.777      11.408      10.945      10.412    
  9.8344      9.2383      8.6461      8.0765      7.5444      7.0591      6.6258      6.2470      5.9227      5.6525    
  5.8411      5.6525      5.5170      5.4353      5.4079      5.4353      5.5170      5.6525      5.8411      6.0825    
  6.3772      6.7258      7.1292      7.5866      8.0946      8.6461      9.2284      9.8247      10.414      10.970    
  11.467      11.882      12.195      12.390      12.456      12.390      12.195      11.882      11.467      10.970    
  10.414      9.8247      9.2284      8.6462      8.0946      7.5866      7.1292      6.7259      6.3772      6.0825    
  6.2943      6.0825      5.9227      5.8153      5.7613      5.7613      5.8153      5.9227      6.0825      6.2943    
  6.5581      6.8747      7.2453      7.6705      8.1486      8.6747      9.2383      9.8247      10.414      10.982    
  11.503      11.954      12.314      12.566      12.695      12.695      12.566      12.314      11.954      11.503    
  10.982      10.414      9.8247      9.2383      8.6747      8.1486      7.6706      7.2453      6.8747      6.5581    
  6.7894      6.5581      6.3772      6.2469      6.1682      6.1419      6.1682      6.2470      6.3772      6.5581    
  6.7893      7.0718      7.4068      7.7957      8.2383      8.7317      9.2681      9.8344      10.414      10.982    
  11.515      11.991      12.388      12.688      12.874      12.938      12.874      12.688      12.388      11.991    
  11.515      10.982      10.414      9.8344      9.2680      8.7317      8.2383      7.7957      7.4068      7.0718    
  7.3177      7.0718      6.8747      6.7259      6.6258      6.5755      6.5755      6.6258      6.7259      6.8747    
  7.0718      7.3177      7.6138      7.9621      8.3637      8.8173      9.3177      9.8541      10.412      10.970    
  11.503      11.991      12.413      12.750      12.985      13.107      13.107      12.985      12.750      12.413    
  11.991      11.503      10.970      10.412      9.8541      9.3177      8.8173      8.3637      7.9622      7.6138    
  7.8679      7.6139      7.4068      7.2453      7.1292      7.0590      7.0356      7.0591      7.1292      7.2453    
  7.4068      7.6138      7.8679      8.1713      8.5261      8.9326      9.3884      9.8849      10.410      10.945    
  11.467      11.954      12.388      12.750      13.023      13.193      13.251      13.193      13.023      12.750    
  12.388      11.954      11.467      10.945      10.410      9.8849      9.3884      8.9326      8.5261      8.1713    
  8.4256      8.1713      7.9621      7.7957      7.6706      7.5867      7.5444      7.5444      7.5866      7.6706    
  7.7957      7.9622      8.1713      8.4256      8.7281      9.0806      9.4826      9.9291      10.410      10.910    
  11.408      11.882      12.314      12.688      12.985      13.193      13.300      13.300      13.193      12.985    
  12.688      12.314      11.882      11.408      10.910      10.410      9.9291      9.4826      9.0805      8.7281    
  8.9731      8.7281      8.5261      8.3637      8.2382      8.1486      8.0946      8.0765      8.0946      8.1486    
  8.2383      8.3637      8.5261      8.7281      8.9732      9.2649      9.6047      9.9908      10.415      10.867    
  11.328      11.777      12.195      12.566      12.874      13.107      13.251      13.300      13.251      13.107    
  12.874      12.566      12.195      11.777      11.328      10.867      10.415      9.9908      9.6047      9.2650    
  9.4904      9.2649      9.0805      8.9326      8.8173      8.7317      8.6748      8.6461      8.6462      8.6747    
  8.7317      8.8173      8.9326      9.0805      9.2649      9.4904      9.7604      10.076      10.434      10.824    
  11.234      11.644      12.035      12.390      12.695      12.938      13.107      13.193      13.193      13.107    
  12.938      12.695      12.390      12.035      11.644      11.234      10.824      10.434      10.076      9.7604    
  9.9552      9.7604      9.6047      9.4826      9.3884      9.3177      9.2680      9.2383      9.2284      9.2383    
  9.2681      9.3177      9.3884      9.4826      9.6048      9.7604      9.9552      10.192      10.472      10.789    
  11.133      11.491      11.841      12.168      12.456      12.695      12.874      12.985      13.023      12.985    
  12.874      12.695      12.456      12.168      11.841      11.491      11.133      10.789      10.472      10.192    
  10.345      10.192      10.076      9.9909      9.9291      9.8849      9.8541      9.8344      9.8247      9.8247    
  9.8344      9.8541      9.8849      9.9291      9.9909      10.076      10.192      10.345      10.539      10.772    
  11.038      11.326      11.622      11.908      12.168      12.390      12.566      12.688      12.750      12.750    
  12.688      12.566      12.390      12.168      11.908      11.622      11.326      11.038      10.772      10.539    
  10.641      10.539      10.472      10.434      10.415      10.410      10.410      10.412      10.414      10.414    
  10.414      10.412      10.410      10.410      10.415      10.434      10.472      10.539      10.641      10.781    
  10.959      11.166      11.392      11.622      11.841      12.035      12.195      12.314      12.388      12.413    
  12.388      12.314      12.195      12.035      11.841      11.622      11.392      11.166      10.959      10.781    
  10.825      10.781      10.772      10.789      10.824      10.867      10.910      10.945      10.970      10.982    
  10.982      10.970      10.945      10.910      10.867      10.824      10.789      10.772      10.781      10.825    
  10.906      11.022      11.166      11.326      11.491      11.644      11.777      11.882      11.954      11.991    
  11.991      11.954      11.882      11.777      11.644      11.491      11.326      11.166      11.022      10.906    
  10.888      10.906      10.959      11.038      11.133      11.234      11.328      11.408      11.467      11.503    
  11.515      11.503      11.467      11.408      11.328      11.234      11.133      11.038      10.959      10.906    
  10.888      10.906      10.959      11.038      11.133      11.234      11.328      11.408      11.467      11.503    
  11.515      11.503      11.467      11.408      11.328      11.234      11.133      11.038      10.959      10.906    
  10.825      10.906      11.022      11.166      11.326      11.491      11.644      11.777      11.882      11.954    
  11.991      11.991      11.954      11.882      11.777      11.644      11.491      11.326      11.166      11.022    
  10.906      10.825      10.781      10.772      10.789      10.824      10.867      10.910      10.945      10.970    
  10.982      10.982      10.970      10.945      10.910      10.867      10.824      10.789      10.772      10.781    
  10.641      10.781      10.959      11.166      11.392      11.622      11.841      12.035      12.195      12.314    
  12.388      12.413      12.388      12.314      12.195      12.035      11.841      11.622      11.392      11.166    
  10.959      10.781      10.641      10.539      10.472      10.434      10.415      10.410      10.410      10.412    
  10.414      10.414      10.414      10.412      10.410      10.410      10.415      10.434      10.472      10.539    
  10.345      10.539      10.772      11.038      11.326      11.622      11.908      12.168      12.390      12.566    
  12.688      12.750      12.750      12.688      12.566      12.390      12.168      11.908      11.622      11.326    
  11.038      10.772      10.539      10.345      10.192      10.076      9.9909      9.9291      9.8849      9.8541    
  9.8344      9.8247      9.8247      9.8344      9.8541      9.8849      9.9291      9.9909      10.076      10.192    
  9.9552      10.192      10.472      10.789      11.133      11.491      11.841      12.168      12.456      12.695    
  12.874      12.985      13.023      12.985      12.874      12.695      12.456      12.168      11.841      11.491    
  11.133      10.789      10.472      10.192      9.9552      9.7604      9.6048      9.4826      9.3884      9.3177    
  9.2681      9.2383      9.2284      9.2383      9.2680      9.3177      9.3884      9.4826      9.6047      9.7604    
  9.4904      9.7604      10.076      10.434      10.824      11.234      11.644      12.035      12.390      12.695    
  12.938      13.107      13.193      13.193      13.107      12.938      12.695      12.390      12.035      11.644    
  11.234      10.824      10.434      10.076      9.7604      9.4904      9.2649      9.0805      8.9326      8.8173    
  8.7317      8.6747      8.6462      8.6461      8.6748      8.7317      8.8173      8.9326      9.0805      9.2649    
  8.9731      9.2650      9.6047      9.9908      10.415      10.867      11.328      11.777      12.195      12.566    
  12.874      13.107      13.251      13.300      13.251      13.107      12.874      12.566      12.195      11.777    
  11.328      10.867      10.415      9.9908      9.6047      9.2649      8.9732      8.7281      8.5261      8.3637    
  8.2383      8.1486      8.0946      8.0765      8.0946      8.1486      8.2382      8.3637      8.5261      8.7281    
  8.4256      8.7281      9.0805      9.4826      9.9291      10.410      10.910      11.408      11.882      12.314    
  12.688      12.985      13.193      13.300      13.300      13.193      12.985      12.688      12.314      11.882    
  11.408      10.910      10.410      9.9291      9.4826      9.0806      8.7281      8.4256      8.1713      7.9622    
  7.7957      7.6706      7.5866      7.5444      7.5444      7.5867      7.6706      7.7957      7.9621      8.1713    
  7.8679      8.1713      8.5261      8.9326      9.3884      9.8849      10.410      10.945      11.467      11.954    
  12.388      12.750      13.023      13.193      13.251      13.193      13.023      12.750      12.388      11.954    
  11.467      10.945      10.410      9.8849      9.3884      8.9326      8.5261      8.1713      7.8679      7.6138    
  7.4068      7.2453      7.1292      7.0591      7.0356      7.0590      7.1292      7.2453      7.4068      7.6139    
  7.3177      7.6138      7.9622      8.3637      8.8173      9.3177      9.8541      10.412      10.970      11.503    
  11.991      12.413      12.750      12.985      13.107      13.107      12.985      12.750      12.413      11.991    
  11.503      10.970      10.412      9.8541      9.3177      8.8173      8.3637      7.9621      7.6138      7.3177    
  7.0718      6.8747      6.7259      6.6258      6.5755      6.5755      6.6258      6.7259      6.8747      7.0718    
  6.7894      7.0718      7.4068      7.7957      8.2383      8.7317      9.2680      9.8344      10.414      10.982    
  11.515      11.991      12.388      12.688      12.874      12.938      12.874      12.688      12.388      11.991    
  11.515      10.982      10.414      9.8344      9.2681      8.7317      8.2383      7.7957      7.4068      7.0718    
  6.7893      6.5581      6.3772      6.2470      6.1682      6.1419      6.1682      6.2469      6.3772      6.5581    
  6.2943      6.5581      6.8747      7.2453      7.6706      8.1486      8.6747      9.2383      9.8247      10.414    
  10.982      11.503      11.954      12.314      12.566      12.695      12.695      12.566      12.314      11.954    
  11.503      10.982      10.414      9.8247      9.2383      8.6747      8.1486      7.6705      7.2453      6.8747    
  6.5581      6.2943      6.0825      5.9227      5.8153      5.7613      5.7613      5.8153      5.9227      6.0825    
  5.8411      6.0825      6.3772      6.7259      7.1292      7.5866      8.0946      8.6462      9.2284      9.8247    
  10.414      10.970      11.467      11.882      12.195      12.390      12.456      12.390      12.195      11.882    
  11.467      10.970      10.414      9.8247      9.2284      8.6461      8.0946      7.5866      7.1292      6.7258    
  6.3772      6.0825      5.8411      5.6525      5.5170      5.4353      5.4079      5.4353      5.5170      5.6525    
  5.4360      5.6525      5.9227      6.2470      6.6258      7.0591      7.5444      8.0765      8.6461      9.2383    
  9.8344      10.412      10.945      11.408      11.777      12.035      12.168      12.168      12.035      11.777    
  11.408      10.945      10.412      9.8344      9.2383      8.6462      8.0765      7.5444      7.0590      6.6258    
  6.2469      5.9227      5.6525      5.4360      5.2730      5.1640      5.1092      5.1093      5.1640      5.2730    
  5.0831      5.2730      5.5170      5.8153      6.1682      6.5755      7.0356      7.5444      8.0946      8.6747    
  9.2680      9.8541      10.410      10.910      11.328      11.644      11.841      11.908      11.841      11.644    
  11.328      10.910      10.410      9.8541      9.2680      8.6747      8.0946      7.5444      7.0356      6.5755    
  6.1682      5.8153      5.5170      5.2730      5.0831      4.9473      4.8656      4.8383      4.8656      4.9473    
  4.7849      4.9473      5.1640      5.4353      5.7613      6.1419      6.5755      7.0590      7.5866      8.1486    
  8.7317      9.3177      9.8849      10.410      10.867      11.234      11.491      11.622      11.622      11.490    
  11.234      10.867      10.410      9.8849      9.3177      8.7318      8.1486      7.5866      7.0590      6.5755    
  6.1419      5.7613      5.4353      5.1640      4.9473      4.7849      4.6767      4.6227      4.6227      4.6767    
  4.5423      4.6767      4.8656      5.1092      5.4079      5.7613      6.1682      6.6258      7.1292      7.6706    
  8.2383      8.8173      9.3884      9.9291      10.415      10.824      11.133      11.326      11.392      11.326    
  11.133      10.824      10.415      9.9291      9.3884      8.8173      8.2382      7.6706      7.1292      6.6258    
  6.1682      5.7613      5.4079      5.1093      4.8656      4.6767      4.5423      4.4618      4.4350      4.4618    
  4.3551      4.4618      4.6227      4.8383      5.1093      5.4353      5.8153      6.2469      6.7259      7.2453    
  7.7957      8.3637      8.9326      9.4826      9.9908      10.434      10.789      11.038      11.166      11.166    
  11.038      10.789      10.434      9.9909      9.4826      8.9326      8.3637      7.7957      7.2453      6.7259    
  6.2469      5.8153      5.4353      5.1092      4.8383      4.6227      4.4618      4.3551      4.3019      4.3019    
  4.2225      4.3019      4.4350      4.6227      4.8656      5.1640      5.5170      5.9227      6.3772      6.8747    
  7.4068      7.9622      8.5261      9.0805      9.6047      10.076      10.472      10.772      10.959      11.022    
  10.959      10.772      10.472      10.076      9.6047      9.0805      8.5261      7.9621      7.4068      6.8747    
  6.3772      5.9227      5.5170      5.1640      4.8656      4.6227      4.4350      4.3019      4.2225      4.1961    
  4.1434      4.1961      4.3019      4.4618      4.6767      4.9473      5.2730      5.6525      6.0825      6.5581    
  7.0718      7.6139      8.1713      8.7281      9.2650      9.7604      10.192      10.539      10.781      10.906    
  10.906      10.781      10.539      10.192      9.7604      9.2650      8.7281      8.1713      7.6139      7.0718    
  6.5581      6.0825      5.6525      5.2730      4.9473      4.6767      4.4618      4.3019      4.1961      4.1434    
  4.1397      4.1662      4.2461      4.3801      4.5691      4.8139      5.1147      5.4708      5.8798      6.3381    
  6.8395      7.3756      7.9350      8.5030      9.0614      9.5893      10.064      10.463      10.765      10.954    
  11.018      10.954      10.765      10.463      10.064      9.5893      9.0614      8.5029      7.9350      7.3756    
  6.8395      6.3381      5.8798      5.4707      5.1147      4.8139      4.5691      4.3801      4.2461      4.1662    
  4.1662      4.1662      4.2181      4.3223      4.4799      4.6918      4.9585      5.2796      5.6535      6.0768    
  6.5446      7.0496      7.5818      8.1287      8.6746      9.2006      9.6860      10.109      10.448      10.685    
  10.807      10.807      10.685      10.448      10.109      9.6861      9.2006      8.6745      8.1288      7.5819    
  7.0496      6.5446      6.0768      5.6534      5.2796      4.9585      4.6918      4.4799      4.3223      4.2181    
  4.2461      4.2208      4.2461      4.3223      4.4502      4.6308      4.8647      5.1519      5.4916      5.8810    
  6.3163      6.7910      7.2970      7.8232      8.3558      8.8782      9.3710      9.8134      10.185      10.465    
  10.640      10.700      10.640      10.465      10.184      9.8133      9.3710      8.8782      8.3558      7.8231    
  7.2970      6.7910      6.3162      5.8811      5.4916      5.1519      4.8647      4.6308      4.4502      4.3223    
  4.3801      4.3304      4.3304      4.3801      4.4799      4.6308      4.8333      5.0879      5.3941      5.7502    
  6.1529      6.5975      7.0769      7.5816      8.0999      8.6167      9.1140      9.5724      9.9714      10.291    
  10.515      10.630      10.630      10.515      10.291      9.9715      9.5724      9.1140      8.6166      8.0999    
  7.5816      7.0768      6.5975      6.1529      5.7502      5.3941      5.0879      4.8333      4.6308      4.4799    
  4.5691      4.4958      4.4714      4.4958      4.5691      4.6918      4.8646      5.0880      5.3616      5.6845    
  6.0546      6.4682      6.9197      7.4013      7.9028      8.4108      8.9093      9.3799      9.8023      10.157    
  10.424      10.591      10.648      10.591      10.424      10.156      9.8023      9.3799      8.9093      8.4108    
  7.9028      7.4013      6.9197      6.4682      6.0546      5.6845      5.3616      5.0879      4.8646      4.6918    
  4.8139      4.7178      4.6698      4.6698      4.7177      4.8139      4.9585      5.1519      5.3941      5.6845    
  6.0218      6.4034      6.8251      7.2809      7.7623      8.2576      8.7525      9.2300      9.6702      10.053    
  10.360      10.575      10.685      10.685      10.575      10.360      10.053      9.6703      9.2300      8.7526    
  8.2576      7.7623      7.2809      6.8251      6.4033      6.0218      5.6845      5.3941      5.1519      4.9585    
  5.1147      4.9969      4.9263      4.9027      4.9263      4.9969      5.1147      5.2796      5.4915      5.7502    
  6.0546      6.4033      6.7935      7.2206      7.6778      8.1554      8.6411      9.1189      9.5702      9.9754    
  10.315      10.573      10.733      10.787      10.733      10.573      10.315      9.9754      9.5702      9.1189    
  8.6411      8.1554      7.6778      7.2206      6.7935      6.4034      6.0546      5.7502      5.4915      5.2796    
  5.4707      5.3333      5.2413      5.1953      5.1953      5.2414      5.3332      5.4707      5.6534      5.8811    
  6.1529      6.4682      6.8251      7.2206      7.6496      8.1043      8.5741      9.0449      9.4993      9.9188    
  10.284      10.577      10.782      10.887      10.887      10.782      10.577      10.284      9.9188      9.4994    
  9.0449      8.5741      8.1042      7.6496      7.2205      6.8251      6.4682      6.1529      5.8810      5.6535    
  5.8798      5.7257      5.6149      5.5482      5.5259      5.5482      5.6149      5.7257      5.8798      6.0769    
  6.3162      6.5975      6.9197      7.2809      7.6778      8.1042      8.5518      9.0078      9.4568      9.8815    
  10.263      10.583      10.825      10.975      11.026      10.975      10.825      10.583      10.263      9.8815    
  9.4568      9.0078      8.5518      8.1042      7.6778      7.2809      6.9197      6.5975      6.3162      6.0768    
  6.3381      6.1716      6.0458      5.9613      5.9189      5.9189      5.9613      6.0458      6.1716      6.3381    
  6.5446      6.7910      7.0768      7.4013      7.7623      8.1555      8.5741      9.0078      9.4426      9.8628    
  10.251      10.588      10.857      11.045      11.141      11.141      11.045      10.857      10.588      10.251    
  9.8628      9.4426      9.0078      8.5741      8.1554      7.7623      7.4013      7.0769      6.7910      6.5446    
  6.8395      6.6667      6.5312      6.4337      6.3747      6.3550      6.3747      6.4337      6.5312      6.6667    
  6.8395      7.0495      7.2970      7.5816      7.9028      8.2576      8.6411      9.0450      9.4568      9.8628    
  10.247      10.590      10.877      11.093      11.227      11.272      11.227      11.093      10.877      10.590    
  10.247      9.8628      9.4568      9.0450      8.6411      8.2576      7.9028      7.5816      7.2970      7.0496    
  7.3757      7.2039      7.0660      6.9618      6.8920      6.8568      6.8568      6.8919      6.9619      7.0659    
  7.2039      7.3756      7.5819      7.8231      8.0999      8.4109      8.7526      9.1189      9.4993      9.8814    
  10.251      10.590      10.884      11.117      11.279      11.362      11.362      11.279      11.117      10.884    
  10.590      10.251      9.8815      9.4993      9.1189      8.7525      8.4109      8.0999      7.8232      7.5818    
  7.9350      7.7732      7.6418      7.5397      7.4665      7.4224      7.4076      7.4224      7.4665      7.5397    
  7.6418      7.7732      7.9350      8.1288      8.3558      8.6166      8.9093      9.2300      9.5702      9.9188    
  10.263      10.588      10.877      11.117      11.296      11.408      11.445      11.408      11.296      11.117    
  10.877      10.588      10.263      9.9188      9.5702      9.2300      8.9093      8.6166      8.3558      8.1288    
  8.5029      8.3612      8.2465      8.1567      8.0900      8.0458      8.0236      8.0236      8.0458      8.0900    
  8.1566      8.2465      8.3611      8.5030      8.6745      8.8782      9.1140      9.3798      9.6702      9.9754    
  10.284      10.583      10.857      11.093      11.279      11.408      11.474      11.474      11.408      11.279    
  11.093      10.857      10.583      10.284      9.9754      9.6703      9.3798      9.1140      8.8782      8.6746    
  9.0614      8.9504      8.8640      8.7983      8.7498      8.7161      8.6963      8.6897      8.6963      8.7161    
  8.7497      8.7983      8.8641      8.9504      9.0613      9.2006      9.3710      9.5724      9.8023      10.053    
  10.315      10.577      10.825      11.045      11.227      11.362      11.445      11.474      11.445      11.362    
  11.227      11.045      10.825      10.577      10.315      10.053      9.8023      9.5724      9.3710      9.2006    
  9.5893      9.5203      9.4742      9.4447      9.4266      9.4159      9.4100      9.4073      9.4074      9.4100    
  9.4160      9.4266      9.4447      9.4741      9.5204      9.5893      9.6861      9.8134      9.9714      10.156    
  10.360      10.573      10.782      10.975      11.141      11.272      11.362      11.408      11.408      11.362    
  11.272      11.141      10.975      10.782      10.573      10.360      10.157      9.9714      9.8134      9.6860    
  10.064      10.048      10.053      10.072      10.097      10.123      10.144      10.158      10.163      10.158    
  10.144      10.123      10.097      10.072      10.053      10.048      10.064      10.109      10.185      10.291    
  10.424      10.575      10.733      10.887      11.026      11.141      11.227      11.279      11.296      11.279    
  11.227      11.141      11.026      10.887      10.733      10.575      10.424      10.291      10.184      10.109    
  10.463      10.508      10.574      10.653      10.735      10.810      10.871      10.914      10.936      10.936    
  10.914      10.871      10.810      10.735      10.653      10.574      10.508      10.463      10.448      10.465    
  10.515      10.591      10.685      10.787      10.887      10.975      11.045      11.093      11.117      11.117    
  11.093      11.045      10.975      10.887      10.787      10.685      10.591      10.515      10.465      10.448    
  10.765      10.878      11.013      11.161      11.309      11.445      11.559      11.644      11.697      11.714    
  11.697      11.644      11.559      11.445      11.309      11.161      11.013      10.878      10.765      10.685    
  10.640      10.630      10.648      10.685      10.733      10.782      10.825      10.857      10.877      10.884    
  10.877      10.857      10.825      10.782      10.733      10.685      10.648      10.630      10.640      10.685    
  10.954      11.136      11.345      11.569      11.792      11.998      12.176      12.317      12.416      12.466    
  12.466      12.416      12.317      12.176      11.998      11.792      11.569      11.345      11.136      10.954    
  10.807      10.700      10.630      10.591      10.575      10.573      10.577      10.583      10.588      10.590    
  10.590      10.588      10.583      10.577      10.573      10.575      10.591      10.630      10.700      10.807    
  11.018      11.270      11.553      11.855      12.156      12.441      12.694      12.905      13.065      13.164    
  13.198      13.164      13.065      12.905      12.694      12.441      12.156      11.855      11.553      11.270    
  11.018      10.807      10.640      10.515      10.424      10.360      10.315      10.284      10.263      10.251    
  10.247      10.251      10.263      10.284      10.315      10.360      10.424      10.515      10.640      10.807    
  10.954      11.270      11.623      12.002      12.384      12.750      13.086      13.378      13.612      13.776    