unknown system                          
   2.80000000000000     
     0.987720   -0.000000   -0.000000
    -0.493860    0.855391    0.000000
     0.000000   -0.000000    1.709495
   Pt
     2
Direct
  0.333333  0.666667  0.250000
  0.666667  0.333333  0.750000
 
   40   40   72
 0.39771961827E+01 0.40006121701E+01 0.40710705111E+01 0.41891491551E+01 0.43555131076E+01
 0.45705380036E+01 0.48338797714E+01 0.51441106376E+01 0.54982915833E+01 0.58919723187E+01
 0.63186835026E+01 0.67702096441E+01 0.72361567127E+01 0.77039856502E+01 0.81589306849E+01
 0.85849460674E+01 0.89649233392E+01 0.92818912424E+01 0.95205757221E+01 0.96689652973E+01
 0.97193217563E+01 0.96689653240E+01 0.95205757820E+01 0.92818913471E+01 0.89649235027E+01
 0.85849463023E+01 0.81589309982E+01 0.77039860400E+01 0.72361571668E+01 0.67702101405E+01
 0.63186840135E+01 0.58919728153E+01 0.54982920408E+01 0.51441110386E+01 0.48338801070E+01
 0.45705382724E+01 0.43555133131E+01 0.41891493028E+01 0.40710706063E+01 0.40006122166E+01
 0.40006058919E+01 0.40006079271E+01 0.40475453758E+01 0.41418251153E+01 0.42840528627E+01
 0.44747809590E+01 0.47140600618E+01 0.50010388274E+01 0.53336742172E+01 0.57082562871E+01
 0.61195515851E+01 0.65601791470E+01 0.70209290159E+01 0.74902429531E+01 0.79545365575E+01
 0.83983079989E+01 0.88044195641E+01 0.91556399802E+01 0.94357926533E+01 0.96310771732E+01
 0.97313649480E+01 0.97313754809E+01 0.96310646074E+01 0.94357830749E+01 0.91556388986E+01
 0.88044282533E+01 0.83983163424E+01 0.79545377989E+01 0.74902253478E+01 0.70209453502E+01
 0.65601906522E+01 0.61195154304E+01 0.57082882130E+01 0.53336549087E+01 0.50010506434E+01
 0.47140607360E+01 0.44747787281E+01 0.42840572794E+01 0.41418179494E+01 0.40475466274E+01
 0.40710718471E+01 0.40475505100E+01 0.40710695592E+01 0.41418156100E+01 0.42602402514E+01
 0.44268657363E+01 0.46419466684E+01 0.49051601752E+01 0.52150992144E+01 0.55691960296E+01
 0.59630638761E+01 0.63907162968E+01 0.68440105175E+01 0.73124453639E+01 0.77836092903E+01
 0.82424470228E+01 0.86722491884E+01 0.90557128195E+01 0.93757017434E+01 0.96167801696E+01
 0.97666904852E+01 0.98175551151E+01 0.97666900614E+01 0.96168015953E+01 0.93757113000E+01
 0.90557106419E+01 0.86722361786E+01 0.82424425274E+01 0.77836345537E+01 0.73124595561E+01
 0.68439720490E+01 0.63907541931E+01 0.59630572148E+01 0.55691860315E+01 0.52151048517E+01
 0.49051489624E+01 0.46419511288E+01 0.44268659703E+01 0.42602460699E+01 0.41418230370E+01
 0.41891539351E+01 0.41418142565E+01 0.41418215237E+01 0.41891552216E+01 0.42840554655E+01
 0.44268709062E+01 0.46178893074E+01 0.48570105089E+01 0.51435216625E+01 0.54755813805E+01
 0.58501211993E+01 0.62622821160E+01 0.67051641016E+01 0.71697344700E+01 0.76445336106E+01
 0.81150952098E+01 0.85655943227E+01 0.89785818344E+01 0.93361164827E+01 0.96212768318E+01
 0.98199562258E+01 0.99219596570E+01 0.99219633976E+01 0.98199325635E+01 0.96212681540E+01
 0.93360958350E+01 0.89786064386E+01 0.85656023612E+01 0.81151010349E+01 0.76444921925E+01
 0.71697732154E+01 0.67051402709E+01 0.62622910071E+01 0.58501025182E+01 0.54756052188E+01
 0.51435120699E+01 0.48570241615E+01 0.46178848810E+01 0.44268718370E+01 0.42840463224E+01
 0.43555192500E+01 0.42840534021E+01 0.42602450434E+01 0.42840449397E+01 0.43555113938E+01
 0.44747736260E+01 0.46419468573E+01 0.48570263527E+01 0.51195451721E+01 0.54285258850E+01
 0.57817258091E+01 0.61757401460E+01 0.66049798871E+01 0.70619048696E+01 0.75360476959E+01
 0.80142463778E+01 0.84814501963E+01 0.89200270371E+01 0.93114209235E+01 0.96378192914E+01
 0.98835973719E+01 0.10036338034E+02 0.10088176084E+02 0.10036357526E+02 0.98836060181E+01
 0.96378434772E+01 0.93114219849E+01 0.89200096467E+01 0.84814365106E+01 0.80142720898E+01
 0.75360416732E+01 0.70619193022E+01 0.66049713646E+01 0.61757462464E+01 0.57817355933E+01
 0.54285023843E+01 0.51195565911E+01 0.48570135963E+01 0.46419558249E+01 0.44747791119E+01
 0.45705416351E+01 0.44747714752E+01 0.44268704917E+01 0.44268722610E+01 0.44747829697E+01
 0.45705451236E+01 0.47140619158E+01 0.49051463149E+01 0.51435218518E+01 0.54284928420E+01
 0.57588336241E+01 0.61321427090E+01 0.65442914189E+01 0.69893218874E+01 0.74580626255E+01
 0.79387795089E+01 0.84172668985E+01 0.88760094580E+01 0.92964563978E+01 0.96602271134E+01
 0.99503356684E+01 0.10152424421E+02 0.10256174556E+02 0.10256152870E+02 0.10152422854E+02
 0.99503130748E+01 0.96602164247E+01 0.92964504177E+01 0.88760336902E+01 0.84172465395E+01
 0.79387877895E+01 0.74580295609E+01 0.69893314955E+01 0.65442948651E+01 0.61321434324E+01
 0.57588306594E+01 0.54285116879E+01 0.51435133394E+01 0.49051535706E+01 0.47140510402E+01
 0.48338881060E+01 0.47140586465E+01 0.46419536427E+01 0.46178768217E+01 0.46419490163E+01
 0.47140505905E+01 0.48338800282E+01 0.50010545703E+01 0.52150995563E+01 0.54756121064E+01
 0.57817292841E+01 0.61321349031E+01 0.65239739213E+01 0.69527705019E+01 0.74108738451E+01
 0.78882424305E+01 0.83716452432E+01 0.88441000049E+01 0.92874773793E+01 0.96831831724E+01
 0.10013216631E+02 0.10261497970E+02 0.10415677082E+02 0.10467949219E+02 0.10415681745E+02
 0.10261514099E+02 0.10013232386E+02 0.96831960642E+01 0.92874648452E+01 0.88441001300E+01
 0.83716332956E+01 0.78882626918E+01 0.74108875756E+01 0.69527677110E+01 0.65239704283E+01
 0.61321320584E+01 0.57817376554E+01 0.54755925864E+01 0.52151116250E+01 0.50010489652E+01
 0.51440948044E+01 0.50010490487E+01 0.49051454427E+01 0.48570315720E+01 0.48570162050E+01
 0.49051660073E+01 0.50010463984E+01 0.51441087326E+01 0.53336631554E+01 0.55691756995E+01
 0.58501111384E+01 0.61757516901E+01 0.65442855680E+01 0.69527693883E+01 0.73950882729E+01
 0.78628769450E+01 0.83441739633E+01 0.88230445888E+01 0.92821035820E+01 0.97028858900E+01
 0.10066548700E+02 0.10355863073E+02 0.10556827907E+02 0.10659792824E+02 0.10659791762E+02
 0.10556832776E+02 0.10355832650E+02 0.10066545721E+02 0.97028728980E+01 0.92821076795E+01
 0.88230444535E+01 0.83441758070E+01 0.78628541371E+01 0.73950907295E+01 0.69527594898E+01
 0.65443144620E+01 0.61757359451E+01 0.58501233717E+01 0.55691710446E+01 0.53336648181E+01
 0.54983007389E+01 0.53336722128E+01 0.52151069754E+01 0.51435085813E+01 0.51195481240E+01
 0.51435099277E+01 0.52151003526E+01 0.53336707474E+01 0.54982855980E+01 0.57082959687E+01
 0.59630551915E+01 0.62622813129E+01 0.66049824417E+01 0.69893291605E+01 0.74108749274E+01
 0.78628524833E+01 0.83349978627E+01 0.88125258303E+01 0.92791630232E+01 0.97168133767E+01
 0.10106385312E+02 0.10429752438E+02 0.10671989610E+02 0.10821872322E+02 0.10872600211E+02
 0.10821863009E+02 0.10671999812E+02 0.10429775835E+02 0.10106384757E+02 0.97168300065E+01
 0.92791621622E+01 0.88125330510E+01 0.83350016113E+01 0.78628616667E+01 0.74108882748E+01
 0.69893194410E+01 0.66049741258E+01 0.62622776702E+01 0.59630646722E+01 0.57082858461E+01
 0.58919396477E+01 0.57082835462E+01 0.55691644339E+01 0.54756194659E+01 0.54284988781E+01
 0.54285295547E+01 0.54755870734E+01 0.55691927473E+01 0.57082715552E+01 0.58919657472E+01
 0.61195178145E+01 0.63907551955E+01 0.67051330124E+01 0.70619188649E+01 0.74580429844E+01
 0.78882750009E+01 0.83441627750E+01 0.88125351886E+01 0.92781899036E+01 0.97240061589E+01
 0.10130759808E+02 0.10480176183E+02 0.10756441323E+02 0.10947525472E+02 0.11045153865E+02
 0.11045180127E+02 0.10947504209E+02 0.10756451212E+02 0.10480139967E+02 0.10130782401E+02
 0.97239683227E+01 0.92782097701E+01 0.88125085751E+01 0.83441927405E+01 0.78882375191E+01
 0.74580661076E+01 0.70618920755E+01 0.67051780708E+01 0.63907222546E+01 0.61195422813E+01
 0.63186925635E+01 0.61195498055E+01 0.59630715417E+01 0.58501083317E+01 0.57817286740E+01
 0.57588219207E+01 0.57817299822E+01 0.58501189556E+01 0.59630551379E+01 0.61195424978E+01
 0.63186767829E+01 0.65601902119E+01 0.68439866308E+01 0.71697693462E+01 0.75360321984E+01
 0.79387760571E+01 0.83716352583E+01 0.88230519033E+01 0.92791567553E+01 0.97239670408E+01
 0.10138939140E+02 0.10505540433E+02 0.10807751718E+02 0.11032914650E+02 0.11171823246E+02
 0.11218763130E+02 0.11171826072E+02 0.11032913881E+02 0.10807758282E+02 0.10505552273E+02
 0.10138947494E+02 0.97239929567E+01 0.92791620140E+01 0.88230521360E+01 0.83716338219E+01
 0.79387758768E+01 0.75360442863E+01 0.71697600444E+01 0.68439793488E+01 0.65601884353E+01
 0.67702143196E+01 0.65601690853E+01 0.63907220735E+01 0.62622828776E+01 0.61757505248E+01
 0.61321421285E+01 0.61321472651E+01 0.61757314362E+01 0.62622943126E+01 0.63907179413E+01
 0.65602029737E+01 0.67702038103E+01 0.70209203682E+01 0.73124581396E+01 0.76445090460E+01
 0.80142815474E+01 0.84172473239E+01 0.88441045557E+01 0.92820992555E+01 0.97168499648E+01
 0.10130772566E+02 0.10505568603E+02 0.10824964268E+02 0.11076038169E+02 0.11249082986E+02
 0.11337281951E+02 0.11337287971E+02 0.11249062256E+02 0.11076054284E+02 0.10824947517E+02
 0.10505564986E+02 0.10130745054E+02 0.97168428902E+01 0.92820872844E+01 0.88441123041E+01
 0.84172457231E+01 0.80142822018E+01 0.76444926509E+01 0.73124649644E+01 0.70209348463E+01
 0.72361610175E+01 0.70209319025E+01 0.68440134763E+01 0.67051559056E+01 0.66049780477E+01
 0.65442844232E+01 0.65239699585E+01 0.65442981107E+01 0.66049777409E+01 0.67051624590E+01
 0.68439820228E+01 0.70209123812E+01 0.72361899760E+01 0.74902349210E+01 0.77836102266E+01
 0.81150963521E+01 0.84814374083E+01 0.88760320734E+01 0.92874611176E+01 0.97028691721E+01
 0.10106370706E+02 0.10480145266E+02 0.10807745129E+02 0.11076057326E+02 0.11275004439E+02
 0.11397320671E+02 0.11438584884E+02 0.11397329129E+02 0.11275008072E+02 0.11076046260E+02
 0.10807753583E+02 0.10480169278E+02 0.10106379909E+02 0.97028852879E+01 0.92874606970E+01
 0.88760264703E+01 0.84814344244E+01 0.81150925583E+01 0.77836371636E+01 0.74902278153E+01
 0.77039750097E+01 0.74902480154E+01 0.73124358908E+01 0.71697503806E+01 0.70618999901E+01
 0.69893364662E+01 0.69527676494E+01 0.69527643372E+01 0.69893269798E+01 0.70618968634E+01
 0.71697669870E+01 0.73124734224E+01 0.74902277856E+01 0.77039491239E+01 0.79545697752E+01
 0.82424468519E+01 0.85655944926E+01 0.89200175127E+01 0.92964511456E+01 0.96832157363E+01
 0.10066546869E+02 0.10429796044E+02 0.10756447019E+02 0.11032910343E+02 0.11249074428E+02
 0.11397331624E+02 0.11472698308E+02 0.11472698970E+02 0.11397321956E+02 0.11249077465E+02
 0.11032911403E+02 0.10756429057E+02 0.10429773497E+02 0.10066540517E+02 0.96831930469E+01
 0.92964648090E+01 0.89200045573E+01 0.85656180238E+01 0.82424327444E+01 0.79545424944E+01
 0.81589394368E+01 0.79545347331E+01 0.77836167607E+01 0.76445207544E+01 0.75360503749E+01
 0.74580509602E+01 0.74108744154E+01 0.73950961785E+01 0.74108747930E+01 0.74580678464E+01
 0.75360322407E+01 0.76444965516E+01 0.77836149090E+01 0.79545724066E+01 0.81589265155E+01
 0.83982829496E+01 0.86722671717E+01 0.89785822380E+01 0.93114279175E+01 0.96601925929E+01
 0.10013226522E+02 0.10355824470E+02 0.10671988669E+02 0.10947523037E+02 0.11171818949E+02
 0.11337272327E+02 0.11438588457E+02 0.11472700886E+02 0.11438589472E+02 0.11337275358E+02
 0.11171825985E+02 0.10947528943E+02 0.10671999553E+02 0.10355840432E+02 0.10013232825E+02
 0.96602046111E+01 0.93114244866E+01 0.89785933666E+01 0.86722433916E+01 0.83983142246E+01
 0.85849558781E+01 0.83982923148E+01 0.82424580429E+01 0.81150904314E+01 0.80142620268E+01
 0.79387734022E+01 0.78882601087E+01 0.78628512224E+01 0.78628708444E+01 0.78882323475E+01
 0.79387943033E+01 0.80142762795E+01 0.81151099092E+01 0.82424263488E+01 0.83983010347E+01
 0.85849830057E+01 0.88044030225E+01 0.90557128825E+01 0.93361027268E+01 0.96378513179E+01
 0.99503303792E+01 0.10261524025E+02 0.10556841884E+02 0.10821855599E+02 0.11045176097E+02
 0.11218766783E+02 0.11337290353E+02 0.11397311018E+02 0.11397334091E+02 0.11337276538E+02
 0.11218781256E+02 0.11045137383E+02 0.10821881289E+02 0.10556806968E+02 0.10261531686E+02
 0.99503068617E+01 0.96378589859E+01 0.93360908803E+01 0.90557214632E+01 0.88044123527E+01
 0.89649353631E+01 0.88044141841E+01 0.86722599498E+01 0.85655779501E+01 0.84814562091E+01
 0.84172517389E+01 0.83716491589E+01 0.83441783926E+01 0.83350010842E+01 0.83441841544E+01
 0.83716386673E+01 0.84172314094E+01 0.84814455535E+01 0.85655937930E+01 0.86722707047E+01
 0.88043816549E+01 0.89649472051E+01 0.91556360887E+01 0.93757070125E+01 0.96212521894E+01
 0.98835939896E+01 0.10152406094E+02 0.10415669540E+02 0.10659803128E+02 0.10872589649E+02
 0.11045154657E+02 0.11171822370E+02 0.11249073602E+02 0.11275012448E+02 0.11249066943E+02
 0.11171826556E+02 0.11045175176E+02 0.10872603373E+02 0.10659796131E+02 0.10415685607E+02
 0.10152407635E+02 0.98836119416E+01 0.96212516574E+01 0.93757219196E+01 0.91556333670E+01
 0.92818767670E+01 0.91556483394E+01 0.90556995660E+01 0.89786011207E+01 0.89200184439E+01
 0.88760274380E+01 0.88440934517E+01 0.88230429724E+01 0.88125199866E+01 0.88125166492E+01
 0.88230459346E+01 0.88441234118E+01 0.88760214680E+01 0.89200212117E+01 0.89785762467E+01
 0.90557371731E+01 0.91556334446E+01 0.92818761987E+01 0.94357998474E+01 0.96167989969E+01
 0.98199560473E+01 0.10036361650E+02 0.10256175119E+02 0.10467935733E+02 0.10659800405E+02
 0.10821879755E+02 0.10947516896E+02 0.11032913905E+02 0.11076046604E+02 0.11076056928E+02
 0.11032908609E+02 0.10947506879E+02 0.10821866433E+02 0.10659791170E+02 0.10467942639E+02
 0.10256170824E+02 0.10036348887E+02 0.98199517759E+01 0.96167882495E+01 0.94357913332E+01
 0.95205887742E+01 0.94357860495E+01 0.93757135478E+01 0.93360989062E+01 0.93114280076E+01
 0.92964400563E+01 0.92874823691E+01 0.92821068288E+01 0.92791673345E+01 0.92782101215E+01
 0.92791612593E+01 0.92820821772E+01 0.92874703742E+01 0.92964493243E+01 0.93114326233E+01
 0.93360803203E+01 0.93757082808E+01 0.94358015201E+01 0.95205684638E+01 0.96310574157E+01
 0.97666843293E+01 0.99219465822E+01 0.10088165857E+02 0.10256176714E+02 0.10415670672E+02
 0.10556819311E+02 0.10671993207E+02 0.10756445051E+02 0.10807754270E+02 0.10824947108E+02
 0.10807756170E+02 0.10756461510E+02 0.10671993904E+02 0.10556831142E+02 0.10415682060E+02
 0.10256158196E+02 0.10088183139E+02 0.99219457796E+01 0.97667018128E+01 0.96310579436E+01
 0.96689880310E+01 0.96310481687E+01 0.96168041379E+01 0.96212587761E+01 0.96378479527E+01
 0.96602077871E+01 0.96832138912E+01 0.97028469603E+01 0.97168447931E+01 0.97239503046E+01
 0.97239983338E+01 0.97168315048E+01 0.97028958351E+01 0.96831821435E+01 0.96602239097E+01
 0.96378383737E+01 0.96212869354E+01 0.96167618548E+01 0.96310931948E+01 0.96689658661E+01
 0.97313908533E+01 0.98175577852E+01 0.99219822777E+01 0.10036324363E+02 0.10152440666E+02
 0.10261510903E+02 0.10355855619E+02 0.10429762307E+02 0.10480171817E+02 0.10505550067E+02
 0.10505571682E+02 0.10480120308E+02 0.10429783849E+02 0.10355824142E+02 0.10261528680E+02
 0.10152405077E+02 0.10036366674E+02 0.99219415794E+01 0.98175790593E+01 0.97313464492E+01
 0.97193360690E+01 0.97313569615E+01 0.97667035600E+01 0.98199372848E+01 0.98836057537E+01
 0.99503180023E+01 0.10013222959E+02 0.10066550644E+02 0.10106390957E+02 0.10130778703E+02
 0.10138944954E+02 0.10130754140E+02 0.10106381257E+02 0.10066543707E+02 0.10013232551E+02
 0.99503066780E+01 0.98835966464E+01 0.98199565105E+01 0.97666858055E+01 0.97313539201E+01
 0.97193201950E+01 0.97313538336E+01 0.97666856499E+01 0.98199563147E+01 0.98835964420E+01
 0.99503064907E+01 0.10013232396E+02 0.10066543587E+02 0.10106381168E+02 0.10130754074E+02
 0.10138944903E+02 0.10130778663E+02 0.10106390927E+02 0.10066550622E+02 0.10013222945E+02
 0.99503179930E+01 0.98836057478E+01 0.98199372807E+01 0.97667035571E+01 0.97313569600E+01
 0.96689880043E+01 0.97313464265E+01 0.98175790435E+01 0.99219415723E+01 0.10036366677E+02
 0.10152405090E+02 0.10261528706E+02 0.10355824180E+02 0.10429783899E+02 0.10480120368E+02
 0.10505571751E+02 0.10505550146E+02 0.10480171909E+02 0.10429762419E+02 0.10355855760E+02
 0.10261511077E+02 0.10152440869E+02 0.10036324580E+02 0.99219824806E+01 0.98175579435E+01
 0.97313909398E+01 0.96689658661E+01 0.96310931112E+01 0.96167617070E+01 0.96212867527E+01
 0.96378381867E+01 0.96602237424E+01 0.96831820091E+01 0.97028957363E+01 0.97168314370E+01
 0.97239982894E+01 0.97239502763E+01 0.97168447754E+01 0.97028469489E+01 0.96832138824E+01
 0.96602077775E+01 0.96378479393E+01 0.96212587572E+01 0.96168041137E+01 0.96310481415E+01
 0.95205887143E+01 0.96310578914E+01 0.97667017746E+01 0.99219457595E+01 0.10088183139E+02
 0.10256158215E+02 0.10415682098E+02 0.10556831198E+02 0.10671993975E+02 0.10756461594E+02
 0.10807756262E+02 0.10824947207E+02 0.10807754375E+02 0.10756445165E+02 0.10671993339E+02
 0.10556819468E+02 0.10415670859E+02 0.10256176926E+02 0.10088166078E+02 0.99219467851E+01
 0.97666844849E+01 0.96310574993E+01 0.95205684638E+01 0.94358014418E+01 0.93757081443E+01
 0.93360801542E+01 0.93114324559E+01 0.92964491773E+01 0.92874702590E+01 0.92820820958E+01
 0.92791612070E+01 0.92782100907E+01 0.92791673172E+01 0.92821068175E+01 0.92874823573E+01
 0.92964400382E+01 0.93114279788E+01 0.93360988647E+01 0.93757134948E+01 0.94357859895E+01
 0.92818766623E+01 0.94357912399E+01 0.96167881786E+01 0.98199517345E+01 0.10036348877E+02
 0.10256170846E+02 0.10467942688E+02 0.10659791242E+02 0.10821866525E+02 0.10947506985E+02
 0.11032908725E+02 0.11076057050E+02 0.11076046727E+02 0.11032914030E+02 0.10947517027E+02
 0.10821879899E+02 0.10659800570E+02 0.10467935925E+02 0.10256175331E+02 0.10036361867E+02
 0.98199562431E+01 0.96167991447E+01 0.94357999257E+01 0.92818761987E+01 0.91556333729E+01
 0.90557370496E+01 0.89785760976E+01 0.89200210625E+01 0.88760213375E+01 0.88441233098E+01
 0.88230458620E+01 0.88125166011E+01 0.88125199548E+01 0.88230429477E+01 0.88440934249E+01
 0.88760274008E+01 0.89200183899E+01 0.89786010468E+01 0.90556994737E+01 0.91556482356E+01
 0.89649351996E+01 0.91556332170E+01 0.93757217996E+01 0.96212515795E+01 0.98836119109E+01
 0.10152407650E+02 0.10415685661E+02 0.10659796216E+02 0.10872603481E+02 0.11045175301E+02
 0.11171826692E+02 0.11249067085E+02 0.11275012591E+02 0.11249073742E+02 0.11171822508E+02
 0.11045154796E+02 0.10872589797E+02 0.10659803294E+02 0.10415669727E+02 0.10152406297E+02
 0.98835941940E+01 0.96212523721E+01 0.93757071490E+01 0.91556361603E+01 0.89649472051E+01
 0.88043815903E+01 0.86722705935E+01 0.85655936585E+01 0.84814454179E+01 0.84172312885E+01
 0.83716385687E+01 0.83441840783E+01 0.83350010249E+01 0.83441783411E+01 0.83716491046E+01
 0.84172516714E+01 0.84814561197E+01 0.85655778340E+01 0.86722598080E+01 0.88044140245E+01
 0.85849556432E+01 0.88044121296E+01 0.90557212748E+01 0.93360907453E+01 0.96378589144E+01
 0.99503068537E+01 0.10261531733E+02 0.10556807058E+02 0.10821881409E+02 0.11045137523E+02
 0.11218781407E+02 0.11337276696E+02 0.11397334251E+02 0.11397311174E+02 0.11337290503E+02
 0.11218766925E+02 0.11045176236E+02 0.10821855743E+02 0.10556842041E+02 0.10261524199E+02
 0.99503305665E+01 0.96378515049E+01 0.93361028930E+01 0.90557130060E+01 0.88044030871E+01
 0.85849830057E+01 0.83983009763E+01 0.82424262476E+01 0.81151097851E+01 0.80142761507E+01
 0.79387941829E+01 0.78882322411E+01 0.78628707508E+01 0.78628511350E+01 0.78882600176E+01
 0.79387732958E+01 0.80142618946E+01 0.81150902662E+01 0.82424578441E+01 0.83982920900E+01
 0.81589391235E+01 0.83983139160E+01 0.86722431166E+01 0.89785931517E+01 0.93114243495E+01
 0.96602045571E+01 0.10013232847E+02 0.10355840514E+02 0.10671999677E+02 0.10947529093E+02
 0.11171826149E+02 0.11337275528E+02 0.11438589644E+02 0.11472701054E+02 0.11438588618E+02
 0.11337272476E+02 0.11171819086E+02 0.10947523168E+02 0.10671988800E+02 0.10355824610E+02
 0.10013226677E+02 0.96601927602E+01 0.93114280849E+01 0.89785823871E+01 0.86722672829E+01
 0.83982830080E+01 0.81589265155E+01 0.79545723530E+01 0.77836148145E+01 0.76444964323E+01
 0.75360321116E+01 0.74580677175E+01 0.74108746678E+01 0.73950960544E+01 0.74108742847E+01
 0.74580508119E+01 0.75360501975E+01 0.76445205387E+01 0.77836165033E+01 0.79545344397E+01
 0.77039746198E+01 0.79545420964E+01 0.82424323711E+01 0.85656177094E+01 0.89200043289E+01
 0.92964646807E+01 0.96831930170E+01 0.10066540570E+02 0.10429773611E+02 0.10756429209E+02
 0.11032911574E+02 0.11249077644E+02 0.11397322135E+02 0.11472699145E+02 0.11472698476E+02
 0.11397331780E+02 0.11249074568E+02 0.11032910468E+02 0.10756447134E+02 0.10429796156E+02
 0.10066546989E+02 0.96832158707E+01 0.92964512926E+01 0.89200176619E+01 0.85655946270E+01
 0.82424469531E+01 0.79545698289E+01 0.77039491239E+01 0.74902277349E+01 0.73124733309E+01
 0.71697668676E+01 0.70618967276E+01 0.69893268348E+01 0.69527641845E+01 0.69527674846E+01
 0.69893362805E+01 0.70618997722E+01 0.71697501197E+01 0.73124355808E+01 0.74902476586E+01
 0.72361605635E+01 0.74902273355E+01 0.77836366918E+01 0.81150921339E+01 0.84814340841E+01
 0.88760262394E+01 0.92874605837E+01 0.97028852829E+01 0.10106379990E+02 0.10480169416E+02
 0.10807753753E+02 0.11076046443E+02 0.11275008255E+02 0.11397329309E+02 0.11438585056E+02
 0.11397320831E+02 0.11275004582E+02 0.11076057450E+02 0.10807745233E+02 0.10480145358E+02
 0.10106370795E+02 0.97028692710E+01 0.92874612327E+01 0.88760322038E+01 0.84814375439E+01
 0.81150964762E+01 0.77836103212E+01 0.74902349717E+01 0.72361899760E+01 0.70209123319E+01
 0.68439819316E+01 0.67051623358E+01 0.66049775942E+01 0.65442979450E+01 0.65239697731E+01
 0.65442842120E+01 0.66049778009E+01 0.67051556121E+01 0.68440131274E+01 0.70209314964E+01
 0.67702138232E+01 0.70209343043E+01 0.73124644074E+01 0.76444921198E+01 0.80142817406E+01
 0.84172453685E+01 0.88441120774E+01 0.92820871870E+01 0.97168429053E+01 0.10130745153E+02
 0.10505565136E+02 0.10824947693E+02 0.11076054466E+02 0.11249062434E+02 0.11337288142E+02
 0.11337282109E+02 0.11249083128E+02 0.11076038291E+02 0.10824964366E+02 0.10505568681E+02
 0.10130772632E+02 0.97168500327E+01 0.92820993369E+01 0.88441046577E+01 0.84172474449E+01
 0.80142816762E+01 0.76445091653E+01 0.73124582310E+01 0.70209204175E+01 0.67702038103E+01
 0.65602029247E+01 0.63907178487E+01 0.62622941837E+01 0.61757312769E+01 0.61321470771E+01
 0.61321419089E+01 0.61757502660E+01 0.62622825692E+01 0.63907217051E+01 0.65601686511E+01
 0.63186920525E+01 0.65601878599E+01 0.68439787329E+01 0.71697594259E+01 0.75360437116E+01
 0.79387753916E+01 0.83716334611E+01 0.88230519154E+01 0.92791619284E+01 0.97239929829E+01
 0.10138947599E+02 0.10505552424E+02 0.10807758452E+02 0.11032914052E+02 0.11171826236E+02
 0.11218763282E+02 0.11171823382E+02 0.11032914766E+02 0.10807751811E+02 0.10505540502E+02
 0.10138939191E+02 0.97239670852E+01 0.92791568076E+01 0.88230519760E+01 0.83716353568E+01
 0.79387761775E+01 0.75360323275E+01 0.71697694656E+01 0.68439867220E+01 0.65601902610E+01
 0.63186767829E+01 0.61195424485E+01 0.59630550433E+01 0.58501188209E+01 0.57817298104E+01
 0.57588217114E+01 0.57817284221E+01 0.58501080282E+01 0.59630711758E+01 0.61195493683E+01
 0.58919391511E+01 0.61195417057E+01 0.63907216150E+01 0.67051773975E+01 0.70618914120E+01
 0.74580655037E+01 0.78882370202E+01 0.83441923778E+01 0.88125083587E+01 0.92782096888E+01
 0.97239683489E+01 0.10130782500E+02 0.10480140106E+02 0.10756451364E+02 0.10947504360E+02
 0.11045180267E+02 0.11045153990E+02 0.10947525578E+02 0.10756441407E+02 0.10480176243E+02
 0.10130759848E+02 0.97240061871E+01 0.92781899344E+01 0.88125352368E+01 0.83441628512E+01
 0.78882751072E+01 0.74580431133E+01 0.70619190007E+01 0.67051331356E+01 0.63907552881E+01
 0.61195178638E+01 0.58919657472E+01 0.57082715057E+01 0.55691926511E+01 0.54755869337E+01
 0.54285293723E+01 0.54284986503E+01 0.54756191856E+01 0.55691640911E+01 0.57082831300E+01
 0.54983002814E+01 0.57082853014E+01 0.59630640459E+01 0.62622769823E+01 0.66049734119E+01
 0.69893187485E+01 0.74108876544E+01 0.78628611617E+01 0.83350012483E+01 0.88125328346E+01
 0.92791620766E+01 0.97168300215E+01 0.10106384837E+02 0.10429775950E+02 0.10671999937E+02
 0.10821863129E+02 0.10872600319E+02 0.10821872413E+02 0.10671989681E+02 0.10429752487E+02
 0.10106385342E+02 0.97168133945E+01 0.92791630405E+01 0.88125258620E+01 0.83349979220E+01
 0.78628525768E+01 0.74108750526E+01 0.69893293055E+01 0.66049825883E+01 0.62622814418E+01
 0.59630552861E+01 0.57082960182E+01 0.54982855980E+01 0.53336706979E+01 0.52151002555E+01
 0.51435097844E+01 0.51195479334E+01 0.51435083385E+01 0.52151066718E+01 0.53336718373E+01
 0.51440944035E+01 0.53336643287E+01 0.55691704640E+01 0.58501227092E+01 0.61757352252E+01
 0.65443137241E+01 0.69527587831E+01 0.73950901037E+01 0.78628536322E+01 0.83441754443E+01
 0.88230442330E+01 0.92821075821E+01 0.97028728930E+01 0.10066545774E+02 0.10355832733E+02
 0.10556832866E+02 0.10659791846E+02 0.10659792896E+02 0.10556827962E+02 0.10355863111E+02
 0.10066548722E+02 0.97028859015E+01 0.92821035933E+01 0.88230446135E+01 0.83441740149E+01
 0.78628770323E+01 0.73950883970E+01 0.69527695410E+01 0.65442857337E+01 0.61757518495E+01
 0.58501112732E+01 0.55691757957E+01 0.53336632050E+01 0.51441087326E+01 0.50010463491E+01
 0.49051659100E+01 0.48570160595E+01 0.48570313754E+01 0.49051451883E+01 0.50010487267E+01
 0.48338877703E+01 0.50010485455E+01 0.52151111131E+01 0.54755919820E+01 0.57817369713E+01
 0.61321313225E+01 0.65239696825E+01 0.69527670043E+01 0.74108869552E+01 0.78882621929E+01
 0.83716329347E+01 0.88440999033E+01 0.92874647319E+01 0.96831960343E+01 0.10013232408E+02
 0.10261514146E+02 0.10415681799E+02 0.10467949268E+02 0.10415677120E+02 0.10261497996E+02
 0.10013216646E+02 0.96831831813E+01 0.92874773911E+01 0.88441000317E+01 0.83716452975E+01
 0.78882425216E+01 0.74108739758E+01 0.69527706667E+01 0.65239741068E+01 0.61321350910E+01
 0.57817294558E+01 0.54756122461E+01 0.52150996534E+01 0.50010546195E+01 0.48338800282E+01
 0.47140505419E+01 0.46419489193E+01 0.46178766750E+01 0.46419534418E+01 0.47140583836E+01
 0.45705413663E+01 0.47140506953E+01 0.49051531387E+01 0.51435128140E+01 0.54285110716E+01
 0.57588299681E+01 0.61321426965E+01 0.65442941272E+01 0.69893308030E+01 0.74580289570E+01
 0.79387873043E+01 0.84172461849E+01 0.88760334593E+01 0.92964502894E+01 0.96602163707E+01
 0.99503130668E+01 0.10152422869E+02 0.10256152892E+02 0.10256174575E+02 0.10152424435E+02
 0.99503356777E+01 0.96602271231E+01 0.92964564159E+01 0.88760094952E+01 0.84172669660E+01
 0.79387796153E+01 0.74580627738E+01 0.69893220731E+01 0.65442916301E+01 0.61321429286E+01
 0.57588338334E+01 0.54284930243E+01 0.51435219951E+01 0.49051464122E+01 0.47140619645E+01
 0.45705451236E+01 0.44747829216E+01 0.44268721646E+01 0.44268703445E+01 0.44747712715E+01
 0.43555190445E+01 0.44747788393E+01 0.46419554745E+01 0.48570131584E+01 0.51195560612E+01
 0.54285017680E+01 0.57817349092E+01 0.61757455264E+01 0.66049706507E+01 0.70619186388E+01
 0.75360410985E+01 0.80142716285E+01 0.84814361703E+01 0.89200094184E+01 0.93114218479E+01
 0.96378434057E+01 0.98836059875E+01 0.10036357517E+02 0.10088176083E+02 0.10036338037E+02
 0.98835973779E+01 0.96378193048E+01 0.93114209523E+01 0.89200270911E+01 0.84814502856E+01
 0.80142465101E+01 0.75360478733E+01 0.70619050875E+01 0.66049801339E+01 0.61757404047E+01
 0.57817260610E+01 0.54285261128E+01 0.51195453628E+01 0.48570264982E+01 0.46419469542E+01
 0.44747736740E+01 0.43555113938E+01 0.42840448923E+01 0.42602449476E+01 0.42840532545E+01
 0.41891537874E+01 0.42840461159E+01 0.44268715625E+01 0.46178845288E+01 0.48570237236E+01
 0.51435115445E+01 0.54756046144E+01 0.58501018557E+01 0.62622903192E+01 0.67051395976E+01
 0.71697725969E+01 0.76444916615E+01 0.81151006104E+01 0.85656020468E+01 0.89786062237E+01
 0.93360957000E+01 0.96212680762E+01 0.98199325221E+01 0.99219633775E+01 0.99219596499E+01
 0.98199562298E+01 0.96212768508E+01 0.93361165242E+01 0.89785819083E+01 0.85655944388E+01
 0.81150953749E+01 0.76445338264E+01 0.71697347309E+01 0.67051643951E+01 0.62622824244E+01
 0.58501215028E+01 0.54755816608E+01 0.51435219053E+01 0.48570107056E+01 0.46178894541E+01
 0.44268710026E+01 0.42840555129E+01 0.41891552216E+01 0.41418214767E+01 0.41418141611E+01
 0.40710717519E+01 0.41418228893E+01 0.42602458630E+01 0.44268656959E+01 0.46419507783E+01
 0.49051485304E+01 0.52151043397E+01 0.55691854509E+01 0.59630565885E+01 0.63907535535E+01
 0.68439714332E+01 0.73124589991E+01 0.77836340819E+01 0.82424421542E+01 0.86722359036E+01
 0.90557104535E+01 0.93757111801E+01 0.96168015244E+01 0.97666900233E+01 0.98175550993E+01
 0.97666904880E+01 0.96167801938E+01 0.93757017964E+01 0.90557129118E+01 0.86722493302E+01
 0.82424472216E+01 0.77836095477E+01 0.73124456739E+01 0.68440108664E+01 0.63907166652E+01
 0.59630642420E+01 0.55691963724E+01 0.52150995181E+01 0.49051604296E+01 0.46419468693E+01
 0.44268658835E+01 0.42602403473E+01 0.41418156570E+01 0.40710695592E+01 0.40475504633E+01
 0.40006058453E+01 0.40475465323E+01 0.41418178017E+01 0.42840570729E+01 0.44747784555E+01
 0.47140603910E+01 0.50010502237E+01 0.53336544193E+01 0.57082876684E+01 0.61195148548E+01
 0.65601900768E+01 0.70209448082E+01 0.74902248680E+01 0.79545374009E+01 0.83983160338E+01
 0.88044280302E+01 0.91556387486E+01 0.94357829817E+01 0.96310645552E+01 0.97313754582E+01
 0.97313649495E+01 0.96310772004E+01 0.94357927133E+01 0.91556400841E+01 0.88044197237E+01
 0.83983082237E+01 0.79545368509E+01 0.74902433098E+01 0.70209294220E+01 0.65601795812E+01
 0.61195520224E+01 0.57082567033E+01 0.53336745926E+01 0.50010391494E+01 0.47140603247E+01
 0.44747811627E+01 0.42840530102E+01 0.41418252107E+01 0.40475454225E+01 0.40006079271E+01
 0.40041357133E+01 0.40278905358E+01 0.40993190615E+01 0.42189564311E+01 0.43873475563E+01
 0.46048489063E+01 0.48711107400E+01 0.51848389552E+01 0.55432878676E+01 0.59421796025E+01
 0.63753337230E+01 0.68345380355E+01 0.73093311902E+01 0.77869571073E+01 0.82524137239E+01
 0.86887590802E+01 0.90781812701E+01 0.94032745288E+01 0.96482863377E+01 0.98007354471E+01
 0.98524663375E+01 0.98007321564E+01 0.96482822349E+01 0.94032697765E+01 0.90781870663E+01
 0.86887725236E+01 0.82524051129E+01 0.77869389772E+01 0.73093409565E+01 0.68345405025E+01