    2    2   80    1
  0.1552241E+02  0.2800000E-09  0.2800000E-09  0.4572381E-09  0.5000000E-15
  1.000000000000000E-004
  CAR 
 unknown system                          
     20     48     14
 
  0.0000000E+00  0.0000000E+00  0.0000000E+00  0.2057613E-02
    1       -2.529937   1.000000
    2        0.114845   1.000000
    3        3.228202   1.000000
    4        3.730999   1.000000
    5        3.730999   1.000000
    6        4.097469   1.000000
    7        4.097469   1.000000
    8        5.322391   1.000000
    9        5.322391   1.000000
   10        6.452524   0.999999
   11        6.904733   0.943564
   12        6.904733   0.943564
   13       11.813485   0.000000
   14       22.918857   0.000000
 
  0.1111111E+00 -0.1387779E-16  0.0000000E+00  0.1234568E-01
    1       -2.091210   1.000000
    2        0.509219   1.000000
    3        3.138939   1.000000
    4        3.743413   1.000000
    5        3.942584   1.000000
    6        4.069194   1.000000
    7        4.418581   1.000000
    8        4.611201   1.000000
    9        5.118974   1.000000
   10        5.256765   1.000000
   11        6.977699   0.857570
   12        8.909605   0.000000
   13       11.773825   0.000000
   14       23.250587   0.000000
 
  0.2222222E+00 -0.1387779E-16  0.0000000E+00  0.1234568E-01
    1       -0.927090   1.000000
    2        1.263888   1.000000
    3        2.960003   1.000000
    4        3.149193   1.000000
    5        3.396968   1.000000
    6        4.556802   1.000000
    7        4.689750   1.000000
    8        4.694835   1.000000
    9        5.010129   1.000000
   10        5.302678   1.000000
   11        7.082120   0.629715
   12       11.336642   0.000000
   13       11.726679   0.000000
   14       20.420109   0.000000
 
  0.3333333E+00 -0.2775558E-16  0.0000000E+00  0.1234568E-01
    1        0.314275   1.000000
    2        1.177134   1.000000
    3        2.103666   1.000000
    4        3.306813   1.000000
    5        3.843110   1.000000
    6        4.165807   1.000000
    7        4.284053   1.000000
    8        6.038186   1.000000
    9        6.281363   1.000000
   10        6.482617   0.999998
   11        7.127572   0.503871
   12       12.052778   0.000000
   13       13.764574   0.000000
   14       16.135726   0.000000
 
  0.4444444E+00 -0.2775558E-16  0.0000000E+00  0.1234568E-01
    1        0.748030   1.000000
    2        0.875667   1.000000
    3        1.566241   1.000000
    4        3.850276   1.000000
    5        4.024937   1.000000
    6        4.048345   1.000000
    7        4.512956   1.000000
    8        7.133331   0.487629
    9        7.258425   0.179948
   10        7.446999   0.012257
   11        8.378773   0.000000
   12       12.030092   0.000000
   13       13.715345   0.000000
   14       15.684837   0.000000
 
  0.1111111E+00  0.1111111E+00  0.0000000E+00  0.1234568E-01
    1       -1.273962   1.000000
    2        1.174308   1.000000
    3        2.815053   1.000000
    4        3.575343   1.000000
    5        3.597089   1.000000
    6        4.043097   1.000000
    7        4.461538   1.000000
    8        4.787063   1.000000
    9        5.146719   1.000000
   10        5.170636   1.000000
   11        6.988194   0.840194
   12       10.703816   0.000000
   13       11.734368   0.000000
   14       22.457470   0.000000
 
  0.2222222E+00  0.1111111E+00  0.0000000E+00  0.2469136E-01
    1        0.060618   1.000000
    2        1.665045   1.000000
    3        2.513948   1.000000
    4        2.763307   1.000000
    5        3.429642   1.000000
    6        3.952726   1.000000
    7        4.740476   1.000000
    8        4.787288   1.000000
    9        6.009744   1.000000
   10        6.478785   0.999998
   11        6.969251   0.870595
   12       11.914360   0.000000
   13       13.035925   0.000000
   14       18.250368   0.000000
 
  0.3333333E+00  0.1111111E+00  0.0000000E+00  0.2469136E-01
    1        0.987299   1.000000
    2        1.302399   1.000000
    3        1.811478   1.000000
    4        3.460258   1.000000
    5        3.725650   1.000000
    6        4.068841   1.000000
    7        4.206964   1.000000
    8        6.081287   1.000000
    9        6.942425   0.906397
   10        7.012098   0.795664
   11        8.150560   0.000000
   12       13.013161   0.000000
   13       14.083179   0.000000
   14       15.336452   0.000000
 
  0.4444444E+00  0.1111111E+00  0.0000000E+00  0.1234568E-01
    1        1.089712   1.000000
    2        1.165455   1.000000
    3        1.569399   1.000000
    4        3.789802   1.000000
    5        3.856496   1.000000
    6        4.176636   1.000000
    7        4.284551   1.000000
    8        6.927767   0.922565
    9        7.076611   0.644329
   10        7.202986   0.300296
   11        9.937344   0.000000
   12       11.132827   0.000000
   13       14.995534   0.000000
   14       16.051038   0.000000
 
  0.2222222E+00  0.2222222E+00  0.0000000E+00  0.1234568E-01
    1        1.348334   1.000000
    2        2.019815   1.000000
    3        2.282014   1.000000
    4        2.291773   1.000000
    5        3.503700   1.000000
    6        3.827997   1.000000
    7        4.373619   1.000000
    8        5.182527   1.000000
    9        6.739441   0.997058
   10        6.974805   0.862129
   11        8.246681   0.000000
   12       12.937484   0.000000
   13       15.301272   0.000000
   14       15.730267   0.000000
 
  0.3333333E+00  0.2222222E+00  0.0000000E+00  0.2469136E-01
    1        1.753641   1.000000
    2        1.860882   1.000000
    3        1.968363   1.000000
    4        3.207346   1.000000
    5        3.477065   1.000000
    6        3.856917   1.000000
    7        4.363254   1.000000
    8        6.045003   1.000000
    9        6.593768   0.999923
   10        7.009618   0.800601
   11       10.116904   0.000000
   12       12.372342   0.000000
   13       14.505766   0.000000
   14       15.862209   0.000000
 
  0.3333333E+00  0.3333333E+00  0.0000000E+00  0.4115226E-02
    1        1.785507   1.000000
    2        2.417708   1.000000
    3        2.417708   1.000000
    4        2.893738   1.000000
    5        3.524302   1.000000
    6        3.524302   1.000000
    7        4.589012   1.000000
    8        6.390949   1.000000
    9        6.390949   1.000000
   10        6.431892   1.000000
   11       11.557254   0.000000
   12       11.557254   0.000000
   13       12.966732   0.000000
   14       18.873974   0.000000
 
  0.0000000E+00  0.0000000E+00  0.1666667E+00  0.4115226E-02
    1       -2.294772   1.000000
    2        0.076712   1.000000
    3        3.171441   1.000000
    4        3.698518   1.000000
    5        3.698518   1.000000
    6        4.030055   1.000000
    7        4.030055   1.000000
    8        5.457496   1.000000
    9        5.492659   1.000000
   10        5.492659   1.000000
   11        6.854637   0.973789
   12        6.854637   0.973789
   13       13.257458   0.000000
   14       22.240842   0.000000
 
  0.1111111E+00 -0.1387779E-16  0.1666667E+00  0.2469136E-01
    1       -1.861741   1.000000
    2        0.484968   1.000000
    3        3.152433   1.000000
    4        3.588753   1.000000
    5        3.720456   1.000000
    6        4.017704   1.000000
    7        4.342437   1.000000
    8        4.516707   1.000000
    9        5.326252   1.000000
   10        5.336303   1.000000
   11        6.905333   0.943080
   12        8.028740   0.000000
   13       13.414890   0.000000
   14       22.772473   0.000000
 
  0.2222222E+00 -0.1387779E-16  0.1666667E+00  0.2469136E-01
    1       -0.736434   1.000000
    2        1.288781   1.000000
    3        2.844385   1.000000
    4        3.042865   1.000000
    5        3.304784   1.000000
    6        4.249216   1.000000
    7        4.634581   1.000000
    8        5.128638   1.000000
    9        5.148443   1.000000
   10        5.324038   1.000000
   11        6.970345   0.868956
   12        9.478523   0.000000
   13       14.021553   0.000000
   14       20.659995   0.000000
 
  0.3333333E+00 -0.2775558E-16  0.1666667E+00  0.2469136E-01
    1        0.343435   1.000000
    2        1.219842   1.000000
    3        2.166589   1.000000
    4        2.876436   1.000000
    5        3.895803   1.000000
    6        4.413164   1.000000
    7        4.609081   1.000000
    8        6.032283   1.000000
    9        6.287181   1.000000
   10        6.372639   1.000000
   11        7.029954   0.758026
   12       10.621864   0.000000
   13       14.898660   0.000000
   14       16.878182   0.000000
 
  0.4444444E+00 -0.2775558E-16  0.1666667E+00  0.2469136E-01
    1        0.602621   1.000000
    2        0.873313   1.000000
    3        1.874477   1.000000
    4        2.869829   1.000000
    5        4.205039   1.000000
    6        4.317120   1.000000
    7        5.540088   1.000000
    8        6.817912   0.986073
    9        7.286166   0.133129
   10        7.463837   0.008941
   11        8.128157   0.000000
   12       11.339667   0.000000
   13       13.454177   0.000000
   14       15.761685   0.000000
 
  0.1111111E+00  0.1111111E+00  0.1666667E+00  0.2469136E-01
    1       -1.063783   1.000000
    2        1.184582   1.000000
    3        2.874400   1.000000
    4        3.084034   1.000000
    5        3.630373   1.000000
    6        3.869760   1.000000
    7        4.612611   1.000000
    8        4.806752   1.000000
    9        5.213236   1.000000
   10        5.358413   1.000000
   11        6.893827   0.951797
   12        9.157463   0.000000
   13       13.815795   0.000000
   14       22.535173   0.000000
 
  0.2222222E+00  0.1111111E+00  0.1666667E+00  0.4938272E-01
    1        0.185570   1.000000
    2        1.734632   1.000000
    3        2.317747   1.000000
    4        2.847393   1.000000
    5        3.297966   1.000000
    6        3.993343   1.000000
    7        4.601415   1.000000
    8        5.065562   1.000000
    9        6.160737   1.000000
   10        6.292000   1.000000
   11        6.952641   0.893737
   12       10.345552   0.000000
   13       14.779955   0.000000
   14       18.657292   0.000000
 
  0.3333333E+00  0.1111111E+00  0.1666667E+00  0.4938272E-01
    1        0.866417   1.000000
    2        1.352649   1.000000
    3        2.052194   1.000000
    4        2.798484   1.000000
    5        3.873043   1.000000
    6        4.397418   1.000000
    7        4.542284   1.000000
    8        6.069395   1.000000
    9        6.623755   0.999823
   10        7.138637   0.472680
   11        8.164651   0.000000
   12       11.779149   0.000000
   13       14.117999   0.000000
   14       16.708776   0.000000
 
  0.4444444E+00  0.1111111E+00  0.1666667E+00  0.2469136E-01
    1        0.885031   1.000000
    2        1.150015   1.000000
    3        2.005115   1.000000
    4        2.864628   1.000000
    5        3.735112   1.000000
    6        4.625816   1.000000
    7        5.131430   1.000000
    8        6.600103   0.999908
    9        7.058785   0.690089
   10        7.258512   0.179787
   11        9.811964   0.000000
   12       11.047371   0.000000
   13       14.633726   0.000000
   14       14.844881   0.000000
 
  0.2222222E+00  0.2222222E+00  0.1666667E+00  0.2469136E-01
    1        1.351059   1.000000
    2        1.861613   1.000000
    3        2.290093   1.000000
    4        2.521059   1.000000
    5        3.598064   1.000000
    6        3.776720   1.000000
    7        4.210363   1.000000
    8        5.400942   1.000000
    9        6.408678   1.000000
   10        7.155671   0.425054
   11        8.322406   0.000000
   12       11.885971   0.000000
   13       15.142840   0.000000
   14       17.045538   0.000000
 
  0.3333333E+00  0.2222222E+00  0.1666667E+00  0.4938272E-01
    1        1.525101   1.000000
    2        1.998979   1.000000
    3        2.252019   1.000000
    4        2.772538   1.000000
    5        3.471522   1.000000
    6        4.017553   1.000000
    7        4.536127   1.000000
    8        6.132152   1.000000
    9        6.257072   1.000000
   10        7.152387   0.434171
   11       10.229990   0.000000
   12       12.542045   0.000000
   13       14.240177   0.000000
   14       15.357210   0.000000
 
  0.3333333E+00  0.3333333E+00  0.1666667E+00  0.8230453E-02
    1        1.923886   1.000000
    2        2.329744   1.000000
    3        2.329744   1.000000
    4        2.901683   1.000000
    5        3.514752   1.000000
    6        3.514752   1.000000
    7        4.568176   1.000000
    8        6.072405   1.000000
    9        6.547372   0.999980
   10        6.547372   0.999980
   11       11.776487   0.000000
   12       11.776487   0.000000
   13       13.441217   0.000000
   14       17.331643   0.000000
 
  0.0000000E+00  0.0000000E+00  0.3333333E+00  0.4115226E-02
    1       -1.644206   1.000000
    2       -0.154869   1.000000
    3        3.079108   1.000000
    4        3.673082   1.000000
    5        3.673082   1.000000
    6        3.876589   1.000000
    7        3.876589   1.000000
    8        3.995908   1.000000
    9        5.892189   1.000000
   10        5.892190   1.000000
   11        6.673204   0.999365
   12        6.673204   0.999365
   13       16.120844   0.000000
   14       21.319430   0.000000
 
  0.1111111E+00 -0.1387779E-16  0.3333333E+00  0.2469136E-01
    1       -1.222825   1.000000
    2        0.274772   1.000000
    3        3.092698   1.000000
    4        3.250532   1.000000
    5        3.437149   1.000000
    6        3.974235   1.000000
    7        4.003248   1.000000
    8        4.180779   1.000000
    9        5.779073   1.000000
   10        5.824994   1.000000
   11        6.670805   0.999401
   12        7.120217   0.524605
   13       16.322338   0.000000
   14       21.795205   0.000000
 
  0.2222222E+00 -0.1387779E-16  0.3333333E+00  0.2469136E-01
    1       -0.201269   1.000000
    2        1.163038   1.000000
    3        2.476551   1.000000
    4        2.962835   1.000000
    5        3.228194   1.000000
    6        3.919039   1.000000
    7        4.649956   1.000000
    8        4.990614   1.000000
    9        5.707678   1.000000
   10        5.840278   1.000000
   11        6.655164   0.999596
   12        7.922322   0.000000
   13       16.795655   0.000000
   14       21.355018   0.000000
 
  0.3333333E+00 -0.2775558E-16  0.3333333E+00  0.2469136E-01
    1        0.498162   1.000000
    2        1.182559   1.000000
    3        2.118366   1.000000
    4        2.505228   1.000000
    5        4.220646   1.000000
    6        4.779707   1.000000
    7        4.957962   1.000000
    8        5.892559   1.000000
    9        6.274633   1.000000
   10        6.457544   0.999999
   11        6.832507   0.981965
   12        8.748997   0.000000
   13       16.183407   0.000000
   14       18.389104   0.000000
 
  0.4444444E+00 -0.2775558E-16  0.3333333E+00  0.2469136E-01
    1        0.505646   1.000000
    2        0.894421   1.000000
    3        2.061683   1.000000
    4        2.163503   1.000000
    5        4.656013   1.000000
    6        4.962740   1.000000
    7        6.127996   1.000000
    8        6.954911   0.890764
    9        7.331768   0.075761
   10        7.354068   0.055708
   11        7.442137   0.013394
   12        9.840158   0.000000
   13       13.661988   0.000000
   14       15.096846   0.000000
 
  0.1111111E+00  0.1111111E+00  0.3333333E+00  0.2469136E-01
    1       -0.472567   1.000000
    2        1.020881   1.000000
    3        2.635807   1.000000
    4        3.048428   1.000000
    5        3.118047   1.000000
    6        3.738012   1.000000
    7        4.519850   1.000000
    8        4.781729   1.000000
    9        5.730529   1.000000
   10        5.820033   1.000000
   11        6.614609   0.999862
   12        7.744262   0.000007
   13       16.696289   0.000000
   14       22.274835   0.000000
 
  0.2222222E+00  0.1111111E+00  0.3333333E+00  0.4938272E-01
    1        0.543352   1.000000
    2        1.639023   1.000000
    3        2.163269   1.000000
    4        2.848097   1.000000
    5        3.209297   1.000000
    6        3.804710   1.000000
    7        4.698302   1.000000
    8        5.544599   1.000000
    9        6.079667   1.000000
   10        6.444833   0.999999
   11        6.854221   0.973967
   12        8.579576   0.000000
   13       17.043456   0.000000
   14       19.795118   0.000000
 
  0.3333333E+00  0.1111111E+00  0.3333333E+00  0.4938272E-01
    1        0.826138   1.000000
    2        1.354995   1.000000
    3        2.086005   1.000000
    4        2.492738   1.000000
    5        4.008399   1.000000
    6        4.738689   1.000000
    7        5.096461   1.000000
    8        5.829580   1.000000
    9        6.390167   1.000000
   10        7.358790   0.052054
   11        8.174474   0.000000
   12        9.926844   0.000000
   13       14.822965   0.000000
   14       17.018987   0.000000
 
  0.4444444E+00  0.1111111E+00  0.3333333E+00  0.2469136E-01
    1        0.760919   1.000000
    2        1.198212   1.000000
    3        2.154381   1.000000
    4        2.307020   1.000000
    5        3.938189   1.000000
    6        5.331098   1.000000
    7        5.574841   1.000000
    8        6.116146   1.000000
    9        7.019287   0.780948
   10        7.293952   0.121650
   11        9.678097   0.000000
   12       10.724058   0.000000
   13       13.875043   0.000000
   14       13.951857   0.000000
 
  0.2222222E+00  0.2222222E+00  0.3333333E+00  0.2469136E-01
    1        1.382753   1.000000
    2        1.666546   1.000000
    3        2.421794   1.000000
    4        2.824428   1.000000
    5        3.470569   1.000000
    6        3.591661   1.000000
    7        4.290459   1.000000
    8        5.571823   1.000000
    9        6.266466   1.000000
   10        7.404863   0.025526
   11        8.442847   0.000000
   12       10.106767   0.000000
   13       16.064731   0.000000
   14       17.669402   0.000000
 
  0.3333333E+00  0.2222222E+00  0.3333333E+00  0.4938272E-01
    1        1.443086   1.000000
    2        2.003846   1.000000
    3        2.251089   1.000000
    4        3.002254   1.000000
    5        3.133091   1.000000
    6        4.152250   1.000000
    7        4.795870   1.000000
    8        5.500845   1.000000
    9        6.555176   0.999975
   10        7.306475   0.104680
   11       10.573695   0.000000
   12       12.363278   0.000000
   13       13.631839   0.000000
   14       15.569932   0.000000
 
  0.3333333E+00  0.3333333E+00  0.3333333E+00  0.8230453E-02
    1        2.164552   1.000000
    2        2.164552   1.000000
    3        2.285682   1.000000
    4        2.877248   1.000000
    5        3.507537   1.000000
    6        3.507537   1.000000
    7        4.562930   1.000000
    8        5.335251   1.000000
    9        6.827374   0.983514
   10        6.827374   0.983514
   11       12.481806   0.000000
   12       12.481810   0.000000
   13       14.555959   0.000000
   14       15.370750   0.000000
 
  0.0000000E+00  0.0000000E+00  0.5000000E+00  0.2057613E-02
    1       -0.792186   1.000000
    2       -0.792186   1.000000
    3        3.212060   1.000000
    4        3.212060   1.000000
    5        3.734069   1.000000
    6        3.734069   1.000000
    7        3.734069   1.000000
    8        3.734069   1.000000
    9        6.333041   1.000000
   10        6.333041   1.000000
   11        6.333041   1.000000
   12        6.333041   1.000000
   13       19.182310   0.000000
   14       19.182310   0.000000
 
  0.1111111E+00 -0.1387779E-16  0.5000000E+00  0.1234568E-01
    1       -0.370523   1.000000
    2       -0.370523   1.000000
    3        2.978192   1.000000
    4        2.978192   1.000000
    5        3.617681   1.000000
    6        3.617681   1.000000
    7        4.033314   1.000000
    8        4.033314   1.000000
    9        6.272084   1.000000
   10        6.272084   1.000000
   11        6.447722   0.999999
   12        6.447722   0.999999
   13       19.420792   0.000000
   14       19.420792   0.000000
 
  0.2222222E+00 -0.1387779E-16  0.5000000E+00  0.1234568E-01
    1        0.544562   1.000000
    2        0.544562   1.000000
    3        2.586229   1.000000
    4        2.586229   1.000000
    5        3.543996   1.000000
    6        3.543996   1.000000
    7        4.787262   1.000000
    8        4.787262   1.000000
    9        6.200844   1.000000
   10        6.200844   1.000000
   11        6.749574   0.996347
   12        6.749574   0.996347
   13       19.694511   0.000000
   14       19.694511   0.000000
 
  0.3333333E+00 -0.2775558E-16  0.5000000E+00  0.1234568E-01
    1        0.832216   1.000000
    2        0.832216   1.000000
    3        2.253409   1.000000
    4        2.253409   1.000000
    5        4.716498   1.000000
    6        4.716498   1.000000
    7        5.316159   1.000000
    8        5.316159   1.000000
    9        6.630981   0.999785
   10        6.630982   0.999785
   11        7.219270   0.261511
   12        7.219270   0.261511
   13       17.568290   0.000000
   14       17.568290   0.000000
 
  0.4444444E+00 -0.2775558E-16  0.5000000E+00  0.1234568E-01
    1        0.675953   1.000000
    2        0.675953   1.000000
    3        2.014183   1.000000
    4        2.014183   1.000000
    5        5.338457   1.000000
    6        5.338457   1.000000
    7        6.132582   1.000000
    8        6.132582   1.000000
    9        7.389667   0.032622
   10        7.389667   0.032622
   11        8.381392   0.000000
   12        8.381392   0.000000
   13       14.271247   0.000000
   14       14.271247   0.000000
 
  0.1111111E+00  0.1111111E+00  0.5000000E+00  0.1234568E-01
    1        0.349499   1.000000
    2        0.349499   1.000000
    3        2.692209   1.000000
    4        2.692209   1.000000
    5        3.373258   1.000000
    6        3.373258   1.000000
    7        4.621443   1.000000
    8        4.621443   1.000000
    9        6.189290   1.000000
   10        6.189290   1.000000
   11        6.687758   0.999095
   12        6.687758   0.999095
   13       19.758359   0.000000
   14       19.758359   0.000000
 
  0.2222222E+00  0.1111111E+00  0.5000000E+00  0.2469136E-01
    1        1.076011   1.000000
    2        1.076011   1.000000
    3        2.499531   1.000000
    4        2.499531   1.000000
    5        3.463363   1.000000
    6        3.463363   1.000000
    7        5.136605   1.000000
    8        5.136605   1.000000
    9        6.656336   0.999584
   10        6.656336   0.999584
   11        7.113635   0.543103
   12        7.113635   0.543103
   13       19.220360   0.000000
   14       19.220360   0.000000
 
  0.3333333E+00  0.1111111E+00  0.5000000E+00  0.2469136E-01
    1        1.040151   1.000000
    2        1.040151   1.000000
    3        2.257613   1.000000
    4        2.257613   1.000000
    5        4.585807   1.000000
    6        4.585807   1.000000
    7        5.303510   1.000000
    8        5.303510   1.000000
    9        7.099904   0.581349
   10        7.099904   0.581349
   11        8.590795   0.000000
   12        8.590795   0.000000
   13       15.909367   0.000000
   14       15.909367   0.000000
 
  0.4444444E+00  0.1111111E+00  0.5000000E+00  0.1234568E-01
    1        0.941994   1.000000
    2        0.941994   1.000000
    3        2.148445   1.000000
    4        2.148445   1.000000
    5        4.716283   1.000000
    6        4.716283   1.000000
    7        6.041921   1.000000
    8        6.041921   1.000000
    9        7.061443   0.683428
   10        7.061443   0.683428
   11       10.114284   0.000000
   12       10.114284   0.000000
   13       13.597303   0.000000
   14       13.597303   0.000000
 
  0.2222222E+00  0.2222222E+00  0.5000000E+00  0.1234568E-01
    1        1.492596   1.000000
    2        1.492597   1.000000
    3        2.715596   1.000000
    4        2.715596   1.000000
    5        3.424190   1.000000
    6        3.424190   1.000000
    7        4.825954   1.000000
    8        4.825954   1.000000
    9        7.186091   0.343076
   10        7.186091   0.343076
   11        8.806493   0.000000
   12        8.806493   0.000000
   13       17.358619   0.000000
   14       17.358619   0.000000
 
  0.3333333E+00  0.2222222E+00  0.5000000E+00  0.2469136E-01
    1        1.609051   1.000000
    2        1.609051   1.000000
    3        2.620047   1.000000
    4        2.620047   1.000000
    5        3.771837   1.000000
    6        3.771837   1.000000
    7        5.006116   1.000000
    8        5.006116   1.000000
    9        7.087096   0.616353
   10        7.087096   0.616353
   11       11.275695   0.000000
   12       11.275695   0.000000
   13       14.573865   0.000000
   14       14.573865   0.000000
 
  0.3333333E+00  0.3333333E+00  0.5000000E+00  0.4115226E-02
    1        2.087091   1.000000
    2        2.087091   1.000000
    3        2.681957   1.000000
    4        2.681957   1.000000
    5        3.507823   1.000000
    6        3.507823   1.000000
    7        4.758947   1.000000
    8        4.758947   1.000000
    9        6.952678   0.893690
   10        6.952678   0.893690
   11       13.707761   0.000000
   12       13.707761   0.000000
   13       13.709402   0.000000
   14       13.709402   0.000000
