       N       E                     dE             d eps       ncg     rms          rms(c)
DAV:   1     0.193922029180E+03    0.19392E+03   -0.96336E+03  1344   0.141E+03
DAV:   2    -0.455920309799E+01   -0.19848E+03   -0.18491E+03  1356   0.414E+02
DAV:   3    -0.125936949178E+02   -0.80345E+01   -0.76845E+01  1786   0.892E+01
DAV:   4    -0.127188905791E+02   -0.12520E+00   -0.12447E+00  1472   0.112E+01
DAV:   5    -0.127214642180E+02   -0.25736E-02   -0.25733E-02  1760   0.145E+00    0.504E+00
RMM:   6    -0.120733708389E+02    0.64809E+00   -0.12189E+00  1344   0.149E+01    0.159E+00
RMM:   7    -0.120129013212E+02    0.60470E-01   -0.35053E-01  1345   0.583E+00    0.369E-01
RMM:   8    -0.120052634898E+02    0.76378E-02   -0.12499E-02  1346   0.162E+00    0.118E-01
RMM:   9    -0.120049460859E+02    0.31740E-03   -0.18519E-03  1348   0.308E-01    0.233E-02
RMM:  10    -0.120049835346E+02   -0.37449E-04   -0.29799E-04  1346   0.271E-01    0.319E-02
RMM:  11    -0.120049601526E+02    0.23382E-04   -0.10669E-04  1345   0.156E-01    0.174E-03
RMM:  12    -0.120049594066E+02    0.74599E-06   -0.33182E-06   750   0.208E-02
   1 F= -.12004959E+02 E0= -.11957469E+02  d E =-.120050E+02
       N       E                     dE             d eps       ncg     rms          rms(c)
DAV:   1    -0.130405626758E+02   -0.10356E+01   -0.31812E+01  1398   0.848E+01    0.562E+00
RMM:   2    -0.119754011088E+02    0.10652E+01   -0.51939E+00  1344   0.305E+01    0.242E+00
RMM:   3    -0.119489858280E+02    0.26415E-01   -0.25303E-01  1344   0.821E+00    0.804E-01
RMM:   4    -0.119933769196E+02   -0.44391E-01   -0.40328E-02  1347   0.174E+00    0.514E-01
RMM:   5    -0.119881338365E+02    0.52431E-02   -0.51751E-03  1350   0.812E-01    0.219E-01
RMM:   6    -0.119868578072E+02    0.12760E-02   -0.37672E-03  1344   0.696E-01    0.471E-02
RMM:   7    -0.119868680072E+02   -0.10200E-04   -0.72600E-04  1349   0.275E-01    0.165E-02
RMM:   8    -0.119868630913E+02    0.49159E-05   -0.29960E-05   884   0.608E-02
   2 F= -.11986863E+02 E0= -.11938834E+02  d E =0.180963E-01
       N       E                     dE             d eps       ncg     rms          rms(c)
DAV:   1    -0.128762837452E+02   -0.88942E+00   -0.23015E+01  1344   0.781E+01    0.507E+00
RMM:   2    -0.120290619459E+02    0.84722E+00   -0.26704E+00  1344   0.224E+01    0.101E+00
RMM:   3    -0.120412744303E+02   -0.12212E-01   -0.15117E-01  1344   0.275E+00    0.687E-01
RMM:   4    -0.120413476079E+02   -0.73178E-04   -0.48743E-02  1344   0.277E+00    0.291E-01
RMM:   5    -0.120391576369E+02    0.21900E-02   -0.32393E-03  1344   0.851E-01    0.688E-02
RMM:   6    -0.120390108438E+02    0.14679E-03   -0.93581E-04  1346   0.371E-01    0.134E-02
RMM:   7    -0.120390131812E+02   -0.23373E-05   -0.51762E-05  1072   0.493E-02
   3 F= -.12039013E+02 E0= -.11995504E+02  d E =-.521501E-01
       N       E                     dE             d eps       ncg     rms          rms(c)
DAV:   1    -0.120892893392E+02   -0.50278E-01   -0.13631E+00  1410   0.167E+01    0.111E+00
RMM:   2    -0.120513946996E+02    0.37895E-01   -0.19247E-01  1344   0.598E+00    0.349E-01
RMM:   3    -0.120480090270E+02    0.33857E-02   -0.42691E-03  1349   0.103E+00    0.141E-01
RMM:   4    -0.120473882930E+02    0.62073E-03   -0.22851E-03  1344   0.696E-01    0.108E-02
RMM:   5    -0.120473930962E+02   -0.48032E-05   -0.56219E-05  1048   0.628E-02
   4 F= -.12047393E+02 E0= -.12004535E+02  d E =-.837992E-02
       N       E                     dE             d eps       ncg     rms          rms(c)
DAV:   1    -0.120535134336E+02   -0.61251E-02   -0.17554E-01  1452   0.608E+00    0.406E-01
RMM:   2    -0.120479760233E+02    0.55374E-02   -0.16651E-02  1344   0.173E+00    0.243E-02
RMM:   3    -0.120479890376E+02   -0.13014E-04   -0.35360E-04  1358   0.169E-01    0.840E-03
RMM:   4    -0.120479894078E+02   -0.37022E-06   -0.33055E-05   892   0.981E-02
   5 F= -.12047989E+02 E0= -.12005341E+02  d E =-.596312E-03
