 vasp.5.4.1 05Feb16 (build Mar 02 2016 14:09:44) complex                        
  
 executed on   Abel-impi-ifc-cuda date 2019.09.20  09:36:43
 running on    4 total cores
 distrk:  each k-point on    4 cores,    1 groups
 distr:  one band on NCORES_PER_BAND=   2 cores,    2 groups


--------------------------------------------------------------------------------------------------------


 INCAR:
 POTCAR:   PAW_PBE Pt 05Jan2001                   
 POTCAR:   PAW_PBE Pt 05Jan2001                   
  local pseudopotential read in
  partial core-charges read in
  atomic valenz-charges read in
  non local Contribution for L=           2  read in
    real space projection operators read in
  non local Contribution for L=           2  read in
    real space projection operators read in
  non local Contribution for L=           0  read in
    real space projection operators read in
  non local Contribution for L=           0  read in
    real space projection operators read in
  non local Contribution for L=           1  read in
    real space projection operators read in
  non local Contribution for L=           1  read in
    real space projection operators read in
    PAW grid and wavefunctions read in
 
   number of l-projection  operators is LMAX  =           6
   number of lm-projection operators is LMMAX =          18
 

 ----------------------------------------------------------------------------- 
|                                                                             |
|  ADVICE TO THIS USER RUNNING 'VASP/VAMP'   (HEAR YOUR MASTER'S VOICE ...):  |
|                                                                             |
|      You have a (more or less) 'small supercell' and for smaller cells      |
|      it is recommended  to use the reciprocal-space projection scheme!      |
|      The real space optimization is not  efficient for small cells and it   |
|      is also less accurate ...                                              |
|      Therefore set LREAL=.FALSE. in the  INCAR file                         |
|                                                                             |
 ----------------------------------------------------------------------------- 

 Optimization of the real space projectors (new method)

 maximal supplied QI-value         = 15.12
 optimisation between [QCUT,QGAM] = [ 11.34, 22.83] = [ 36.00,145.93] Ry 
 Optimized for a Real-space Cutoff    1.56 Angstroem

   l    n(q)    QCUT    max X(q) W(low)/X(q) W(high)/X(q)  e(spline) 
   2     10    11.338     3.643    0.58E-05    0.18E-04    0.79E-07
   2     10    11.338    46.462    0.14E-03    0.41E-03    0.78E-06
   0     11    11.338    13.796    0.17E-04    0.37E-05    0.56E-08
   0     11    11.338    57.669    0.42E-04    0.70E-04    0.20E-06
   1     10    11.338     7.440    0.30E-05    0.11E-04    0.38E-07
   1     10    11.338    10.255    0.32E-04    0.36E-04    0.14E-06
 PAW_PBE Pt 05Jan2001                   :
 energy of atom  1       EATOM= -729.1171
 kinetic energy error for atom=    0.0039 (will be added to EATOM!!)
 
 
 POSCAR: Pt_hcp                                  
  positions in direct lattice
  No initial velocities read in
 exchange correlation table for  LEXCH =        8
   RHO(1)=    0.500       N(1)  =     2000
   RHO(2)=  100.500       N(2)  =     4000
 


--------------------------------------------------------------------------------------------------------


 ion  position               nearest neighbor table
   1  0.333  0.667  0.250-   2 2.80   2 2.80   2 2.80   2 2.80   2 2.80   2 2.80
   2  0.667  0.333  0.750-   1 2.80   1 2.80   1 2.80   1 2.80   1 2.80   1 2.80
 
  LATTYP: Found a hexagonal cell.
 ALAT       =     2.7999999908
 C/A-ratio  =     1.6329931654
  
  Lattice vectors:
  
 A1 = (   2.8000000000,   0.0000000000,   0.0000000000)
 A2 = (  -1.4000000000,   2.4248711200,   0.0000000000)
 A3 = (   0.0000000000,   0.0000000000,   4.5723808480)


Analysis of symmetry for initial positions (statically):
=====================================================================
 Subroutine PRICEL returns:
 Original cell was already a primitive cell.
 

 Routine SETGRP: Setting up the symmetry group for a 
 hexagonal supercell.


 Subroutine GETGRP returns: Found 24 space group operations
 (whereof 12 operations were pure point group operations)
 out of a pool of 24 trial point group operations.


The static configuration has the point symmetry D_3d.
 The point group associated with its full space group is D_6h.


Analysis of symmetry for dynamics (positions and initial velocities):
=====================================================================
 Subroutine PRICEL returns:
 Original cell was already a primitive cell.
 

 Routine SETGRP: Setting up the symmetry group for a 
 hexagonal supercell.


 Subroutine GETGRP returns: Found 24 space group operations
 (whereof 12 operations were pure point group operations)
 out of a pool of 24 trial point group operations.


The dynamic configuration has the point symmetry D_3d.
 The point group associated with its full space group is D_6h.


 Subroutine INISYM returns: Found 24 space group operations
 (whereof 12 operations are pure point group operations),
 and found     1 'primitive' translations

 
 
 KPOINTS: k-density: 4.0                          

Automatic generation of k-mesh.
Space group operators:
 irot       det(A)        alpha          n_x          n_y          n_z        tau_x        tau_y        tau_z
    1     1.000000     0.000000     1.000000     0.000000     0.000000     0.000000     0.000000     0.000000
    2    -1.000000     0.000000     1.000000     0.000000     0.000000     0.000000     0.000000     0.000000
    3     1.000000   120.000000     0.000000     0.000000    -1.000000     0.000000     0.000000     0.000000
    4    -1.000000   120.000000     0.000000     0.000000    -1.000000     0.000000     0.000000     0.000000
    5     1.000000   120.000000     0.000000     0.000000     1.000000     0.000000     0.000000     0.000000
    6    -1.000000   120.000000     0.000000     0.000000     1.000000     0.000000     0.000000     0.000000
    7     1.000000   180.000000     1.000000     0.000000     0.000000     0.000000     0.000000     0.000000
    8    -1.000000   180.000000     1.000000     0.000000     0.000000     0.000000     0.000000     0.000000
    9     1.000000   180.000000     0.500000    -0.866025     0.000000     0.000000     0.000000     0.000000
   10    -1.000000   180.000000     0.500000    -0.866025     0.000000     0.000000     0.000000     0.000000
   11     1.000000   180.000000    -0.500000    -0.866025     0.000000     0.000000     0.000000     0.000000
   12    -1.000000   180.000000    -0.500000    -0.866025     0.000000     0.000000     0.000000     0.000000
   13     1.000000    60.000000     0.000000     0.000000    -1.000000     0.000000     0.000000     0.500000
   14    -1.000000    60.000000     0.000000     0.000000    -1.000000     0.000000     0.000000     0.500000
   15     1.000000   180.000000     0.000000     0.000000     1.000000     0.000000     0.000000     0.500000
   16    -1.000000   180.000000     0.000000     0.000000     1.000000     0.000000     0.000000     0.500000
   17     1.000000    60.000000     0.000000     0.000000     1.000000     0.000000     0.000000     0.500000
   18    -1.000000    60.000000     0.000000     0.000000     1.000000     0.000000     0.000000     0.500000
   19     1.000000   180.000000     0.866025    -0.500000     0.000000     0.000000     0.000000     0.500000
   20    -1.000000   180.000000     0.866025    -0.500000     0.000000     0.000000     0.000000     0.500000
   21     1.000000   180.000000     0.000000     1.000000     0.000000     0.000000     0.000000     0.500000
   22    -1.000000   180.000000     0.000000     1.000000     0.000000     0.000000     0.000000     0.500000
   23     1.000000   180.000000     0.866025     0.500000     0.000000     0.000000     0.000000     0.500000
   24    -1.000000   180.000000     0.866025     0.500000     0.000000     0.000000     0.000000     0.500000
 
 Subroutine IBZKPT returns following result:
 ===========================================
 
 Found     48 irreducible k-points:
 
 Following reciprocal coordinates:
            Coordinates               Weight
  0.000000  0.000000  0.000000      1.000000
  0.111111 -0.000000  0.000000      6.000000
  0.222222 -0.000000  0.000000      6.000000
  0.333333 -0.000000  0.000000      6.000000
  0.444444 -0.000000  0.000000      6.000000
  0.111111  0.111111  0.000000      6.000000
  0.222222  0.111111  0.000000     12.000000
  0.333333  0.111111  0.000000     12.000000
  0.444444  0.111111  0.000000      6.000000
  0.222222  0.222222  0.000000      6.000000
  0.333333  0.222222  0.000000     12.000000
  0.333333  0.333333  0.000000      2.000000
  0.000000  0.000000  0.166667      2.000000
  0.111111 -0.000000  0.166667     12.000000
  0.222222 -0.000000  0.166667     12.000000
  0.333333 -0.000000  0.166667     12.000000
  0.444444 -0.000000  0.166667     12.000000
  0.111111  0.111111  0.166667     12.000000
  0.222222  0.111111  0.166667     24.000000
  0.333333  0.111111  0.166667     24.000000
  0.444444  0.111111  0.166667     12.000000
  0.222222  0.222222  0.166667     12.000000
  0.333333  0.222222  0.166667     24.000000
  0.333333  0.333333  0.166667      4.000000
  0.000000  0.000000  0.333333      2.000000
  0.111111 -0.000000  0.333333     12.000000
  0.222222 -0.000000  0.333333     12.000000
  0.333333 -0.000000  0.333333     12.000000
  0.444444 -0.000000  0.333333     12.000000
  0.111111  0.111111  0.333333     12.000000
  0.222222  0.111111  0.333333     24.000000
  0.333333  0.111111  0.333333     24.000000
  0.444444  0.111111  0.333333     12.000000
  0.222222  0.222222  0.333333     12.000000
  0.333333  0.222222  0.333333     24.000000
  0.333333  0.333333  0.333333      4.000000
  0.000000  0.000000  0.500000      1.000000
  0.111111 -0.000000  0.500000      6.000000
  0.222222 -0.000000  0.500000      6.000000
  0.333333 -0.000000  0.500000      6.000000
  0.444444 -0.000000  0.500000      6.000000
  0.111111  0.111111  0.500000      6.000000
  0.222222  0.111111  0.500000     12.000000
  0.333333  0.111111  0.500000     12.000000
  0.444444  0.111111  0.500000      6.000000
  0.222222  0.222222  0.500000      6.000000
  0.333333  0.222222  0.500000     12.000000
  0.333333  0.333333  0.500000      2.000000
 
 Following cartesian coordinates:
            Coordinates               Weight
  0.000000  0.000000  0.000000      1.000000
  0.111111  0.064150  0.000000      6.000000
  0.222222  0.128300  0.000000      6.000000
  0.333333  0.192450  0.000000      6.000000
  0.444444  0.256600  0.000000      6.000000
  0.111111  0.192450  0.000000      6.000000
  0.222222  0.256600  0.000000     12.000000
  0.333333  0.320750  0.000000     12.000000
  0.444444  0.384900  0.000000      6.000000
  0.222222  0.384900  0.000000      6.000000
  0.333333  0.449050  0.000000     12.000000
  0.333333  0.577350  0.000000      2.000000
  0.000000  0.000000  0.102062      2.000000
  0.111111  0.064150  0.102062     12.000000
  0.222222  0.128300  0.102062     12.000000
  0.333333  0.192450  0.102062     12.000000
  0.444444  0.256600  0.102062     12.000000
  0.111111  0.192450  0.102062     12.000000
  0.222222  0.256600  0.102062     24.000000
  0.333333  0.320750  0.102062     24.000000
  0.444444  0.384900  0.102062     12.000000
  0.222222  0.384900  0.102062     12.000000
  0.333333  0.449050  0.102062     24.000000
  0.333333  0.577350  0.102062      4.000000
  0.000000  0.000000  0.204124      2.000000
  0.111111  0.064150  0.204124     12.000000
  0.222222  0.128300  0.204124     12.000000
  0.333333  0.192450  0.204124     12.000000
  0.444444  0.256600  0.204124     12.000000
  0.111111  0.192450  0.204124     12.000000
  0.222222  0.256600  0.204124     24.000000
  0.333333  0.320750  0.204124     24.000000
  0.444444  0.384900  0.204124     12.000000
  0.222222  0.384900  0.204124     12.000000
  0.333333  0.449050  0.204124     24.000000
  0.333333  0.577350  0.204124      4.000000
  0.000000  0.000000  0.306186      1.000000
  0.111111  0.064150  0.306186      6.000000
  0.222222  0.128300  0.306186      6.000000
  0.333333  0.192450  0.306186      6.000000
  0.444444  0.256600  0.306186      6.000000
  0.111111  0.192450  0.306186      6.000000
  0.222222  0.256600  0.306186     12.000000
  0.333333  0.320750  0.306186     12.000000
  0.444444  0.384900  0.306186      6.000000
  0.222222  0.384900  0.306186      6.000000
  0.333333  0.449050  0.306186     12.000000
  0.333333  0.577350  0.306186      2.000000
 


--------------------------------------------------------------------------------------------------------




 Dimension of arrays:
   k-points           NKPTS =     48   k-points in BZ     NKDIM =     48   number of bands    NBANDS=     14
   number of dos      NEDOS =    301   number of ions     NIONS =      2
   non local maximal  LDIM  =      6   non local SUM 2l+1 LMDIM =     18
   total plane-waves  NPLWV =  14400
   max r-space proj   IRMAX =   7485   max aug-charges    IRDMAX= 224925
   dimension x,y,z NGX =    20 NGY =   20 NGZ =   36
   dimension x,y,z NGXF=    40 NGYF=   40 NGZF=   72
   support grid    NGXF=    80 NGYF=   80 NGZF=  144
   ions per type =               2
 NGX,Y,Z   is equivalent  to a cutoff of  11.87, 11.87, 13.09 a.u.
 NGXF,Y,Z  is equivalent  to a cutoff of  23.75, 23.75, 26.18 a.u.


 I would recommend the setting:
   dimension x,y,z NGX =    20 NGY =   20 NGZ =   33
 SYSTEM =  unknown system                          
 POSCAR =  Pt_hcp                                  

 Startparameter for this run:
   NWRITE =      1    write-flag & timer
   PREC   = accura    normal or accurate (medium, high low for compatibility)
   ISTART =      0    job   : 0-new  1-cont  2-samecut
   ICHARG =      2    charge: 1-file 2-atom 10-const
   ISPIN  =      1    spin polarized calculation?
   LNONCOLLINEAR =      F non collinear calculations
   LSORBIT =      F    spin-orbit coupling
   INIWAV =      1    electr: 0-lowe 1-rand  2-diag
   LASPH  =      F    aspherical Exc in radial PAW
   METAGGA=      F    non-selfconsistent MetaGGA calc.

 Electronic Relaxation 1
   ENCUT  =  500.0 eV  36.75 Ry    6.06 a.u.   5.11  5.11  8.34*2*pi/ulx,y,z
   ENINI  =  500.0     initial cutoff
   ENAUG  =  359.0 eV  augmentation charge cutoff
   NELM   =     60;   NELMIN=  4; NELMDL= -5     # of ELM steps 
   EDIFF  = 0.1E-04   stopping-criterion for ELM
   LREAL  =      T    real-space projection
   NLSPLINE    = F    spline interpolate recip. space projectors
   LCOMPAT=      F    compatible to vasp.4.4
   GGA_COMPAT  = T    GGA compatible to vasp.4.4-vasp.4.6
   LMAXPAW     = -100 max onsite density
   LMAXMIX     =    2 max onsite mixed and CHGCAR
   VOSKOWN=      0    Vosko Wilk Nusair interpolation
   ROPT   =   -0.00025
 Ionic relaxation
   EDIFFG = -.1E-01   stopping-criterion for IOM
   NSW    =     80    number of steps for IOM
   NBLOCK =      1;   KBLOCK =     80    inner block; outer block 
   IBRION =      1    ionic relax: 0-MD 1-quasi-New 2-CG
   NFREE  =      0    steps in history (QN), initial steepest desc. (CG)
   ISIF   =      3    stress and relaxation
   IWAVPR =     11    prediction:  0-non 1-charg 2-wave 3-comb
   ISYM   =      2    0-nonsym 1-usesym 2-fastsym
   LCORR  =      T    Harris-Foulkes like correction to forces

   POTIM  = 0.5000    time-step for ionic-motion
   TEIN   =    0.0    initial temperature
   TEBEG  =    0.0;   TEEND  =   0.0 temperature during run
   SMASS  =  -3.00    Nose mass-parameter (am)
   estimated Nose-frequenzy (Omega)   =  0.10E-29 period in steps =****** mass=  -0.179E-27a.u.
   SCALEE = 1.0000    scale energy and forces
   NPACO  =    256;   APACO  = 16.0  distance and # of slots for P.C.
   PSTRESS=    0.0 pullay stress

  Mass of Ions in am
   POMASS = 195.08
  Ionic Valenz
   ZVAL   =  10.00
  Atomic Wigner-Seitz radii
   RWIGS  =  -1.00
  virtual crystal weights 
   VCA    =   1.00
   NELECT =      20.0000    total number of electrons
   NUPDOWN=      -1.0000    fix difference up-down

 DOS related values:
   EMIN   =  10.00;   EMAX   =-10.00  energy-range for DOS
   EFERMI =   0.00
   ISMEAR =     0;   SIGMA  =   0.20  broadening in eV -4-tet -1-fermi 0-gaus

 Electronic relaxation 2 (details)
   IALGO  =     68    algorithm
   LDIAG  =      T    sub-space diagonalisation (order eigenvalues)
   LSUBROT=      F    optimize rotation matrix (better conditioning)
   TURBO    =      0    0=normal 1=particle mesh
   IRESTART =      0    0=no restart 2=restart with 2 vectors
   NREBOOT  =      0    no. of reboots
   NMIN     =      0    reboot dimension
   EREF     =   0.00    reference energy to select bands
   IMIX   =      4    mixing-type and parameters
     AMIX     =   0.40;   BMIX     =  1.00
     AMIX_MAG =   1.60;   BMIX_MAG =  1.00
     AMIN     =   0.10
     WC   =   100.;   INIMIX=   1;  MIXPRE=   1;  MAXMIX=  80

 Intra band minimization:
   WEIMIN = 0.0010     energy-eigenvalue tresh-hold
   EBREAK =  0.18E-06  absolut break condition
   DEPER  =   0.30     relativ break condition  

   TIME   =   0.40     timestep for ELM

  volume/ion in A,a.u.               =      15.52       104.75
  Fermi-wavevector in a.u.,A,eV,Ry     =   1.413910  2.671903 27.199975  1.999142
  Thomas-Fermi vector in A             =   2.535507
 
 Write flags
   LWAVE  =      T    write WAVECAR
   LCHARG =      T    write CHGCAR
   LVTOT  =      F    write LOCPOT, total local potential
   LVHAR  =      F    write LOCPOT, Hartree potential only
   LELF   =      F    write electronic localiz. function (ELF)
   LORBIT =      0    0 simple, 1 ext, 2 COOP (PROOUT)


 Dipole corrections
   LMONO  =      F    monopole corrections only (constant potential shift)
   LDIPOL =      F    correct potential (dipole corrections)
   IDIPOL =      0    1-x, 2-y, 3-z, 4-all directions 
   EPSILON=  1.0000000 bulk dielectric constant

 Exchange correlation treatment:
   GGA     =    --    GGA type
   LEXCH   =     8    internal setting for exchange type
   VOSKOWN=      0    Vosko Wilk Nusair interpolation
   LHFCALC =     F    Hartree Fock is set to
   LHFONE  =     F    Hartree Fock one center treatment
   AEXX    =    0.0000 exact exchange contribution

 Linear response parameters
   LEPSILON=     F    determine dielectric tensor
   LRPA    =     F    only Hartree local field effects (RPA)
   LNABLA  =     F    use nabla operator in PAW spheres
   LVEL    =     F    velocity operator in full k-point grid
   LINTERFAST=   F  fast interpolation
   KINTER  =     0    interpolate to denser k-point grid
   CSHIFT  =0.1000    complex shift for real part using Kramers Kronig
   OMEGAMAX=  -1.0    maximum frequency
   DEG_THRESHOLD= 0.2000000E-02 threshold for treating states as degnerate
   RTIME   =    0.100 relaxation time in fs

 Orbital magnetization related:
   ORBITALMAG=     F  switch on orbital magnetization
   LCHIMAG   =     F  perturbation theory with respect to B field
   DQ        =  0.001000  dq finite difference perturbation B field



--------------------------------------------------------------------------------------------------------


 quasi-Newton-method for relaxation of ions
 charge density and potential will be updated during run
 non-spin polarized calculation
 RMM-DIIS sequential band-by-band and
  variant of blocked Davidson during initial phase
 perform sub-space diagonalisation
    before iterative eigenvector-optimisation
 modified Broyden-mixing scheme, WC =      100.0
 initial mixing is a Kerker type mixing with AMIX =  0.4000 and BMIX =      1.0000
 Hartree-type preconditioning will be used
 using additional bands            4
 real space projection scheme for non local part
 use partial core corrections
 calculate Harris-corrections to forces 
   (improved forces if not selfconsistent)
 use gradient corrections 
 use of overlap-Matrix (Vanderbilt PP)
 Gauss-broadening in eV      SIGMA  =   0.20


--------------------------------------------------------------------------------------------------------


  energy-cutoff  :      500.00
  volume of cell :       31.04
      direct lattice vectors                 reciprocal lattice vectors
     2.800000000  0.000000000  0.000000000     0.357142857  0.206196526  0.000000000
    -1.400000000  2.424871120  0.000000000     0.000000000  0.412393051  0.000000000
     0.000000000  0.000000000  4.572380848     0.000000000  0.000000000  0.218704442

  length of vectors
     2.800000000  2.799999991  4.572380848     0.412393050  0.412393051  0.218704442


 
 k-points in units of 2pi/SCALE and weight: k-density: 4.0                          
   0.00000000  0.00000000  0.00000000       0.002
   0.11111111  0.06415003  0.00000000       0.012
   0.22222222  0.12830006  0.00000000       0.012
   0.33333333  0.19245009  0.00000000       0.012
   0.44444444  0.25660012  0.00000000       0.012
   0.11111111  0.19245009  0.00000000       0.012
   0.22222222  0.25660012  0.00000000       0.025
   0.33333333  0.32075015  0.00000000       0.025
   0.44444444  0.38490018  0.00000000       0.012
   0.22222222  0.38490018  0.00000000       0.012
   0.33333333  0.44905021  0.00000000       0.025
   0.33333333  0.57735027  0.00000000       0.004
   0.00000000  0.00000000  0.10206207       0.004
   0.11111111  0.06415003  0.10206207       0.025
   0.22222222  0.12830006  0.10206207       0.025
   0.33333333  0.19245009  0.10206207       0.025
   0.44444444  0.25660012  0.10206207       0.025
   0.11111111  0.19245009  0.10206207       0.025
   0.22222222  0.25660012  0.10206207       0.049
   0.33333333  0.32075015  0.10206207       0.049
   0.44444444  0.38490018  0.10206207       0.025
   0.22222222  0.38490018  0.10206207       0.025
   0.33333333  0.44905021  0.10206207       0.049
   0.33333333  0.57735027  0.10206207       0.008
   0.00000000  0.00000000  0.20412415       0.004
   0.11111111  0.06415003  0.20412415       0.025
   0.22222222  0.12830006  0.20412415       0.025
   0.33333333  0.19245009  0.20412415       0.025
   0.44444444  0.25660012  0.20412415       0.025
   0.11111111  0.19245009  0.20412415       0.025
   0.22222222  0.25660012  0.20412415       0.049
   0.33333333  0.32075015  0.20412415       0.049
   0.44444444  0.38490018  0.20412415       0.025
   0.22222222  0.38490018  0.20412415       0.025
   0.33333333  0.44905021  0.20412415       0.049
   0.33333333  0.57735027  0.20412415       0.008
   0.00000000  0.00000000  0.30618622       0.002
   0.11111111  0.06415003  0.30618622       0.012
   0.22222222  0.12830006  0.30618622       0.012
   0.33333333  0.19245009  0.30618622       0.012
   0.44444444  0.25660012  0.30618622       0.012
   0.11111111  0.19245009  0.30618622       0.012
   0.22222222  0.25660012  0.30618622       0.025
   0.33333333  0.32075015  0.30618622       0.025
   0.44444444  0.38490018  0.30618622       0.012
   0.22222222  0.38490018  0.30618622       0.012
   0.33333333  0.44905021  0.30618622       0.025
   0.33333333  0.57735027  0.30618622       0.004
 
 k-points in reciprocal lattice and weights: k-density: 4.0                          
   0.00000000  0.00000000  0.00000000       0.002
   0.11111111 -0.00000000  0.00000000       0.012
   0.22222222 -0.00000000  0.00000000       0.012
   0.33333333 -0.00000000  0.00000000       0.012
   0.44444444 -0.00000000  0.00000000       0.012
   0.11111111  0.11111111  0.00000000       0.012
   0.22222222  0.11111111  0.00000000       0.025
   0.33333333  0.11111111  0.00000000       0.025
   0.44444444  0.11111111  0.00000000       0.012
   0.22222222  0.22222222  0.00000000       0.012
   0.33333333  0.22222222  0.00000000       0.025
   0.33333333  0.33333333  0.00000000       0.004
   0.00000000  0.00000000  0.16666667       0.004
   0.11111111 -0.00000000  0.16666667       0.025
   0.22222222 -0.00000000  0.16666667       0.025
   0.33333333 -0.00000000  0.16666667       0.025
   0.44444444 -0.00000000  0.16666667       0.025
   0.11111111  0.11111111  0.16666667       0.025
   0.22222222  0.11111111  0.16666667       0.049
   0.33333333  0.11111111  0.16666667       0.049
   0.44444444  0.11111111  0.16666667       0.025
   0.22222222  0.22222222  0.16666667       0.025
   0.33333333  0.22222222  0.16666667       0.049
   0.33333333  0.33333333  0.16666667       0.008
   0.00000000  0.00000000  0.33333333       0.004
   0.11111111 -0.00000000  0.33333333       0.025
   0.22222222 -0.00000000  0.33333333       0.025
   0.33333333 -0.00000000  0.33333333       0.025
   0.44444444 -0.00000000  0.33333333       0.025
   0.11111111  0.11111111  0.33333333       0.025
   0.22222222  0.11111111  0.33333333       0.049
   0.33333333  0.11111111  0.33333333       0.049
   0.44444444  0.11111111  0.33333333       0.025
   0.22222222  0.22222222  0.33333333       0.025
   0.33333333  0.22222222  0.33333333       0.049
   0.33333333  0.33333333  0.33333333       0.008
   0.00000000  0.00000000  0.50000000       0.002
   0.11111111 -0.00000000  0.50000000       0.012
   0.22222222 -0.00000000  0.50000000       0.012
   0.33333333 -0.00000000  0.50000000       0.012
   0.44444444 -0.00000000  0.50000000       0.012
   0.11111111  0.11111111  0.50000000       0.012
   0.22222222  0.11111111  0.50000000       0.025
   0.33333333  0.11111111  0.50000000       0.025
   0.44444444  0.11111111  0.50000000       0.012
   0.22222222  0.22222222  0.50000000       0.012
   0.33333333  0.22222222  0.50000000       0.025
   0.33333333  0.33333333  0.50000000       0.004
 
 position of ions in fractional coordinates (direct lattice) 
   0.33333333  0.66666667  0.25000000
   0.66666667  0.33333333  0.75000000
 
 position of ions in cartesian coordinates  (Angst):
  -0.00000001  1.61658075  1.14309521
   1.40000001  0.80829037  3.42928564
 


--------------------------------------------------------------------------------------------------------


 k-point  1 :   0.0000 0.0000 0.0000  plane waves:     785
 k-point  2 :   0.1111-0.0000 0.0000  plane waves:     783
 k-point  3 :   0.2222-0.0000 0.0000  plane waves:     781
 k-point  4 :   0.3333-0.0000 0.0000  plane waves:     799
 k-point  5 :   0.4444-0.0000 0.0000  plane waves:     788
 k-point  6 :   0.1111 0.1111 0.0000  plane waves:     779
 k-point  7 :   0.2222 0.1111 0.0000  plane waves:     793
 k-point  8 :   0.3333 0.1111 0.0000  plane waves:     792
 k-point  9 :   0.4444 0.1111 0.0000  plane waves:     791
 k-point 10 :   0.2222 0.2222 0.0000  plane waves:     789
 k-point 11 :   0.3333 0.2222 0.0000  plane waves:     784
 k-point 12 :   0.3333 0.3333 0.0000  plane waves:     801
 k-point 13 :   0.0000 0.0000 0.1667  plane waves:     773
 k-point 14 :   0.1111-0.0000 0.1667  plane waves:     774
 k-point 15 :   0.2222-0.0000 0.1667  plane waves:     786
 k-point 16 :   0.3333-0.0000 0.1667  plane waves:     789
 k-point 17 :   0.4444-0.0000 0.1667  plane waves:     789
 k-point 18 :   0.1111 0.1111 0.1667  plane waves:     777
 k-point 19 :   0.2222 0.1111 0.1667  plane waves:     791
 k-point 20 :   0.3333 0.1111 0.1667  plane waves:     792
 k-point 21 :   0.4444 0.1111 0.1667  plane waves:     797
 k-point 22 :   0.2222 0.2222 0.1667  plane waves:     788
 k-point 23 :   0.3333 0.2222 0.1667  plane waves:     794
 k-point 24 :   0.3333 0.3333 0.1667  plane waves:     789
 k-point 25 :   0.0000 0.0000 0.3333  plane waves:     797
 k-point 26 :   0.1111-0.0000 0.3333  plane waves:     776
 k-point 27 :   0.2222-0.0000 0.3333  plane waves:     781
 k-point 28 :   0.3333-0.0000 0.3333  plane waves:     784
 k-point 29 :   0.4444-0.0000 0.3333  plane waves:     788
 k-point 30 :   0.1111 0.1111 0.3333  plane waves:     780
 k-point 31 :   0.2222 0.1111 0.3333  plane waves:     789
 k-point 32 :   0.3333 0.1111 0.3333  plane waves:     791
 k-point 33 :   0.4444 0.1111 0.3333  plane waves:     790
 k-point 34 :   0.2222 0.2222 0.3333  plane waves:     790
 k-point 35 :   0.3333 0.2222 0.3333  plane waves:     790
 k-point 36 :   0.3333 0.3333 0.3333  plane waves:     795
 k-point 37 :   0.0000 0.0000 0.5000  plane waves:     784
 k-point 38 :   0.1111-0.0000 0.5000  plane waves:     784
 k-point 39 :   0.2222-0.0000 0.5000  plane waves:     786
 k-point 40 :   0.3333-0.0000 0.5000  plane waves:     792
 k-point 41 :   0.4444-0.0000 0.5000  plane waves:     792
 k-point 42 :   0.1111 0.1111 0.5000  plane waves:     778
 k-point 43 :   0.2222 0.1111 0.5000  plane waves:     782
 k-point 44 :   0.3333 0.1111 0.5000  plane waves:     792
 k-point 45 :   0.4444 0.1111 0.5000  plane waves:     788
 k-point 46 :   0.2222 0.2222 0.5000  plane waves:     790
 k-point 47 :   0.3333 0.2222 0.5000  plane waves:     790
 k-point 48 :   0.3333 0.3333 0.5000  plane waves:     780

 maximum and minimum number of plane-waves per node :       409      377

 maximum number of plane-waves:       801
 maximum index in each direction: 
   IXMAX=    5   IYMAX=    5   IZMAX=    8
   IXMIN=   -5   IYMIN=   -5   IZMIN=   -8

 WARNING: aliasing errors must be expected set NGX to  22 to avoid them
 WARNING: aliasing errors must be expected set NGY to  22 to avoid them
 NGZ is ok and might be reduce to  34
 aliasing errors are usually negligible using standard VASP settings
 and one can safely disregard these warnings

 real space projection operators:
  total allocation   :       2029.22 KBytes
  max/ min on nodes  :       1017.28       1011.94


 parallel 3D FFT for wavefunctions:
    minimum data exchange during FFTs selected (reduces bandwidth)
 parallel 3D FFT for charge:
    minimum data exchange during FFTs selected (reduces bandwidth)


 total amount of memory used by VASP on root node    39929. kBytes
========================================================================

   base      :      30000. kBytes
   nonlr-proj:       1503. kBytes
   fftplans  :       4465. kBytes
   grid      :       1699. kBytes
   one-center:         15. kBytes
   wavefun   :       2247. kBytes
 
     INWAV:  cpu time    0.0000: real time    0.0003
 Broyden mixing: mesh for mixing (old mesh)
   NGX = 11   NGY = 11   NGZ = 17
  (NGX  = 40   NGY  = 40   NGZ  = 72)
  gives a total of   2057 points

 initial charge density was supplied:
 charge density of overlapping atoms calculated
 number of electron      20.0000000 magnetization 
 keeping initial charge density in first step


--------------------------------------------------------------------------------------------------------


 Maximum index for non-local projection operator         3617
 Maximum index for augmentation-charges        54584 (set IRDMAX)


--------------------------------------------------------------------------------------------------------


 First call to EWALD:  gamma=   0.564
 Maximum number of real-space cells 3x 3x 2
 Maximum number of reciprocal cells 3x 3x 4

 FEWALD executed in parallel
    FEWALD:  cpu time    0.0000: real time    0.0015


----------------------------------------- Iteration    1(   1)  ---------------------------------------


    POTLOK:  cpu time    0.0160: real time    0.0163
    SETDIJ:  cpu time    0.0450: real time    0.0456
     EDDAV:  cpu time    0.5249: real time    0.5269
       DOS:  cpu time    0.0010: real time    0.0014
    --------------------------------------------
      LOOP:  cpu time    0.5899: real time    0.6463

 eigenvalue-minimisations  :  1344
 total energy-change (2. order) : 0.1939220E+03  (-0.9633579E+03)
 number of electron      20.0000000 magnetization 
 augmentation part       20.0000000 magnetization 

 Free energy of the ion-electron system (eV)
  ---------------------------------------------------
  alpha Z        PSCENC =       187.46483179
  Ewald energy   TEWEN  =     -1667.21697352
  -Hartree energ DENC   =      -148.23736221
  -exchange      EXHF   =         0.00000000
  -V(xc)+E(xc)   XCENC  =         7.36840036
  PAW double counting   =      1146.49098650    -1089.92424116
  entropy T*S    EENTRO =        -0.03281374
  eigenvalues    EBANDS =       299.78286754
  atomic energy  EATOM  =      1458.22633362
  Solvation  Ediel_sol  =         0.00000000
  ---------------------------------------------------
  free energy    TOTEN  =       193.92202918 eV

  energy without entropy =      193.95484292  energy(sigma->0) =      193.93843605


--------------------------------------------------------------------------------------------------------




----------------------------------------- Iteration    1(   2)  ---------------------------------------


     EDDAV:  cpu time    0.5199: real time    0.5200
       DOS:  cpu time    0.0020: real time    0.0014
    --------------------------------------------
      LOOP:  cpu time    0.5219: real time    0.5252

 eigenvalue-minimisations  :  1356
 total energy-change (2. order) :-0.1984812E+03  (-0.1849148E+03)
 number of electron      20.0000000 magnetization 
 augmentation part       20.0000000 magnetization 

 Free energy of the ion-electron system (eV)
  ---------------------------------------------------
  alpha Z        PSCENC =       187.46483179
  Ewald energy   TEWEN  =     -1667.21697352
  -Hartree energ DENC   =      -148.23736221
  -exchange      EXHF   =         0.00000000
  -V(xc)+E(xc)   XCENC  =         7.36840036
  PAW double counting   =      1146.49098650    -1089.92424116
  entropy T*S    EENTRO =        -0.04046247
  eigenvalues    EBANDS =       101.30928399
  atomic energy  EATOM  =      1458.22633362
  Solvation  Ediel_sol  =         0.00000000
  ---------------------------------------------------
  free energy    TOTEN  =        -4.55920310 eV

  energy without entropy =       -4.51874063  energy(sigma->0) =       -4.53897186


--------------------------------------------------------------------------------------------------------




----------------------------------------- Iteration    1(   3)  ---------------------------------------


     EDDAV:  cpu time    0.6529: real time    0.6537
       DOS:  cpu time    0.0020: real time    0.0014
    --------------------------------------------
      LOOP:  cpu time    0.6559: real time    0.6609

 eigenvalue-minimisations  :  1786
 total energy-change (2. order) :-0.8034492E+01  (-0.7684498E+01)
 number of electron      20.0000000 magnetization 
 augmentation part       20.0000000 magnetization 

 Free energy of the ion-electron system (eV)
  ---------------------------------------------------
  alpha Z        PSCENC =       187.46483179
  Ewald energy   TEWEN  =     -1667.21697352
  -Hartree energ DENC   =      -148.23736221
  -exchange      EXHF   =         0.00000000
  -V(xc)+E(xc)   XCENC  =         7.36840036
  PAW double counting   =      1146.49098650    -1089.92424116
  entropy T*S    EENTRO =        -0.09221760
  eigenvalues    EBANDS =        93.32654731
  atomic energy  EATOM  =      1458.22633362
  Solvation  Ediel_sol  =         0.00000000
  ---------------------------------------------------
  free energy    TOTEN  =       -12.59369492 eV

  energy without entropy =      -12.50147732  energy(sigma->0) =      -12.54758612


--------------------------------------------------------------------------------------------------------




----------------------------------------- Iteration    1(   4)  ---------------------------------------


     EDDAV:  cpu time    0.5599: real time    0.5602
       DOS:  cpu time    0.0020: real time    0.0014
    --------------------------------------------
      LOOP:  cpu time    0.5619: real time    0.5667

 eigenvalue-minimisations  :  1472
 total energy-change (2. order) :-0.1251957E+00  (-0.1244739E+00)
 number of electron      20.0000000 magnetization 
 augmentation part       20.0000000 magnetization 

 Free energy of the ion-electron system (eV)
  ---------------------------------------------------
  alpha Z        PSCENC =       187.46483179
  Ewald energy   TEWEN  =     -1667.21697352
  -Hartree energ DENC   =      -148.23736221
  -exchange      EXHF   =         0.00000000
  -V(xc)+E(xc)   XCENC  =         7.36840036
  PAW double counting   =      1146.49098650    -1089.92424116
  entropy T*S    EENTRO =        -0.09158833
  eigenvalues    EBANDS =        93.20072238
  atomic energy  EATOM  =      1458.22633362
  Solvation  Ediel_sol  =         0.00000000
  ---------------------------------------------------
  free energy    TOTEN  =       -12.71889058 eV

  energy without entropy =      -12.62730225  energy(sigma->0) =      -12.67309641


--------------------------------------------------------------------------------------------------------




----------------------------------------- Iteration    1(   5)  ---------------------------------------


     EDDAV:  cpu time    0.6469: real time    0.6474
       DOS:  cpu time    0.0020: real time    0.0015
    CHARGE:  cpu time    0.0700: real time    0.0715
    MIXING:  cpu time    0.0010: real time    0.0007
    --------------------------------------------
      LOOP:  cpu time    0.7209: real time    0.7266

 eigenvalue-minimisations  :  1760
 total energy-change (2. order) :-0.2573639E-02  (-0.2573290E-02)
 number of electron      20.0000000 magnetization 
 augmentation part        5.8941378 magnetization 

 Broyden mixing:
  rms(total) = 0.50384E+00    rms(broyden)= 0.50384E+00
  rms(prec ) = 0.11239E+01
  weight for this iteration     100.00

 Free energy of the ion-electron system (eV)
  ---------------------------------------------------
  alpha Z        PSCENC =       187.46483179
  Ewald energy   TEWEN  =     -1667.21697352
  -Hartree energ DENC   =      -148.23736221
  -exchange      EXHF   =         0.00000000
  -V(xc)+E(xc)   XCENC  =         7.36840036
  PAW double counting   =      1146.49098650    -1089.92424116
  entropy T*S    EENTRO =        -0.09159476
  eigenvalues    EBANDS =        93.19815517
  atomic energy  EATOM  =      1458.22633362
  Solvation  Ediel_sol  =         0.00000000
  ---------------------------------------------------
  free energy    TOTEN  =       -12.72146422 eV

  energy without entropy =      -12.62986946  energy(sigma->0) =      -12.67566684


--------------------------------------------------------------------------------------------------------




----------------------------------------- Iteration    1(   6)  ---------------------------------------


    POTLOK:  cpu time    0.0160: real time    0.0161
    SETDIJ:  cpu time    0.0470: real time    0.0461
    EDDIAG:  cpu time    0.0680: real time    0.0687
  RMM-DIIS:  cpu time    0.3589: real time    0.3592
    ORTHCH:  cpu time    0.0060: real time    0.0060
       DOS:  cpu time    0.0020: real time    0.0015
    CHARGE:  cpu time    0.0690: real time    0.0698
    MIXING:  cpu time    0.0010: real time    0.0009
    --------------------------------------------
      LOOP:  cpu time    0.5679: real time    0.5723

 eigenvalue-minimisations  :  1344
 total energy-change (2. order) : 0.6480934E+00  (-0.1218939E+00)
 number of electron      20.0000000 magnetization 
 augmentation part        6.1551448 magnetization 

 Broyden mixing:
  rms(total) = 0.15900E+00    rms(broyden)= 0.15900E+00
  rms(prec ) = 0.35697E+00
  weight for this iteration     100.00

 eigenvalues of (default mixing * dielectric matrix)
  average eigenvalue GAMMA=   1.3998
  1.3998

 Free energy of the ion-electron system (eV)
  ---------------------------------------------------
  alpha Z        PSCENC =       187.46483179
  Ewald energy   TEWEN  =     -1667.21697352
  -Hartree energ DENC   =      -134.81049040
  -exchange      EXHF   =         0.00000000
  -V(xc)+E(xc)   XCENC  =         6.87364751
  PAW double counting   =      1151.20630464    -1097.25350456
  entropy T*S    EENTRO =        -0.09496487
  eigenvalues    EBANDS =        83.53144495
  atomic energy  EATOM  =      1458.22633362
  Solvation  Ediel_sol  =         0.00000000
  ---------------------------------------------------
  free energy    TOTEN  =       -12.07337084 eV

  energy without entropy =      -11.97840597  energy(sigma->0) =      -12.02588841


--------------------------------------------------------------------------------------------------------




----------------------------------------- Iteration    1(   7)  ---------------------------------------


    POTLOK:  cpu time    0.0160: real time    0.0160
    SETDIJ:  cpu time    0.0460: real time    0.0464
    EDDIAG:  cpu time    0.0680: real time    0.0680
  RMM-DIIS:  cpu time    0.3589: real time    0.3590
    ORTHCH:  cpu time    0.0070: real time    0.0060
       DOS:  cpu time    0.0010: real time    0.0014
    CHARGE:  cpu time    0.0690: real time    0.0692
    MIXING:  cpu time    0.0010: real time    0.0006
    --------------------------------------------
      LOOP:  cpu time    0.5679: real time    0.5723

 eigenvalue-minimisations  :  1345
 total energy-change (2. order) : 0.6046952E-01  (-0.3505321E-01)
 number of electron      20.0000000 magnetization 
 augmentation part        6.2738093 magnetization 

 Broyden mixing:
  rms(total) = 0.36874E-01    rms(broyden)= 0.36873E-01
  rms(prec ) = 0.50046E-01
  weight for this iteration     100.00

 eigenvalues of (default mixing * dielectric matrix)
  average eigenvalue GAMMA=   1.6745
  1.5627  1.7863

 Free energy of the ion-electron system (eV)
  ---------------------------------------------------
  alpha Z        PSCENC =       187.46483179
  Ewald energy   TEWEN  =     -1667.21697352
  -Hartree energ DENC   =      -128.94444717
  -exchange      EXHF   =         0.00000000
  -V(xc)+E(xc)   XCENC  =         6.66198603
  PAW double counting   =      1166.71133486    -1114.44569297
  entropy T*S    EENTRO =        -0.09536487
  eigenvalues    EBANDS =        79.62509090
  atomic energy  EATOM  =      1458.22633362
  Solvation  Ediel_sol  =         0.00000000
  ---------------------------------------------------
  free energy    TOTEN  =       -12.01290132 eV

  energy without entropy =      -11.91753645  energy(sigma->0) =      -11.96521889


--------------------------------------------------------------------------------------------------------




----------------------------------------- Iteration    1(   8)  ---------------------------------------


    POTLOK:  cpu time    0.0150: real time    0.0159
    SETDIJ:  cpu time    0.0470: real time    0.0468
    EDDIAG:  cpu time    0.0680: real time    0.0683
  RMM-DIIS:  cpu time    0.3589: real time    0.3590
    ORTHCH:  cpu time    0.0060: real time    0.0060
       DOS:  cpu time    0.0020: real time    0.0015
    CHARGE:  cpu time    0.0700: real time    0.0694
    MIXING:  cpu time    0.0000: real time    0.0008
    --------------------------------------------
      LOOP:  cpu time    0.5679: real time    0.5719

 eigenvalue-minimisations  :  1346
 total energy-change (2. order) : 0.7637831E-02  (-0.1249881E-02)
 number of electron      20.0000000 magnetization 
 augmentation part        6.2568421 magnetization 

 Broyden mixing:
  rms(total) = 0.11782E-01    rms(broyden)= 0.11782E-01
  rms(prec ) = 0.24975E-01
  weight for this iteration     100.00

 eigenvalues of (default mixing * dielectric matrix)
  average eigenvalue GAMMA=   1.6559
  1.2267  1.2267  2.5142

 Free energy of the ion-electron system (eV)
  ---------------------------------------------------
  alpha Z        PSCENC =       187.46483179
  Ewald energy   TEWEN  =     -1667.21697352
  -Hartree energ DENC   =      -129.27230760
  -exchange      EXHF   =         0.00000000
  -V(xc)+E(xc)   XCENC  =         6.67012186
  PAW double counting   =      1185.36738137    -1133.69076831
  entropy T*S    EENTRO =        -0.09495637
  eigenvalues    EBANDS =        80.54107368
  atomic energy  EATOM  =      1458.22633362
  Solvation  Ediel_sol  =         0.00000000
  ---------------------------------------------------
  free energy    TOTEN  =       -12.00526349 eV

  energy without entropy =      -11.91030712  energy(sigma->0) =      -11.95778531


--------------------------------------------------------------------------------------------------------




----------------------------------------- Iteration    1(   9)  ---------------------------------------


    POTLOK:  cpu time    0.0160: real time    0.0159
    SETDIJ:  cpu time    0.0460: real time    0.0464
    EDDIAG:  cpu time    0.0680: real time    0.0680
  RMM-DIIS:  cpu time    0.3569: real time    0.3583
    ORTHCH:  cpu time    0.0060: real time    0.0061
       DOS:  cpu time    0.0020: real time    0.0015
    CHARGE:  cpu time    0.0700: real time    0.0697
    MIXING:  cpu time    0.0010: real time    0.0007
    --------------------------------------------
      LOOP:  cpu time    0.5669: real time    0.5718

 eigenvalue-minimisations  :  1348
 total energy-change (2. order) : 0.3174039E-03  (-0.1851922E-03)
 number of electron      20.0000000 magnetization 
 augmentation part        6.2631421 magnetization 

 Broyden mixing:
  rms(total) = 0.23267E-02    rms(broyden)= 0.23264E-02
  rms(prec ) = 0.27005E-02
  weight for this iteration     100.00

 eigenvalues of (default mixing * dielectric matrix)
  average eigenvalue GAMMA=   1.9531
  2.7206  2.7206  1.0243  1.3468

 Free energy of the ion-electron system (eV)
  ---------------------------------------------------
  alpha Z        PSCENC =       187.46483179
  Ewald energy   TEWEN  =     -1667.21697352
  -Hartree energ DENC   =      -128.80762849
  -exchange      EXHF   =         0.00000000
  -V(xc)+E(xc)   XCENC  =         6.65292750
  PAW double counting   =      1190.95834220    -1139.52885880
  entropy T*S    EENTRO =        -0.09498635
  eigenvalues    EBANDS =        80.34106597
  atomic energy  EATOM  =      1458.22633362
  Solvation  Ediel_sol  =         0.00000000
  ---------------------------------------------------
  free energy    TOTEN  =       -12.00494609 eV

  energy without entropy =      -11.90995974  energy(sigma->0) =      -11.95745291


--------------------------------------------------------------------------------------------------------




----------------------------------------- Iteration    1(  10)  ---------------------------------------


    POTLOK:  cpu time    0.0160: real time    0.0160
    SETDIJ:  cpu time    0.0460: real time    0.0459
    EDDIAG:  cpu time    0.0670: real time    0.0680
  RMM-DIIS:  cpu time    0.3569: real time    0.3568
    ORTHCH:  cpu time    0.0070: real time    0.0060
       DOS:  cpu time    0.0010: real time    0.0014
    CHARGE:  cpu time    0.0690: real time    0.0695
    MIXING:  cpu time    0.0020: real time    0.0007
    --------------------------------------------
      LOOP:  cpu time    0.5649: real time    0.5686

 eigenvalue-minimisations  :  1346
 total energy-change (2. order) :-0.3744869E-04  (-0.2979919E-04)
 number of electron      20.0000000 magnetization 
 augmentation part        6.2663673 magnetization 

 Broyden mixing:
  rms(total) = 0.31879E-02    rms(broyden)= 0.31879E-02
  rms(prec ) = 0.62724E-02
  weight for this iteration     100.00

 eigenvalues of (default mixing * dielectric matrix)
  average eigenvalue GAMMA=   1.6696
  2.7753  2.2612  1.1758  1.1758  0.9597

 Free energy of the ion-electron system (eV)
  ---------------------------------------------------
  alpha Z        PSCENC =       187.46483179
  Ewald energy   TEWEN  =     -1667.21697352
  -Hartree energ DENC   =      -128.77739500
  -exchange      EXHF   =         0.00000000
  -V(xc)+E(xc)   XCENC  =         6.65170249
  PAW double counting   =      1191.75754660    -1140.28695851
  entropy T*S    EENTRO =        -0.09500575
  eigenvalues    EBANDS =        80.27093476
  atomic energy  EATOM  =      1458.22633362
  Solvation  Ediel_sol  =         0.00000000
  ---------------------------------------------------
  free energy    TOTEN  =       -12.00498353 eV

  energy without entropy =      -11.90997778  energy(sigma->0) =      -11.95748066


--------------------------------------------------------------------------------------------------------




----------------------------------------- Iteration    1(  11)  ---------------------------------------


    POTLOK:  cpu time    0.0160: real time    0.0161
    SETDIJ:  cpu time    0.0460: real time    0.0459
    EDDIAG:  cpu time    0.0680: real time    0.0680
  RMM-DIIS:  cpu time    0.3589: real time    0.3594
    ORTHCH:  cpu time    0.0070: real time    0.0060
       DOS:  cpu time    0.0010: real time    0.0014
    CHARGE:  cpu time    0.0690: real time    0.0692
    MIXING:  cpu time    0.0010: real time    0.0008
    --------------------------------------------
      LOOP:  cpu time    0.5669: real time    0.5719

 eigenvalue-minimisations  :  1345
 total energy-change (2. order) : 0.2338195E-04  (-0.1066864E-04)
 number of electron      20.0000000 magnetization 
 augmentation part        6.2638103 magnetization 

 Broyden mixing:
  rms(total) = 0.17369E-03    rms(broyden)= 0.17365E-03
  rms(prec ) = 0.34591E-03
  weight for this iteration     100.00

 eigenvalues of (default mixing * dielectric matrix)
  average eigenvalue GAMMA=   1.6785
  2.7755  2.4523  1.5348  1.0082  1.1501  1.1501

 Free energy of the ion-electron system (eV)
  ---------------------------------------------------
  alpha Z        PSCENC =       187.46483179
  Ewald energy   TEWEN  =     -1667.21697352
  -Hartree energ DENC   =      -128.86395517
  -exchange      EXHF   =         0.00000000
  -V(xc)+E(xc)   XCENC  =         6.65461266
  PAW double counting   =      1192.26521307    -1140.80127627
  entropy T*S    EENTRO =        -0.09497573
  eigenvalues    EBANDS =        80.36122941
  atomic energy  EATOM  =      1458.22633362
  Solvation  Ediel_sol  =         0.00000000
  ---------------------------------------------------
  free energy    TOTEN  =       -12.00496015 eV

  energy without entropy =      -11.90998442  energy(sigma->0) =      -11.95747229


--------------------------------------------------------------------------------------------------------




----------------------------------------- Iteration    1(  12)  ---------------------------------------


    POTLOK:  cpu time    0.0150: real time    0.0159
    SETDIJ:  cpu time    0.0470: real time    0.0459
    EDDIAG:  cpu time    0.0670: real time    0.0679
  RMM-DIIS:  cpu time    0.2320: real time    0.2316
    ORTHCH:  cpu time    0.0060: real time    0.0060
       DOS:  cpu time    0.0010: real time    0.0015
    --------------------------------------------
      LOOP:  cpu time    0.3689: real time    0.3736

 eigenvalue-minimisations  :   750
 total energy-change (2. order) : 0.7459862E-06  (-0.3318182E-06)
 number of electron      20.0000000 magnetization 
 augmentation part        6.2638103 magnetization 

 Free energy of the ion-electron system (eV)
  ---------------------------------------------------
  alpha Z        PSCENC =       187.46483179
  Ewald energy   TEWEN  =     -1667.21697352
  -Hartree energ DENC   =      -128.85792037
  -exchange      EXHF   =         0.00000000
  -V(xc)+E(xc)   XCENC  =         6.65439524
  PAW double counting   =      1192.17260348    -1140.70613026
  entropy T*S    EENTRO =        -0.09497992
  eigenvalues    EBANDS =        80.35288054
  atomic energy  EATOM  =      1458.22633362
  Solvation  Ediel_sol  =         0.00000000
  ---------------------------------------------------
  free energy    TOTEN  =       -12.00495941 eV

  energy without entropy =      -11.90997949  energy(sigma->0) =      -11.95746945


--------------------------------------------------------------------------------------------------------




 average (electrostatic) potential at core
  the test charge radii are     1.2059
  (the norm of the test charge is              1.0000)
       1 -49.2521       2 -49.2521
 
 
 
 E-fermi :   7.4718     XC(G=0): -13.3143     alpha+bet :-12.8796


 k-point     1 :       0.0000    0.0000    0.0000
  band No.  band energies     occupation 
      1      -2.4361      2.00000
      2       0.4285      2.00000
      3       3.8427      2.00000
      4       3.9774      2.00000
      5       3.9774      2.00000
      6       4.4582      2.00000
      7       4.4582      2.00000
      8       5.1732      2.00000
      9       5.1732      2.00000
     10       7.1219      1.98663
     11       7.1847      1.95761
     12       7.1847      1.95761
     13      13.0320      0.00000
     14      22.8678      0.00000

 k-point     2 :       0.1111   -0.0000    0.0000
  band No.  band energies     occupation 
      1      -2.0129      2.00000
      2       0.7837      2.00000
      3       3.4645      2.00000
      4       4.2158      2.00000
      5       4.3025      2.00000
      6       4.3837      2.00000
      7       4.6888      2.00000
      8       4.7599      2.00000
      9       4.9623      2.00000
     10       5.5115      2.00000
     11       7.2896      1.80222
     12       9.4535      0.00000
     13      12.9916      0.00000
     14      23.1889      0.00000

 k-point     3 :       0.2222   -0.0000    0.0000
  band No.  band energies     occupation 
      1      -0.8794      2.00000
      2       1.4591      2.00000
      3       3.1344      2.00000
      4       3.3261      2.00000
      5       3.8885      2.00000
      6       4.5177      2.00000
      7       4.9204      2.00000
      8       5.1138      2.00000
      9       5.2068      2.00000
     10       5.5899      2.00000
     11       7.4680      1.02132
     12      11.9907      0.00000
     13      12.9309      0.00000
     14      20.3365      0.00000

 k-point     4 :       0.3333   -0.0000    0.0000
  band No.  band energies     occupation 
      1       0.3952      2.00000
      2       1.3860      2.00000
      3       2.2485      2.00000
      4       3.5389      2.00000
      5       4.1004      2.00000
      6       4.1388      2.00000
      7       4.5105      2.00000
      8       6.4231      2.00000
      9       6.4911      2.00000
     10       6.7010      2.00000
     11       7.5866      0.41690
     12      13.1954      0.00000
     13      14.5283      0.00000
     14      16.0769      0.00000

 k-point     5 :       0.4444   -0.0000    0.0000
  band No.  band energies     occupation 
      1       0.9520      2.00000
      2       1.0893      2.00000
      3       1.6878      2.00000
      4       3.8594      2.00000
      5       4.2718      2.00000
      6       4.3021      2.00000
      7       4.6539      2.00000
      8       7.3435      1.63540
      9       7.6235      0.28340
     10       7.6351      0.24809
     11       8.6641      0.00000
     12      12.1807      0.00000
     13      14.4823      0.00000
     14      16.5310      0.00000

 k-point     6 :       0.1111    0.1111    0.0000
  band No.  band energies     occupation 
      1      -1.2220      2.00000
      2       1.3732      2.00000
      3       3.0437      2.00000
      4       3.7681      2.00000
      5       4.0248      2.00000
      6       4.4112      2.00000
      7       4.6499      2.00000
      8       4.9882      2.00000
      9       5.2265      2.00000
     10       5.4542      2.00000
     11       7.3722      1.51876
     12      11.3226      0.00000
     13      12.9435      0.00000
     14      22.3500      0.00000

 k-point     7 :       0.2222    0.1111    0.0000
  band No.  band energies     occupation 
      1       0.0858      2.00000
      2       1.8189      2.00000
      3       2.6588      2.00000
      4       2.8981      2.00000
      5       3.9320      2.00000
      6       3.9701      2.00000
      7       4.8424      2.00000
      8       5.3469      2.00000
      9       6.1671      2.00000
     10       6.7058      2.00000
     11       7.4432      1.16010
     12      13.0690      0.00000
     13      13.7467      0.00000
     14      18.1587      0.00000

 k-point     8 :       0.3333    0.1111    0.0000
  band No.  band energies     occupation 
      1       1.0896      2.00000
      2       1.4912      2.00000
      3       1.9112      2.00000
      4       3.5763      2.00000
      5       3.7635      2.00000
      6       4.3992      2.00000
      7       4.4385      2.00000
      8       6.5088      2.00000
      9       7.1949      1.94974
     10       7.4817      0.94381
     11       8.2868      0.00000
     12      13.7889      0.00000
     13      14.2327      0.00000
     14      16.1314      0.00000

 k-point     9 :       0.4444    0.1111    0.0000
  band No.  band energies     occupation 
      1       1.3015      2.00000
      2       1.3221      2.00000
      3       1.6526      2.00000
      4       3.7395      2.00000
      5       4.1703      2.00000
      6       4.1791      2.00000
      7       4.7084      2.00000
      8       7.3845      1.46276
      9       7.4512      1.11570
     10       7.4910      0.89164
     11      10.0147      0.00000
     12      11.1480      0.00000
     13      15.6619      0.00000
     14      16.3578      0.00000

 k-point    10 :       0.2222    0.2222    0.0000
  band No.  band energies     occupation 
      1       1.3229      2.00000
      2       2.0834      2.00000
      3       2.3390      2.00000
      4       2.4979      2.00000
      5       3.5948      2.00000
      6       4.3152      2.00000
      7       4.5224      2.00000
      8       5.7471      2.00000
      9       7.1994      1.94584
     10       7.3284      1.68926
     11       8.3331      0.00000
     12      13.7697      0.00000
     13      15.7676      0.00000
     14      16.0613      0.00000

 k-point    11 :       0.3333    0.2222    0.0000
  band No.  band energies     occupation 
      1       1.7513      2.00000
      2       1.8993      2.00000
      3       2.0822      2.00000
      4       3.2693      2.00000
      5       3.5827      2.00000
      6       4.0888      2.00000
      7       4.8273      2.00000
      8       6.5443      2.00000
      9       7.2519      1.87989
     10       7.3925      1.42479
     11      10.0839      0.00000
     12      12.2694      0.00000
     13      14.5625      0.00000
     14      16.4777      0.00000

 k-point    12 :       0.3333    0.3333    0.0000
  band No.  band energies     occupation 
      1       1.7130      2.00000
      2       2.3936      2.00000
      3       2.3936      2.00000
      4       3.0541      2.00000
      5       3.7269      2.00000
      6       3.7269      2.00000
      7       5.1043      2.00000
      8       6.8857      1.99997
      9       6.8857      1.99997
     10       7.1453      1.97902
     11      11.4661      0.00000
     12      11.4661      0.00000
     13      12.9073      0.00000
     14      19.2269      0.00000

 k-point    13 :       0.0000    0.0000    0.1667
  band No.  band energies     occupation 
      1      -2.1662      2.00000
      2       0.4211      2.00000
      3       3.7446      2.00000
      4       3.8896      2.00000
      5       3.8896      2.00000
      6       4.3469      2.00000
      7       4.3469      2.00000
      8       5.4400      2.00000
      9       5.4400      2.00000
     10       6.0108      2.00000
     11       7.1529      1.97585
     12       7.1529      1.97585
     13      14.6147      0.00000
     14      22.4379      0.00000

 k-point    14 :       0.1111   -0.0000    0.1667
  band No.  band energies     occupation 
      1      -1.7513      2.00000
      2       0.7941      2.00000
      3       3.4886      2.00000
      4       3.9591      2.00000
      5       3.9892      2.00000
      6       4.1666      2.00000
      7       4.6313      2.00000
      8       4.9446      2.00000
      9       5.3031      2.00000
     10       5.4562      2.00000
     11       7.2305      1.91202
     12       8.5018      0.00000
     13      14.7312      0.00000
     14      22.8945      0.00000

 k-point    15 :       0.2222   -0.0000    0.1667
  band No.  band energies     occupation 
      1      -0.6657      2.00000
      2       1.5260      2.00000
      3       3.0282      2.00000
      4       3.2188      2.00000
      5       3.7090      2.00000
      6       4.5074      2.00000
      7       4.6705      2.00000
      8       5.3364      2.00000
      9       5.5272      2.00000
     10       5.5475      2.00000
     11       7.3578      1.57973
     12      10.1606      0.00000
     13      15.1827      0.00000
     14      20.6137      0.00000

 k-point    16 :       0.3333   -0.0000    0.1667
  band No.  band energies     occupation 
      1       0.4208      2.00000
      2       1.4693      2.00000
      3       2.3417      2.00000
      4       3.1143      2.00000
      5       4.1259      2.00000
      6       4.2489      2.00000
      7       4.9466      2.00000
      8       6.4615      2.00000
      9       6.4777      2.00000
     10       6.5363      2.00000
     11       7.4624      1.05278
     12      11.4855      0.00000
     13      15.3959      0.00000
     14      17.3602      0.00000

 k-point    17 :       0.4444   -0.0000    0.1667
  band No.  band energies     occupation 
      1       0.7127      2.00000
      2       1.1369      2.00000
      3       2.1483      2.00000
      4       3.0362      2.00000
      5       4.0423      2.00000
      6       4.6373      2.00000
      7       5.7913      2.00000
      8       7.1534      1.97563
      9       7.4188      1.29177
     10       7.6814      0.13819
     11       8.4133      0.00000
     12      11.7161      0.00000
     13      13.8466      0.00000
     14      16.3718      0.00000

 k-point    18 :       0.1111    0.1111    0.1667
  band No.  band energies     occupation 
      1      -0.9857      2.00000
      2       1.4257      2.00000
      3       3.1005      2.00000
      4       3.2978      2.00000
      5       3.9623      2.00000
      6       4.2818      2.00000
      7       4.6891      2.00000
      8       4.9995      2.00000
      9       5.5068      2.00000
     10       5.5129      2.00000
     11       7.2851      1.81306
     12       9.7736      0.00000
     13      15.0329      0.00000
     14      22.4900      0.00000

 k-point    19 :       0.2222    0.1111    0.1667
  band No.  band energies     occupation 
      1       0.2238      2.00000
      2       1.9257      2.00000
      3       2.4696      2.00000
      4       2.9898      2.00000
      5       3.6762      2.00000
      6       4.2506      2.00000
      7       4.6252      2.00000
      8       5.4842      2.00000
      9       6.3575      2.00000
     10       6.5221      2.00000
     11       7.3983      1.39665
     12      11.1480      0.00000
     13      15.7118      0.00000
     14      18.7125      0.00000

 k-point    20 :       0.3333    0.1111    0.1667
  band No.  band energies     occupation 
      1       0.9317      2.00000
      2       1.5849      2.00000
      3       2.2124      2.00000
      4       2.9775      2.00000
      5       3.9047      2.00000
      6       4.5532      2.00000
      7       4.8370      2.00000
      8       6.4552      2.00000
      9       7.0815      1.99421
     10       7.3472      1.62158
     11       8.3345      0.00000
     12      12.5494      0.00000
     13      14.1115      0.00000
     14      17.5718      0.00000

 k-point    21 :       0.4444    0.1111    0.1667
  band No.  band energies     occupation 
      1       0.9590      2.00000
      2       1.3930      2.00000
      3       2.2507      2.00000
      4       2.9962      2.00000
      5       3.7230      2.00000
      6       4.8756      2.00000
      7       5.3408      2.00000
      8       7.0503      1.99712
      9       7.3632      1.55708
     10       7.5702      0.48633
     11       9.9093      0.00000
     12      11.0853      0.00000
     13      15.2234      0.00000
     14      15.3350      0.00000

 k-point    22 :       0.2222    0.2222    0.1667
  band No.  band energies     occupation 
      1       1.3292      2.00000
      2       1.9292      2.00000
      3       2.4935      2.00000
      4       2.6279      2.00000
      5       3.7864      2.00000
      6       4.2240      2.00000
      7       4.3219      2.00000
      8       5.8596      2.00000
      9       6.9001      1.99995
     10       7.3970      1.40296
     11       8.4659      0.00000
     12      12.6680      0.00000
     13      15.1835      0.00000
     14      17.0140      0.00000

 k-point    23 :       0.3333    0.2222    0.1667
  band No.  band energies     occupation 
      1       1.5356      2.00000
      2       2.1069      2.00000
      3       2.3176      2.00000
      4       2.8720      2.00000
      5       3.6485      2.00000
      6       4.2440      2.00000
      7       4.8924      2.00000
      8       6.5721      2.00000
      9       6.8251      2.00000
     10       7.5298      0.68125
     11      10.2345      0.00000
     12      12.4809      0.00000
     13      14.7067      0.00000
     14      15.5427      0.00000

 k-point    24 :       0.3333    0.3333    0.1667
  band No.  band energies     occupation 
      1       1.8781      2.00000
      2       2.3093      2.00000
      3       2.3093      2.00000
      4       3.0709      2.00000
      5       3.7357      2.00000
      6       3.7357      2.00000
      7       5.0579      2.00000
      8       6.6735      2.00000
      9       6.9877      1.99938
     10       6.9877      1.99938
     11      11.7333      0.00000
     12      11.7333      0.00000
     13      13.4828      0.00000
     14      17.8724      0.00000

 k-point    25 :       0.0000    0.0000    0.3333
  band No.  band energies     occupation 
      1      -1.4163      2.00000
      2       0.2457      2.00000
      3       3.5447      2.00000
      4       3.8133      2.00000
      5       3.8133      2.00000
      6       4.1036      2.00000
      7       4.1036      2.00000
      8       4.3748      2.00000
      9       6.0024      2.00000
     10       6.0024      2.00000
     11       6.9787      1.99951
     12       6.9787      1.99951
     13      17.7459      0.00000
     14      22.0108      0.00000

 k-point    26 :       0.1111   -0.0000    0.3333
  band No.  band energies     occupation 
      1      -1.0203      2.00000
      2       0.6495      2.00000
      3       3.4200      2.00000
      4       3.4907      2.00000
      5       3.6132      2.00000
      6       4.0716      2.00000
      7       4.3805      2.00000
      8       4.4208      2.00000
      9       5.9153      2.00000
     10       6.0232      2.00000
     11       6.9949      1.99925
     12       7.5001      0.84093
     13      17.8629      0.00000
     14      22.4927      0.00000

 k-point    27 :       0.2222   -0.0000    0.3333
  band No.  band energies     occupation 
      1      -0.0648      2.00000
      2       1.4832      2.00000
      3       2.5916      2.00000
      4       3.2265      2.00000
      5       3.4913      2.00000
      6       4.3223      2.00000
      7       4.5837      2.00000
      8       5.1218      2.00000
      9       5.9504      2.00000
     10       6.2175      2.00000
     11       7.0257      1.99839
     12       8.4572      0.00000
     13      18.0397      0.00000
     14      21.4534      0.00000

 k-point    28 :       0.3333   -0.0000    0.3333
  band No.  band energies     occupation 
      1       0.5913      2.00000
      2       1.4624      2.00000
      3       2.2626      2.00000
      4       2.8543      2.00000
      5       4.3654      2.00000
      6       4.6723      2.00000
      7       5.2392      2.00000
      8       5.9808      2.00000
      9       6.6636      2.00000
     10       6.7324      2.00000
     11       7.1974      1.94760
     12       9.3987      0.00000
     13      16.4371      0.00000
     14      18.9691      0.00000

 k-point    29 :       0.4444   -0.0000    0.3333
  band No.  band energies     occupation 
      1       0.5961      2.00000
      2       1.1800      2.00000
      3       2.2275      2.00000
      4       2.5324      2.00000
      5       4.5710      2.00000
      6       5.1484      2.00000
      7       6.3280      2.00000
      8       7.2806      1.82347
      9       7.4632      1.04817
     10       7.6265      0.27378
     11       7.6297      0.26416
     12      10.2791      0.00000
     13      13.8568      0.00000
     14      15.4722      0.00000

 k-point    30 :       0.1111    0.1111    0.3333
  band No.  band energies     occupation 
      1      -0.3196      2.00000
      2       1.3503      2.00000
      3       2.7540      2.00000
      4       3.2411      2.00000
      5       3.4620      2.00000
      6       4.1832      2.00000
      7       4.5092      2.00000
      8       4.9015      2.00000
      9       5.9591      2.00000
     10       6.1364      2.00000
     11       6.9961      1.99923
     12       8.2274      0.00000
     13      18.0686      0.00000
     14      22.6306      0.00000

 k-point    31 :       0.2222    0.1111    0.3333
  band No.  band energies     occupation 
      1       0.6192      2.00000
      2       1.8740      2.00000
      3       2.3072      2.00000
      4       3.1069      2.00000
      5       3.4973      2.00000
      6       4.1665      2.00000
      7       4.6405      2.00000
      8       5.6391      2.00000
      9       6.4742      2.00000
     10       6.7047      2.00000
     11       7.2389      1.90036
     12       9.1838      0.00000
     13      17.7759      0.00000
     14      20.2828      0.00000

 k-point    32 :       0.3333    0.1111    0.3333
  band No.  band energies     occupation 
      1       0.8869      2.00000
      2       1.5992      2.00000
      3       2.2167      2.00000
      4       2.8763      2.00000
      5       4.0229      2.00000
      6       4.8464      2.00000
      7       5.3386      2.00000
      8       6.0343      2.00000
      9       6.8213      2.00000
     10       7.6399      0.23442
     11       8.3538      0.00000
     12      10.4479      0.00000
     13      14.9272      0.00000
     14      17.3771      0.00000

 k-point    33 :       0.4444    0.1111    0.3333
  band No.  band energies     occupation 
      1       0.8243      2.00000
      2       1.4637      2.00000
      3       2.2596      2.00000
      4       2.7212      2.00000
      5       3.9153      2.00000
      6       5.4776      2.00000
      7       5.8025      2.00000
      8       6.3478      2.00000
      9       7.3222      1.70973
     10       7.6764      0.14787
     11       9.8142      0.00000
     12      10.8327      0.00000
     13      14.2100      0.00000
     14      14.3832      0.00000

 k-point    34 :       0.2222    0.2222    0.3333
  band No.  band energies     occupation 
      1       1.3822      2.00000
      2       1.7395      2.00000
      3       2.6575      2.00000
      4       3.0651      2.00000
      5       3.7201      2.00000
      6       3.8795      2.00000
      7       4.4389      2.00000
      8       5.8059      2.00000
      9       6.7151      2.00000
     10       7.6819      0.13738
     11       8.6225      0.00000
     12      10.6292      0.00000
     13      16.1765      0.00000
     14      17.7775      0.00000

 k-point    35 :       0.3333    0.2222    0.3333
  band No.  band energies     occupation 
      1       1.4622      2.00000
      2       2.0631      2.00000
      3       2.4521      2.00000
      4       3.1264      2.00000
      5       3.3719      2.00000
      6       4.3731      2.00000
      7       5.0741      2.00000
      8       5.8587      2.00000
      9       6.9293      1.99987
     10       7.6486      0.21107
     11      10.6579      0.00000
     12      12.5574      0.00000
     13      13.9433      0.00000
     14      15.8802      0.00000

 k-point    36 :       0.3333    0.3333    0.3333
  band No.  band energies     occupation 
      1       2.1494      2.00000
      2       2.1494      2.00000
      3       2.3170      2.00000
      4       3.0556      2.00000
      5       3.7628      2.00000
      6       3.7628      2.00000
      7       4.9891      2.00000
      8       5.7675      2.00000
      9       7.1527      1.97595
     10       7.1527      1.97595
     11      12.5683      0.00000
     12      12.5683      0.00000
     13      14.7486      0.00000
     14      15.7768      0.00000

 k-point    37 :       0.0000    0.0000    0.5000
  band No.  band energies     occupation 
      1      -0.4347      2.00000
      2      -0.4347      2.00000
      3       3.5661      2.00000
      4       3.5661      2.00000
      5       3.8900      2.00000
      6       3.8900      2.00000
      7       3.8900      2.00000
      8       3.8900      2.00000
      9       6.5755      2.00000
     10       6.5755      2.00000
     11       6.5755      2.00000
     12       6.5755      2.00000
     13      20.9163      0.00000
     14      20.9163      0.00000

 k-point    38 :       0.1111   -0.0000    0.5000
  band No.  band energies     occupation 
      1      -0.0425      2.00000
      2      -0.0425      2.00000
      3       3.1975      2.00000
      4       3.1975      2.00000
      5       3.9037      2.00000
      6       3.9037      2.00000
      7       4.1561      2.00000
      8       4.1561      2.00000
      9       6.5320      2.00000
     10       6.5320      2.00000
     11       6.7524      2.00000
     12       6.7524      2.00000
     13      21.0708      0.00000
     14      21.0708      0.00000

 k-point    39 :       0.2222   -0.0000    0.5000
  band No.  band energies     occupation 
      1       0.7814      2.00000
      2       0.7814      2.00000
      3       2.7842      2.00000
      4       2.7842      2.00000
      5       3.8541      2.00000
      6       3.8541      2.00000
      7       4.8069      2.00000
      8       4.8069      2.00000
      9       6.5167      2.00000
     10       6.5167      2.00000
     11       7.1830      1.95884
     12       7.1830      1.95884
     13      20.8204      0.00000
     14      20.8204      0.00000

 k-point    40 :       0.3333   -0.0000    0.5000
  band No.  band energies     occupation 
      1       0.9913      2.00000
      2       0.9913      2.00000
      3       2.5421      2.00000
      4       2.5421      2.00000
      5       4.9104      2.00000
      6       4.9104      2.00000
      7       5.2974      2.00000
      8       5.2974      2.00000
      9       6.9130      1.99992
     10       6.9130      1.99992
     11       7.7367      0.06105
     12       7.7367      0.06105
     13      17.8223      0.00000
     14      17.8223      0.00000

 k-point    41 :       0.4444   -0.0000    0.5000
  band No.  band energies     occupation 
      1       0.8311      2.00000
      2       0.8311      2.00000
      3       2.3197      2.00000
      4       2.3197      2.00000
      5       5.3790      2.00000
      6       5.3790      2.00000
      7       6.3520      2.00000
      8       6.3520      2.00000
      9       7.5466      0.59671
     10       7.5466      0.59671
     11       8.7574      0.00000
     12       8.7574      0.00000
     13      14.5145      0.00000
     14      14.5145      0.00000

 k-point    42 :       0.1111    0.1111    0.5000
  band No.  band energies     occupation 
      1       0.6126      2.00000
      2       0.6126      2.00000
      3       2.8627      2.00000
      4       2.8627      2.00000
      5       3.7150      2.00000
      6       3.7150      2.00000
      7       4.6639      2.00000
      8       4.6639      2.00000
      9       6.5063      2.00000
     10       6.5063      2.00000
     11       7.0767      1.99479
     12       7.0767      1.99479
     13      21.1774      0.00000
     14      21.1774      0.00000

 k-point    43 :       0.2222    0.1111    0.5000
  band No.  band energies     occupation 
      1       1.2133      2.00000
      2       1.2133      2.00000
      3       2.7613      2.00000
      4       2.7613      2.00000
      5       3.7479      2.00000
      6       3.7479      2.00000
      7       5.1432      2.00000
      8       5.1432      2.00000
      9       6.9643      1.99967
     10       6.9643      1.99967
     11       7.5906      0.40090
     12       7.5906      0.40090
     13      19.6419      0.00000
     14      19.6419      0.00000

 k-point    44 :       0.3333    0.1111    0.5000
  band No.  band energies     occupation 
      1       1.1527      2.00000
      2       1.1527      2.00000
      3       2.5655      2.00000
      4       2.5655      2.00000
      5       4.7039      2.00000
      6       4.7039      2.00000
      7       5.4536      2.00000
      8       5.4536      2.00000
      9       7.4568      1.08439
     10       7.4568      1.08439
     11       8.8861      0.00000
     12       8.8861      0.00000
     13      16.1275      0.00000
     14      16.1275      0.00000

 k-point    45 :       0.4444    0.1111    0.5000
  band No.  band energies     occupation 
      1       1.0631      2.00000
      2       1.0631      2.00000
      3       2.4523      2.00000
      4       2.4523      2.00000
      5       4.8170      2.00000
      6       4.8170      2.00000
      7       6.2003      2.00000
      8       6.2003      2.00000
      9       7.4008      1.38425
     10       7.4008      1.38425
     11      10.2863      0.00000
     12      10.2863      0.00000
     13      13.9031      0.00000
     14      13.9031      0.00000

 k-point    46 :       0.2222    0.2222    0.5000
  band No.  band energies     occupation 
      1       1.5342      2.00000
      2       1.5342      2.00000
      3       3.0118      2.00000
      4       3.0118      2.00000
      5       3.6654      2.00000
      6       3.6654      2.00000
      7       4.9816      2.00000
      8       4.9816      2.00000
      9       7.5593      0.53568
     10       7.5593      0.53568
     11       9.0823      0.00000
     12       9.0823      0.00000
     13      17.5519      0.00000
     14      17.5519      0.00000

 k-point    47 :       0.3333    0.2222    0.5000
  band No.  band energies     occupation 
      1       1.6494      2.00000
      2       1.6494      2.00000
      3       2.8684      2.00000
      4       2.8684      2.00000
      5       3.9487      2.00000
      6       3.9487      2.00000
      7       5.2800      2.00000
      8       5.2800      2.00000
      9       7.4066      1.35497
     10       7.4066      1.35497
     11      11.4666      0.00000
     12      11.4666      0.00000
     13      14.8770      0.00000
     14      14.8770      0.00000

 k-point    48 :       0.3333    0.3333    0.5000
  band No.  band energies     occupation 
      1       2.0737      2.00000
      2       2.0737      2.00000
      3       2.8140      2.00000
      4       2.8140      2.00000
      5       3.7799      2.00000
      6       3.7799      2.00000
      7       5.1327      2.00000
      8       5.1327      2.00000
      9       7.2176      1.92767
     10       7.2176      1.92767
     11      13.8154      0.00000
     12      13.8154      0.00000
     13      14.1105      0.00000
     14      14.1105      0.00000


--------------------------------------------------------------------------------------------------------


 soft charge-density along one line, spin component           1
         0         1         2         3         4         5         6         7         8         9
 total charge-density along one line
 
 pseudopotential strength for first ion, spin component:           1
 -7.576  -0.000   0.000   0.000   0.000  -0.231   0.000  -0.000
 -0.000  -7.553   0.000  -0.000  -0.000   0.000  -0.233  -0.000
  0.000   0.000  -7.579  -0.000  -0.000  -0.000  -0.000  -0.231
  0.000  -0.000  -0.000  -7.553  -0.000  -0.000   0.000   0.000
  0.000  -0.000  -0.000  -0.000  -7.576  -0.000   0.000   0.000
[...]
      3       2.1633      2.00000
      4       2.8481      2.00000
      5       3.2093      2.00000
      6       3.8047      2.00000
      7       4.6983      2.00000
      8       5.5446      2.00000
      9       6.0797      2.00000
     10       6.4448      2.00000
     11       6.8542      1.94793
     12       8.5796      0.00000
     13      17.0435      0.00000
     14      19.7951      0.00000

 k-point    32 :       0.3333    0.1111    0.3333
  band No.  band energies     occupation 
      1       0.8261      2.00000
      2       1.3550      2.00000
      3       2.0860      2.00000
      4       2.4927      2.00000
      5       4.0084      2.00000
      6       4.7387      2.00000
      7       5.0965      2.00000
      8       5.8296      2.00000
      9       6.3902      2.00000
     10       7.3588      0.10411
     11       8.1745      0.00000
     12       9.9268      0.00000
     13      14.8230      0.00000
     14      17.0190      0.00000

 k-point    33 :       0.4444    0.1111    0.3333
  band No.  band energies     occupation 
      1       0.7609      2.00000
      2       1.1982      2.00000
      3       2.1544      2.00000
      4       2.3070      2.00000
      5       3.9382      2.00000
      6       5.3311      2.00000
      7       5.5748      2.00000
      8       6.1161      2.00000
      9       7.0193      1.56190
     10       7.2940      0.24330
     11       9.6781      0.00000
     12      10.7241      0.00000
     13      13.8750      0.00000
     14      13.9519      0.00000

 k-point    34 :       0.2222    0.2222    0.3333
  band No.  band energies     occupation 
      1       1.3828      2.00000
      2       1.6665      2.00000
      3       2.4218      2.00000
      4       2.8244      2.00000
      5       3.4706      2.00000
      6       3.5917      2.00000
      7       4.2905      2.00000
      8       5.5718      2.00000
      9       6.2665      2.00000
     10       7.4049      0.05105
     11       8.4428      0.00000
     12      10.1068      0.00000
     13      16.0647      0.00000
     14      17.6694      0.00000

 k-point    35 :       0.3333    0.2222    0.3333
  band No.  band energies     occupation 
      1       1.4431      2.00000
      2       2.0038      2.00000
      3       2.2511      2.00000
      4       3.0023      2.00000
      5       3.1331      2.00000
      6       4.1523      2.00000
      7       4.7959      2.00000
      8       5.5008      2.00000
      9       6.5552      1.99995
     10       7.3065      0.20936
     11      10.5737      0.00000
     12      12.3633      0.00000
     13      13.6318      0.00000
     14      15.5699      0.00000

 k-point    36 :       0.3333    0.3333    0.3333
  band No.  band energies     occupation 
      1       2.1646      2.00000
      2       2.1646      2.00000
      3       2.2857      2.00000
      4       2.8772      2.00000
      5       3.5075      2.00000
      6       3.5075      2.00000
      7       4.5629      2.00000
      8       5.3353      2.00000
      9       6.8274      1.96703
     10       6.8274      1.96703
     11      12.4818      0.00000
     12      12.4818      0.00000
     13      14.5560      0.00000
     14      15.3707      0.00000

 k-point    37 :       0.0000    0.0000    0.5000
  band No.  band energies     occupation 
      1      -0.7922      2.00000
      2      -0.7922      2.00000
      3       3.2121      2.00000
      4       3.2121      2.00000
      5       3.7341      2.00000
      6       3.7341      2.00000
      7       3.7341      2.00000
      8       3.7341      2.00000
      9       6.3330      2.00000
     10       6.3330      2.00000
     11       6.3330      2.00000
     12       6.3330      2.00000
     13      19.1823      0.00000
     14      19.1823      0.00000

 k-point    38 :       0.1111   -0.0000    0.5000
  band No.  band energies     occupation 
      1      -0.3705      2.00000
      2      -0.3705      2.00000
      3       2.9782      2.00000
      4       2.9782      2.00000
      5       3.6177      2.00000
      6       3.6177      2.00000
      7       4.0333      2.00000
      8       4.0333      2.00000
      9       6.2721      2.00000
     10       6.2721      2.00000
     11       6.4477      2.00000
     12       6.4477      2.00000
     13      19.4208      0.00000
     14      19.4208      0.00000

 k-point    39 :       0.2222   -0.0000    0.5000
  band No.  band energies     occupation 
      1       0.5446      2.00000
      2       0.5446      2.00000
      3       2.5862      2.00000
      4       2.5862      2.00000
      5       3.5440      2.00000
      6       3.5440      2.00000
      7       4.7873      2.00000
      8       4.7873      2.00000
      9       6.2008      2.00000
     10       6.2008      2.00000
     11       6.7496      1.99269
     12       6.7496      1.99269
     13      19.6945      0.00000
     14      19.6945      0.00000

 k-point    40 :       0.3333   -0.0000    0.5000
  band No.  band energies     occupation 
      1       0.8322      2.00000
      2       0.8322      2.00000
      3       2.2534      2.00000
      4       2.2534      2.00000
      5       4.7165      2.00000
      6       4.7165      2.00000
      7       5.3162      2.00000
      8       5.3162      2.00000
      9       6.6310      1.99957
     10       6.6310      1.99957
     11       7.2193      0.52302
     12       7.2193      0.52302
     13      17.5683      0.00000
     14      17.5683      0.00000

 k-point    41 :       0.4444   -0.0000    0.5000
  band No.  band energies     occupation 
      1       0.6760      2.00000
      2       0.6760      2.00000
      3       2.0142      2.00000
      4       2.0142      2.00000
      5       5.3385      2.00000
      6       5.3385      2.00000
      7       6.1326      2.00000
      8       6.1326      2.00000
      9       7.3897      0.06524
     10       7.3897      0.06524
     11       8.3814      0.00000
     12       8.3814      0.00000
     13      14.2712      0.00000
     14      14.2712      0.00000

 k-point    42 :       0.1111    0.1111    0.5000
  band No.  band energies     occupation 
      1       0.3495      2.00000
      2       0.3495      2.00000
      3       2.6922      2.00000
      4       2.6922      2.00000
      5       3.3733      2.00000
      6       3.3733      2.00000
      7       4.6214      2.00000
      8       4.6214      2.00000
      9       6.1893      2.00000
     10       6.1893      2.00000
     11       6.6878      1.99819
     12       6.6878      1.99819
     13      19.7584      0.00000
     14      19.7584      0.00000

 k-point    43 :       0.2222    0.1111    0.5000
  band No.  band energies     occupation 
      1       1.0760      2.00000
      2       1.0760      2.00000
      3       2.4995      2.00000
      4       2.4995      2.00000
      5       3.4634      2.00000
      6       3.4634      2.00000
      7       5.1366      2.00000
      8       5.1366      2.00000
      9       6.6563      1.99917
     10       6.6563      1.99917
     11       7.1136      1.08621
     12       7.1136      1.08621
     13      19.2204      0.00000
     14      19.2204      0.00000

 k-point    44 :       0.3333    0.1111    0.5000
  band No.  band energies     occupation 
      1       1.0402      2.00000
      2       1.0402      2.00000
      3       2.2576      2.00000
      4       2.2576      2.00000
      5       4.5858      2.00000
      6       4.5858      2.00000
      7       5.3035      2.00000
      8       5.3035      2.00000
      9       7.0999      1.16270
     10       7.0999      1.16270
     11       8.5908      0.00000
     12       8.5908      0.00000
     13      15.9094      0.00000
     14      15.9094      0.00000

 k-point    45 :       0.4444    0.1111    0.5000
  band No.  band energies     occupation 
      1       0.9420      2.00000
      2       0.9420      2.00000
      3       2.1484      2.00000
      4       2.1484      2.00000
      5       4.7163      2.00000
      6       4.7163      2.00000
      7       6.0419      2.00000
      8       6.0419      2.00000
      9       7.0614      1.36686
     10       7.0614      1.36686
     11      10.1143      0.00000
     12      10.1143      0.00000
     13      13.5973      0.00000
     14      13.5973      0.00000

 k-point    46 :       0.2222    0.2222    0.5000
  band No.  band energies     occupation 
      1       1.4926      2.00000
      2       1.4926      2.00000
      3       2.7156      2.00000
      4       2.7156      2.00000
      5       3.4242      2.00000
      6       3.4242      2.00000
      7       4.8260      2.00000
      8       4.8260      2.00000
      9       7.1861      0.68615
     10       7.1861      0.68615
     11       8.8065      0.00000
     12       8.8065      0.00000
     13      17.3586      0.00000
     14      17.3586      0.00000

 k-point    47 :       0.3333    0.2222    0.5000
  band No.  band energies     occupation 
      1       1.6091      2.00000
      2       1.6091      2.00000
      3       2.6200      2.00000
      4       2.6200      2.00000
      5       3.7718      2.00000
      6       3.7718      2.00000
      7       5.0061      2.00000
      8       5.0061      2.00000
      9       7.0871      1.23271
     10       7.0871      1.23271
     11      11.2757      0.00000
     12      11.2757      0.00000
     13      14.5739      0.00000
     14      14.5739      0.00000

 k-point    48 :       0.3333    0.3333    0.5000
  band No.  band energies     occupation 
      1       2.0871      2.00000
      2       2.0871      2.00000
      3       2.6820      2.00000
      4       2.6820      2.00000
      5       3.5078      2.00000
      6       3.5078      2.00000
      7       4.7589      2.00000
      8       4.7589      2.00000
      9       6.9527      1.78738
     10       6.9527      1.78738
     11      13.7078      0.00000
     12      13.7078      0.00000
     13      13.7094      0.00000
     14      13.7094      0.00000


--------------------------------------------------------------------------------------------------------


 soft charge-density along one line, spin component           1
         0         1         2         3         4         5         6         7         8         9
 total charge-density along one line
 
 pseudopotential strength for first ion, spin component:           1
 -7.704  -0.000  -0.000   0.000  -0.000  -0.215   0.000   0.000
 -0.000  -7.632   0.000   0.000  -0.000   0.000  -0.223  -0.000
 -0.000   0.000  -7.666  -0.000  -0.000   0.000  -0.000  -0.220
  0.000   0.000  -0.000  -7.632  -0.000  -0.000  -0.000   0.000
 -0.000  -0.000  -0.000  -0.000  -7.704   0.000   0.000   0.000
 -0.215   0.000   0.000  -0.000   0.000   0.224  -0.000  -0.000
  0.000  -0.223  -0.000  -0.000   0.000  -0.000   0.225   0.000
  0.000  -0.000  -0.220   0.000   0.000  -0.000   0.000   0.224
 -0.000  -0.000   0.000  -0.223   0.000   0.000   0.000  -0.000
  0.000   0.000   0.000   0.000  -0.215  -0.000  -0.000  -0.000
 -0.000  -0.000  -0.014   0.000  -0.000   0.000   0.000   0.001
  0.000   0.000   0.001  -0.000   0.000  -0.000  -0.000  -0.000
 -0.000   0.000  -0.000   0.000  -0.000   0.000  -0.000   0.000
  0.000   0.000   0.000  -0.000  -0.000  -0.000  -0.000  -0.000
 -0.000   0.000   0.000   0.000  -0.000  -0.000  -0.000  -0.000
  0.000  -0.000   0.000  -0.000   0.000  -0.000   0.000  -0.000
 -0.000  -0.000  -0.000   0.000   0.000   0.000   0.000   0.000
  0.000  -0.000  -0.000  -0.000   0.000   0.000   0.000   0.000
 total augmentation occupancy for first ion, spin component:           1
  1.683  -0.000  -0.000  -0.000   0.000   0.122  -0.000  -0.000  -0.000  -0.000   0.000   0.000  -0.000  -0.000   0.002  -0.000
 -0.000   1.836  -0.000   0.000   0.000  -0.000  -0.031   0.000  -0.000  -0.000  -0.000  -0.000   0.000  -0.000  -0.000   0.000
 -0.000   0.000   1.656  -0.000  -0.000  -0.000  -0.000   0.133   0.000  -0.000  -0.018  -0.005  -0.000   0.000   0.000  -0.000
 -0.000   0.000  -0.000   1.836  -0.000   0.000  -0.000   0.000  -0.031  -0.000   0.000   0.000   0.000   0.000   0.000  -0.000
  0.000   0.000  -0.000  -0.000   1.683   0.000   0.000  -0.000  -0.000   0.122   0.000   0.000   0.002  -0.000   0.000   0.000
  0.122  -0.000  -0.000  -0.000  -0.000   0.291  -0.000  -0.000   0.000   0.000   0.000   0.000   0.000   0.000  -0.019  -0.000
 -0.000  -0.031   0.000  -0.000   0.000   0.000   0.297   0.000   0.000   0.000   0.000  -0.000  -0.000   0.000   0.000  -0.000
 -0.000  -0.000   0.133   0.000  -0.000  -0.000   0.000   0.291   0.000  -0.000  -0.070   0.016   0.000  -0.000   0.000  -0.000
  0.000  -0.000  -0.000  -0.031  -0.000   0.000   0.000  -0.000   0.297  -0.000  -0.000  -0.000   0.000  -0.000  -0.000  -0.000
  0.000  -0.000  -0.000  -0.000   0.122   0.000   0.000  -0.000   0.000   0.291   0.000  -0.000  -0.019  -0.000  -0.000   0.001
  0.000  -0.000  -0.018   0.000   0.000   0.000  -0.000  -0.070  -0.000   0.000   1.091  -0.396  -0.000  -0.000   0.000   0.000
  0.000   0.000  -0.005   0.000   0.000   0.000  -0.000   0.016  -0.000  -0.000  -0.396   0.191   0.000  -0.000   0.000   0.000
 -0.000   0.000  -0.000   0.000   0.002   0.000   0.000   0.000   0.000  -0.019  -0.000  -0.000   0.203   0.000   0.000  -0.009
  0.000  -0.000   0.000   0.000   0.000   0.000   0.000  -0.000  -0.000  -0.000   0.000  -0.000   0.000   0.174   0.000  -0.000
  0.002  -0.000   0.000   0.000   0.000  -0.019  -0.000   0.000   0.000  -0.000   0.000   0.000   0.000  -0.000   0.203  -0.000
 -0.000   0.000  -0.000   0.000   0.000  -0.000   0.000  -0.000  -0.000   0.001   0.000  -0.000  -0.009  -0.000  -0.000   0.000
 -0.000  -0.000  -0.000   0.000  -0.000   0.000  -0.000   0.000   0.000   0.000   0.000  -0.000   0.000  -0.009   0.000   0.000
  0.000   0.000  -0.000  -0.000   0.000   0.001  -0.000  -0.000   0.000   0.000  -0.000  -0.000  -0.000   0.000  -0.009   0.000


------------------------ aborting loop because EDIFF is reached ----------------------------------------


    CHARGE:  cpu time    0.0680: real time    0.0694
    FORLOC:  cpu time    0.0020: real time    0.0008
    FORNL :  cpu time    0.4799: real time    0.4802
    STRESS:  cpu time    1.4818: real time    1.4827
    FORCOR:  cpu time    0.0170: real time    0.0162
    FORHAR:  cpu time    0.0020: real time    0.0027
    MIXING:  cpu time    0.0020: real time    0.0015
    OFIELD:  cpu time    0.0000: real time    0.0000

  FORCE on cell =-STRESS in cart. coord.  units (eV):
  Direction    XX          YY          ZZ          XY          YZ          ZX
  --------------------------------------------------------------------------------------
  Alpha Z   183.55599   183.55599   183.55599
  Ewald    -537.03050  -537.03049  -580.69125     0.00000    -0.00000    -0.00000
  Hartree    48.70819    48.70819    35.65091     0.00000    -0.00000    -0.00000
  E(xc)     -88.87460   -88.87460   -89.05489    -0.00000    -0.00000    -0.00000
  Local      93.38761    93.38761   143.92613    -0.00000     0.00000     0.00000
  n-local   -64.26711   -66.36053   -68.11738    -7.38638     2.85295     2.59758
  augment    77.69697    77.69697    80.16015     0.00000     0.00000     0.00000
  Kinetic   289.12673   286.63829   294.58853    -6.28342     1.83461     0.57507
  Fock        0.00000     0.00000     0.00000     0.00000     0.00000     0.00000
  -------------------------------------------------------------------------------------
  Total       0.01236     0.01236     0.01819    -0.00000     0.00000    -0.00000
  in kB       0.62440     0.62440     0.91924    -0.00000     0.00000    -0.00000
  external pressure =        0.72 kB  Pullay stress =        0.00 kB


 VOLUME and BASIS-vectors are now :
 -----------------------------------------------------------------------------
  energy-cutoff  :      500.00
  volume of cell :       31.71
      direct lattice vectors                 reciprocal lattice vectors
     2.765615932 -0.000000000 -0.000000000     0.361583106  0.208760105  0.000000000
    -1.382807966  2.395093644  0.000000000     0.000000000  0.417520210  0.000000000
     0.000000000 -0.000000000  4.786587134     0.000000000 -0.000000000  0.208917120

  length of vectors
     2.765615932  2.765615923  4.786587134     0.417520208  0.417520210  0.208917120


 FORCES acting on ions
    electron-ion (+dipol)            ewald-force                    non-local-force                 convergence-correction
 -----------------------------------------------------------------------------------------------
   0.112E-05 -.509E-06 -.226E-06   0.540E-06 -.517E-06 -.265E-13   -.451E-16 0.104E-19 -.121E-16   -.106E-08 0.671E-09 0.826E-10
   -.264E-05 0.139E-05 -.226E-06   -.540E-06 0.517E-06 0.265E-13   0.347E-16 -.104E-19 0.260E-16   0.182E-08 -.111E-08 0.826E-10
 -----------------------------------------------------------------------------------------------
   -.152E-05 0.880E-06 -.453E-06   -.781E-15 0.695E-14 0.207E-16   -.104E-16 0.317E-25 0.139E-16   0.769E-09 -.444E-09 0.165E-09
 
 
 POSITION                                       TOTAL-FORCE (eV/Angst)
 -----------------------------------------------------------------------------------
     -0.00000      1.59673      1.19665        -0.000000      0.000000      0.000000
      1.38281      0.79836      3.58994         0.000000     -0.000000      0.000000
 -----------------------------------------------------------------------------------
    total drift:                               -0.000002      0.000001     -0.000000


--------------------------------------------------------------------------------------------------------



  FREE ENERGIE OF THE ION-ELECTRON SYSTEM (eV)
  ---------------------------------------------------
  free  energy   TOTEN  =       -12.04798941 eV

  energy  without entropy=      -11.96269268  energy(sigma->0) =      -12.00534104
 
 d Force = 0.0000000E+00[ 0.000E+00, 0.000E+00]  d Energy = 0.5963116E-03-0.596E-03
 d Force = 0.0000000E+00[ 0.000E+00, 0.000E+00]  d Ewald  =-0.2808168E+01 0.281E+01


--------------------------------------------------------------------------------------------------------


    POTLOK:  cpu time    0.0610: real time    0.0603


--------------------------------------------------------------------------------------------------------


 Quasi-Newton relaxation of ions (Broydens 2nd method)
  g(Force)  = 0.609E-45   g(Stress)= 0.153E-04

 retain information from N=  1 steps
 eigenvalues of (default step * inverse Hessian matrix)
  average eigenvalue of G=   0.4730
 eigenvalue spectrum of G is  0.4730


--------------------------------------------------------------------------------------------------------


  
 reached required accuracy - stopping structural energy minimisation
 writing wavefunctions
     LOOP+:  cpu time    4.4033: real time    4.4443
    4ORBIT:  cpu time    0.0000: real time    0.0000

 total amount of memory used by VASP on root node    39929. kBytes
========================================================================

   base      :      30000. kBytes
   nonlr-proj:       1503. kBytes
   fftplans  :       4465. kBytes
   grid      :       1699. kBytes
   one-center:         15. kBytes
   wavefun   :       2247. kBytes
 
  
  
 General timing and accounting informations for this job:
 ========================================================
  
                  Total CPU time used (sec):       32.370
                            User time (sec):       30.012
                          System time (sec):        2.358
                         Elapsed time (sec):       34.379
  
                   Maximum memory used (kb):       60124.
                   Average memory used (kb):           0.
  
                          Minor page faults:       990789
                          Major page faults:          195
                 Voluntary context switches:         2716
