unknown system                          
           1
     2.830438    0.000000    0.000000
    -1.415219    2.451231   -0.000000
     0.000000   -0.000000    4.799416
   Pt
   2
Direct configuration=     1
   0.33333333  0.66666667  0.25000000
   0.66666667  0.33333333  0.75000000
unknown system                          
           1
     2.760345    0.000000    0.000000
    -1.380172    2.390529   -0.000000
    -0.000000   -0.000000    4.717845
   Pt
   2
Direct configuration=     2
   0.33333333  0.66666667  0.25000000
   0.66666667  0.33333333  0.75000000
unknown system                          
           1
     2.764024   -0.000000    0.000000
    -1.382012    2.393715   -0.000000
    -0.000000   -0.000000    4.768566
   Pt
   2
Direct configuration=     3
   0.33333333  0.66666667  0.25000000
   0.66666667  0.33333333  0.75000000
unknown system                          
           1
     2.765616   -0.000000   -0.000000
    -1.382808    2.395094    0.000000
     0.000000   -0.000000    4.786587
   Pt
   2
Direct configuration=     4
   0.33333333  0.66666667  0.25000000
   0.66666667  0.33333333  0.75000000
unknown system                          
           1
     2.765616   -0.000000   -0.000000
    -1.382808    2.395094    0.000000
     0.000000   -0.000000    4.786587
   Pt
   2
Direct configuration=     5
   0.33333333  0.66666667  0.25000000
   0.66666667  0.33333333  0.75000000
