unknown system                          
   1.00000000000000     
     2.573869    0.000000    0.000000
     1.286934    2.229036    0.000000
     0.000000    0.000000   30.304665
   Cu   H 
     4     1
Direct
  0.999706  0.000588  0.396567
  0.333186  0.333624  0.465140
  0.665829  0.668343  0.533594
  0.000801  0.998398  0.604216
  0.477089  0.045818  0.637503
 
   20   20  240
 -.18836E-01 -.17538E-01 -.13669E-01 -.84107E-02 -.33412E-02 0.21502E-03 0.16161E-02 0.97898E-03 -.95310E-03 -.30327E-02
 -.40848E-02 -.34551E-02 -.14526E-02 0.71700E-03 0.15937E-02 0.25225E-03 -.32980E-02 -.82423E-02 -.13337E-01 -.17246E-01
 -.17420E-01 -.14690E-01 -.98148E-02 -.44192E-02 -.34665E-03 0.12146E-02 0.20502E-03 -.24077E-02 -.51156E-02 -.65003E-02
 -.58400E-02 -.34777E-02 -.68646E-03 0.99944E-03 0.58982E-03 -.19752E-02 -.60307E-02 -.10623E-01 -.14740E-01 -.17320E-01
 -.13551E-01 -.10160E-01 -.55992E-02 -.15729E-02 0.25671E-03 -.97070E-03 -.48335E-02 -.97033E-02 -.13424E-01 -.14332E-01
 -.12090E-01 -.78325E-02 -.35091E-02 -.86757E-03 -.72464E-03 -.28735E-02 -.64519E-02 -.10350E-01 -.13432E-01 -.14697E-01
 -.86118E-02 -.57589E-02 -.27984E-02 -.11409E-02 -.21977E-02 -.66425E-02 -.13674E-01 -.20967E-01 -.25642E-01 -.25747E-01
 -.21286E-01 -.14127E-01 -.69706E-02 -.20900E-02 -.52579E-03 -.19491E-02 -.50598E-02 -.82430E-02 -.10198E-01 -.10297E-01
 -.38398E-02 -.22274E-02 -.14631E-02 -.28770E-02 -.77692E-02 -.16353E-01 -.26880E-01 -.35933E-01 -.40005E-01 -.37382E-01
 -.29039E-01 -.18064E-01 -.80894E-02 -.17177E-02 0.32612E-03 -.90575E-03 -.34360E-02 -.54596E-02 -.60830E-02 -.53596E-02
 -.85208E-04 0.21025E-03 -.16462E-02 -.71432E-02 -.16996E-01 -.30012E-01 -.42807E-01 -.51019E-01 -.51466E-01 -.43887E-01
 -.31087E-01 -.17445E-01 -.68052E-02 -.97406E-03 0.50789E-03 -.49448E-03 -.19661E-02 -.26562E-02 -.22865E-02 -.12169E-02
 0.17399E-02 0.75252E-03 -.41410E-02 -.14111E-01 -.28409E-01 -.43890E-01 -.55862E-01 -.60105E-01 -.55037E-01 -.42602E-01
 -.27255E-01 -.13663E-01 -.46275E-02 -.42560E-03 0.40025E-03 -.28002E-03 -.10731E-02 -.12408E-02 -.54822E-03 0.75362E-03
 0.11495E-02 -.98756E-03 -.84422E-02 -.21355E-01 -.37341E-01 -.51965E-01 -.60406E-01 -.59668E-01 -.50124E-01 -.35358E-01
 -.20288E-01 -.87728E-02 -.22397E-02 0.35814E-04 -.30490E-03 -.17168E-02 -.30151E-02 -.32959E-02 -.21286E-02 -.57401E-04
 -.98166E-03 -.36609E-02 -.12047E-01 -.25164E-01 -.39720E-01 -.51133E-01 -.55402E-01 -.50973E-01 -.39538E-01 -.25189E-01
 -.12394E-01 -.40915E-02 -.94681E-03 -.18528E-02 -.49101E-02 -.81552E-02 -.99401E-02 -.92911E-02 -.63728E-02 -.27425E-02
 -.29247E-02 -.53372E-02 -.13043E-01 -.24280E-01 -.35578E-01 -.42959E-01 -.43614E-01 -.37218E-01 -.26114E-01 -.14249E-01
 -.54905E-02 -.21503E-02 -.43221E-02 -.10114E-01 -.16548E-01 -.20745E-01 -.20982E-01 -.17261E-01 -.11225E-01 -.55269E-02
 -.36002E-02 -.54299E-02 -.11755E-01 -.20180E-01 -.27448E-01 -.30659E-01 -.28455E-01 -.21605E-01 -.12745E-01 -.54232E-02
 -.28012E-02 -.63538E-02 -.15068E-01 -.25653E-01 -.33903E-01 -.36612E-01 -.32964E-01 -.24659E-01 -.14910E-01 -.70741E-02
 -.29596E-02 -.43766E-02 -.91099E-02 -.14356E-01 -.17568E-01 -.17323E-01 -.13711E-01 -.82458E-02 -.34530E-02 -.21959E-02
 -.66582E-02 -.17127E-01 -.31241E-01 -.44500E-01 -.52136E-01 -.51381E-01 -.42744E-01 -.29571E-01 -.16352E-01 -.68559E-02
 -.13050E-02 -.24039E-02 -.54186E-02 -.78473E-02 -.82849E-02 -.65808E-02 -.36027E-02 -.96066E-03 -.76934E-03 -.51868E-02
 -.15475E-01 -.30832E-01 -.47832E-01 -.61272E-01 -.66365E-01 -.61130E-01 -.47468E-01 -.30216E-01 -.14799E-01 -.48894E-02
 0.70742E-03 -.70260E-04 -.17598E-02 -.27517E-02 -.24951E-02 -.12276E-02 0.19299E-03 0.28242E-03 -.29325E-02 -.11283E-01
 -.25320E-01 -.43209E-01 -.60546E-01 -.71724E-01 -.72486E-01 -.62254E-01 -.44629E-01 -.25591E-01 -.10523E-01 -.19635E-02
 0.16390E-02 0.87387E-03 -.38203E-03 -.12086E-02 -.11930E-02 -.41181E-03 0.27696E-03 -.90982E-03 -.62066E-02 -.17160E-01
 -.33294E-01 -.51392E-01 -.66159E-01 -.72361E-01 -.67464E-01 -.53143E-01 -.34492E-01 -.17353E-01 -.55491E-02 0.24122E-03
 0.79205E-04 -.11193E-02 -.23306E-02 -.28529E-02 -.22859E-02 -.89097E-03 -.41539E-05 -.18895E-02 -.87479E-02 -.21237E-01
 -.37369E-01 -.52685E-01 -.61974E-01 -.61785E-01 -.52262E-01 -.37060E-01 -.21348E-01 -.92451E-02 -.23111E-02 0.21077E-03
 -.39289E-02 -.55388E-02 -.62038E-02 -.55178E-02 -.35703E-02 -.12084E-02 -.17213E-03 -.26474E-02 -.10105E-01 -.21982E-01
 -.35217E-01 -.45305E-01 -.48481E-01 -.43695E-01 -.33079E-01 -.20655E-01 -.10242E-01 -.39025E-02 -.16543E-02 -.22013E-02
 -.90019E-02 -.10529E-01 -.10140E-01 -.80412E-02 -.49510E-02 -.20367E-02 -.87000E-03 -.30124E-02 -.90910E-02 -.17921E-01
 -.26568E-01 -.31644E-01 -.31115E-01 -.25356E-01 -.16812E-01 -.86329E-02 -.32402E-02 -.15563E-02 -.30085E-02 -.60683E-02
 -.13782E-01 -.14754E-01 -.13331E-01 -.10196E-01 -.63488E-02 -.29038E-02 -.10470E-02 -.17771E-02 -.53094E-02 -.10580E-01
 -.15451E-01 -.17717E-01 -.16286E-01 -.11767E-01 -.61122E-02 -.16554E-02 -.85815E-04 -.18080E-02 -.58707E-02 -.10467E-01
 -.17378E-01 -.17428E-01 -.14925E-01 -.10745E-01 -.60674E-02 -.20560E-02 0.32540E-03 0.50901E-03 -.14076E-02 -.44905E-02
 -.71961E-02 -.80678E-02 -.65519E-02 -.33859E-02 -.25976E-03 0.10515E-02 -.43460E-03 -.44792E-02 -.97839E-02 -.14586E-01
 -.76141E-02 -.69092E-02 -.53678E-02 -.35469E-02 -.19362E-02 -.81729E-03 -.25172E-03 -.12915E-03 -.25187E-03 -.44132E-03
 -.60520E-03 -.71301E-03 -.73437E-03 -.65962E-03 -.61654E-03 -.92254E-03 -.19130E-02 -.36221E-02 -.56083E-02 -.71380E-02
 -.69629E-02 -.57520E-02 -.37182E-02 -.16628E-02 -.38917E-03 -.22464E-03 -.86010E-03 -.16100E-02 -.18798E-02 -.15048E-02
 -.76079E-03 -.10884E-03 0.10649E-03 -.20032E-03 -.92387E-03 -.19375E-02 -.31904E-02 -.46341E-02 -.60529E-02 -.69966E-02
 -.55916E-02 -.42119E-02 -.22942E-02 -.74659E-03 -.21950E-03 -.69010E-03 -.15687E-02 -.21729E-02 -.21486E-02 -.15755E-02
 -.80473E-03 -.22361E-03 -.76621E-04 -.39061E-03 -.10301E-02 -.18560E-02 -.28453E-02 -.40135E-02 -.51837E-02 -.58825E-02
 -.38586E-02 -.27798E-02 -.16137E-02 -.83484E-03 -.59541E-03 -.74760E-03 -.10766E-02 -.14612E-02 -.18282E-02 -.20435E-02
 -.19418E-02 -.14842E-02 -.85451E-03 -.37339E-03 -.32070E-03 -.81596E-03 -.17896E-02 -.29821E-02 -.39737E-02 -.43301E-02
 -.18809E-02 -.14223E-02 -.10980E-02 -.82593E-03 -.55241E-03 -.40812E-03 -.64162E-03 -.13642E-02 -.23394E-02 -.30427E-02
 -.29949E-02 -.21243E-02 -.86733E-03 0.88224E-04 0.23752E-03 -.43750E-03 -.14954E-02 -.23505E-02 -.26385E-02 -.23835E-02
 -.16951E-03 -.24194E-03 -.48342E-03 -.70434E-03 -.90596E-03 -.12252E-02 -.17467E-02 -.23754E-02 -.28546E-02 -.28956E-02
 -.23546E-02 -.13798E-02 -.41204E-03 0.45083E-04 -.21887E-03 -.92755E-03 -.15060E-02 -.15304E-02 -.10445E-02 -.46104E-03
 0.56934E-03 0.32837E-03 -.27155E-03 -.11740E-02 -.21802E-02 -.29498E-02 -.31815E-02 -.28383E-02 -.21717E-02 -.15050E-02
 -.10061E-02 -.67274E-03 -.48030E-03 -.45842E-03 -.59933E-03 -.75681E-03 -.71800E-03 -.39604E-03 0.77645E-04 0.46100E-03
 0.40475E-03 0.24204E-03 -.50631E-03 -.17319E-02 -.29327E-02 -.35199E-02 -.32387E-02 -.23537E-02 -.14305E-02 -.90158E-03
 -.78710E-03 -.78284E-03 -.58820E-03 -.16425E-03 0.27649E-03 0.48922E-03 0.41227E-03 0.20926E-03 0.12121E-03 0.24478E-03
 0.83969E-04 -.12194E-04 -.52756E-03 -.13375E-02 -.21212E-02 -.25869E-02 -.26307E-02 -.23524E-02 -.19505E-02 -.15660E-02
 -.11778E-02 -.64211E-03 0.12415E-03 0.97029E-03 0.15439E-02 0.15528E-02 0.10353E-02 0.36653E-03 -.36126E-04 -.48994E-04
 -.83153E-04 -.21737E-03 -.28894E-03 -.49973E-03 -.10296E-02 -.18269E-02 -.25514E-02 -.27960E-02 -.24053E-02 -.15716E-02
 -.62487E-03 0.23550E-03 0.98785E-03 0.16261E-02 0.20400E-02 0.20919E-02 0.17721E-02 0.12317E-02 0.66716E-03 0.21036E-03
 -.34325E-03 -.60245E-03 -.50665E-03 -.52397E-03 -.96191E-03 -.16690E-02 -.21444E-02 -.19768E-02 -.12017E-02 -.24418E-03
 0.47679E-03 0.88605E-03 0.12322E-02 0.17785E-02 0.25196E-02 0.31558E-02 0.33041E-02 0.27665E-02 0.16840E-02 0.48830E-03
 -.54199E-03 -.10101E-02 -.11386E-02 -.11461E-02 -.11052E-02 -.94932E-03 -.60691E-03 -.11979E-03 0.36082E-03 0.69949E-03
 0.91857E-03 0.12250E-02 0.18643E-02 0.28839E-02 0.39960E-02 0.46859E-02 0.45277E-02 0.34817E-02 0.19366E-02 0.46064E-03
 -.14466E-03 -.80977E-03 -.11782E-02 -.10620E-02 -.50202E-03 0.15924E-03 0.53121E-03 0.51303E-03 0.37859E-03 0.54441E-03
 0.12595E-02 0.24641E-02 0.38470E-02 0.49841E-02 0.54907E-02 0.51835E-02 0.41913E-02 0.28922E-02 0.16670E-02 0.67152E-03
 0.63717E-03 -.11015E-04 -.42272E-03 -.37115E-03 -.28929E-04 0.17049E-03 -.16613E-04 -.34330E-03 -.23475E-03 0.73486E-03
 0.24790E-02 0.44243E-02 0.58482E-02 0.62615E-02 0.56292E-02 0.43524E-02 0.30281E-02 0.20939E-02 0.15809E-02 0.11875E-02
 0.78399E-03 0.38037E-03 -.45943E-04 -.37027E-03 -.57594E-03 -.71344E-03 -.75303E-03 -.50166E-03 0.29603E-03 0.17272E-02
 0.35391E-02 0.51862E-02 0.60932E-02 0.59685E-02 0.49626E-02 0.35695E-02 0.23364E-02 0.15711E-02 0.12311E-02 0.10500E-02
 -.21877E-03 -.43990E-03 -.89511E-03 -.13027E-02 -.13166E-02 -.84931E-03 -.12394E-03 0.58644E-03 0.12383E-02 0.20126E-02
 0.30449E-02 0.41863E-02 0.50383E-02 0.52103E-02 0.45683E-02 0.33080E-02 0.18538E-02 0.66124E-03 0.86654E-06 -.18312E-03
 -.18923E-02 -.22035E-02 -.24822E-02 -.23285E-02 -.15326E-02 -.36885E-03 0.59705E-03 0.10122E-02 0.10474E-02 0.12146E-02
 0.18893E-02 0.29824E-02 0.40049E-02 0.44015E-02 0.38795E-02 0.25586E-02 0.90627E-03 -.51005E-03 -.13500E-02 -.16911E-02
 -.37075E-02 -.41863E-02 -.40593E-02 -.32626E-02 -.20539E-02 -.89281E-03 -.13237E-03 0.22097E-03 0.46195E-03 0.90115E-03
 0.15970E-02 0.23210E-02 0.27442E-02 0.26591E-02 0.20744E-02 0.11594E-02 0.11789E-03 -.91844E-03 -.19171E-02 -.28761E-02
 -.55499E-02 -.59223E-02 -.53806E-02 -.43300E-02 -.31858E-02 -.21266E-02 -.11208E-02 -.12089E-03 0.78953E-03 0.14101E-02
 0.15642E-02 0.12523E-02 0.70366E-03 0.26278E-03 0.14299E-03 0.21387E-03 0.32250E-04 -.83422E-03 -.24160E-02 -.42256E-02
 -.70788E-02 -.69886E-02 -.60265E-02 -.47294E-02 -.34103E-02 -.21055E-02 -.81092E-03 0.32088E-03 0.10200E-02 0.10905E-02
 0.56995E-03 -.24105E-03 -.88813E-03 -.10029E-02 -.59018E-03 -.14472E-03 -.39203E-03 -.17429E-02 -.38916E-02 -.59551E-02
 0.19125E-01 0.18056E-01 0.14197E-01 0.87767E-02 0.36152E-02 0.19011E-03 -.95900E-03 -.17292E-03 0.16937E-02 0.35516E-02
 0.43292E-02 0.34312E-02 0.12269E-02 -.97613E-03 -.16709E-02 -.59197E-04 0.36201E-02 0.84601E-02 0.13385E-01 0.17306E-01
 0.17748E-01 0.15281E-01 0.11019E-01 0.62401E-02 0.21943E-02 -.21870E-03 -.58180E-03 0.95705E-03 0.35986E-02 0.60062E-02
 0.68346E-02 0.55040E-02 0.26694E-02 -.56803E-04 -.99244E-03 0.72678E-03 0.47972E-02 0.99958E-02 0.14728E-01 0.17579E-01
 0.13436E-01 0.10254E-01 0.64437E-02 0.29761E-02 0.84327E-03 0.95122E-03 0.36114E-02 0.80177E-02 0.12341E-01 0.14591E-01
 0.13693E-01 0.10046E-01 0.52756E-02 0.14522E-02 0.20549E-03 0.20562E-02 0.61919E-02 0.10840E-01 0.14134E-01 0.14991E-01
 0.80292E-02 0.50672E-02 0.22963E-02 0.91307E-03 0.22526E-02 0.70218E-02 0.14352E-01 0.21716E-01 0.26122E-01 0.25795E-01
 0.21072E-01 0.13990E-01 0.71385E-02 0.25910E-02 0.13256E-02 0.30404E-02 0.63474E-02 0.94142E-02 0.10844E-01 0.10230E-01
 0.37514E-02 0.15402E-02 0.41836E-03 0.22456E-02 0.83627E-02 0.18345E-01 0.29503E-01 0.37872E-01 0.40261E-01 0.35963E-01
 0.26954E-01 0.16621E-01 0.80501E-02 0.29127E-02 0.12998E-02 0.21888E-02 0.41193E-02 0.57838E-02 0.63702E-02 0.56173E-02
 0.11405E-02 0.59478E-04 0.14025E-02 0.71309E-02 0.17748E-01 0.31411E-01 0.44211E-01 0.51741E-01 0.51230E-01 0.42993E-01
 0.30226E-01 0.17247E-01 0.73754E-02 0.17864E-02 -.19129E-03 0.35191E-04 0.12161E-02 0.24588E-02 0.30604E-02 0.25557E-02
 -.27920E-03 0.31492E-03 0.46208E-02 0.13879E-01 0.27502E-01 0.42701E-01 0.55089E-01 0.60335E-01 0.56286E-01 0.44304E-01
 0.28698E-01 0.14434E-01 0.46908E-02 -.78964E-04 -.12758E-02 -.64420E-03 0.56246E-03 0.15208E-02 0.16295E-02 0.75794E-03
 -.30821E-03 0.20809E-02 0.89791E-02 0.20671E-01 0.35566E-01 0.50118E-01 0.59752E-01 0.60786E-01 0.52459E-01 0.37647E-01
 0.21495E-01 0.87577E-02 0.16750E-02 -.33065E-03 0.61536E-03 0.23602E-02 0.34887E-02 0.33652E-02 0.20393E-02 0.30563E-03
 0.11958E-02 0.45454E-02 0.12956E-01 0.25653E-01 0.39804E-01 0.51144E-01 0.55643E-01 0.51452E-01 0.39963E-01 0.25220E-01
 0.12002E-01 0.37159E-02 0.12405E-02 0.31289E-02 0.67510E-02 0.96044E-02 0.10204E-01 0.83689E-02 0.50552E-02 0.19814E-02
 0.28525E-02 0.59941E-02 0.14584E-01 0.26451E-01 0.37609E-01 0.43942E-01 0.43146E-01 0.35712E-01 0.24471E-01 0.13226E-01
 0.53324E-02 0.27128E-02 0.53469E-02 0.11328E-01 0.17617E-01 0.21325E-01 0.20921E-01 0.16711E-01 0.10521E-01 0.49996E-02
 0.30236E-02 0.53191E-02 0.12709E-01 0.21901E-01 0.28903E-01 0.30931E-01 0.27544E-01 0.20421E-01 0.12309E-01 0.60292E-02
 0.38644E-02 0.70010E-02 0.14876E-01 0.24930E-01 0.33380E-01 0.36870E-01 0.34008E-01 0.25910E-01 0.15621E-01 0.69259E-02
 0.19657E-02 0.32573E-02 0.83520E-02 0.14087E-01 0.17687E-01 0.17754E-01 0.14521E-01 0.95267E-02 0.50758E-02 0.36852E-02
 0.73691E-02 0.16678E-01 0.29890E-01 0.43118E-01 0.51702E-01 0.52328E-01 0.44650E-01 0.31453E-01 0.17323E-01 0.66498E-02
 0.10382E-02 0.13456E-02 0.39795E-02 0.68964E-02 0.85542E-02 0.80728E-02 0.55831E-02 0.25489E-02 0.15496E-02 0.53139E-02
 0.15327E-01 0.30668E-01 0.47747E-01 0.61319E-01 0.66606E-01 0.61577E-01 0.48072E-01 0.30909E-01 0.15466E-01 0.52706E-02
 0.54579E-03 0.35917E-03 0.14465E-02 0.26806E-02 0.31087E-02 0.21009E-02 0.84264E-04 -.99107E-03 0.17681E-02 0.10692E-01
 0.25966E-01 0.44865E-01 0.62285E-01 0.72583E-01 0.72082E-01 0.61005E-01 0.43495E-01 0.25469E-01 0.11625E-01 0.36442E-02
 0.18793E-03 0.51416E-03 0.11991E-02 0.14913E-02 0.95129E-03 -.38768E-03 -.15261E-02 -.37059E-03 0.55312E-02 0.17576E-01
 0.34758E-01 0.53261E-01 0.67526E-01 0.72590E-01 0.66572E-01 0.51780E-01 0.33550E-01 0.17454E-01 0.67435E-02 0.15840E-02
 0.85003E-03 0.22939E-02 0.30314E-02 0.27382E-02 0.17065E-02 0.55863E-03 0.35297E-03 0.27504E-02 0.95893E-02 0.21656E-01
 0.37365E-01 0.52560E-01 0.62055E-01 0.62208E-01 0.52898E-01 0.37580E-01 0.21448E-01 0.89314E-02 0.20006E-02 0.19767E-04
 0.38675E-02 0.59592E-02 0.64964E-02 0.56864E-02 0.42274E-02 0.28288E-02 0.24101E-02 0.44470E-02 0.10511E-01 0.20899E-01
 0.33491E-01 0.44154E-01 0.48750E-01 0.45379E-01 0.35330E-01 0.22260E-01 0.10368E-01 0.26576E-02 -.41901E-05 0.11754E-02
 0.88494E-02 0.10696E-01 0.10562E-01 0.87783E-02 0.60649E-02 0.33529E-02 0.19443E-02 0.33935E-02 0.86593E-02 0.17008E-01
 0.25768E-01 0.31489E-01 0.31806E-01 0.26682E-01 0.18248E-01 0.95998E-02 0.34173E-02 0.10583E-02 0.22746E-02 0.55368E-02
 0.13905E-01 0.15050E-01 0.13793E-01 0.10378E-01 0.58650E-02 0.19013E-02 0.18329E-03 0.17211E-02 0.62199E-02 0.11983E-01
 0.16569E-01 0.17976E-01 0.15684E-01 0.10878E-01 0.57318E-02 0.22701E-02 0.15289E-02 0.33905E-02 0.69262E-02 0.10857E-01
 0.17579E-01 0.17809E-01 0.15141E-01 0.10194E-01 0.46907E-02 0.63751E-03 -.70029E-03 0.68016E-03 0.36930E-02 0.67216E-02
 0.82563E-02 0.75061E-02 0.48254E-02 0.16237E-02 -.37598E-03 -.95988E-04 0.24430E-02 0.64385E-02 0.10909E-01 0.14946E-01
 0.81246E-02 0.81598E-02 0.66468E-02 0.42733E-02 0.22728E-02 0.13487E-02 0.12147E-02 0.11881E-02 0.10051E-02 0.88317E-03
 0.94276E-03 0.91601E-03 0.55460E-03 0.10909E-03 0.15122E-03 0.95324E-03 0.22606E-02 0.37170E-02 0.52623E-02 0.68871E-02
 0.76375E-02 0.67850E-02 0.51719E-02 0.34734E-02 0.21652E-02 0.12705E-02 0.60698E-03 0.20436E-03 0.33253E-03 0.10729E-02
 0.19870E-02 0.23744E-02 0.19116E-02 0.99304E-03 0.41852E-03 0.77796E-03 0.21167E-02 0.40420E-02 0.59790E-02 0.73335E-02
 0.53672E-02 0.40618E-02 0.29257E-02 0.19880E-02 0.11462E-02 0.49621E-03 0.28583E-03 0.63155E-03 0.13761E-02 0.21922E-02
 0.27372E-02 0.27398E-02 0.21232E-02 0.12001E-02 0.68223E-03 0.12581E-02 0.29734E-02 0.50359E-02 0.63551E-02 0.63686E-02
 0.28908E-02 0.18775E-02 0.11972E-02 0.72077E-03 0.58929E-03 0.10808E-02 0.20673E-02 0.29142E-02 0.30750E-02 0.26364E-02
 0.21054E-02 0.17526E-02 0.14245E-02 0.10475E-02 0.10332E-02 0.18874E-02 0.34474E-02 0.47848E-02 0.50239E-02 0.41520E-02
 0.18659E-02 0.10934E-02 0.51686E-03 0.50134E-03 0.13503E-02 0.28543E-02 0.41831E-02 0.44781E-02 0.36242E-02 0.23371E-02
 0.14363E-02 0.11231E-02 0.10415E-02 0.92186E-03 0.94300E-03 0.14045E-02 0.22159E-02 0.28912E-02 0.30187E-02 0.25909E-02
 0.15745E-02 0.77871E-03 0.42334E-03 0.92607E-03 0.21360E-02 0.34747E-02 0.43415E-02 0.44504E-02 0.39065E-02 0.30533E-02
 0.22338E-02 0.16073E-02 0.11215E-02 0.66031E-03 0.25171E-03 0.12123E-03 0.48642E-03 0.12578E-02 0.19745E-02 0.21198E-02
 0.69873E-03 0.35162E-03 0.59623E-03 0.12565E-02 0.19779E-02 0.27235E-02 0.36557E-02 0.46194E-02 0.50396E-02 0.44852E-02
 0.31953E-02 0.18639E-02 0.94392E-03 0.35059E-03 -.12507E-03 -.35367E-03 -.42150E-04 0.70707E-03 0.12958E-02 0.12319E-02
 -.11498E-03 0.47898E-03 0.12194E-02 0.17146E-02 0.20520E-02 0.27439E-02 0.39896E-02 0.51729E-02 0.53380E-02 0.41828E-02
 0.24151E-02 0.10527E-02 0.49975E-03 0.41264E-03 0.32878E-03 0.16709E-03 0.71408E-04 0.27872E-04 -.10657E-03 -.26107E-03
 0.15838E-03 0.12018E-02 0.20609E-02 0.26862E-02 0.32446E-02 0.38459E-02 0.43051E-02 0.42283E-02 0.33930E-02 0.20480E-02
 0.80230E-03 0.17369E-03 0.20926E-03 0.50596E-03 0.56983E-03 0.17922E-03 -.50811E-03 -.11045E-02 -.12410E-02 -.77043E-03
 0.53934E-03 0.12729E-02 0.22628E-02 0.33988E-02 0.41331E-02 0.40026E-02 0.31348E-02 0.21057E-02 0.13453E-02 0.82894E-03
 0.35716E-03 -.59668E-04 -.25933E-03 -.28220E-03 -.43127E-03 -.88162E-03 -.13693E-02 -.14332E-02 -.93437E-03 -.17414E-03
 -.16580E-03 0.28568E-03 0.14868E-02 0.28170E-02 0.33210E-02 0.27400E-02 0.17847E-02 0.13077E-02 0.13802E-02 0.13475E-02
 0.69535E-03 -.38541E-03 -.13293E-02 -.18411E-02 -.20124E-02 -.19385E-02 -.15418E-02 -.86791E-03 -.29014E-03 -.13655E-03
 -.85768E-03 -.44886E-03 0.45696E-03 0.13526E-02 0.17725E-02 0.17499E-02 0.16819E-02 0.17877E-02 0.18183E-02 0.13405E-02
 0.23120E-03 -.11750E-02 -.23716E-02 -.30157E-02 -.30136E-02 -.24550E-02 -.16009E-02 -.86525E-03 -.59574E-03 -.74965E-03
 -.75001E-04 -.73725E-04 -.26824E-04 0.35110E-03 0.99165E-03 0.14816E-02 0.14708E-02 0.10115E-02 0.42643E-03 -.11108E-03
 -.74396E-03 -.16459E-02 -.26717E-02 -.34021E-02 -.35253E-02 -.30893E-02 -.23691E-02 -.15925E-02 -.87243E-03 -.32516E-03
 0.11710E-02 0.57817E-03 0.94256E-04 0.28668E-03 0.80138E-03 0.81122E-03 0.34608E-04 -.92266E-03 -.13104E-02 -.11223E-02
 -.10535E-02 -.16504E-02 -.27276E-02 -.36615E-02 -.40304E-02 -.37912E-02 -.29916E-02 -.16629E-02 -.10217E-03 0.10204E-02
 0.12020E-02 0.81230E-03 0.59938E-03 0.68077E-03 0.63593E-03 0.10379E-03 -.69069E-03 -.11648E-02 -.10889E-02 -.89153E-03
 -.11838E-02 -.20922E-02 -.31655E-02 -.38587E-02 -.39400E-02 -.34326E-02 -.23969E-02 -.97930E-03 0.40159E-03 0.11953E-02
 0.81427E-03 0.13529E-02 0.15235E-02 0.13450E-02 0.10548E-02 0.86114E-03 0.74466E-03 0.49598E-03 -.78408E-04 -.98556E-03
 -.20278E-02 -.29011E-02 -.33296E-02 -.31936E-02 -.26061E-02 -.18624E-02 -.12448E-02 -.81854E-03 -.41785E-03 0.13881E-03
 0.18899E-02 0.28569E-02 0.28693E-02 0.24349E-02 0.22489E-02 0.23461E-02 0.21271E-02 0.11420E-02 -.36939E-03 -.17566E-02
 -.25752E-02 -.27820E-02 -.24764E-02 -.17545E-02 -.88994E-03 -.38088E-03 -.51746E-03 -.91627E-03 -.75560E-03 0.36165E-03
 0.41957E-02 0.47622E-02 0.43659E-02 0.36079E-02 0.29565E-02 0.23024E-02 0.13336E-02 0.11837E-03 -.90180E-03 -.14287E-02
 -.15755E-02 -.15604E-02 -.13501E-02 -.81228E-03 -.12195E-03 0.28264E-03 0.27006E-03 0.34674E-03 0.11684E-02 0.27220E-02
 0.61345E-02 0.64093E-02 0.57406E-02 0.42830E-02 0.25019E-02 0.96188E-03 0.73588E-04 -.10305E-03 0.11360E-03 0.23989E-03
 -.18995E-04 -.54569E-03 -.92835E-03 -.82237E-03 -.21235E-03 0.66507E-03 0.16140E-02 0.26470E-02 0.38528E-02 0.51364E-02
 0.73499E-02 0.77211E-02 0.67005E-02 0.44463E-02 0.20302E-02 0.60478E-03 0.47504E-03 0.10117E-02 0.13749E-02 0.11956E-02
 0.61445E-03 -.74979E-04 -.61784E-03 -.73949E-03 -.18757E-03 0.10191E-02 0.25030E-02 0.38583E-02 0.50379E-02 0.62382E-02
 -.18862E-01 -.16512E-01 -.12526E-01 -.79233E-02 -.33061E-02 0.49704E-03 0.23091E-02 0.15318E-02 -.97524E-03 -.33301E-02
 -.40805E-02 -.31427E-02 -.14080E-02 0.17784E-03 0.89430E-03 -.44214E-04 -.33349E-02 -.87197E-02 -.14484E-01 -.18308E-01
 -.17167E-01 -.14191E-01 -.95982E-02 -.45896E-02 -.51413E-03 0.13613E-02 0.48125E-03 -.23889E-02 -.53784E-02 -.66675E-02
 -.56665E-02 -.31984E-02 -.68698E-03 0.72581E-03 0.42807E-03 -.18224E-02 -.58603E-02 -.10835E-01 -.15252E-01 -.17608E-01
 -.14132E-01 -.10935E-01 -.62011E-02 -.19618E-02 -.99295E-04 -.13766E-02 -.51730E-02 -.98574E-02 -.13442E-01 -.14334E-01
 -.12071E-01 -.76690E-02 -.31644E-02 -.47295E-03 -.39115E-03 -.25014E-02 -.58528E-02 -.95720E-02 -.12854E-01 -.14701E-01
 -.96254E-02 -.63428E-02 -.27022E-02 -.95269E-03 -.24440E-02 -.70983E-02 -.13769E-01 -.20641E-01 -.25420E-01 -.25971E-01
 -.21614E-01 -.14037E-01 -.65282E-02 -.18656E-02 -.73868E-03 -.20635E-02 -.44811E-02 -.72215E-02 -.96747E-02 -.10805E-01
 -.38044E-02 -.15602E-02 -.56636E-03 -.23984E-02 -.77879E-02 -.16345E-01 -.26489E-01 -.35471E-01 -.40007E-01 -.37846E-01
 -.29435E-01 -.18083E-01 -.80903E-02 -.22224E-02 -.59482E-03 -.15868E-02 -.34720E-02 -.51876E-02 -.60764E-02 -.56221E-02
 0.60868E-03 0.75509E-03 -.13639E-02 -.70555E-02 -.16946E-01 -.29900E-01 -.42667E-01 -.50956E-01 -.51534E-01 -.44027E-01
 -.31197E-01 -.17501E-01 -.69075E-02 -.12749E-02 -.51225E-04 -.11955E-02 -.25574E-02 -.28886E-02 -.20565E-02 -.62865E-03
 0.13944E-02 -.31052E-04 -.46949E-02 -.14217E-01 -.28453E-01 -.44208E-01 -.56234E-01 -.60103E-01 -.54663E-01 -.42287E-01
 -.27214E-01 -.13557E-01 -.40711E-02 0.35839E-03 0.74128E-03 -.65214E-03 -.16191E-02 -.12444E-02 -.99761E-05 0.11180E-02
 0.60433E-04 -.18303E-02 -.85487E-02 -.21112E-01 -.37443E-01 -.52468E-01 -.60699E-01 -.59365E-01 -.49619E-01 -.35262E-01
 -.20535E-01 -.86620E-02 -.13837E-02 0.11391E-02 0.25877E-03 -.18093E-02 -.31775E-02 -.31424E-02 -.20387E-02 -.61392E-03
 -.98645E-03 -.32629E-02 -.11443E-01 -.24757E-01 -.39698E-01 -.51281E-01 -.55402E-01 -.50824E-01 -.39561E-01 -.25601E-01
 -.13006E-01 -.44892E-02 -.92715E-03 -.15817E-02 -.46696E-02 -.80579E-02 -.99464E-02 -.93916E-02 -.65987E-02 -.29905E-02
 -.20078E-02 -.48302E-02 -.12894E-01 -.24137E-01 -.35324E-01 -.42820E-01 -.43759E-01 -.37480E-01 -.26265E-01 -.14405E-01
 -.60004E-02 -.30643E-02 -.51792E-02 -.10419E-01 -.16357E-01 -.20579E-01 -.21149E-01 -.17451E-01 -.10915E-01 -.46631E-02
 -.36391E-02 -.61322E-02 -.12348E-01 -.20131E-01 -.27100E-01 -.30661E-01 -.28812E-01 -.21668E-01 -.12161E-01 -.47188E-02
 -.27574E-02 -.70041E-02 -.15667E-01 -.25650E-01 -.33593E-01 -.36608E-01 -.33275E-01 -.24679E-01 -.14331E-01 -.64308E-02
 -.39141E-02 -.52697E-02 -.94204E-02 -.14147E-01 -.17394E-01 -.17507E-01 -.13925E-01 -.79339E-02 -.25521E-02 -.12358E-02
 -.61403E-02 -.17009E-01 -.31145E-01 -.44280E-01 -.52007E-01 -.51515E-01 -.42982E-01 -.29695E-01 -.16494E-01 -.73817E-02
 -.12763E-02 -.21579E-02 -.52031E-02 -.77609E-02 -.82942E-02 -.66784E-02 -.38132E-02 -.11901E-02 -.78325E-03 -.48443E-02
 -.14945E-01 -.30466E-01 -.47798E-01 -.61392E-01 -.66373E-01 -.61028E-01 -.47523E-01 -.30602E-01 -.15341E-01 -.52296E-02
 0.18261E-02 0.46719E-03 -.18892E-02 -.29327E-02 -.23314E-02 -.11096E-02 -.34480E-03 -.82433E-03 -.38323E-02 -.11452E-01
 -.25096E-01 -.43269E-01 -.60984E-01 -.71993E-01 -.72232E-01 -.61833E-01 -.44584E-01 -.25818E-01 -.10344E-01 -.10466E-02
 0.19901E-02 0.48097E-03 -.95707E-03 -.12172E-02 -.63475E-03 -.32813E-04 -.80998E-04 -.17165E-02 -.67589E-02 -.17227E-01
 -.33284E-01 -.51671E-01 -.66521E-01 -.72367E-01 -.67113E-01 -.52869E-01 -.34500E-01 -.17279E-01 -.49887E-02 0.10501E-02
 -.60094E-03 -.17027E-02 -.25672E-02 -.26301E-02 -.17099E-02 -.21554E-03 0.53672E-03 -.15701E-02 -.85911E-02 -.21137E-01
 -.37271E-01 -.52603E-01 -.61947E-01 -.61826E-01 -.52347E-01 -.37152E-01 -.21447E-01 -.94135E-02 -.26470E-02 -.34071E-03
 -.39265E-02 -.52422E-02 -.62042E-02 -.58122E-02 -.35682E-02 -.54909E-03 0.75361E-03 -.21219E-02 -.10103E-01 -.22015E-01
 -.34917E-01 -.44924E-01 -.48491E-01 -.44091E-01 -.33384E-01 -.20627E-01 -.10259E-01 -.44508E-02 -.25966E-02 -.28633E-02
 -.79642E-02 -.10002E-01 -.10661E-01 -.90697E-02 -.55359E-02 -.19294E-02 -.67588E-03 -.32724E-02 -.95785E-02 -.18055E-01
 -.26275E-01 -.31444E-01 -.31342E-01 -.25664E-01 -.16684E-01 -.81525E-02 -.29949E-02 -.17647E-02 -.31193E-02 -.54762E-02
 -.13220E-01 -.14762E-01 -.13898E-01 -.10940E-01 -.69239E-02 -.32986E-02 -.14425E-02 -.22137E-02 -.56243E-02 -.10660E-01
 -.15409E-01 -.17733E-01 -.16347E-01 -.11682E-01 -.57871E-02 -.12236E-02 0.29386E-03 -.14190E-02 -.52843E-02 -.97108E-02
 -.17678E-01 -.17167E-01 -.14396E-01 -.10492E-01 -.62232E-02 -.22475E-02 0.43790E-03 0.79756E-03 -.13067E-02 -.46499E-02
 -.73219E-02 -.79515E-02 -.63818E-02 -.34650E-02 -.54109E-03 0.92528E-03 -.25556E-03 -.43158E-02 -.10024E-01 -.15125E-01
 -.81207E-02 -.63340E-02 -.45947E-02 -.33026E-02 -.19962E-02 -.50686E-03 0.52148E-03 0.46679E-03 -.32755E-03 -.88753E-03
 -.78716E-03 -.54648E-03 -.74261E-03 -.11602E-02 -.12416E-02 -.11918E-02 -.20416E-02 -.43400E-02 -.71267E-02 -.86545E-02
 -.71637E-02 -.56494E-02 -.37923E-02 -.19882E-02 -.58239E-03 -.30745E-04 -.55533E-03 -.16660E-02 -.23510E-02 -.19702E-02
 -.88238E-03 -.32447E-04 0.32317E-04 -.44978E-03 -.10433E-02 -.18119E-02 -.31747E-02 -.51394E-02 -.69661E-02 -.77410E-02
 -.65473E-02 -.52825E-02 -.30773E-02 -.12028E-02 -.58451E-03 -.11516E-02 -.21253E-02 -.27710E-02 -.28093E-02 -.22990E-02
 -.14265E-02 -.50088E-03 0.53978E-04 -.50338E-04 -.70631E-03 -.15528E-02 -.24286E-02 -.35322E-02 -.49803E-02 -.62883E-02
 -.51253E-02 -.35320E-02 -.15951E-02 -.68668E-03 -.96476E-03 -.15641E-02 -.18889E-02 -.22160E-02 -.29197E-02 -.35813E-02
 -.33532E-02 -.21116E-02 -.77114E-03 -.26960E-03 -.57166E-03 -.10057E-02 -.13758E-02 -.22097E-02 -.37479E-02 -.51367E-02
 -.19619E-02 -.80631E-03 -.23226E-03 -.48256E-03 -.99721E-03 -.12967E-02 -.16919E-02 -.27868E-02 -.43978E-02 -.53959E-02
 -.48371E-02 -.30415E-02 -.12934E-02 -.54992E-03 -.71321E-03 -.11681E-02 -.16453E-02 -.22467E-02 -.28212E-02 -.28166E-02
 0.51710E-03 0.31408E-03 -.28502E-03 -.99589E-03 -.17614E-02 -.26996E-02 -.38439E-02 -.49517E-02 -.55631E-02 -.52762E-02
 -.40521E-02 -.23394E-02 -.89280E-03 -.34183E-03 -.77123E-03 -.16398E-02 -.21560E-02 -.18527E-02 -.90395E-03 0.70622E-04
 0.26213E-03 -.46315E-03 -.10669E-02 -.20117E-02 -.36753E-02 -.55081E-02 -.64166E-02 -.59343E-02 -.46573E-02 -.34268E-02
 -.24123E-02 -.12981E-02 -.16660E-03 0.31499E-03 -.22373E-03 -.11351E-02 -.13190E-02 -.47299E-03 0.56365E-03 0.82320E-03
 -.67265E-03 -.69850E-03 -.10691E-02 -.25759E-02 -.49217E-02 -.66646E-02 -.66326E-02 -.51498E-02 -.35634E-02 -.26899E-02
 -.21210E-02 -.11294E-02 0.17086E-03 0.95376E-03 0.81137E-03 0.27518E-03 0.63262E-04 0.17554E-03 0.87566E-04 -.34384E-03
 0.15902E-04 0.17389E-03 -.56432E-03 -.22400E-02 -.41538E-02 -.53767E-02 -.54956E-02 -.48457E-02 -.40282E-02 -.32906E-02
 -.24341E-02 -.12519E-02 0.83391E-04 0.11120E-02 0.14808E-02 0.11846E-02 0.49836E-03 -.20293E-03 -.57110E-03 -.43147E-03
 0.69270E-03 -.79084E-06 -.85555E-03 -.16679E-02 -.26641E-02 -.39327E-02 -.49412E-02 -.49487E-02 -.38709E-02 -.24459E-02
 -.14266E-02 -.81894E-03 -.13116E-03 0.76220E-03 0.13478E-02 0.11679E-02 0.51720E-03 0.16107E-03 0.41939E-03 0.81147E-03
 -.55777E-03 -.15960E-02 -.17427E-02 -.15657E-02 -.20708E-02 -.32692E-02 -.39580E-02 -.31293E-02 -.12614E-02 0.16861E-03
 0.34529E-03 -.11821E-03 -.14849E-03 0.46973E-03 0.10854E-02 0.12511E-02 0.12544E-02 0.14428E-02 0.14861E-02 0.77812E-03
 -.16417E-02 -.21185E-02 -.19101E-02 -.16765E-02 -.18494E-02 -.20537E-02 -.15624E-02 -.26708E-03 0.10511E-02 0.15178E-02
 0.10787E-02 0.47086E-03 0.38016E-03 0.83563E-03 0.14293E-02 0.18550E-02 0.20197E-02 0.17787E-02 0.92441E-03 -.42240E-03
 -.18411E-03 -.66969E-03 -.12148E-02 -.13662E-02 -.95851E-03 -.33277E-03 0.66393E-04 0.18040E-03 0.30070E-03 0.61862E-03
 0.99838E-03 0.12421E-02 0.14072E-02 0.16876E-02 0.20348E-02 0.21012E-02 0.16545E-02 0.91593E-03 0.33502E-03 0.62113E-04
 0.17624E-02 0.50465E-03 -.65228E-03 -.70539E-03 -.18064E-04 0.18881E-03 -.57677E-03 -.14455E-02 -.12736E-02 -.58353E-05
 0.13759E-02 0.20798E-02 0.22217E-02 0.22516E-02 0.21424E-02 0.15822E-02 0.78634E-03 0.53956E-03 0.11895E-02 0.19676E-02
 0.11656E-02 -.17561E-04 -.67043E-03 -.44388E-03 -.63767E-04 -.33737E-03 -.10828E-02 -.13447E-02 -.57206E-03 0.75981E-03
 0.17841E-02 0.21867E-02 0.22584E-02 0.22039E-02 0.18440E-02 0.11277E-02 0.56504E-03 0.74444E-03 0.14784E-02 0.18274E-02
 -.91518E-03 -.10872E-02 -.12265E-02 -.11735E-02 -.80277E-03 -.19035E-03 0.41119E-03 0.78233E-03 0.91865E-03 0.10023E-02
 0.12066E-02 0.15376E-02 0.18452E-02 0.19505E-02 0.17566E-02 0.12822E-02 0.64430E-03 0.14990E-04 -.45777E-03 -.73852E-03
 -.20115E-02 -.20827E-02 -.26780E-02 -.27980E-02 -.16518E-02 0.23018E-03 0.14713E-02 0.13530E-02 0.51214E-03 0.74284E-04
 0.41852E-03 0.10523E-02 0.14750E-02 0.16953E-02 0.18032E-02 0.14761E-02 0.34651E-03 -.12467E-02 -.23446E-02 -.24130E-02
 -.29223E-02 -.39611E-02 -.48817E-02 -.45447E-02 -.28088E-02 -.87298E-03 -.53182E-05 -.21890E-03 -.49327E-03 -.12789E-03
 0.55287E-03 0.90062E-03 0.89650E-03 0.10129E-02 0.13066E-02 0.11722E-02 0.18254E-03 -.11962E-02 -.21178E-02 -.24546E-02
 -.53599E-02 -.63319E-02 -.63243E-02 -.53718E-02 -.39453E-02 -.25994E-02 -.15513E-02 -.66263E-03 0.17538E-03 0.76329E-03
 0.80237E-03 0.33480E-03 -.16597E-03 -.22160E-03 0.17396E-03 0.54849E-03 0.37979E-03 -.52638E-03 -.20167E-02 -.37649E-02
 -.78309E-02 -.71811E-02 -.58982E-02 -.47705E-02 -.37237E-02 -.23285E-02 -.66726E-03 0.60708E-03 0.99983E-03 0.66190E-03
 0.72692E-04 -.49822E-03 -.99071E-03 -.12037E-02 -.87059E-03 -.23579E-03 -.24263E-03 -.17367E-02 -.44248E-02 -.68907E-02
 0.19102E-01 0.19083E-01 0.15333E-01 0.92530E-02 0.36462E-02 0.47735E-03 -.26016E-03 0.37770E-03 0.16627E-02 0.32465E-02
 0.43296E-02 0.37390E-02 0.12629E-02 -.15233E-02 -.23710E-02 -.35076E-03 0.35842E-02 0.79746E-02 0.12227E-01 0.16239E-01
 0.17998E-01 0.15778E-01 0.11231E-01 0.60662E-02 0.20289E-02 -.65010E-04 -.29998E-03 0.97441E-03 0.33284E-02 0.58318E-02
 0.70053E-02 0.57839E-02 0.26702E-02 -.32918E-03 -.11528E-02 0.87928E-03 0.49622E-02 0.97729E-02 0.14204E-01 0.17284E-01