unknown system                          
   1.00000000000000     
     2.573869    0.000000    0.000000
     1.286934    2.229036    0.000000
     0.000000    0.000000   30.304665
   Cu   H 
     4     1
Direct
  0.999706  0.000588  0.396567
  0.333186  0.333624  0.465140
  0.665829  0.668343  0.533594
  0.000801  0.998398  0.604216
  0.477089  0.045818  0.637503
 
   20   20  240
 -.18835899344E-01 -.17537783994E-01 -.13668657629E-01 -.84106534187E-02 -.33412044795E-02
 0.21501972509E-03 0.16161180442E-02 0.97897794417E-03 -.95310418957E-03 -.30327276438E-02
 -.40848060500E-02 -.34551175025E-02 -.14526098895E-02 0.71700280499E-03 0.15937216947E-02
 0.25225105759E-03 -.32979888821E-02 -.82423176780E-02 -.13337182845E-01 -.17246264866E-01
 -.17420337385E-01 -.14690076370E-01 -.98148188935E-02 -.44192157006E-02 -.34664785022E-03
 0.12146239129E-02 0.20501915915E-03 -.24077371994E-02 -.51155684144E-02 -.65002788606E-02
 -.58400236287E-02 -.34776745797E-02 -.68646233819E-03 0.99943727736E-03 0.58982297108E-03
 -.19752067190E-02 -.60306816116E-02 -.10623403559E-01 -.14739697208E-01 -.17319863401E-01
 -.13550913634E-01 -.10159755556E-01 -.55991611947E-02 -.15728707245E-02 0.25670569588E-03
 -.97069895379E-03 -.48334764633E-02 -.97032994492E-02 -.13423953349E-01 -.14331540881E-01
 -.12089775729E-01 -.78324537538E-02 -.35091078309E-02 -.86756561421E-03 -.72463596845E-03
 -.28734574016E-02 -.64518822519E-02 -.10349590366E-01 -.13432102014E-01 -.14697070041E-01
 -.86117584940E-02 -.57588685008E-02 -.27983529629E-02 -.11409326179E-02 -.21976791609E-02
 -.66425407139E-02 -.13673713302E-01 -.20966990107E-01 -.25641999493E-01 -.25747416469E-01
 -.21286079838E-01 -.14127338276E-01 -.69706136873E-02 -.20899925492E-02 -.52578555378E-03
 -.19491272689E-02 -.50597723810E-02 -.82430049830E-02 -.10197891559E-01 -.10297434946E-01
 -.38397698750E-02 -.22273831329E-02 -.14631016122E-02 -.28769725045E-02 -.77691915033E-02
 -.16353290977E-01 -.26880438909E-01 -.35933013299E-01 -.40005471959E-01 -.37381790903E-01
 -.29039301623E-01 -.18064437467E-01 -.80893808990E-02 -.17177081968E-02 0.32611701675E-03
 -.90575196819E-03 -.34359516404E-02 -.54595926666E-02 -.60830407485E-02 -.53595906371E-02
 -.85207956658E-04 0.21024846481E-03 -.16462107328E-02 -.71431585195E-02 -.16996279442E-01
 -.30011595001E-01 -.42807093656E-01 -.51018724643E-01 -.51465656493E-01 -.43886778310E-01
 -.31086525209E-01 -.17445119218E-01 -.68052289441E-02 -.97405920118E-03 0.50789060242E-03
 -.49448083027E-03 -.19660578824E-02 -.26562466705E-02 -.22864917223E-02 -.12169475069E-02
 0.17399419060E-02 0.75252232169E-03 -.41410371366E-02 -.14111107991E-01 -.28408660343E-01
 -.43890442384E-01 -.55861780770E-01 -.60105495734E-01 -.55036752822E-01 -.42601745962E-01
 -.27255272034E-01 -.13663051464E-01 -.46274798173E-02 -.42559906399E-03 0.40024926275E-03
 -.28002453385E-03 -.10731069444E-02 -.12407929310E-02 -.54821734250E-03 0.75362170298E-03
 0.11494962181E-02 -.98756052876E-03 -.84421562894E-02 -.21354620742E-01 -.37340791511E-01
 -.51964680819E-01 -.60406240676E-01 -.59668350944E-01 -.50123857206E-01 -.35357663595E-01
 -.20288036272E-01 -.87728178184E-02 -.22396881221E-02 0.35814435257E-04 -.30490380023E-03
 -.17167849482E-02 -.30151346952E-02 -.32958848084E-02 -.21286382789E-02 -.57400863831E-04
 -.98165905764E-03 -.36609179228E-02 -.12047493672E-01 -.25164366372E-01 -.39719557341E-01
 -.51133093594E-01 -.55402340868E-01 -.50973007446E-01 -.39538385450E-01 -.25188629757E-01
 -.12393725525E-01 -.40914512622E-02 -.94681054193E-03 -.18527918415E-02 -.49101354183E-02
 -.81552001207E-02 -.99400971547E-02 -.92910764303E-02 -.63728140613E-02 -.27424843437E-02
 -.29247167286E-02 -.53371562408E-02 -.13042990702E-01 -.24280185526E-01 -.35578252100E-01
 -.42958605685E-01 -.43613567253E-01 -.37218215905E-01 -.26113595570E-01 -.14249259641E-01
 -.54905103156E-02 -.21502632483E-02 -.43221216780E-02 -.10114348420E-01 -.16548440768E-01
 -.20745135544E-01 -.20982015668E-01 -.17261331759E-01 -.11225192706E-01 -.55269015215E-02
 -.36002146053E-02 -.54299390942E-02 -.11755445279E-01 -.20179920724E-01 -.27448425528E-01
 -.30659445046E-01 -.28455116757E-01 -.21605384523E-01 -.12744667180E-01 -.54231913709E-02
 -.28012426945E-02 -.63538304561E-02 -.15067904714E-01 -.25652853977E-01 -.33902995907E-01
 -.36611663253E-01 -.32963658991E-01 -.24659441531E-01 -.14910070381E-01 -.70740720624E-02
 -.29596272004E-02 -.43765669199E-02 -.91098897250E-02 -.14356077283E-01 -.17568285102E-01
 -.17322663057E-01 -.13710603397E-01 -.82458005991E-02 -.34530227684E-02 -.21958987875E-02
 -.66582261005E-02 -.17127066358E-01 -.31240978333E-01 -.44499737909E-01 -.52135540713E-01
 -.51381128706E-01 -.42744097311E-01 -.29571144040E-01 -.16351750778E-01 -.68559377671E-02
 -.13050350213E-02 -.24038594067E-02 -.54186440068E-02 -.78472870732E-02 -.82849029061E-02
 -.65808049200E-02 -.36027304543E-02 -.96066278437E-03 -.76933902387E-03 -.51868064095E-02
 -.15474926944E-01 -.30832325477E-01 -.47832479975E-01 -.61271773850E-01 -.66364604080E-01
 -.61129886057E-01 -.47467804618E-01 -.30216316958E-01 -.14798656059E-01 -.48894001523E-02
 0.70741584685E-03 -.70260273340E-04 -.17597677303E-02 -.27516886508E-02 -.24951227454E-02
 -.12275511711E-02 0.19299186163E-03 0.28242368717E-03 -.29325373493E-02 -.11282618757E-01
 -.25319587649E-01 -.43208908858E-01 -.60546490466E-01 -.71724136305E-01 -.72486040801E-01
 -.62253750763E-01 -.44628695200E-01 -.25590863406E-01 -.10523025595E-01 -.19635053278E-02
 0.16390254186E-02 0.87387216902E-03 -.38203144967E-03 -.12085588409E-02 -.11929666433E-02
 -.41180784574E-03 0.27696237586E-03 -.90982265621E-03 -.62066148791E-02 -.17160093451E-01
 -.33293743911E-01 -.51391614744E-01 -.66159287896E-01 -.72360679842E-01 -.67463607707E-01
 -.53142739917E-01 -.34491673691E-01 -.17352808722E-01 -.55490969987E-02 0.24121846710E-03
 0.79204509206E-04 -.11192987226E-02 -.23305718464E-02 -.28529054020E-02 -.22859192515E-02
 -.89097161981E-03 -.41539333324E-05 -.18894663624E-02 -.87478520840E-02 -.21236575646E-01
 -.37368524279E-01 -.52684917622E-01 -.61973553597E-01 -.61784570571E-01 -.52262137467E-01
 -.37060020132E-01 -.21348415433E-01 -.92451192967E-02 -.23111483297E-02 0.21077366273E-03
 -.39289021792E-02 -.55388410772E-02 -.62038313056E-02 -.55177660826E-02 -.35703469330E-02
 -.12083621702E-02 -.17213408967E-03 -.26474403372E-02 -.10104975605E-01 -.21982100928E-01
 -.35217299054E-01 -.45305278776E-01 -.48480978291E-01 -.43695088051E-01 -.33079307485E-01
 -.20655114782E-01 -.10241689941E-01 -.39025007216E-02 -.16543210141E-02 -.22012929692E-02
 -.90018921094E-02 -.10528676796E-01 -.10140496218E-01 -.80411704922E-02 -.49509872892E-02
 -.20367255481E-02 -.87000179570E-03 -.30124240613E-02 -.90909568698E-02 -.17921397139E-01
 -.26567816179E-01 -.31644463953E-01 -.31115237876E-01 -.25356181715E-01 -.16812467239E-01
 -.86328724843E-02 -.32402025789E-02 -.15562955244E-02 -.30084952909E-02 -.60683457325E-02
 -.13781701487E-01 -.14753842770E-01 -.13330647258E-01 -.10195927653E-01 -.63488098306E-02
 -.29037538895E-02 -.10470234447E-02 -.17771317529E-02 -.53093664906E-02 -.10579718065E-01
 -.15451356627E-01 -.17716815246E-01 -.16286246024E-01 -.11766602105E-01 -.61121679164E-02
 -.16553864076E-02 -.85814766521E-04 -.18080217687E-02 -.58707433517E-02 -.10466677539E-01
 -.17377704580E-01 -.17427712574E-01 -.14924795444E-01 -.10745476450E-01 -.60673953594E-02
 -.20559703530E-02 0.32540165618E-03 0.50900609618E-03 -.14075846984E-02 -.44904581643E-02
 -.71961207195E-02 -.80678062165E-02 -.65519108380E-02 -.33858847777E-02 -.25976374021E-03
 0.10515340115E-02 -.43459612075E-03 -.44791657267E-02 -.97839133483E-02 -.14586449036E-01
 -.76141273370E-02 -.69092203503E-02 -.53678064425E-02 -.35469083247E-02 -.19361917780E-02
 -.81729188696E-03 -.25172178484E-03 -.12914805551E-03 -.25186579733E-03 -.44131517513E-03
 -.60519664449E-03 -.71301282902E-03 -.73437258133E-03 -.65962222957E-03 -.61654451210E-03
 -.92253979813E-03 -.19130380519E-02 -.36221459044E-02 -.56083261619E-02 -.71379865390E-02
 -.69628692967E-02 -.57519920863E-02 -.37181856969E-02 -.16628306106E-02 -.38917272428E-03
 -.22463565153E-03 -.86010440252E-03 -.16099589326E-02 -.18798411198E-02 -.15047690304E-02
 -.76079493116E-03 -.10883764612E-03 0.10649215839E-03 -.20032468181E-03 -.92386853810E-03
 -.19375410573E-02 -.31904247907E-02 -.46340943227E-02 -.60528622041E-02 -.69966475264E-02
 -.55915874107E-02 -.42118622382E-02 -.22942239016E-02 -.74658945809E-03 -.21950356566E-03
 -.69009851767E-03 -.15687493551E-02 -.21728532488E-02 -.21485522328E-02 -.15754636634E-02
 -.80473294345E-03 -.22361041271E-03 -.76620664235E-04 -.39061352639E-03 -.10301178432E-02
 -.18560218295E-02 -.28452971272E-02 -.40135230544E-02 -.51837369566E-02 -.58824860510E-02
 -.38586356679E-02 -.27797595168E-02 -.16136631820E-02 -.83483954211E-03 -.59540840063E-03
 -.74759944833E-03 -.10765679498E-02 -.14611946688E-02 -.18281915516E-02 -.20435203414E-02
 -.19417687022E-02 -.14842436250E-02 -.85451352300E-03 -.37339023792E-03 -.32070206709E-03
 -.81596439384E-03 -.17896030504E-02 -.29820826484E-02 -.39736502915E-02 -.43301099632E-02
 -.18808737823E-02 -.14223172415E-02 -.10979946574E-02 -.82592782318E-03 -.55240997983E-03
 -.40812089864E-03 -.64161610073E-03 -.13642172413E-02 -.23393951014E-02 -.30427023262E-02
 -.29948695618E-02 -.21242805350E-02 -.86732831610E-03 0.88224368554E-04 0.23751777678E-03
 -.43750277831E-03 -.14954270919E-02 -.23505181740E-02 -.26384717283E-02 -.23835058935E-02
 -.16951064970E-03 -.24193568771E-03 -.48341970483E-03 -.70433539035E-03 -.90596341424E-03
 -.12252242546E-02 -.17466981722E-02 -.23753612614E-02 -.28545882232E-02 -.28956468624E-02
 -.23546426181E-02 -.13798461252E-02 -.41203683641E-03 0.45082877612E-04 -.21887008258E-03
 -.92755083031E-03 -.15060382361E-02 -.15304134322E-02 -.10445067816E-02 -.46104375213E-03
 0.56934494094E-03 0.32836904701E-03 -.27155091121E-03 -.11739723971E-02 -.21802124891E-02
 -.29497716452E-02 -.31815140774E-02 -.28383308572E-02 -.21716925831E-02 -.15049983412E-02
 -.10061048328E-02 -.67273677239E-03 -.48029680283E-03 -.45841514617E-03 -.59932905610E-03
 -.75680986171E-03 -.71799672185E-03 -.39603757020E-03 0.77645222092E-04 0.46099623273E-03
 0.40474673706E-03 0.24204047754E-03 -.50631207217E-03 -.17319010158E-02 -.29327394427E-02
 -.35199201848E-02 -.32387335828E-02 -.23537101006E-02 -.14305315402E-02 -.90158432035E-03
 -.78710210677E-03 -.78283739593E-03 -.58819994988E-03 -.16424684167E-03 0.27648570411E-03
 0.48922246876E-03 0.41227420596E-03 0.20926087975E-03 0.12121206846E-03 0.24477605368E-03
 0.83968620327E-04 -.12193697309E-04 -.52756001847E-03 -.13375018487E-02 -.21211754480E-02
 -.25868843118E-02 -.26306865410E-02 -.23524329216E-02 -.19504810328E-02 -.15660297206E-02
 -.11778135683E-02 -.64211103591E-03 0.12414871190E-03 0.97029321095E-03 0.15439008974E-02
 0.15527546362E-02 0.10352536906E-02 0.36652906117E-03 -.36126227119E-04 -.48994287759E-04
 -.83152771765E-04 -.21737139952E-03 -.28893851081E-03 -.49972502728E-03 -.10295802510E-02
 -.18269395587E-02 -.25514268999E-02 -.27960190707E-02 -.24052783827E-02 -.15715683078E-02
 -.62487200385E-03 0.23549885470E-03 0.98784921722E-03 0.16261197268E-02 0.20400481030E-02
 0.20918605176E-02 0.17721348841E-02 0.12317322350E-02 0.66716200723E-03 0.21035742127E-03
 -.34324719208E-03 -.60245370280E-03 -.50665308800E-03 -.52396743281E-03 -.96190564877E-03
 -.16689624614E-02 -.21444016395E-02 -.19767610921E-02 -.12016853814E-02 -.24417758440E-03
 0.47678600398E-03 0.88605123337E-03 0.12321857173E-02 0.17784978181E-02 0.25196283097E-02
 0.31557885957E-02 0.33040613388E-02 0.27665047641E-02 0.16840492477E-02 0.48829752948E-03
 -.54199482523E-03 -.10100996325E-02 -.11386095781E-02 -.11461267255E-02 -.11051704543E-02
 -.94931580682E-03 -.60690511203E-03 -.11978851934E-03 0.36082067926E-03 0.69948949263E-03
 0.91856868663E-03 0.12250474980E-02 0.18642870079E-02 0.28839013798E-02 0.39960186477E-02
 0.46858751628E-02 0.45277001295E-02 0.34816671040E-02 0.19365698932E-02 0.46063512158E-03
 -.14465991418E-03 -.80977155995E-03 -.11781843477E-02 -.10619835219E-02 -.50201912651E-03
 0.15923718746E-03 0.53120501410E-03 0.51303094645E-03 0.37858602298E-03 0.54441443441E-03
 0.12594622343E-02 0.24640961623E-02 0.38469661322E-02 0.49840622829E-02 0.54907241264E-02
 0.51834985952E-02 0.41912890042E-02 0.28922197735E-02 0.16669550915E-02 0.67151993648E-03
 0.63716649717E-03 -.11014953429E-04 -.42271839470E-03 -.37115242841E-03 -.28928623728E-04
 0.17048686141E-03 -.16612851645E-04 -.34329988287E-03 -.23474966530E-03 0.73485755428E-03
 0.24789839948E-02 0.44242937079E-02 0.58481541395E-02 0.62615458012E-02 0.56292341433E-02
 0.43524131856E-02 0.30281444565E-02 0.20939115408E-02 0.15808999128E-02 0.11875322220E-02
 0.78398619158E-03 0.38036920085E-03 -.45942519989E-04 -.37027068498E-03 -.57593524323E-03
 -.71343787656E-03 -.75303177319E-03 -.50166026693E-03 0.29603091868E-03 0.17271971018E-02
 0.35390801055E-02 0.51861774856E-02 0.60932022186E-02 0.59684797962E-02 0.49625614505E-02
 0.35694606955E-02 0.23364494313E-02 0.15711252948E-02 0.12310662545E-02 0.10500262883E-02
 -.21876559180E-03 -.43989566944E-03 -.89511190399E-03 -.13026982963E-02 -.13166105133E-02
 -.84930908511E-03 -.12394177405E-03 0.58643972876E-03 0.12382621044E-02 0.20126325597E-02
 0.30448653814E-02 0.41862938404E-02 0.50383012578E-02 0.52102896392E-02 0.45682800632E-02
 0.33080406259E-02 0.18537710535E-02 0.66124086607E-03 0.86654420528E-06 -.18311758836E-03
 -.18922646700E-02 -.22035391249E-02 -.24822167615E-02 -.23284965110E-02 -.15326133340E-02
 -.36885011923E-03 0.59705263583E-03 0.10122148545E-02 0.10473552390E-02 0.12145973543E-02
 0.18893238624E-02 0.29824395355E-02 0.40048986126E-02 0.44014901928E-02 0.38795068624E-02
 0.25585714750E-02 0.90627473911E-03 -.51004771597E-03 -.13500160122E-02 -.16910787671E-02
 -.37074962062E-02 -.41863116556E-02 -.40592539582E-02 -.32626393301E-02 -.20538870711E-02
 -.89281160371E-03 -.13236943482E-03 0.22097259269E-03 0.46195093501E-03 0.90114763004E-03
 0.15969931047E-02 0.23210259306E-02 0.27442319823E-02 0.26591098068E-02 0.20743902795E-02
 0.11594268336E-02 0.11789142158E-03 -.91844311555E-03 -.19170689290E-02 -.28760949648E-02
 -.55498999411E-02 -.59222930765E-02 -.53806156063E-02 -.43299820345E-02 -.31857618808E-02
 -.21265563107E-02 -.11208195871E-02 -.12088595513E-03 0.78952586568E-03 0.14100544991E-02
 0.15642472998E-02 0.12523274435E-02 0.70365525382E-03 0.26278086517E-03 0.14298815040E-03
 0.21386675098E-03 0.32250436163E-04 -.83421624288E-03 -.24160305229E-02 -.42255564701E-02
 -.70788487214E-02 -.69885726186E-02 -.60265352521E-02 -.47293516708E-02 -.34102675989E-02
 -.21054681084E-02 -.81092302904E-03 0.32087627662E-03 0.10199726819E-02 0.10905382046E-02
 0.56995115000E-03 -.24105476396E-03 -.88812717137E-03 -.10029098375E-02 -.59018009146E-03
 -.14471603234E-03 -.39203042610E-03 -.17428888748E-02 -.38916140131E-02 -.59550550443E-02
 0.19125444281E-01 0.18055566940E-01 0.14197142915E-01 0.87766617297E-02 0.36151586212E-02
 0.19011325654E-03 -.95899927435E-03 -.17291821796E-03 0.16936965949E-02 0.35516364226E-02
 0.43291982459E-02 0.34311904780E-02 0.12268817755E-02 -.97613207303E-03 -.16709030717E-02
 -.59196996688E-04 0.36200675403E-02 0.84600642676E-02 0.13384809997E-01 0.17305511820E-01
 0.17747956187E-01 0.15280892562E-01 0.11019078511E-01 0.62400905061E-02 0.21942979259E-02
 -.21870053487E-03 -.58179579354E-03 0.95704518460E-03 0.35985556724E-02 0.60061958504E-02
 0.68346020513E-02 0.55040448033E-02 0.26694019157E-02 -.56803330700E-04 -.99244018158E-03
 0.72678395611E-03 0.47971756073E-02 0.99958027618E-02 0.14727942722E-01 0.17579422858E-01
 0.13435946798E-01 0.10253595074E-01 0.64436566400E-02 0.29761155449E-02 0.84327302324E-03
 0.95121503277E-03 0.36114242935E-02 0.80176972559E-02 0.12340874136E-01 0.14590913621E-01
 0.13693369946E-01 0.10046275502E-01 0.52756325588E-02 0.14522006433E-02 0.20548744081E-03
 0.20562310485E-02 0.61919132523E-02 0.10839715397E-01 0.14133701448E-01 0.14991320416E-01
 0.80291591668E-02 0.50671590660E-02 0.22963116752E-02 0.91307086126E-03 0.22526253682E-02
 0.70217842106E-02 0.14352030096E-01 0.21715547312E-01 0.26121610418E-01 0.25795130241E-01
 0.21071509033E-01 0.13990468921E-01 0.71385092748E-02 0.25909820061E-02 0.13256006567E-02
 0.30403918276E-02 0.63473859078E-02 0.94142346128E-02 0.10843838675E-01 0.10229811213E-01
 0.37513927007E-02 0.15401776877E-02 0.41836205756E-03 0.22455887151E-02 0.83626554626E-02
 0.18345126868E-01 0.29502963912E-01 0.37871934372E-01 0.40261482537E-01 0.35963118607E-01
 0.26953677605E-01 0.16621276888E-01 0.80501411326E-02 0.29127430782E-02 0.12997763386E-02
 0.21888104476E-02 0.41192818541E-02 0.57837874461E-02 0.63701737752E-02 0.56173432653E-02
 0.11404502235E-02 0.59478443916E-04 0.14024637846E-02 0.71308767500E-02 0.17747744750E-01
 0.31411008034E-01 0.44211360355E-01 0.51740719094E-01 0.51229514753E-01 0.42993456998E-01
 0.30226286074E-01 0.17246739886E-01 0.73753823585E-02 0.17864474252E-02 -.19129076166E-03
 0.35191408259E-04 0.12161192185E-02 0.24588204028E-02 0.30603918519E-02 0.25556841651E-02
 -.27919818250E-03 0.31492298267E-03 0.46207934092E-02 0.13879118411E-01 0.27501950429E-01
 0.42701064293E-01 0.55089347214E-01 0.60334676722E-01 0.56285643396E-01 0.44303859131E-01
 0.28697869129E-01 0.14434124782E-01 0.46908112343E-02 -.78963592117E-04 -.12758414035E-02
 -.64419676075E-03 0.56245628625E-03 0.15207803491E-02 0.16294948153E-02 0.75794000962E-03
 -.30820635168E-03 0.20808682096E-02 0.89791074241E-02 0.20671476783E-01 0.35566376922E-01
 0.50118344070E-01 0.59752238160E-01 0.60785665101E-01 0.52458690392E-01 0.37646808012E-01
 0.21494588000E-01 0.87576705520E-02 0.16750212873E-02 -.33065267595E-03 0.61536453004E-03
 0.23601686832E-02 0.34887304356E-02 0.33652450692E-02 0.20393145709E-02 0.30563156565E-03
 0.11957777916E-02 0.45453764478E-02 0.12956246919E-01 0.25653183438E-01 0.39803946455E-01
 0.51144392023E-01 0.55643098431E-01 0.51452418444E-01 0.39963189560E-01 0.25219842949E-01
 0.12001882421E-01 0.37159181769E-02 0.12405222682E-02 0.31288826080E-02 0.67509679348E-02
 0.96044190269E-02 0.10203926075E-01 0.83688681207E-02 0.50551664428E-02 0.19814230627E-02
 0.28525411904E-02 0.59940928257E-02 0.14583782594E-01 0.26450613905E-01 0.37608534760E-01
 0.43941517062E-01 0.43145688988E-01 0.35712269252E-01 0.24471490102E-01 0.13225549320E-01
 0.53324058525E-02 0.27128030465E-02 0.53468839499E-02 0.11328450748E-01 0.17616796532E-01
 0.21324823419E-01 0.20920691475E-01 0.16710531521E-01 0.10521467511E-01 0.49996318543E-02
 0.30235583923E-02 0.53191248148E-02 0.12709344912E-01 0.21901236258E-01 0.28902764757E-01
 0.30931155013E-01 0.27543873346E-01 0.20420736827E-01 0.12308739421E-01 0.60291900574E-02
 0.38643736509E-02 0.70009732416E-02 0.14876008986E-01 0.24929587856E-01 0.33380318268E-01
 0.36869802435E-01 0.34007573493E-01 0.25909587308E-01 0.15620734873E-01 0.69258962869E-02
 0.19657349352E-02 0.32573305323E-02 0.83519934313E-02 0.14086536553E-01 0.17687306786E-01
 0.17754278536E-01 0.14521306335E-01 0.95267381359E-02 0.50758018835E-02 0.36851573082E-02
 0.73691419895E-02 0.16677699571E-01 0.29889908128E-01 0.43118415532E-01 0.51702413821E-01
 0.52327517053E-01 0.44649508974E-01 0.31453078799E-01 0.17323405131E-01 0.66497693946E-02
 0.10381620136E-02 0.13456338896E-02 0.39795419979E-02 0.68964274985E-02 0.85542467380E-02
 0.80727543684E-02 0.55831018316E-02 0.25488936053E-02 0.15496266136E-02 0.53139004855E-02
 0.15326636951E-01 0.30667853550E-01 0.47746740653E-01 0.61319204425E-01 0.66605540432E-01
 0.61577049802E-01 0.48072050728E-01 0.30909333577E-01 0.15466005534E-01 0.52706022909E-02
 0.54578680761E-03 0.35917376461E-03 0.14464801585E-02 0.26805589389E-02 0.31086714121E-02
 0.21008928223E-02 0.84263881689E-04 -.99107040446E-03 0.17681228039E-02 0.10691944377E-01
 0.25966232896E-01 0.44864841646E-01 0.62285331677E-01 0.72582637846E-01 0.72081553437E-01
 0.61004702179E-01 0.43495357304E-01 0.25468621194E-01 0.11624739631E-01 0.36442376444E-02
 0.18792541317E-03 0.51415533467E-03 0.11991475368E-02 0.14912634064E-02 0.95129168345E-03
 -.38767610388E-03 -.15261376933E-02 -.37059114389E-03 0.55311554424E-02 0.17576089180E-01
 0.34758417061E-01 0.53261358488E-01 0.67526329852E-01 0.72589539532E-01 0.66571539725E-01
 0.51780424172E-01 0.33549745926E-01 0.17454340373E-01 0.67434816872E-02 0.15839933941E-02
 0.85002671526E-03 0.22939282795E-02 0.30313535881E-02 0.27381983748E-02 0.17064582836E-02
 0.55862930679E-03 0.35296866784E-03 0.27503781130E-02 0.95892670648E-02 0.21656164469E-01
 0.37365452517E-01 0.52560290095E-01 0.62054765388E-01 0.62208383359E-01 0.52898211345E-01
 0.37579919706E-01 0.21448036277E-01 0.89314483148E-02 0.20005676110E-02 0.19767439213E-04
 0.38674705570E-02 0.59592110475E-02 0.64963558914E-02 0.56863644170E-02 0.42274189735E-02
 0.28287791241E-02 0.24101025937E-02 0.44469825109E-02 0.10510995455E-01 0.20898603849E-01
 0.33490712226E-01 0.44154402356E-01 0.48749583473E-01 0.45378764030E-01 0.35329989332E-01
 0.22259816539E-01 0.10367501502E-01 0.26576119094E-02 -.41900829757E-05 0.11754041373E-02
 0.88493652810E-02 0.10695932839E-01 0.10561634295E-01 0.87783318871E-02 0.60649491458E-02
 0.33529291933E-02 0.19442952942E-02 0.33934559056E-02 0.86592911956E-02 0.17008073553E-01
 0.25768349923E-01 0.31489004172E-01 0.31806399647E-01 0.26682147385E-01 0.18248465844E-01
 0.95997516981E-02 0.34173459953E-02 0.10582682939E-02 0.22746059076E-02 0.55368076020E-02
 0.13904872369E-01 0.15050397104E-01 0.13792962155E-01 0.10378271783E-01 0.58649798241E-02
 0.19012679512E-02 0.18328861685E-03 0.17210785494E-02 0.62199315655E-02 0.11982912106E-01
 0.16568704648E-01 0.17976252635E-01 0.15684309062E-01 0.10877896178E-01 0.57318166525E-02
 0.22701026589E-02 0.15288722393E-02 0.33904917215E-02 0.69261929878E-02 0.10857259433E-01
 0.17578537978E-01 0.17809304800E-01 0.15141348973E-01 0.10194476643E-01 0.46907206143E-02
 0.63750912702E-03 -.70029271323E-03 0.68016123016E-03 0.36929904372E-02 0.67215862808E-02
 0.82562735479E-02 0.75060634043E-02 0.48253573690E-02 0.16237143912E-02 -.37598357471E-03
 -.95987558325E-04 0.24430377017E-02 0.64385295005E-02 0.10909297867E-01 0.14945930381E-01
 0.81246331881E-02 0.81597867902E-02 0.66467534426E-02 0.42733045413E-02 0.22727631217E-02
 0.13487086259E-02 0.12147332083E-02 0.11880902005E-02 0.10051245513E-02 0.88317071490E-03
 0.94276454249E-03 0.91601489648E-03 0.55460078287E-03 0.10908700694E-03 0.15122330831E-03
 0.95324296376E-03 0.22606108265E-02 0.37169793326E-02 0.52622579688E-02 0.68870798685E-02
 0.76375190678E-02 0.67850222744E-02 0.51719358309E-02 0.34733790035E-02 0.21652037202E-02
 0.12705395382E-02 0.60698006836E-03 0.20435832467E-03 0.33253358293E-03 0.10728976158E-02
 0.19870498024E-02 0.23743672208E-02 0.19115677238E-02 0.99304285363E-03 0.41852373738E-03
 0.77795765299E-03 0.21167024241E-02 0.40420242368E-02 0.59790370800E-02 0.73334643173E-02
 0.53671787605E-02 0.40617562569E-02 0.29257302073E-02 0.19880286190E-02 0.11461944796E-02
 0.49620845669E-03 0.28582637049E-03 0.63155343103E-03 0.13761189687E-02 0.21922014113E-02
 0.27372359240E-02 0.27398429014E-02 0.21231934933E-02 0.12000731122E-02 0.68222872760E-03
 0.12580611127E-02 0.29734172355E-02 0.50358637010E-02 0.63550817083E-02 0.63686168741E-02
 0.28908357006E-02 0.18775135789E-02 0.11972366391E-02 0.72076525365E-03 0.58928732779E-03
 0.10808476209E-02 0.20672763074E-02 0.29142334175E-02 0.30749784468E-02 0.26364212864E-02
 0.21054178318E-02 0.17526427596E-02 0.14245045519E-02 0.10474807918E-02 0.10331970376E-02
 0.18874015299E-02 0.34474214101E-02 0.47847641594E-02 0.50238996217E-02 0.41519844768E-02
 0.18659048945E-02 0.10933889721E-02 0.51685802252E-03 0.50133646504E-03 0.13503084725E-02
 0.28542792119E-02 0.41830710086E-02 0.44780549494E-02 0.36242140600E-02 0.23371300807E-02
 0.14362679355E-02 0.11230826386E-02 0.10415355031E-02 0.92186062052E-03 0.94300393638E-03
 0.14044534148E-02 0.22158985144E-02 0.28912025594E-02 0.30186605420E-02 0.25909339772E-02
 0.15744644639E-02 0.77870764727E-03 0.42333958449E-03 0.92606713318E-03 0.21360014816E-02
 0.34747416556E-02 0.43415129392E-02 0.44503576326E-02 0.39064720408E-02 0.30532779746E-02
 0.22338118889E-02 0.16073494065E-02 0.11214696592E-02 0.66031046779E-03 0.25170979064E-03
 0.12123311626E-03 0.48641762105E-03 0.12577875214E-02 0.19744510637E-02 0.21198179781E-02
 0.69872718211E-03 0.35161964148E-03 0.59623228968E-03 0.12564795885E-02 0.19779077468E-02
 0.27234909676E-02 0.36557412804E-02 0.46193569174E-02 0.50395944988E-02 0.44852285238E-02
 0.31953206671E-02 0.18639489876E-02 0.94391586173E-03 0.35058767029E-03 -.12507449512E-03
 -.35367245312E-03 -.42150402436E-04 0.70706808391E-03 0.12957751455E-02 0.12318818468E-02
 -.11497758876E-03 0.47898035604E-03 0.12193538502E-02 0.17146246054E-02 0.20520489529E-02
 0.27438844935E-02 0.39895547226E-02 0.51729111753E-02 0.53379874048E-02 0.41828360946E-02
 0.24150982409E-02 0.10526580774E-02 0.49974979321E-03 0.41264339485E-03 0.32877716832E-03
 0.16708892330E-03 0.71407760892E-04 0.27871984116E-04 -.10656765854E-03 -.26106645878E-03
 0.15837983059E-03 0.12017572667E-02 0.20608518486E-02 0.26862399690E-02 0.32445528484E-02
 0.38459017886E-02 0.43050933596E-02 0.42283324245E-02 0.33929741226E-02 0.20479745571E-02
 0.80229838592E-03 0.17368911193E-03 0.20925699719E-03 0.50595827117E-03 0.56983042824E-03
 0.17921927308E-03 -.50811129572E-03 -.11045393800E-02 -.12410215189E-02 -.77042827517E-03
 0.53933525214E-03 0.12729286528E-02 0.22627708875E-02 0.33988095343E-02 0.41330637927E-02
 0.40025675823E-02 0.31347785162E-02 0.21056974104E-02 0.13452875153E-02 0.82894325198E-03
 0.35716227966E-03 -.59668220210E-04 -.25932895834E-03 -.28219847977E-03 -.43126606340E-03
 -.88162340414E-03 -.13692820503E-02 -.14331654558E-02 -.93437006849E-03 -.17413976899E-03
 -.16579753778E-03 0.28567906813E-03 0.14868083741E-02 0.28169909684E-02 0.33209509836E-02
 0.27400424318E-02 0.17846538983E-02 0.13077021309E-02 0.13802255550E-02 0.13475374816E-02
 0.69535431393E-03 -.38540653430E-03 -.13292999840E-02 -.18410680793E-02 -.20123951878E-02
 -.19384592395E-02 -.15418000323E-02 -.86791191788E-03 -.29014241386E-03 -.13654834105E-03
 -.85767780210E-03 -.44885861605E-03 0.45696078915E-03 0.13526346707E-02 0.17725206422E-02
 0.17499377948E-02 0.16818981468E-02 0.17877132116E-02 0.18183443077E-02 0.13405463148E-02
 0.23120159750E-03 -.11750019266E-02 -.23715817573E-02 -.30156976394E-02 -.30136440006E-02
 -.24550252384E-02 -.16009304655E-02 -.86525292878E-03 -.59574160736E-03 -.74964579173E-03
 -.75001109604E-04 -.73724761965E-04 -.26823772394E-04 0.35109904749E-03 0.99165370479E-03
 0.14816269904E-02 0.14707918411E-02 0.10114979633E-02 0.42642832555E-03 -.11108456862E-03
 -.74395840610E-03 -.16458783921E-02 -.26716702856E-02 -.34020646356E-02 -.35252808028E-02
 -.30892584333E-02 -.23691089186E-02 -.15924513079E-02 -.87242714337E-03 -.32515846899E-03
 0.11710178406E-02 0.57817205479E-03 0.94255719446E-04 0.28668409183E-03 0.80138241664E-03
 0.81122028193E-03 0.34608072756E-04 -.92265809811E-03 -.13103956623E-02 -.11223365106E-02
 -.10535342118E-02 -.16504314560E-02 -.27276358646E-02 -.36614612529E-02 -.40304192214E-02
 -.37912097707E-02 -.29916252836E-02 -.16628511263E-02 -.10216691180E-03 0.10203586799E-02
 0.12019738319E-02 0.81229769815E-03 0.59938025097E-03 0.68076552161E-03 0.63592722498E-03
 0.10379172274E-03 -.69068663648E-03 -.11648011383E-02 -.10889408101E-02 -.89153011644E-03
 -.11837788605E-02 -.20921664826E-02 -.31655498982E-02 -.38587355369E-02 -.39399893079E-02
 -.34325955488E-02 -.23968915552E-02 -.97930497368E-03 0.40159334764E-03 0.11953164418E-02
 0.81426875109E-03 0.13529006000E-02 0.15234824365E-02 0.13450406651E-02 0.10548397494E-02
 0.86114274643E-03 0.74466477442E-03 0.49597538739E-03 -.78407666212E-04 -.98556019660E-03
 -.20278310995E-02 -.29011026600E-02 -.33295647769E-02 -.31935679464E-02 -.26060993110E-02
 -.18623547829E-02 -.12447658056E-02 -.81854495185E-03 -.41784654876E-03 0.13881164196E-03
 0.18898902184E-02 0.28568641524E-02 0.28692967484E-02 0.24349240668E-02 0.22489498799E-02
 0.23461287396E-02 0.21270653368E-02 0.11419600807E-02 -.36939331539E-03 -.17565537494E-02
 -.25751987992E-02 -.27820264673E-02 -.24763679926E-02 -.17545442874E-02 -.88994048578E-03
 -.38088347493E-03 -.51745534032E-03 -.91627140478E-03 -.75559935000E-03 0.36164924484E-03
 0.41957150063E-02 0.47622164236E-02 0.43658901026E-02 0.36078531984E-02 0.29564995547E-02
 0.23023996186E-02 0.13335677913E-02 0.11836679967E-03 -.90180366184E-03 -.14286746135E-02
 -.15755105570E-02 -.15604263297E-02 -.13500719610E-02 -.81228384637E-03 -.12194755054E-03
 0.28263504339E-03 0.27006186301E-03 0.34674321897E-03 0.11684010149E-02 0.27219720897E-02
 0.61345461035E-02 0.64092722558E-02 0.57405935012E-02 0.42829813182E-02 0.25018743261E-02
 0.96187797303E-03 0.73587800131E-04 -.10304796042E-03 0.11359865644E-03 0.23988847530E-03
 -.18994598271E-04 -.54569308346E-03 -.92834628929E-03 -.82237160649E-03 -.21234565315E-03
 0.66506899725E-03 0.16140031849E-02 0.26470088844E-02 0.38528349318E-02 0.51363667108E-02
 0.73499346701E-02 0.77211143685E-02 0.67004550731E-02 0.44462919488E-02 0.20302351500E-02
 0.60477557584E-03 0.47503612870E-03 0.10117437378E-02 0.13749483061E-02 0.11956115933E-02
 0.61444533238E-03 -.74979295672E-04 -.61784022115E-03 -.73948580825E-03 -.18757111961E-03
 0.10190735419E-02 0.25030047426E-02 0.38582669187E-02 0.50379172333E-02 0.62381527149E-02
 -.18862357351E-01 -.16511646672E-01 -.12525790298E-01 -.79232823761E-02 -.33060774067E-02
 0.49704423029E-03 0.23091129247E-02 0.15317991555E-02 -.97523839147E-03 -.33301197815E-02
 -.40805135928E-02 -.31426894259E-02 -.14079591872E-02 0.17784050870E-03 0.89430264809E-03
 -.44213927282E-04 -.33349424151E-02 -.87196930375E-02 -.14483686434E-01 -.18308188179E-01
 -.17167479790E-01 -.14191271727E-01 -.95982405383E-02 -.45896416770E-02 -.51412514001E-03