    5    5    1    1
  0.3477306E+02  0.2573869E-09  0.2573869E-09  0.3030466E-08  0.5000000E-15
  1.000000000000000E-004
  CAR 
 unknown system                          
     45     31     28
 
  0.0000000E+00  0.0000000E+00  0.0000000E+00  0.1000000E-01
    1      -11.557356   1.000000
    2      -10.664263   1.000000
    3       -9.028275   1.000000
    4       -7.580494   1.000000
    5       -6.248577   1.000000
    6       -5.678899   1.000000
    7       -5.496862   1.000000
    8       -5.452830   1.000000
    9       -5.340928   1.000000
   10       -5.331303   1.000000
   11       -5.310963   1.000000
   12       -5.300440   1.000000
   13       -5.294732   1.000000
   14       -5.040283   1.000000
   15       -5.037344   1.000000
   16       -4.866616   1.000000
   17       -4.859946   1.000000
   18       -4.697597   1.000000
   19       -4.541023   1.000000
   20       -4.534487   1.000000
   21       -4.323602   1.000000
   22       -4.306120   1.000000
   23       -4.036837   1.000000
   24       -4.032098   1.000000
   25       -2.940747   1.000000
   26        1.610736   0.000000
   27        1.915692   0.000000
   28        2.341025   0.000000
 
  0.1000000E+00  0.6938894E-17  0.0000000E+00  0.4000000E-01
    1      -11.249086   1.000000
    2      -10.368163   1.000000
    3       -8.767488   1.000000
    4       -7.362012   1.000000
    5       -6.274310   1.000000
    6       -5.729240   1.000000
    7       -5.601904   1.000000
    8       -5.456820   1.000000
    9       -5.418444   1.000000
   10       -5.366234   1.000000
   11       -5.334777   1.000000
   12       -5.228623   1.000000
   13       -5.204527   1.000000
   14       -5.140536   1.000000
   15       -5.054154   1.000000
   16       -4.950113   1.000000
   17       -4.768661   1.000000
   18       -4.716607   1.000000
   19       -4.546243   1.000000
   20       -4.509273   1.000000
   21       -4.338865   1.000000
   22       -4.304177   1.000000
   23       -4.028158   1.000000
   24       -3.790132   1.000000
   25       -2.251308   0.028822
   26        1.854739   0.000000
   27        2.219225   0.000000
   28        2.644286   0.000000
 
  0.2000000E+00 -0.1387779E-16  0.0000000E+00  0.4000000E-01
    1      -10.361725   1.000000
    2       -9.532325   1.000000
    3       -8.094952   1.000000
    4       -6.851734   1.000000
    5       -6.394164   1.000000
    6       -5.957221   1.000000
    7       -5.779557   1.000000
    8       -5.708121   1.000000
    9       -5.538980   1.000000
   10       -5.315750   1.000000
   11       -5.258816   1.000000
   12       -5.194899   1.000000
   13       -5.078411   1.000000
   14       -5.041251   1.000000
   15       -4.932912   1.000000
   16       -4.870575   1.000000
   17       -4.828837   1.000000
   18       -4.646959   1.000000
   19       -4.600066   1.000000
   20       -4.486703   1.000000
   21       -4.306951   1.000000
   22       -4.099529   1.000000
   23       -4.020499   1.000000
   24       -2.890452   1.000000
   25       -0.916440   0.000000
   26        2.579387   0.000000
   27        3.129221   0.000000
   28        3.553892   0.000000
 
  0.3000000E+00 -0.2775558E-16  0.0000000E+00  0.4000000E-01
    1       -9.057081   1.000000
    2       -8.391276   1.000000
    3       -7.448773   1.000000
    4       -6.684130   1.000000
    5       -6.417237   1.000000
    6       -6.231981   1.000000
    7       -5.921065   1.000000
    8       -5.703827   1.000000
    9       -5.583233   1.000000
   10       -5.324191   1.000000
   11       -5.184987   1.000000
   12       -5.100229   1.000000
   13       -4.914758   1.000000
   14       -4.883723   1.000000
   15       -4.760142   1.000000
   16       -4.645230   1.000000
   17       -4.576126   1.000000
   18       -4.406397   1.000000
   19       -4.372147   1.000000
   20       -4.299336   1.000000
   21       -4.184612   1.000000
   22       -4.005773   1.000000
   23       -3.593316   1.000000
   24       -1.686426   0.000000
   25        0.769705   0.000000
   26        3.762349   0.000000
   27        4.611581   0.000000
   28        5.023070   0.000000
 
  0.4000000E+00 -0.2775558E-16  0.0000000E+00  0.4000000E-01
    1       -7.989582   1.000000
    2       -7.449973   1.000000
    3       -7.146126   1.000000
    4       -6.789860   1.000000
    5       -6.548222   1.000000
    6       -6.405246   1.000000
    7       -6.051312   1.000000
    8       -5.525158   1.000000
    9       -5.380670   1.000000
   10       -5.312147   1.000000
   11       -5.243922   1.000000
   12       -4.953593   1.000000
   13       -4.828029   1.000000
   14       -4.506633   1.000000
   15       -4.409102   1.000000
   16       -4.352577   1.000000
   17       -4.155007   1.000000
   18       -4.129335   1.000000
   19       -4.096223   1.000000
   20       -4.010193   1.000000
   21       -3.868325   1.000000
   22       -3.584008   1.000000
   23       -2.528886   0.978676
   24       -0.273857   0.000000
   25        2.036816   0.000000
   26        2.906047   0.000000
   27        3.317141   0.000000
   28        4.370240   0.000000
 
  0.5000000E+00 -0.2775558E-16  0.0000000E+00  0.2000000E-01
    1       -7.781294   1.000000
    2       -7.133759   1.000000
    3       -6.980529   1.000000
    4       -6.827136   1.000000
    5       -6.619652   1.000000
    6       -6.467659   1.000000
    7       -6.075754   1.000000
    8       -5.444891   1.000000
    9       -5.391908   1.000000
   10       -5.265852   1.000000
   11       -5.176777   1.000000
   12       -4.944110   1.000000
   13       -4.587869   1.000000
   14       -4.459317   1.000000
   15       -4.281851   1.000000
   16       -4.241008   1.000000
   17       -4.088272   1.000000
   18       -4.000810   1.000000
   19       -3.940647   1.000000
   20       -3.753532   1.000000
   21       -3.637503   1.000000
   22       -2.265107   0.044261
   23       -1.395095   0.000000
   24       -0.859930   0.000000
   25        1.207188   0.000000
   26        2.223633   0.000000
   27        3.001538   0.000000
   28        3.609886   0.000000
 
  0.0000000E+00  0.1000000E+00  0.0000000E+00  0.2000000E-01
    1      -11.261708   1.000000
    2      -10.370024   1.000000
    3       -8.758836   1.000000
    4       -7.357543   1.000000
    5       -6.201141   1.000000
    6       -5.749994   1.000000
    7       -5.543768   1.000000
    8       -5.406389   1.000000
    9       -5.397596   1.000000
   10       -5.384372   1.000000
   11       -5.325744   1.000000
   12       -5.256373   1.000000
   13       -5.200754   1.000000
   14       -5.142374   1.000000
   15       -5.054276   1.000000
   16       -4.967122   1.000000
   17       -4.862607   1.000000
   18       -4.724785   1.000000
   19       -4.555772   1.000000
   20       -4.497120   1.000000
   21       -4.340530   1.000000
   22       -4.318366   1.000000
   23       -4.031635   1.000000
   24       -3.813113   1.000000
   25       -2.260769   0.038816
   26        1.855549   0.000000
   27        2.219076   0.000000
   28        2.643777   0.000000
 
  0.2000000E+00  0.1000000E+00  0.0000000E+00  0.2000000E-01
    1      -10.641334   1.000000
    2       -9.801365   1.000000
    3       -8.307376   1.000000
    4       -6.989635   1.000000
    5       -6.367958   1.000000
    6       -5.851645   1.000000
    7       -5.759824   1.000000
    8       -5.636718   1.000000
    9       -5.523900   1.000000
   10       -5.395690   1.000000
   11       -5.294377   1.000000
   12       -5.197862   1.000000
   13       -5.143001   1.000000
   14       -5.094458   1.000000
   15       -4.994193   1.000000
   16       -4.864243   1.000000
   17       -4.751573   1.000000
   18       -4.649796   1.000000
   19       -4.604755   1.000000
   20       -4.479670   1.000000
   21       -4.384870   1.000000
   22       -4.121674   1.000000
   23       -4.057157   1.000000
   24       -3.123364   1.000000
   25       -1.298731   0.000000
   26        2.339149   0.000000
   27        2.826503   0.000000
   28        3.251066   0.000000
 
  0.3000000E+00  0.1000000E+00  0.0000000E+00  0.4000000E-01
    1       -9.534254   1.000000
    2       -8.800728   1.000000
    3       -7.633481   1.000000
    4       -6.614830   1.000000
    5       -6.337202   1.000000
    6       -6.072123   1.000000
    7       -5.886685   1.000000
    8       -5.817447   1.000000
    9       -5.646837   1.000000
   10       -5.358478   1.000000
   11       -5.320485   1.000000
   12       -5.190643   1.000000
   13       -5.085167   1.000000
   14       -4.962054   1.000000
   15       -4.886832   1.000000
   16       -4.787847   1.000000
   17       -4.656470   1.000000
   18       -4.503918   1.000000
   19       -4.383369   1.000000
   20       -4.344666   1.000000
   21       -4.196431   1.000000
   22       -4.082301   1.000000
   23       -3.711167   1.000000
   24       -2.088350   0.000013
   25        0.168437   0.000000
   26        3.313684   0.000000
   27        4.035796   0.000000
   28        4.478582   0.000000
 
  0.4000000E+00  0.1000000E+00  0.0000000E+00  0.4000000E-01
    1       -8.323753   1.000000
    2       -7.732659   1.000000
    3       -7.158093   1.000000
    4       -6.648059   1.000000
    5       -6.398592   1.000000
    6       -6.237610   1.000000
    7       -5.969792   1.000000
    8       -5.672552   1.000000
    9       -5.588110   1.000000
   10       -5.318842   1.000000
   11       -5.262562   1.000000
   12       -5.111673   1.000000
   13       -4.948503   1.000000
   14       -4.788895   1.000000
   15       -4.685117   1.000000
   16       -4.539577   1.000000
   17       -4.421949   1.000000
   18       -4.314948   1.000000
   19       -4.214591   1.000000
   20       -4.030602   1.000000
   21       -3.980050   1.000000
   22       -3.673750   1.000000
   23       -2.813815   1.000000
   24       -0.664280   0.000000
   25        1.953236   0.000000
   26        3.955250   0.000000
   27        4.534849   0.000000
   28        5.082790   0.000000
 
  0.5000000E+00  0.1000000E+00  0.0000000E+00  0.4000000E-01
    1       -7.802565   1.000000
    2       -7.056882   1.000000
    3       -6.924096   1.000000
    4       -6.696657   1.000000
    5       -6.523113   1.000000
    6       -6.346957   1.000000
    7       -6.046599   1.000000
    8       -5.550282   1.000000
    9       -5.437709   1.000000
   10       -5.336240   1.000000
   11       -5.218203   1.000000
   12       -5.022119   1.000000
   13       -4.818605   1.000000
   14       -4.568897   1.000000
   15       -4.433172   1.000000
   16       -4.288174   1.000000
   17       -4.172845   1.000000
   18       -4.142014   1.000000
   19       -4.068104   1.000000
   20       -3.917723   1.000000
   21       -3.450921   1.000000
   22       -2.384547   0.494367
   23       -1.353970   0.000000
   24        0.091040   0.000000
   25        1.516063   0.000000
   26        2.580969   0.000000
   27        3.140449   0.000000
   28        4.133849   0.000000
 
 -0.4000000E+00  0.1000000E+00  0.0000000E+00  0.4000000E-01
    1       -7.723515   1.000000
    2       -7.054738   1.000000
    3       -6.917015   1.000000
    4       -6.715668   1.000000
    5       -6.522361   1.000000
    6       -6.374172   1.000000
    7       -6.067070   1.000000
    8       -5.613019   1.000000
    9       -5.425560   1.000000
   10       -5.344265   1.000000
   11       -5.257976   1.000000
   12       -5.027536   1.000000
   13       -4.842057   1.000000
   14       -4.551997   1.000000
   15       -4.440312   1.000000
   16       -4.287134   1.000000
   17       -4.180112   1.000000
   18       -4.114548   1.000000
   19       -4.068267   1.000000
   20       -3.913863   1.000000
   21       -3.368029   1.000000
   22       -2.384173   0.492260
   23       -1.376895   0.000000
   24        0.080634   0.000000
   25        1.500618   0.000000
   26        2.552731   0.000000
   27        3.186280   0.000000
   28        4.110055   0.000000
 
 -0.3000000E+00  0.1000000E+00  0.0000000E+00  0.4000000E-01
    1       -8.276906   1.000000
    2       -7.699687   1.000000
    3       -7.133616   1.000000
    4       -6.659466   1.000000
    5       -6.401321   1.000000
    6       -6.275792   1.000000
    7       -6.009220   1.000000
    8       -5.716350   1.000000
    9       -5.607513   1.000000
   10       -5.345702   1.000000
   11       -5.297827   1.000000
   12       -5.133355   1.000000
   13       -4.946644   1.000000
   14       -4.790082   1.000000
   15       -4.651087   1.000000
   16       -4.534232   1.000000
   17       -4.410683   1.000000
   18       -4.254791   1.000000
   19       -4.180688   1.000000
   20       -4.019517   1.000000
   21       -3.947440   1.000000
   22       -3.667975   1.000000
   23       -2.863456   1.000000
   24       -0.764329   0.000000
   25        1.877957   0.000000
   26        4.006096   0.000000
   27        4.608534   0.000000
   28        5.099985   0.000000
 
 -0.2000000E+00  0.1000000E+00  0.0000000E+00  0.4000000E-01
    1       -9.577961   1.000000
    2       -8.779010   1.000000
    3       -7.555259   1.000000
    4       -6.574735   1.000000
    5       -6.326077   1.000000
    6       -6.093565   1.000000
    7       -5.911788   1.000000
    8       -5.826218   1.000000
    9       -5.641495   1.000000
   10       -5.363032   1.000000
   11       -5.322750   1.000000
   12       -5.216969   1.000000
   13       -5.060633   1.000000
   14       -4.966568   1.000000
   15       -4.824645   1.000000
   16       -4.779122   1.000000
   17       -4.626283   1.000000
   18       -4.543181   1.000000
   19       -4.398567   1.000000
   20       -4.339579   1.000000
   21       -4.193641   1.000000
   22       -4.089979   1.000000
   23       -3.756169   1.000000
   24       -2.201062   0.004541
   25        0.112619   0.000000
   26        3.309547   0.000000
   27        4.035831   0.000000
   28        4.478857   0.000000
 
 -0.1000000E+00  0.1000000E+00  0.0000000E+00  0.4000000E-01
    1      -10.677111   1.000000
    2       -9.801637   1.000000
    3       -8.271965   1.000000
    4       -6.972035   1.000000
    5       -6.242139   1.000000
    6       -5.858366   1.000000
    7       -5.748731   1.000000
    8       -5.626863   1.000000
    9       -5.508582   1.000000
   10       -5.377984   1.000000
   11       -5.226675   1.000000
   12       -5.199332   1.000000
   13       -5.146547   1.000000
   14       -5.114811   1.000000
   15       -4.999209   1.000000
   16       -4.911491   1.000000
   17       -4.755280   1.000000
   18       -4.666666   1.000000
   19       -4.650420   1.000000
   20       -4.518201   1.000000
   21       -4.397653   1.000000
   22       -4.120895   1.000000
   23       -4.074412   1.000000
   24       -3.208737   1.000000
   25       -1.329812   0.000000
   26        2.340385   0.000000
   27        2.826171   0.000000
   28        3.249962   0.000000
 
  0.0000000E+00  0.2000000E+00  0.0000000E+00  0.2000000E-01
    1      -10.429231   1.000000
    2       -9.537323   1.000000
    3       -8.045578   1.000000
    4       -6.822718   1.000000
    5       -6.171844   1.000000
    6       -5.905603   1.000000
    7       -5.733564   1.000000
    8       -5.638298   1.000000
    9       -5.537902   1.000000
   10       -5.341707   1.000000
   11       -5.250453   1.000000
   12       -5.224829   1.000000
   13       -5.080143   1.000000
   14       -5.073863   1.000000
   15       -4.966754   1.000000
   16       -4.899488   1.000000
   17       -4.864004   1.000000
   18       -4.666637   1.000000
   19       -4.626605   1.000000
   20       -4.500803   1.000000
   21       -4.315833   1.000000
   22       -4.165420   1.000000
   23       -4.024634   1.000000
   24       -3.020709   1.000000
   25       -0.967211   0.000000
   26        2.576830   0.000000
   27        3.128919   0.000000
   28        3.552439   0.000000
 
  0.4000000E+00  0.2000000E+00  0.0000000E+00  0.2000000E-01
    1       -8.471425   1.000000
    2       -7.827179   1.000000
    3       -7.111546   1.000000
    4       -6.516277   1.000000
    5       -6.181175   1.000000
    6       -6.094386   1.000000
    7       -5.975318   1.000000
    8       -5.887114   1.000000
    9       -5.625322   1.000000
   10       -5.482243   1.000000
   11       -5.367384   1.000000
   12       -5.268368   1.000000
   13       -5.029478   1.000000
   14       -4.970377   1.000000
   15       -4.769162   1.000000
   16       -4.698175   1.000000
   17       -4.460266   1.000000
   18       -4.346384   1.000000
   19       -4.256634   1.000000
   20       -4.025251   1.000000
   21       -3.975438   1.000000
   22       -3.619933   1.000000
   23       -2.817574   1.000000
   24       -0.793959   0.000000
   25        1.743708   0.000000
   26        4.550365   0.000000
   27        5.216207   0.000000
   28        5.622546   0.000000
 
  0.5000000E+00  0.2000000E+00  0.0000000E+00  0.4000000E-01
    1       -7.839152   1.000000
    2       -6.913457   1.000000
    3       -6.714003   1.000000
    4       -6.494484   1.000000
    5       -6.297626   1.000000
    6       -6.157081   1.000000
    7       -5.963328   1.000000
    8       -5.813542   1.000000
    9       -5.611435   1.000000
   10       -5.506536   1.000000
   11       -5.364156   1.000000
   12       -5.104921   1.000000
   13       -5.003596   1.000000
   14       -4.862399   1.000000
   15       -4.675449   1.000000
   16       -4.572617   1.000000
   17       -4.424816   1.000000
   18       -4.236183   1.000000
   19       -4.096850   1.000000
   20       -3.934293   1.000000
   21       -3.294780   1.000000
   22       -2.401466   0.589072
   23       -1.207272   0.000000
   24        0.867771   0.000000
   25        2.687711   0.000000
   26        3.642335   0.000000
   27        3.916701   0.000000
   28        4.919437   0.000000
 
 -0.4000000E+00  0.2000000E+00  0.0000000E+00  0.4000000E-01
    1       -7.602287   1.000000
    2       -6.682671   1.000000
    3       -6.628694   1.000000
    4       -6.421844   1.000000
    5       -6.333457   1.000000
    6       -6.172334   1.000000
    7       -5.993912   1.000000
    8       -5.857889   1.000000
    9       -5.578642   1.000000
   10       -5.500580   1.000000
   11       -5.347510   1.000000
   12       -5.140208   1.000000
   13       -4.923967   1.000000
   14       -4.752537   1.000000
   15       -4.601762   1.000000
   16       -4.492210   1.000000
   17       -4.322524   1.000000
   18       -4.159719   1.000000
   19       -4.105395   1.000000
   20       -4.000643   1.000000
   21       -2.472467   0.890513
   22       -0.749424   0.000000
   23       -0.168836   0.000000
   24        0.602058   0.000000
   25        1.601818   0.000000
   26        2.844786   0.000000
   27        3.532629   0.000000
   28        4.221784   0.000000
 
 -0.3000000E+00  0.2000000E+00  0.0000000E+00  0.4000000E-01
    1       -7.697168   1.000000
    2       -6.925649   1.000000
    3       -6.720545   1.000000
    4       -6.494875   1.000000
    5       -6.299131   1.000000
    6       -6.203586   1.000000
    7       -5.984599   1.000000
    8       -5.851577   1.000000
    9       -5.616627   1.000000
   10       -5.539344   1.000000
   11       -5.431181   1.000000
   12       -5.110654   1.000000
   13       -5.008420   1.000000
   14       -4.861778   1.000000
   15       -4.695387   1.000000
   16       -4.571737   1.000000
   17       -4.422353   1.000000
   18       -4.233789   1.000000
   19       -4.065435   1.000000
   20       -3.934677   1.000000
   21       -3.124215   1.000000
   22       -2.410229   0.636485
   23       -1.301948   0.000000
   24        0.698641   0.000000
   25        2.659603   0.000000
   26        3.599017   0.000000
   27        3.953665   0.000000
   28        4.843109   0.000000
 
 -0.2000000E+00  0.2000000E+00  0.0000000E+00  0.4000000E-01
    1       -8.556208   1.000000
    2       -7.750941   1.000000
    3       -6.988926   1.000000
    4       -6.479349   1.000000
    5       -6.168790   1.000000
    6       -6.096568   1.000000
    7       -5.974214   1.000000
    8       -5.887298   1.000000
    9       -5.625971   1.000000
   10       -5.486398   1.000000
   11       -5.395972   1.000000
   12       -5.354083   1.000000
   13       -5.037557   1.000000
   14       -4.984545   1.000000
   15       -4.814324   1.000000
   16       -4.647067   1.000000
   17       -4.477165   1.000000
   18       -4.308944   1.000000
   19       -4.171696   1.000000
   20       -4.030385   1.000000
   21       -3.912630   1.000000
   22       -3.625646   1.000000
   23       -2.930884   1.000000
   24       -1.034457   0.000000
   25        1.555008   0.000000
   26        4.427333   0.000000
   27        5.413761   0.000000
   28        5.593996   0.000000
 
 -0.1000000E+00  0.2000000E+00  0.0000000E+00  0.4000000E-01
    1       -9.660714   1.000000
    2       -8.782501   1.000000
    3       -7.504917   1.000000
    4       -6.501823   1.000000
    5       -6.245661   1.000000
    6       -6.010298   1.000000
    7       -5.845744   1.000000
    8       -5.783613   1.000000
    9       -5.646844   1.000000
   10       -5.348866   1.000000
   11       -5.321303   1.000000
   12       -5.239378   1.000000
   13       -5.144022   1.000000
   14       -4.988688   1.000000
   15       -4.819464   1.000000
   16       -4.796475   1.000000
   17       -4.627713   1.000000
   18       -4.555794   1.000000
   19       -4.433973   1.000000
   20       -4.342044   1.000000
   21       -4.193798   1.000000
   22       -4.090745   1.000000
   23       -3.815027   1.000000
   24       -2.308318   0.137382
   25        0.055603   0.000000
   26        3.291556   0.000000
   27        4.036741   0.000000
   28        4.468977   0.000000
 
  0.0000000E+00  0.3000000E+00  0.0000000E+00  0.2000000E-01
    1       -9.302565   1.000000
    2       -8.372809   1.000000
    3       -7.303307   1.000000
    4       -6.509375   1.000000
    5       -6.353176   1.000000
    6       -6.044657   1.000000
    7       -5.752755   1.000000
    8       -5.670506   1.000000
    9       -5.441064   1.000000
   10       -5.324589   1.000000
   11       -5.263089   1.000000
   12       -5.127176   1.000000
   13       -4.982697   1.000000
   14       -4.893397   1.000000
   15       -4.774766   1.000000
   16       -4.721811   1.000000
   17       -4.578457   1.000000
   18       -4.424491   1.000000
   19       -4.386644   1.000000
   20       -4.304099   1.000000
   21       -4.184944   1.000000
   22       -4.009275   1.000000
   23       -3.780074   1.000000
   24       -1.988294   0.000000
   25        0.569062   0.000000
   26        3.635644   0.000000
   27        4.629537   0.000000
   28        4.867196   0.000000
 
 -0.4000000E+00  0.3000000E+00  0.0000000E+00  0.2000000E-01
    1       -7.566457   1.000000
    2       -6.441576   1.000000
    3       -6.383540   1.000000
    4       -6.315694   1.000000
    5       -6.206248   1.000000
    6       -6.081285   1.000000
    7       -6.031626   1.000000
    8       -5.926021   1.000000
    9       -5.734126   1.000000
   10       -5.552387   1.000000
   11       -5.479781   1.000000
   12       -5.096730   1.000000
   13       -5.048531   1.000000
   14       -4.842637   1.000000
   15       -4.693748   1.000000
   16       -4.541006   1.000000
   17       -4.491139   1.000000
   18       -4.202582   1.000000
   19       -4.118535   1.000000
   20       -4.024487   1.000000
   21       -2.088498   0.000013
   22       -0.424363   0.000000
   23        0.782866   0.000000
   24        2.208671   0.000000
   25        2.230623   0.000000
   26        2.485908   0.000000
   27        3.333555   0.000000
   28        4.008271   0.000000
 
 -0.3000000E+00  0.3000000E+00  0.0000000E+00  0.4000000E-01
    1       -7.519373   1.000000
    2       -6.458300   1.000000
    3       -6.401835   1.000000
    4       -6.312756   1.000000
    5       -6.203632   1.000000
    6       -6.082056   1.000000
    7       -6.033326   1.000000
    8       -5.918080   1.000000
    9       -5.696714   1.000000
   10       -5.592248   1.000000
   11       -5.483828   1.000000
   12       -5.098570   1.000000
   13       -5.048116   1.000000
   14       -4.868224   1.000000
   15       -4.697513   1.000000
   16       -4.552979   1.000000
   17       -4.489526   1.000000
   18       -4.190742   1.000000
   19       -4.114683   1.000000
   20       -4.026034   1.000000
   21       -1.935102   0.000000
   22       -0.446069   0.000000
   23        0.640029   0.000000
   24        1.764848   0.000000
   25        2.324820   0.000000
   26        2.457047   0.000000
   27        3.254018   0.000000
   28        3.835921   0.000000
 
 -0.2000000E+00  0.3000000E+00  0.0000000E+00  0.4000000E-01
    1       -7.919777   1.000000
    2       -6.888707   1.000000
    3       -6.683427   1.000000
    4       -6.423741   1.000000
    5       -6.287081   1.000000
    6       -6.052305   1.000000
    7       -5.939138   1.000000
    8       -5.782608   1.000000
    9       -5.613473   1.000000
   10       -5.517102   1.000000
   11       -5.411864   1.000000
   12       -5.115290   1.000000
   13       -5.040584   1.000000
   14       -4.900224   1.000000
   15       -4.673288   1.000000
   16       -4.608875   1.000000
   17       -4.423196   1.000000
   18       -4.244222   1.000000
   19       -4.060159   1.000000
   20       -3.934577   1.000000
   21       -3.017316   1.000000
   22       -2.426842   0.720399
   23       -1.405781   0.000000
   24        0.383249   0.000000
   25        2.127031   0.000000
   26        3.289607   0.000000
   27        4.324176   0.000000
   28        5.603913   0.000000
 
 -0.1000000E+00  0.3000000E+00  0.0000000E+00  0.4000000E-01
    1       -8.633379   1.000000
    2       -7.652543   1.000000
    3       -7.001565   1.000000
    4       -6.476632   1.000000
    5       -6.384568   1.000000
    6       -6.085951   1.000000
    7       -5.831477   1.000000
    8       -5.638933   1.000000
    9       -5.508876   1.000000
   10       -5.385442   1.000000
   11       -5.238840   1.000000
   12       -5.168697   1.000000
   13       -5.016188   1.000000
   14       -4.798314   1.000000
   15       -4.711341   1.000000
   16       -4.553878   1.000000
   17       -4.418234   1.000000
   18       -4.240774   1.000000
   19       -4.194350   1.000000
   20       -4.026191   1.000000
   21       -3.943411   1.000000
   22       -3.688879   1.000000
   23       -3.024746   1.000000
   24       -1.088180   0.000000
   25        1.484920   0.000000
   26        3.630492   0.000000
   27        4.591425   0.000000
   28        5.421381   0.000000
 
  0.0000000E+00  0.4000000E+00  0.0000000E+00  0.2000000E-01
    1       -8.489848   1.000000
    2       -7.396550   1.000000
    3       -7.033261   1.000000
    4       -6.565460   1.000000
    5       -6.522229   1.000000
    6       -6.190429   1.000000
    7       -5.786848   1.000000
    8       -5.468614   1.000000
    9       -5.352241   1.000000
   10       -5.344298   1.000000
   11       -5.136229   1.000000
   12       -5.032167   1.000000
   13       -4.630584   1.000000
   14       -4.527223   1.000000
   15       -4.423988   1.000000
   16       -4.371328   1.000000
   17       -4.156333   1.000000
   18       -4.095434   1.000000
   19       -4.026767   1.000000
   20       -4.013674   1.000000
   21       -3.868666   1.000000
   22       -3.588546   1.000000
   23       -2.832366   1.000000
   24       -0.894338   0.000000
   25        1.023142   0.000000
   26        2.635034   0.000000
   27        3.548474   0.000000
   28        5.015937   0.000000
 
 -0.2000000E+00  0.4000000E+00  0.0000000E+00  0.2000000E-01
    1       -7.780751   1.000000
    2       -6.670628   1.000000
    3       -6.631012   1.000000
    4       -6.352722   1.000000
    5       -6.277825   1.000000
    6       -6.036934   1.000000
    7       -5.947738   1.000000
    8       -5.913970   1.000000
    9       -5.524718   1.000000
   10       -5.467931   1.000000
   11       -5.283660   1.000000
   12       -5.127053   1.000000
   13       -4.989506   1.000000
   14       -4.754737   1.000000
   15       -4.633763   1.000000
   16       -4.515568   1.000000
   17       -4.325966   1.000000
   18       -4.148799   1.000000
   19       -4.103210   1.000000
   20       -4.000954   1.000000
   21       -1.928867   0.000000
   22       -0.776835   0.000000
   23       -0.437932   0.000000
   24        0.067566   0.000000
   25        0.740481   0.000000
   26        2.460953   0.000000
   27        3.794572   0.000000
   28        5.052133   0.000000
 
 -0.1000000E+00  0.4000000E+00  0.0000000E+00  0.4000000E-01
    1       -8.173286   1.000000
    2       -7.033496   1.000000
    3       -6.906186   1.000000
    4       -6.528452   1.000000
    5       -6.461880   1.000000
    6       -6.179745   1.000000
    7       -5.817378   1.000000
    8       -5.598278   1.000000
    9       -5.420131   1.000000
   10       -5.297402   1.000000
   11       -5.262808   1.000000
   12       -4.933819   1.000000
   13       -4.759131   1.000000
   14       -4.643848   1.000000
   15       -4.445650   1.000000
   16       -4.305397   1.000000
   17       -4.177699   1.000000
   18       -4.119270   1.000000
   19       -4.055929   1.000000
   20       -3.916435   1.000000
   21       -2.893644   1.000000
   22       -2.440080   0.779719
   23       -1.649935   0.000000
   24       -0.518666   0.000000
   25        0.284685   0.000000
   26        2.221036   0.000000
   27        3.377747   0.000000
   28        4.949298   0.000000
 
  0.0000000E+00  0.5000000E+00  0.0000000E+00  0.1000000E-01
    1       -8.273467   1.000000
    2       -7.103064   1.000000
    3       -7.012180   1.000000
    4       -6.622532   1.000000