unknown system                          
   1.00000000000000     
     2.573869    0.000000    0.000000
     1.286934    2.229036    0.000000
     0.000000    0.000000   30.304665
   Cu   H 
     4     1
Direct
  0.999706  0.000588  0.396567
  0.333186  0.333624  0.465140
  0.665829  0.668343  0.533594
  0.000801  0.998398  0.604216
  0.477089  0.045818  0.637503
 
   10   10  120
 0.12455E-14 -.32960E-16 0.35503E-13 0.33555E-11 0.47531E-13 0.10519E-11 0.22221E-12 0.60157E-12 0.60230E-13 0.16803E-13
 0.14521E-13 0.38822E-12 0.40039E-12 0.80680E-12 0.45533E-13 0.21277E-11 0.34375E-12 0.39716E-11 0.54123E-15 0.75981E-15
 0.34323E-13 0.15594E-12 0.37118E-12 0.14729E-11 0.32779E-13 0.16653E-15 0.20668E-12 0.28720E-10 0.10224E-12 0.67687E-13
 0.23400E-10 0.16340E-10 0.41980E-13 0.23259E-13 0.16231E-12 0.11955E-11 0.46199E-13 0.39623E-11 0.45538E-12 0.20094E-10
 0.25521E-13 0.37872E-13 0.82989E-14 0.21219E-13 0.31170E-13 0.22399E-13 0.93536E-14 0.19665E-13 0.53804E-13 0.46865E-13
 0.75114E-11 0.66522E-10 0.22837E-12 0.34094E-12 0.51237E-13 0.73634E-11 0.13160E-12 0.71373E-13 0.93536E-14 0.39965E-12
 0.31489E-13 0.22204E-15 0.61395E-13 0.16931E-12 0.12879E-13 0.56899E-15 0.16098E-14 0.17208E-14 0.53985E-14 0.10439E-12
 0.19977E-10 0.15074E-10 0.12879E-12 0.18201E-11 0.57185E-12 0.12007E-12 0.29698E-14 0.17347E-14 0.12490E-15 0.18949E-11
 0.60781E-13 0.48800E-13 0.27086E-13 0.60861E-12 0.36277E-13 0.23315E-14 0.40384E-14 0.62533E-13 0.34187E-12 0.16984E-12
 0.24911E-14 0.96763E-14 0.57003E-13 0.18770E-10 0.30009E-12 0.51835E-11 0.29227E-13 0.28708E-10 0.35974E-12 0.27060E-13
 0.13566E-14 0.53429E-15 0.29955E-13 0.17050E-12 0.83683E-14 0.66350E-13 0.11477E-12 0.19984E-13 0.14908E-13 0.97405E-14
 0.11676E-13 0.24623E-12 0.40824E-12 0.48610E-12 0.16098E-13 0.99575E-12 0.14556E-11 0.37405E-11 0.58321E-14 0.21892E-14
 0.52111E-13 0.39407E-12 0.39457E-12 0.87591E-12 0.10741E-13 0.55511E-16 0.36653E-12 0.18787E-10 0.91011E-13 0.64025E-13
 0.27359E-11 0.52345E-11 0.24397E-13 0.25535E-14 0.35916E-13 0.50196E-12 0.43275E-12 0.42601E-11 0.39513E-12 0.27914E-10
 0.63977E-14 0.22510E-13 0.50515E-14 0.65919E-14 0.94647E-14 0.99087E-14 0.10256E-13 0.13795E-13 0.36263E-13 0.26423E-13
 0.19311E-12 0.51793E-10 0.17095E-12 0.90969E-13 0.23467E-13 0.62133E-11 0.33741E-12 0.38151E-12 0.27214E-13 0.72835E-11
 0.19236E-12 0.27756E-15 0.14430E-12 0.50158E-12 0.16376E-13 0.69111E-14 0.77022E-14 0.60785E-14 0.13295E-13 0.21907E-12
 0.45075E-11 0.12520E-10 0.15472E-12 0.26253E-11 0.16324E-12 0.53228E-12 0.10658E-13 0.76605E-14 0.33029E-14 0.46477E-10
 0.18097E-13 0.51875E-13 0.37120E-13 0.78595E-12 0.42841E-13 0.94369E-14 0.12074E-13 0.14866E-12 0.46974E-12 0.88096E-13
 0.33966E-14 0.89616E-14 0.44204E-13 0.20119E-10 0.99268E-13 0.13724E-09 0.10658E-12 0.83018E-10 0.32792E-12 0.56039E-13
 0.57246E-15 0.35735E-15 0.10963E-13 0.29962E-13 0.20539E-14 0.11352E-13 0.14738E-13 0.79103E-15 0.35041E-14 0.31260E-14
 0.44582E-14 0.12651E-12 0.32407E-12 0.10518E-12 0.64670E-14 0.41761E-12 0.66033E-11 0.35487E-11 0.88471E-14 0.16341E-14
 0.13566E-13 0.10071E-11 0.27582E-12 0.26296E-12 0.44409E-14 0.83267E-15 0.25913E-12 0.86427E-11 0.68348E-13 0.57392E-13
 0.53943E-13 0.18279E-11 0.53013E-14 0.41633E-15 0.10492E-13 0.14000E-12 0.35773E-11 0.44196E-11 0.33394E-12 0.33851E-10
 0.15959E-14 0.13101E-13 0.28588E-14 0.24147E-14 0.33029E-14 0.42466E-14 0.79381E-14 0.66752E-14 0.19498E-13 0.13142E-13
 0.15293E-13 0.22443E-11 0.69764E-13 0.16903E-13 0.10811E-13 0.62829E-11 0.86645E-12 0.26053E-11 0.39801E-13 0.15903E-10
 0.43840E-13 0.16653E-15 0.20499E-12 0.15730E-11 0.14294E-13 0.48100E-13 0.48003E-13 0.31058E-13 0.30045E-13 0.43228E-12
 0.13323E-12 0.89843E-11 0.18642E-12 0.13674E-11 0.46019E-13 0.21617E-11 0.55234E-13 0.53457E-13 0.10089E-13 0.73461E-10
 0.36568E-14 0.39836E-13 0.39399E-13 0.97032E-12 0.27908E-13 0.20595E-13 0.33640E-13 0.19557E-12 0.43904E-12 0.40343E-13
 0.16862E-14 0.51834E-14 0.29643E-13 0.92018E-11 0.27783E-13 0.85512E-11 0.41431E-12 0.12170E-10 0.27882E-12 0.96007E-13
 0.44409E-15 0.54123E-15 0.46629E-14 0.11241E-13 0.91593E-15 0.30531E-14 0.34139E-14 0.18041E-15 0.83267E-15 0.13600E-14
 0.23453E-14 0.85182E-13 0.24657E-12 0.11141E-12 0.35527E-14 0.26609E-12 0.19391E-09 0.31294E-11 0.16986E-13 0.26368E-14
 0.37748E-14 0.31423E-11 0.25496E-12 0.19665E-12 0.24147E-14 0.27756E-16 0.20156E-12 0.48967E-11 0.52097E-13 0.46824E-13
 0.97006E-14 0.10879E-11 0.51348E-14 0.24980E-15 0.51348E-14 0.90150E-13 0.20577E-09 0.42118E-11 0.22114E-12 0.42881E-10
 0.58287E-15 0.99087E-14 0.20262E-14 0.12768E-14 0.15266E-14 0.22898E-14 0.69111E-14 0.52319E-14 0.10880E-13 0.81185E-14
 0.27478E-14 0.80545E-12 0.50224E-13 0.16390E-13 0.76050E-14 0.58791E-11 0.40524E-11 0.10915E-10 0.11270E-12 0.17947E-11
 0.66613E-14 0.29865E-13 0.30215E-12 0.18154E-10 0.12712E-13 0.59422E-12 0.27447E-11 0.81099E-12 0.10404E-12 0.11468E-11
 0.26631E-13 0.73771E-11 0.21298E-12 0.23497E-11 0.20067E-13 0.64070E-10 0.50497E-11 0.77440E-11 0.66391E-13 0.56214E-11
 0.83267E-15 0.38414E-13 0.42896E-13 0.98979E-12 0.20248E-13 0.67280E-13 0.17608E-12 0.40026E-12 0.41304E-12 0.11435E-13
 0.13739E-14 0.41217E-14 0.18777E-13 0.30988E-11 0.13461E-13 0.22050E-11 0.21116E-11 0.38684E-11 0.22735E-12 0.13467E-12
 0.20817E-15 0.49960E-15 0.24147E-14 0.48572E-14 0.44409E-15 0.11657E-14 0.88818E-15 -.27756E-16 0.19429E-15 0.47184E-15
 0.94369E-15 0.47823E-13 0.12421E-12 0.11158E-13 0.18874E-14 0.14752E-12 0.94612E-09 0.28594E-11 0.22454E-13 0.27617E-14
 0.14849E-14 0.30121E-10 0.19146E-12 0.72026E-13 0.97145E-15 0.38858E-15 0.55178E-13 0.22549E-11 0.38955E-13 0.45949E-13
 0.24147E-14 0.54116E-12 0.74940E-15 -.11102E-15 0.21372E-14 0.37276E-13 0.80994E-10 0.40965E-11 0.23495E-12 0.67654E-10
 0.27756E-15 0.68001E-14 0.11380E-14 0.61062E-15 0.49960E-15 0.11796E-14 0.46629E-14 0.29143E-14 0.63144E-14 0.43576E-14
 0.10547E-14 0.26430E-12 0.21524E-13 0.46352E-14 0.49127E-14 0.64932E-11 0.49092E-11 0.14033E-10 0.83003E-13 0.14497E-11
 0.14155E-14 0.64698E-13 0.21222E-12 0.53667E-08 0.90622E-14 0.26127E-11 0.24829E-10 0.19308E-11 0.16430E-12 0.14627E-11
 0.84238E-14 0.57466E-11 0.23009E-12 0.19265E-11 0.69389E-14 0.12986E-09 0.35929E-11 0.11978E-10 0.58495E-13 0.27837E-11
 0.23592E-15 0.31378E-13 0.46976E-13 0.12467E-11 0.12212E-13 0.55345E-13 0.23648E-12 0.19806E-12 0.27858E-12 0.38303E-14
 0.83267E-15 0.27339E-14 0.12809E-13 0.99010E-12 0.45797E-14 0.21629E-11 0.13947E-11 0.23792E-11 0.21180E-12 0.25566E-12
 0.41633E-16 0.30531E-15 0.15959E-14 0.25813E-14 0.16653E-15 0.61062E-15 0.22204E-15 -.55511E-16 0.27756E-16 0.13878E-15
 0.36082E-15 0.34917E-13 0.61812E-13 0.61895E-14 0.10547E-14 0.96478E-13 0.10445E-09 0.24976E-11 0.36096E-13 0.30947E-14
 0.88818E-15 0.39880E-10 0.16576E-12 0.58953E-13 0.72164E-15 0.11102E-15 0.24536E-13 0.13090E-11 0.34361E-13 0.38525E-13
 0.83267E-15 0.35778E-12 0.61062E-15 0.27756E-16 0.14155E-14 0.25452E-13 0.10625E-08 0.37306E-11 0.18344E-12 0.94839E-10
 0.18041E-15 0.49682E-14 0.91593E-15 0.41633E-15 0.31919E-15 0.58287E-15 0.37609E-14 0.20817E-14 0.43854E-14 0.27756E-14
 0.37470E-15 0.13305E-12 0.14960E-13 0.36499E-14 0.34001E-14 0.63467E-11 0.22539E-11 0.11140E-09 0.67876E-13 0.10894E-11
 0.52736E-15 0.33723E-12 0.14627E-12 0.52663E-10 0.73622E-14 0.27730E-11 0.11087E-11 0.14337E-12 0.17145E-12 0.12440E-11
 0.36221E-14 0.47839E-11 0.31203E-12 0.27991E-12 0.32058E-14 0.91317E-09 0.87597E-13 0.30395E-12 0.67335E-13 0.14683E-11
 0.27756E-16 0.34486E-13 0.57038E-13 0.13943E-11 0.10270E-13 0.63893E-13 0.17875E-12 0.12657E-12 0.26343E-12 0.27756E-15
 0.52736E-15 0.17764E-14 0.48572E-14 0.13267E-13 0.22204E-14 0.16711E-11 0.50976E-12 0.14293E-11 0.17836E-12 0.39152E-12
 0.13878E-15 0.38858E-15 0.86042E-15 0.14988E-14 0.55511E-16 0.38858E-15 0.55511E-16 0.11102E-15 -.83267E-16 0.69389E-16
 0.18041E-15 0.13559E-13 0.38303E-14 0.36082E-14 0.74940E-15 0.61562E-13 0.64869E-11 0.22095E-11 0.33001E-13 0.35666E-14
 0.40246E-15 0.53986E-11 0.13195E-12 0.29032E-13 0.41633E-15 0.27756E-15 0.61340E-14 0.42463E-12 0.19693E-13 0.30073E-13
 0.29143E-15 0.19772E-12 0.83267E-16 -.83267E-16 0.72164E-15 0.14627E-13 0.43123E-11 0.34566E-11 0.16309E-12 0.14852E-09
 0.41633E-16 0.36360E-14 0.59674E-15 0.27756E-15 0.69389E-16 0.23592E-15 0.24286E-14 0.14294E-14 0.28033E-14 0.18735E-14
 0.17347E-15 0.58210E-13 0.78826E-14 0.16584E-14 0.23870E-14 0.78843E-11 0.32920E-12 0.83283E-12 0.26062E-13 0.16013E-11
 0.17347E-15 0.11205E-12 0.72511E-13 0.79826E-09 0.49058E-14 0.51610E-12 0.59952E-13 0.12532E-13 0.33334E-13 0.35597E-12
 0.16653E-14 0.37273E-11 0.29309E-12 0.13406E-10 0.11657E-14 0.60082E-12 0.60507E-14 0.25119E-13 0.25924E-13 0.10727E-11
 -.55511E-16 0.22940E-13 0.52638E-13 0.15601E-11 0.64115E-14 0.30614E-13 0.32419E-13 0.37609E-13 0.13878E-12 0.71887E-14
 0.40246E-15 0.13600E-14 0.62450E-15 0.73747E-13 0.99920E-15 0.44048E-11 0.11499E-12 0.11032E-11 0.15718E-12 0.63841E-12
 0.27756E-16 0.27756E-15 0.59674E-15 0.16098E-14 0.22204E-15 0.22204E-15 0.11102E-15 0.83267E-16 -.55511E-16 0.41633E-16
 0.41633E-16 0.90622E-14 -.27756E-16 0.51903E-14 0.52736E-15 0.42938E-13 0.21962E-11 0.19369E-11 0.45949E-13 0.40801E-14
 0.38858E-15 0.18952E-11 0.11299E-12 0.23453E-13 0.24980E-15 0.22204E-15 0.17486E-14 0.22318E-12 0.16862E-13 0.29109E-13
 0.16653E-15 0.13450E-12 0.22204E-15 0.97145E-16 0.58287E-15 0.10367E-13 0.12677E-11 0.30780E-11 0.15815E-12 0.31452E-09
 0.34694E-16 0.28866E-14 0.51348E-15 0.16653E-15 0.13878E-16 0.13878E-15 0.19568E-14 0.10686E-14 0.19151E-14 0.12559E-14
 0.97145E-16 0.32429E-13 0.52874E-14 0.11276E-14 0.18735E-14 0.76124E-11 0.95896E-13 0.17401E-12 0.13975E-13 0.18448E-11
 0.83267E-16 0.69347E-13 0.38823E-13 0.84670E-11 0.39899E-14 0.20367E-12 0.16570E-13 0.33862E-14 0.99781E-14 0.12012E-12
 0.10963E-14 0.31527E-11 0.51282E-12 0.10913E-10 0.61062E-15 0.11410E-12 0.14433E-14 0.73275E-14 0.18763E-13 0.74035E-12
 -.27756E-16 0.25160E-13 0.61645E-13 0.24607E-11 0.50515E-14 0.21594E-13 0.10880E-13 0.16154E-13 0.83600E-13 0.24952E-13
 0.29143E-15 0.95757E-15 -.41633E-16 0.34459E-12 0.47184E-15 0.12271E-10 0.49044E-13 0.79092E-12 0.15259E-12 0.14258E-11
 0.69389E-16 0.24980E-15 0.40246E-15 0.11380E-14 0.83267E-16 0.11102E-15  0.0000      0.0000     0.55511E-16 0.20817E-16
 -.27756E-16 0.20331E-14 0.19235E-13 0.22538E-13 0.27756E-15 0.30170E-13 0.79844E-12 0.16858E-11 0.47448E-13 0.38441E-14
 0.20123E-15 0.10765E-11 0.92371E-13 0.18291E-13 0.19429E-15 0.22204E-15 0.68001E-15 0.64809E-14 0.10575E-13 0.24473E-13
 0.55511E-16 0.74381E-13 0.16653E-15 -.13878E-16 0.38858E-15 0.70222E-14 0.41889E-12 0.27554E-11 0.95528E-13 0.26608E-09
 0.48572E-16 0.23592E-14 0.32266E-15 0.20817E-15 -.41633E-16 0.69389E-16 0.14710E-14 0.72858E-15 0.13600E-14 0.74940E-15
 0.11102E-15 0.16438E-13 0.36152E-14 0.76848E-15 0.15127E-14 0.12264E-10 0.24022E-13 0.47726E-13 0.79242E-14 0.50894E-11
 0.41633E-16 0.23870E-13 0.21788E-13 0.99563E-12 0.29837E-14 0.83544E-13 0.62311E-14 0.12421E-14 0.29976E-14 0.34285E-13
 0.55511E-15 0.24527E-11 0.49538E-12 0.78087E-11 0.19429E-15 0.27839E-13 0.30531E-15 0.28866E-14 0.11526E-13 0.60432E-12
 -.27756E-16 0.19248E-13 0.60243E-13 0.26204E-11 0.38303E-14 0.13059E-13 0.39690E-14 0.65364E-14 0.37886E-13 0.10848E-12
 0.16653E-15 0.37470E-15 0.76328E-15 0.84535E-12 0.19429E-15 0.13273E-10 0.20123E-13 0.66597E-12 0.14766E-12 0.38352E-11
 0.13878E-16 0.11796E-15 0.32613E-15 0.12768E-14 0.83267E-16 0.19429E-15 0.83267E-16 0.13878E-16  0.0000     0.41633E-16
 0.27756E-16 0.14433E-14 0.30698E-13 0.51001E-13 0.23592E-15 0.25667E-13 0.42374E-12 0.21257E-11 0.62297E-13 0.45519E-14
 0.16653E-15 0.66278E-12 0.80044E-13 0.15141E-13 0.97145E-16 0.16653E-15 0.13184E-15 0.40523E-14 0.97283E-14 0.27818E-13
 0.27756E-16 0.42431E-13 0.69389E-17 0.65919E-16 0.20817E-15 0.55303E-14 0.19258E-12 0.24861E-11 0.10027E-12 0.49073E-08
  0.0000     0.19568E-14 0.27062E-15 0.16653E-15 0.15613E-16 0.20817E-16 0.12490E-14 0.64532E-15 0.97145E-15 0.60368E-15
 0.69389E-16 0.11453E-13 0.24633E-14 0.67654E-15 0.12906E-14 0.11265E-10 0.10013E-13 0.19595E-13 0.41217E-14 0.98385E-11
 0.41633E-16 0.10922E-13 0.12858E-13 0.29013E-12 0.24009E-14 0.46511E-13 0.34694E-14 0.56205E-15 0.13878E-14 0.14058E-13
 0.54817E-15 0.20835E-11 0.61115E-12 0.93672E-11 0.97145E-16 0.96589E-14 0.27756E-16 0.13461E-14 0.69042E-14 0.46181E-12
 -.27756E-16 0.22649E-13 0.69521E-13 0.42599E-11 0.32474E-14 0.83961E-14 0.20262E-14 0.28380E-14 0.17694E-13 0.14345E-12
 0.12490E-15 0.31919E-15 0.10825E-14 0.87721E-12 0.83267E-16 0.22792E-11 0.12074E-13 0.51475E-12 0.18646E-12 0.39718E-09
 -.41633E-16 0.14572E-15 0.27062E-15 0.90206E-15 0.13184E-15 0.11102E-15 -.27756E-16 0.83267E-16 -.55511E-16 -.48572E-16
 -.90206E-16 0.82573E-15 0.53034E-13 0.51181E-13 0.15959E-15 0.16383E-13 0.28266E-12 0.22729E-11 0.58446E-13 0.45242E-14
 0.55511E-16 0.60468E-12 0.63831E-13 0.11786E-13 0.12143E-15 0.15266E-15 -.13878E-16 0.80116E-13 0.47115E-14 0.17458E-13
  0.0000     0.20227E-13 0.52042E-16 -.13878E-16 0.17694E-15 0.42362E-14 0.11761E-12 0.22036E-11 0.69195E-13 0.10908E-08
 0.20817E-16 0.15266E-14 0.21164E-15 0.14225E-15 0.65919E-16 -.13878E-16 0.79797E-15 0.53429E-15 0.66613E-15 0.38858E-15
 0.27756E-16 0.47948E-14 0.17521E-14 0.44062E-15 0.94369E-15 0.27338E-10 0.28380E-14 0.83822E-14 0.23315E-14 0.12324E-09
 0.34694E-16 0.70499E-14 0.67030E-14 0.11104E-12 0.17139E-14 0.26208E-13 0.16653E-14 0.33307E-15 0.43021E-15 0.42535E-14
 0.36082E-15 0.16318E-11 0.63945E-12 0.89794E-11 -.62450E-16 0.33584E-14 -.13878E-16 0.73552E-15 0.47323E-14 0.39554E-12
  0.0000     0.14030E-13 0.65954E-13 0.49777E-11 0.23870E-14 0.55858E-14 0.97145E-15 0.10617E-14 0.49058E-14 0.45261E-12
 0.41633E-16 0.83267E-16 0.75079E-14 0.10161E-11 0.69389E-17 0.32735E-12 0.64324E-14 0.44881E-12 0.19075E-12 0.26652E-09
  0.0000     0.22898E-15 0.36082E-15 0.92981E-15 -.13878E-16 0.16653E-15 0.48572E-16 0.55511E-16 -.34694E-16 0.69389E-16
 -.69389E-17 0.31780E-14 0.62027E-13 0.96576E-13 0.62450E-16 0.14592E-13 0.18977E-12 0.24639E-11 0.10222E-12 0.47393E-14
 0.83267E-16 0.60241E-12 0.57954E-13 0.11859E-13 0.69389E-17 0.18041E-15 0.97145E-16 0.17263E-12 0.45311E-14 0.18485E-13
  0.0000     0.56691E-14  0.0000     0.69389E-16 0.69389E-16 0.45727E-14 0.71679E-13 0.19516E-11 0.69250E-13 0.39923E-07
 0.55511E-16 0.13808E-14 0.20123E-15 0.12490E-15 -.69389E-17 -.41633E-16 0.67307E-15 0.50654E-15 0.56899E-15 0.30531E-15
 0.10408E-15 0.34070E-14 0.14502E-14 0.55511E-15 0.90900E-15 0.35192E-10 0.16931E-14 0.57246E-14 0.21233E-14 0.16364E-10
 0.69389E-17 0.43299E-14 0.48225E-14 0.53103E-13 0.13808E-14 0.18298E-13 0.13253E-14 0.37470E-15 0.36082E-15 0.19568E-14
 0.34001E-15 0.13718E-11 0.69957E-12 0.91904E-11 -.27756E-16 0.21302E-14 -.13878E-16 0.56899E-15 0.41078E-14 0.31919E-12
 -.13878E-16 0.14433E-13 0.77785E-13 0.70734E-11 0.21025E-14 0.44825E-14 0.75634E-15 0.82573E-15 0.26021E-14 0.84333E-12
 0.62450E-16 0.55511E-16 0.97422E-14 0.99822E-12 -.76328E-16 0.19022E-12 0.49197E-14 0.36742E-12 0.23159E-12 0.12571E-10
 -.41633E-16 0.29143E-15 0.34001E-15 0.95757E-15 -.34694E-16 0.13878E-16 -.13878E-16 0.41633E-16 -.62450E-16 -.13878E-16
 -.76328E-16 0.95826E-14 0.69132E-13 0.10354E-12 0.41633E-16 0.10388E-13 0.14316E-12 0.26951E-11 0.13804E-12 0.52319E-14
 0.27756E-16 0.58221E-12 0.60840E-13 0.93398E-14 -.69389E-17 0.69389E-16 0.90206E-16 0.28764E-12 0.27200E-14 0.16383E-13
 -.69389E-16 0.14294E-14 0.27756E-16 0.10408E-15 0.13878E-15 0.39344E-14 0.50890E-13 0.17908E-11 0.48080E-13 0.43480E-08
 0.27756E-16 0.11727E-14 0.11796E-15 0.13878E-15 -.41633E-16 0.55511E-16 0.58981E-15 0.47184E-15 0.41633E-15 0.18041E-15
 0.69389E-17 0.17972E-14 0.96451E-15 0.34694E-15 0.68001E-15 0.16839E-09 0.58287E-15 0.30254E-14 0.11796E-14 0.24455E-11
 0.13878E-16 0.32821E-14 0.31017E-14 0.27742E-13 0.11727E-14 0.12310E-13 0.74246E-15 0.18735E-15 0.97145E-16 0.70777E-15
 0.27756E-15 0.11250E-11 0.73257E-12 0.15525E-10 -.34694E-16 0.77716E-15 -.34694E-16 0.29143E-15 0.26784E-14 0.32727E-12
 -.34694E-16 0.12899E-13 0.90206E-13 0.75658E-11 0.17486E-14 0.30115E-14 0.33307E-15 0.33307E-15 0.39552E-15 0.37660E-11
 0.69389E-16 0.41633E-16 0.16924E-13 0.96539E-12 -.20817E-16 0.77792E-13 0.29490E-14 0.31987E-12 0.22773E-12 0.53660E-11
 -.34694E-16 0.35388E-15 0.38164E-15 0.72858E-15 -.27756E-16 0.41633E-16 -.83267E-16 -.13878E-16 0.13878E-16 0.90206E-16
 0.20817E-16 0.17555E-13 0.72171E-13 0.16643E-12 0.13878E-16 0.89304E-14 0.10256E-12 0.29854E-11 0.18897E-12 0.52250E-14
 0.62450E-16 0.58703E-12 0.66551E-13 0.84238E-14 -.76328E-16 0.13184E-15 0.12490E-15 0.39155E-12 0.14710E-14 0.17132E-13
  0.0000     0.90900E-15 -.27756E-16 0.55511E-16 -.11796E-15 0.38303E-14 0.43070E-13 0.15195E-11 0.40155E-13 0.84263E-09
 -.13878E-16 0.13808E-14 0.13878E-15 0.69389E-16 0.41633E-16 -.69389E-17 0.44409E-15 0.26368E-15 0.41633E-15 0.15266E-15
  0.0000     0.10339E-14 0.71471E-15 0.29143E-15 0.67307E-15 0.13630E-08 0.16653E-15 0.19984E-14 0.96451E-15 0.11872E-11
 0.69389E-17 0.21372E-14 0.24078E-14 0.15474E-13 0.86042E-15 0.91524E-14 0.56205E-15 0.18735E-15 0.76328E-16 0.29143E-15
 0.22898E-15 0.94763E-12 0.77148E-12 0.11451E-10 0.13878E-16 0.47184E-15 -.11102E-15 0.27062E-15 0.20262E-14 0.33329E-12
 0.27756E-16 0.12164E-13 0.10014E-12 0.96404E-11 0.15196E-14 0.24494E-14 0.22204E-15 0.19429E-15 0.21511E-15 0.29275E-09
 0.55511E-16  0.0000     0.20442E-13 0.91113E-12 -.97145E-16 0.47531E-13 0.21233E-14 0.29463E-12 0.24961E-12 0.34326E-11
 -.69389E-16 0.40246E-15 0.45797E-15 0.90206E-15 -.41633E-16 0.14572E-15 0.76328E-16 0.55511E-16 -.34694E-16 0.20817E-16
 -.20817E-16 0.38421E-13 0.66815E-13 0.25582E-12 0.34694E-16 0.71818E-14 0.94744E-13 0.33822E-11 0.27175E-12 0.55095E-14
 0.27756E-16 0.61735E-12 0.69118E-13 0.76536E-14 0.97145E-16 0.13184E-15 0.18041E-15 0.46602E-12 0.11380E-14 0.16091E-13
 -.20817E-16 0.14794E-13 0.13878E-16 -.20817E-16 -.13878E-16 0.35111E-14 0.41522E-13 0.13930E-11 0.41120E-13 0.33378E-09
 -.27756E-16 0.15543E-14 0.14572E-15 0.97145E-16 -.27756E-16 0.83267E-16 0.30531E-15 0.23592E-15 0.24980E-15 0.11796E-15
  0.0000     0.58981E-15 0.61062E-15 0.16653E-15 0.59674E-15 0.24874E-08 0.18041E-15 0.13045E-14 0.70777E-15 0.59325E-12
 0.55511E-16 0.15890E-14 0.16584E-14 0.95063E-14 0.71471E-15 0.69042E-14 0.49960E-15 0.95410E-16 0.91940E-16 0.13184E-15
 0.18735E-15 0.78682E-12 0.12231E-11 0.15950E-10 -.69389E-17 0.28103E-15 0.76328E-16 0.18041E-15 0.17417E-14 0.35284E-12
 -.69389E-17 0.11192E-13 0.14094E-12 0.11757E-10 0.12906E-14 0.19915E-14 0.28103E-15 0.10755E-15 -.69389E-17 0.15599E-10
 0.48572E-16 0.83267E-16 0.26180E-13 0.83038E-12 0.27756E-16 0.27006E-13 0.17000E-14 0.32325E-12 0.28435E-12 0.26258E-11
 -.27756E-16 0.42327E-15 0.35388E-15 0.65226E-15 -.16653E-15 0.48572E-16 -.27756E-16 0.13878E-16 -.20817E-16 -.69389E-17
 0.13878E-16 0.94078E-13 0.64178E-13 0.27463E-12 -.48572E-16 0.51556E-14 0.73969E-13 0.38425E-11 0.30657E-12 0.64115E-14
  0.0000     0.68267E-12 0.66815E-13 0.54748E-14 -.19429E-15 0.69389E-16 0.18735E-15 0.52634E-12 0.22204E-15 0.12629E-13
 -.90206E-16 0.31398E-13 -.34694E-16 -.13878E-16 -.62450E-16 0.25605E-14 0.37879E-13 0.12065E-11 0.31690E-13 0.20459E-09
 -.55511E-16 0.11380E-14 0.97145E-16 -.69389E-17 -.13878E-16 -.13878E-16 0.30531E-15 0.19429E-15 0.17000E-15 0.20817E-16
 -.13878E-16 0.34694E-16 0.36082E-15 0.15266E-15 0.37470E-15 0.52621E-10 0.27756E-16 0.75287E-15 0.43021E-15 0.33575E-12
 -.41633E-16 0.12351E-14 0.10755E-14 0.60230E-14 0.56899E-15 0.54470E-14 0.30791E-15 0.69389E-16 -.11883E-15 -.27756E-16
 0.11102E-15 0.69328E-12 0.15076E-11 0.13877E-10 0.97145E-16 0.58981E-16 -.57246E-16 0.11623E-15 0.12317E-14 0.38563E-12
 -.55511E-16 0.88055E-14 0.13198E-12 0.13440E-10 0.13461E-14 0.13288E-14 0.13704E-15 0.31225E-16 0.30531E-15 0.33949E-11
 0.55511E-16 0.55511E-16 0.40919E-13 0.75319E-12 -.11102E-15 0.14537E-13 0.10478E-14 0.33596E-12 0.29868E-12 0.21608E-11
 -.27756E-16 0.56205E-15 0.49960E-15 0.81879E-15 0.13878E-15 0.16653E-15  0.0000     0.11102E-15 0.13878E-16 -.55511E-16
 0.27756E-16 0.11989E-12 0.60930E-13 0.47339E-12 -.83267E-16 0.51209E-14 0.53513E-13 0.39149E-11 0.45860E-12 0.10117E-13
 0.69389E-16 0.66197E-12 0.66579E-13 0.68140E-14 0.13878E-16 0.13184E-15 0.27756E-15 0.63932E-12 0.40246E-15 0.14211E-13
 -.48572E-16 0.12258E-12 0.15266E-15 0.27756E-16 0.22204E-15 0.33307E-14 0.29213E-13 0.12069E-11 0.25924E-13 0.86336E-10
 -.27756E-16 0.16098E-14 0.11796E-15 0.41633E-16 -.27756E-16 0.97145E-16 0.27062E-15 0.18041E-15 0.16306E-15 0.55511E-16
 -.27756E-16 0.13878E-15 0.38164E-15 0.19429E-15 0.51348E-15 0.37767E-10 0.11102E-15 0.73986E-15 0.40939E-15 0.46357E-12
 0.13878E-16 0.79797E-15 0.83267E-15 0.37609E-14 0.56205E-15 0.75495E-14 0.32439E-15 0.11102E-15 -.22551E-16 0.45103E-16
 0.15266E-15 0.54615E-12 0.12078E-11 0.19111E-10 0.11102E-15 0.17521E-15  0.0000     0.12924E-15 0.12247E-14 0.46070E-12
  0.0000     0.96798E-14 0.19894E-12 0.15542E-10 0.14745E-14 0.15474E-14 0.19819E-15 -.13878E-16 0.73899E-15 0.15846E-11
 0.76328E-16 0.18041E-15 0.45575E-13 0.67374E-12 0.48572E-16 0.13850E-13 0.10617E-14 0.40472E-12 0.32325E-12 0.19047E-11
 -.69389E-16 0.60368E-15 0.43021E-15 0.85348E-15 0.13878E-16 0.41633E-16 -.34694E-16 -.83267E-16 -.11796E-15  0.0000    
 -.41633E-16 0.35137E-12 0.55345E-13 0.49977E-12 -.11796E-15 0.39413E-14 0.59612E-13 0.43339E-11 0.64355E-12 0.10880E-13
 0.27756E-16 0.73574E-12 0.88304E-13 0.61201E-14 -.13878E-15 -.13878E-16 0.16653E-15 0.65904E-12 0.41633E-16 0.14072E-13
 -.13878E-16 0.17727E-12 0.69389E-17 -.83267E-16 0.27756E-16 0.29976E-14 0.35541E-13 0.12507E-11 0.23197E-13 0.60702E-10
  0.0000     0.14294E-14 0.16653E-15 0.69389E-16 0.27756E-16 0.27756E-16 0.23592E-15 0.13878E-15 0.16653E-15 0.27756E-16
 0.41633E-16 0.27756E-16 0.23592E-15 0.16653E-15 0.47184E-15 0.14805E-10  0.0000     0.49613E-15 0.27756E-15 0.26481E-12
 -.69389E-17 0.77022E-15 0.79103E-15 0.28103E-14 0.43715E-15 0.56344E-14 0.18388E-15 0.83267E-16 -.69389E-16  0.0000    
 0.16653E-15 0.47573E-12 0.17979E-11 0.21468E-10 0.83267E-16 -.17347E-17  0.0000     0.20817E-16 0.97145E-15 0.45457E-12
 -.27756E-16 0.88748E-14 0.20414E-12 0.17257E-10 0.20435E-14 0.11241E-14 0.22551E-16 -.55511E-16 0.45450E-15 0.88048E-12
 0.11102E-15 0.19429E-15 0.51223E-13 0.61785E-12 -.27756E-16 0.69389E-14 0.57593E-15 0.39415E-12 0.36172E-12 0.17603E-11
 0.55511E-16 0.76328E-15 0.66613E-15 0.86042E-15 0.69389E-16 0.41633E-16 0.13878E-16 0.69389E-16 0.55511E-16 0.27756E-16
 -.27756E-16 0.83245E-12 0.50231E-13 0.67168E-12 0.48572E-16 0.32474E-14 0.53575E-13 0.45460E-11 0.84451E-12 0.14350E-13
  0.0000     0.74966E-12 0.74551E-13 0.54401E-14  0.0000     0.83267E-16 0.37470E-15 0.69317E-12 0.13878E-15 0.14183E-13
 -.41633E-16 0.28083E-12 0.16653E-15 0.13878E-15 0.27756E-16 0.28727E-14 0.35034E-13 0.14755E-11 0.23523E-13 0.36774E-10
  0.0000     0.17278E-14 0.13878E-15 0.13878E-15 -.83267E-16 0.55511E-16 0.18041E-15 0.11102E-15 0.16653E-15 0.83267E-16
 -.55511E-16  0.0000     0.19429E-15 0.55511E-16 0.55511E-15 0.69132E-11 0.55511E-16 0.39552E-15 0.22204E-15 0.31535E-12
  0.0000     0.66613E-15 0.43021E-15 0.19984E-14 0.34694E-15 0.69389E-14 0.27756E-15 0.41633E-16 -.24286E-16 0.27756E-16
 0.97145E-16 0.39174E-12 0.21817E-11 0.33820E-10 0.83267E-16 0.18041E-15 0.55511E-16 0.12490E-15 0.12768E-14 0.51308E-12
  0.0000     0.84932E-14 0.30834E-12 0.21524E-10 0.19360E-14 0.13045E-14 0.12490E-15 -.83267E-16 0.79797E-15 0.63810E-12
 0.11102E-15 0.22204E-15 0.58606E-13 0.54309E-12 0.55511E-16 0.61617E-14 0.63838E-15 0.42585E-12 0.39274E-12 0.16901E-11
 -.55511E-16 0.97145E-15 0.56899E-15 0.73552E-15 -.27756E-16 -.13878E-15 -.12490E-15 -.27756E-16 -.27756E-16 -.41633E-16
 -.55511E-16 0.91838E-11 0.45991E-13 0.75631E-12 -.76328E-16 0.26645E-14 0.50654E-13 0.50954E-11 0.98956E-12 0.26756E-13
 0.13878E-16 0.80777E-12 0.92454E-13 0.50793E-14 -.13878E-15 -.16653E-15 0.12490E-15 0.70674E-12 0.27756E-16 0.12740E-13
 -.13878E-16 0.45217E-12 -.83267E-16 -.27756E-16 0.11102E-15 0.30670E-14 0.35014E-13 0.14427E-11 0.16681E-13 0.27699E-10
 -.13878E-16 0.16306E-14 0.27756E-16 -.13878E-16 -.27756E-16 -.27756E-16 0.13878E-15 0.15266E-15 0.83267E-16 0.83267E-16
 -.13878E-16  0.0000     0.97145E-16 0.97145E-16 0.48572E-15 0.54253E-11 0.13878E-16 0.30531E-15 0.22204E-15 0.25837E-12
 -.41633E-16 0.54123E-15 0.47184E-15 0.14155E-14 0.23592E-15 0.60230E-14 0.24980E-15 0.97145E-16 -.83267E-16 0.27756E-16
 0.11102E-15 0.34413E-12 0.28410E-11 0.31685E-10 0.41633E-16 -.55511E-16 -.41633E-16 0.11102E-15 0.94369E-15 0.54975E-12
 -.55511E-16 0.75911E-14 0.28616E-12 0.22490E-10 0.20817E-14 0.10825E-14 -.13878E-16 0.55511E-16 0.73552E-15 0.40823E-12
 0.11102E-15 0.12490E-15 0.80755E-13 0.48333E-12 -.27756E-16 0.42188E-14 0.55511E-15 0.45337E-12 0.39416E-12 0.16269E-11
 0.27756E-16 0.95757E-15 0.73552E-15 0.91593E-15 0.41633E-16 -.55511E-16 -.12490E-15 0.69389E-16 -.27756E-16 -.13878E-16
 -.97145E-16 0.21047E-10 0.41342E-13 0.66265E-12  0.0000     0.24425E-14 0.53471E-13 0.57915E-11 0.13297E-11 0.29352E-13
 0.83267E-16 0.91174E-12 0.88832E-13 0.54262E-14 -.27756E-16 0.69389E-16 0.26368E-15 0.69914E-12 0.69389E-16 0.12670E-13
 -.11102E-15 0.40899E-12 0.97145E-16 0.55511E-16 -.69389E-16 0.30947E-14 0.38913E-13 0.19334E-11 0.16404E-13 0.17399E-10
 0.13878E-16 0.18596E-14 0.12490E-15 0.69389E-16 0.13878E-16 0.41633E-16 0.22204E-15 0.12490E-15 0.13878E-15 0.41633E-16
  0.0000     0.55511E-16 0.20817E-15 0.97145E-16 0.59674E-15 0.20735E-11 0.18041E-15 0.20817E-15 0.12490E-15 0.27142E-12
 0.13878E-16 0.44409E-15 0.29143E-15 0.11657E-14 0.22204E-15 0.73136E-14 0.30531E-15 0.55511E-16 -.27756E-16 0.11102E-15
 0.18041E-15 0.30237E-12 0.40375E-11 0.14451E-09 0.27756E-16 0.41633E-16 -.69389E-16 0.41633E-16 0.11241E-14 0.60726E-12
 0.13878E-16 0.73691E-14 0.45965E-12 0.26106E-10 0.23870E-14 0.11935E-14 0.69389E-16 -.41633E-16 0.10408E-14 0.35545E-12
 0.13878E-15 0.27756E-15 0.89706E-13 0.43077E-12  0.0000     0.35111E-14 0.41633E-15 0.48757E-12 0.45372E-12 0.15650E-11
 -.69389E-17 0.12351E-14 0.69389E-15 0.88818E-15 0.69389E-16 0.69389E-16 0.69389E-16  0.0000      0.0000     -.27756E-16
 0.69389E-17 0.16136E-11 0.37484E-13 0.16475E-11 0.27756E-16 0.20817E-14 0.48087E-13 0.58011E-11 0.17146E-11 0.44215E-13
 0.27756E-16 0.92731E-12 0.10511E-12 0.50515E-14 -.83267E-16 0.27756E-16 0.16653E-15 0.71620E-12 0.27756E-16 0.13892E-13
 -.27756E-16 0.27739E-11 0.11102E-15 0.83267E-16 0.11102E-15 0.27894E-14 0.38136E-13 0.17978E-11 0.13045E-13 0.12628E-10
 -.13878E-16 0.19013E-14 0.12490E-15 0.41633E-16 0.13878E-16 0.27756E-16 0.15266E-15 0.69389E-16 0.15266E-15 -.55511E-16
 -.41633E-16 0.11102E-15 0.83267E-16 0.83267E-16 0.61062E-15 0.25461E-11 0.13878E-16 0.22204E-15 0.13878E-15 0.26935E-12
  0.0000     0.34694E-15 0.27756E-15 0.90206E-15 0.20817E-15 0.74385E-14 0.27756E-15 0.27756E-16 0.41633E-16  0.0000    
 0.15266E-15 0.25385E-12 0.49898E-11 0.67009E-10 -.13878E-16 0.27756E-16 -.83267E-16 0.97145E-16 0.13323E-14 0.63446E-12
 -.13878E-16 0.73136E-14 0.48686E-12 0.26358E-10 0.25119E-14 0.13045E-14 0.83267E-16 0.55511E-16 0.97145E-15 0.28591E-12
 0.15266E-15 0.18041E-15 0.98421E-13 0.38305E-12 -.27756E-16 0.28172E-14 0.27756E-15 0.52197E-12 0.47159E-12 0.15772E-11
 0.34694E-17 0.12768E-14 0.74246E-15 0.98532E-15  0.0000     -.13878E-16 -.83267E-16 0.27756E-16 -.69389E-17 -.10408E-16
 -.55511E-16 0.53740E-12 0.33779E-13 0.73656E-12 0.83267E-16 0.19151E-14 0.52888E-13 0.64557E-11 0.21216E-11 0.55681E-13
 0.76328E-16 0.10176E-11 0.11792E-12 0.70777E-14 0.69389E-16 0.27756E-16 0.12490E-15 0.71110E-12 0.76328E-16 0.13350E-13
 -.69389E-16 0.10596E-11 0.27756E-16 -.27756E-16 0.55511E-16 0.44131E-14 0.42688E-13 0.20746E-11 0.87985E-14 0.10074E-10
 -.27756E-16 0.21927E-14 0.11102E-15 0.97145E-16 -.27756E-16  0.0000     0.97145E-16 0.11102E-15 0.83267E-16 0.41633E-16
 -.41633E-16 -.13878E-16 0.69389E-16 0.83267E-16 0.87430E-15 0.12640E-11 0.41633E-16 0.16653E-15 0.16653E-15 0.28273E-12
  0.0000     0.34694E-15 0.22204E-15 0.74940E-15 0.18041E-15 0.82989E-14 0.23592E-15 0.27756E-16 0.55511E-16 0.11102E-15
 0.97145E-16 0.22038E-12 0.50636E-11 0.11344E-09 -.55511E-16 -.27756E-16 -.27756E-16 0.11102E-15 0.16376E-14 0.70116E-12
  0.0000     0.69458E-14 0.51644E-12 0.26425E-10 0.31503E-14 0.17347E-14  0.0000     -.27756E-16 0.69389E-15 0.22532E-12
 0.14919E-15 0.35388E-15 0.12198E-12 0.34389E-12 -.13878E-16 0.24286E-14 0.27756E-15 0.56229E-12 0.49032E-12 0.15418E-11
 -.95410E-16 0.12889E-14 0.10270E-14 0.10686E-14 0.55511E-16 -.13878E-16 -.55511E-16 -.27756E-16 -.38164E-16 -.38164E-16
 -.10408E-16 0.31150E-12 0.29775E-13 0.37682E-12 0.11102E-15 0.22898E-14 0.55622E-13 0.75802E-11 0.29013E-11 0.77355E-13
 0.11102E-15 0.11507E-11 0.13126E-12 0.57732E-14 0.41633E-16 0.13878E-16 0.97145E-16 0.64355E-12 -.17347E-16 0.16070E-13
 -.41633E-16 0.50465E-12  0.0000     0.69389E-16 0.83267E-16 0.36221E-14 0.46393E-13 0.26376E-11 0.13461E-13 0.75069E-11
 0.13878E-16 0.25674E-14 0.18041E-15 0.27756E-16 0.13878E-16 -.27756E-16 0.16653E-15 0.13878E-15 0.13878E-15 0.27756E-16
  0.0000     0.55511E-16 0.83267E-16 -.13878E-16 0.99920E-15 0.29509E-11 0.13878E-16 0.19429E-15 0.13878E-15 0.35659E-12
 -.13878E-16 0.31919E-15 0.23592E-15 0.68001E-15 0.30531E-15 0.10297E-13 0.30531E-15 0.27756E-16 0.27756E-16 -.83267E-16
 0.20817E-15 0.20189E-12 0.13545E-10 0.45096E-08 0.27756E-16 -.41633E-16 0.27756E-16 0.12490E-15 0.17208E-14 0.81528E-12
 -.24286E-16 0.76952E-14 0.85225E-12 0.34273E-10 0.35250E-14 0.16237E-14 0.83267E-16  0.0000     0.77716E-15 0.23501E-12
 0.14572E-15 0.30878E-15 0.12697E-12 0.28999E-12 -.97145E-16 0.22760E-14 0.30531E-15 0.65435E-12 0.59870E-12 0.16823E-11
 0.43368E-17 0.16071E-14 0.10095E-14 0.12434E-14 0.68955E-16 0.45103E-16 -.36429E-16 0.58167E-16 0.66313E-16 -.69924E-16
 -.83687E-17 0.16191E-12 0.26706E-13 0.20402E-12 -.86736E-18 0.30965E-14 0.73019E-13 0.80373E-11 0.36929E-11 0.11617E-12
 0.65703E-16 0.12551E-11 0.16376E-12 0.86831E-14 0.78063E-16 0.21684E-16 0.16054E-15 0.62842E-12 -.16914E-16 0.15123E-13
 -.75460E-16 0.34414E-12 0.76328E-16 0.10408E-16 0.18735E-15 0.54791E-14 0.65355E-13 0.29431E-11 0.11310E-13 0.68994E-11