PROCAR lm decomposed
# of k-points:   31         # of bands:   28         # of ions:    5

 k-point     1 :    0.00000000 0.00000000 0.00000000     weight = 0.01000000

band     1 # energy  -11.55735562 # occ.  2.00000000
 
ion      s     py     pz     px    dxy    dyz    dz2    dxz  x2-y2    tot
    1  0.011  0.000  0.002  0.000  0.000  0.000  0.000  0.000  0.000  0.013
    2  0.061  0.000  0.002  0.000  0.000  0.000  0.000  0.000  0.000  0.063
    3  0.145  0.000  0.001  0.000  0.000  0.000  0.000  0.000  0.000  0.146
    4  0.282  0.000  0.000  0.000  0.000  0.000  0.006  0.000  0.005  0.293
    5  0.082  0.000  0.001  0.000  0.000  0.000  0.000  0.000  0.000  0.083
tot    0.580  0.000  0.006  0.000  0.000  0.000  0.006  0.000  0.005  0.597
 
band     2 # energy  -10.66426317 # occ.  2.00000000
 
ion      s     py     pz     px    dxy    dyz    dz2    dxz  x2-y2    tot
    1  0.117  0.000  0.010  0.000  0.000  0.000  0.000  0.000  0.000  0.127
    2  0.249  0.000  0.001  0.000  0.000  0.000  0.002  0.000  0.000  0.252
    3  0.038  0.000  0.019  0.000  0.000  0.000  0.000  0.000  0.000  0.057
    4  0.090  0.000  0.008  0.000  0.000  0.000  0.010  0.000  0.004  0.113
    5  0.049  0.000  0.000  0.000  0.000  0.000  0.000  0.000  0.000  0.049
tot    0.543  0.000  0.038  0.000  0.000  0.000  0.013  0.000  0.004  0.598
 
band     3 # energy   -9.02827537 # occ.  2.00000000
 
ion      s     py     pz     px    dxy    dyz    dz2    dxz  x2-y2    tot
    1  0.191  0.000  0.002  0.000  0.000  0.000  0.021  0.000  0.000  0.214
    2  0.003  0.000  0.048  0.000  0.000  0.000  0.001  0.000  0.000  0.051
    3  0.203  0.000  0.000  0.000  0.000  0.000  0.038  0.000  0.000  0.241
    4  0.010  0.000  0.031  0.000  0.000  0.000  0.021  0.000  0.006  0.068
    5  0.034  0.000  0.000  0.000  0.000  0.000  0.000  0.000  0.000  0.034
tot    0.441  0.000  0.081  0.000  0.000  0.000  0.081  0.000  0.006  0.608
 
band     4 # energy   -7.58049431 # occ.  2.00000000
 
ion      s     py     pz     px    dxy    dyz    dz2    dxz  x2-y2    tot
    1  0.103  0.000  0.005  0.000  0.000  0.000  0.132  0.000  0.000  0.241
    2  0.097  0.000  0.002  0.000  0.000  0.000  0.236  0.000  0.000  0.336
    3  0.033  0.000  0.014  0.000  0.000  0.000  0.091  0.000  0.000  0.138
    4  0.000  0.000  0.012  0.000  0.000  0.000  0.011  0.000  0.003  0.026
    5  0.006  0.000  0.000  0.000  0.000  0.000  0.000  0.000  0.000  0.006
tot    0.240  0.000  0.034  0.000  0.000  0.000  0.470  0.000  0.003  0.747
 
band     5 # energy   -6.24857696 # occ.  2.00000000
 
ion      s     py     pz     px    dxy    dyz    dz2    dxz  x2-y2    tot
    1  0.000  0.000  0.000  0.000  0.000  0.000  0.003  0.000  0.000  0.003
    2  0.001  0.000  0.000  0.000  0.000  0.000  0.000  0.000  0.000  0.001
    3  0.000  0.000  0.004  0.000  0.000  0.001  0.088  0.000  0.000  0.094
    4  0.011  0.000  0.040  0.000  0.000  0.001  0.491  0.000  0.130  0.672
    5  0.053  0.000  0.000  0.000  0.000  0.000  0.000  0.000  0.000  0.054
tot    0.066  0.000  0.045  0.000  0.000  0.002  0.581  0.000  0.130  0.824
 
band     6 # energy   -5.67889929 # occ.  2.00000000
 
ion      s     py     pz     px    dxy    dyz    dz2    dxz  x2-y2    tot
    1  0.000  0.000  0.001  0.000  0.000  0.000  0.025  0.000  0.000  0.026
    2  0.002  0.000  0.000  0.000  0.000  0.000  0.020  0.000  0.001  0.024
    3  0.000  0.000  0.014  0.000  0.000  0.006  0.255  0.000  0.002  0.277
    4  0.007  0.000  0.007  0.000  0.000  0.000  0.322  0.000  0.268  0.604
    5  0.001  0.000  0.001  0.000  0.000  0.000  0.000  0.000  0.000  0.002
tot    0.011  0.000  0.022  0.000  0.000  0.006  0.622  0.000  0.272  0.933
 
band     7 # energy   -5.49686180 # occ.  2.00000000
 
ion      s     py     pz     px    dxy    dyz    dz2    dxz  x2-y2    tot
    1  0.000  0.000  0.000  0.000  0.000  0.000  0.000  0.001  0.000  0.001
    2  0.000  0.000  0.000  0.000  0.025  0.000  0.000  0.001  0.000  0.026
    3  0.000  0.000  0.000  0.000  0.010  0.000  0.000  0.037  0.000  0.047
    4  0.000  0.000  0.000  0.000  0.888  0.000  0.000  0.006  0.000  0.894
    5  0.000  0.000  0.000  0.000  0.000  0.000  0.000  0.000  0.000  0.000
tot    0.000  0.000  0.000  0.000  0.923  0.000  0.000  0.045  0.000  0.968
 
band     8 # energy   -5.45283004 # occ.  2.00000000
 
ion      s     py     pz     px    dxy    dyz    dz2    dxz  x2-y2    tot
    1  0.002  0.000  0.000  0.000  0.000  0.000  0.011  0.000  0.000  0.014
    2  0.000  0.000  0.008  0.000  0.000  0.000  0.129  0.000  0.015  0.153
    3  0.003  0.000  0.001  0.000  0.000  0.015  0.389  0.000  0.010  0.418
    4  0.001  0.000  0.008  0.000  0.000  0.000  0.005  0.000  0.335  0.349
    5  0.001  0.000  0.000  0.000  0.000  0.000  0.000  0.000  0.000  0.002
tot    0.007  0.000  0.017  0.000  0.000  0.015  0.535  0.000  0.360  0.935
 
band     9 # energy   -5.34092793 # occ.  2.00000000
 
ion      s     py     pz     px    dxy    dyz    dz2    dxz  x2-y2    tot
    1  0.000  0.000  0.004  0.000  0.000  0.003  0.260  0.000  0.004  0.272
    2  0.003  0.000  0.001  0.000  0.000  0.001  0.360  0.000  0.146  0.511
    3  0.001  0.000  0.006  0.000  0.000  0.010  0.011  0.000  0.078  0.107
    4  0.000  0.000  0.006  0.000  0.000  0.003  0.000  0.000  0.039  0.048
    5  0.002  0.000  0.000  0.000  0.000  0.000  0.000  0.000  0.000  0.002
tot    0.007  0.000  0.017  0.000  0.000  0.017  0.632  0.000  0.267  0.940
 
band    10 # energy   -5.33130293 # occ.  2.00000000
 
ion      s     py     pz     px    dxy    dyz    dz2    dxz  x2-y2    tot
    1  0.000  0.000  0.000  0.000  0.024  0.000  0.000  0.000  0.000  0.024
    2  0.000  0.000  0.000  0.000  0.042  0.000  0.000  0.061  0.000  0.103
    3  0.000  0.000  0.000  0.000  0.693  0.000  0.000  0.013  0.000  0.706
    4  0.000  0.000  0.000  0.000  0.004  0.000  0.000  0.129  0.000  0.134
    5  0.000  0.000  0.000  0.000  0.000  0.000  0.000  0.000  0.000  0.000
tot    0.000  0.000  0.000  0.001  0.763  0.000  0.000  0.203  0.000  0.967
 
band    11 # energy   -5.31096346 # occ.  2.00000000
 
ion      s     py     pz     px    dxy    dyz    dz2    dxz  x2-y2    tot
    1  0.000  0.000  0.001  0.000  0.000  0.001  0.090  0.000  0.028  0.121
    2  0.000  0.000  0.001  0.000  0.000  0.036  0.061  0.000  0.168  0.267
    3  0.001  0.000  0.000  0.000  0.000  0.003  0.000  0.000  0.469  0.473
    4  0.000  0.000  0.002  0.000  0.000  0.035  0.001  0.000  0.057  0.096
    5  0.000  0.000  0.000  0.000  0.000  0.000  0.000  0.000  0.000  0.001
tot    0.002  0.000  0.005  0.000  0.000  0.075  0.152  0.000  0.722  0.957
 
band    12 # energy   -5.30044006 # occ.  2.00000000
 
ion      s     py     pz     px    dxy    dyz    dz2    dxz  x2-y2    tot
    1  0.000  0.000  0.000  0.000  0.004  0.000  0.000  0.032  0.000  0.036
    2  0.000  0.000  0.000  0.000  0.788  0.000  0.000  0.018  0.000  0.806
    3  0.000  0.000  0.000  0.000  0.015  0.000  0.000  0.052  0.000  0.068
    4  0.000  0.000  0.000  0.000  0.041  0.000  0.000  0.015  0.000  0.057
    5  0.000  0.000  0.000  0.000  0.000  0.000  0.000  0.000  0.000  0.000
tot    0.000  0.000  0.000  0.000  0.848  0.000  0.000  0.118  0.001  0.967
 
band    13 # energy   -5.29473201 # occ.  2.00000000
 
ion      s     py     pz     px    dxy    dyz    dz2    dxz  x2-y2    tot
    1  0.000  0.000  0.000  0.000  0.000  0.028  0.019  0.000  0.000  0.048
    2  0.000  0.000  0.000  0.000  0.001  0.054  0.010  0.000  0.525  0.590
    3  0.000  0.000  0.000  0.000  0.000  0.062  0.000  0.000  0.213  0.275
    4  0.000  0.000  0.000  0.000  0.000  0.034  0.000  0.000  0.018  0.053
    5  0.000  0.000  0.000  0.000  0.000  0.000  0.000  0.000  0.000  0.000
tot    0.000  0.000  0.001  0.000  0.001  0.178  0.029  0.000  0.756  0.966
 
band    14 # energy   -5.04028293 # occ.  2.00000000
 
ion      s     py     pz     px    dxy    dyz    dz2    dxz  x2-y2    tot
    1  0.000  0.000  0.000  0.000  0.803  0.000  0.000  0.008  0.003  0.814
    2  0.000  0.000  0.000  0.000  0.001  0.000  0.000  0.089  0.000  0.090
    3  0.000  0.000  0.000  0.000  0.032  0.000  0.000  0.002  0.000  0.035
    4  0.000  0.000  0.000  0.000  0.001  0.000  0.000  0.029  0.000  0.030
    5  0.000  0.000  0.000  0.000  0.000  0.000  0.000  0.000  0.000  0.000
tot    0.000  0.000  0.000  0.000  0.837  0.000  0.000  0.128  0.003  0.969
 
band    15 # energy   -5.03734370 # occ.  2.00000000
 
ion      s     py     pz     px    dxy    dyz    dz2    dxz  x2-y2    tot
    1  0.000  0.000  0.000  0.000  0.003  0.006  0.001  0.000  0.809  0.819
    2  0.000  0.000  0.000  0.000  0.000  0.078  0.000  0.000  0.000  0.079
    3  0.000  0.000  0.000  0.000  0.000  0.003  0.000  0.000  0.058  0.061
    4  0.000  0.000  0.000  0.000  0.000  0.007  0.000  0.000  0.001  0.009
    5  0.000  0.000  0.000  0.000  0.000  0.000  0.000  0.000  0.000  0.000
tot    0.000  0.000  0.000  0.000  0.003  0.095  0.001  0.000  0.868  0.968
 
band    16 # energy   -4.86661586 # occ.  2.00000000
 
ion      s     py     pz     px    dxy    dyz    dz2    dxz  x2-y2    tot
    1  0.000  0.000  0.000  0.000  0.012  0.000  0.000  0.003  0.000  0.015
    2  0.000  0.000  0.000  0.000  0.012  0.000  0.000  0.009  0.000  0.021
    3  0.000  0.000  0.000  0.000  0.161  0.000  0.000  0.035  0.000  0.197
    4  0.000  0.000  0.000  0.000  0.017  0.000  0.000  0.733  0.000  0.750
    5  0.000  0.000  0.000  0.002  0.000  0.000  0.000  0.000  0.000  0.002
tot    0.000  0.000  0.000  0.003  0.202  0.000  0.000  0.780  0.000  0.985
 
band    17 # energy   -4.85994637 # occ.  2.00000000
 
ion      s     py     pz     px    dxy    dyz    dz2    dxz  x2-y2    tot
    1  0.027  0.000  0.001  0.000  0.000  0.000  0.319  0.000  0.002  0.349
    2  0.015  0.000  0.037  0.000  0.000  0.000  0.061  0.000  0.003  0.117
    3  0.000  0.000  0.078  0.000  0.000  0.011  0.000  0.000  0.000  0.089
    4  0.009  0.000  0.053  0.000  0.000  0.000  0.020  0.000  0.066  0.147
    5  0.017  0.000  0.000  0.000  0.000  0.000  0.000  0.000  0.000  0.017
tot    0.068  0.000  0.169  0.000  0.000  0.011  0.400  0.000  0.071  0.719
 
band    18 # energy   -4.69759676 # occ.  2.00000000
 
ion      s     py     pz     px    dxy    dyz    dz2    dxz  x2-y2    tot
    1  0.000  0.000  0.000  0.000  0.000  0.004  0.000  0.000  0.000  0.005
    2  0.000  0.000  0.000  0.000  0.000  0.000  0.000  0.000  0.022  0.022
    3  0.000  0.000  0.000  0.000  0.000  0.144  0.000  0.000  0.093  0.237
    4  0.000  0.000  0.000  0.000  0.000  0.708  0.000  0.000  0.012  0.719
    5  0.000  0.000  0.000  0.000  0.000  0.000  0.000  0.000  0.000  0.000
tot    0.000  0.000  0.000  0.000  0.000  0.856  0.001  0.000  0.126  0.984
 
band    19 # energy   -4.54102306 # occ.  2.00000000
 
ion      s     py     pz     px    dxy    dyz    dz2    dxz  x2-y2    tot
    1  0.000  0.000  0.000  0.000  0.104  0.000  0.000  0.044  0.000  0.148
    2  0.000  0.000  0.000  0.000  0.074  0.000  0.000  0.422  0.000  0.496
    3  0.000  0.000  0.000  0.000  0.043  0.000  0.000  0.271  0.000  0.313
    4  0.000  0.000  0.000  0.000  0.009  0.000  0.000  0.018  0.000  0.027
    5  0.000  0.000  0.000  0.000  0.000  0.000  0.000  0.000  0.000  0.000
tot    0.000  0.000  0.000  0.000  0.230  0.000  0.000  0.754  0.000  0.984
 
band    20 # energy   -4.53448716 # occ.  2.00000000
 
ion      s     py     pz     px    dxy    dyz    dz2    dxz  x2-y2    tot
    1  0.000  0.000  0.000  0.000  0.000  0.057  0.001  0.000  0.106  0.164
    2  0.000  0.000  0.000  0.000  0.000  0.454  0.000  0.000  0.062  0.517
    3  0.000  0.000  0.000  0.000  0.000  0.185  0.000  0.000  0.028  0.213
    4  0.000  0.000  0.000  0.000  0.000  0.080  0.000  0.000  0.008  0.088
    5  0.000  0.000  0.000  0.000  0.000  0.000  0.000  0.000  0.000  0.000
tot    0.000  0.000  0.001  0.000  0.000  0.776  0.001  0.000  0.203  0.983
 
band    21 # energy   -4.32360233 # occ.  2.00000000
 
ion      s     py     pz     px    dxy    dyz    dz2    dxz  x2-y2    tot
    1  0.000  0.000  0.000  0.000  0.012  0.000  0.000  0.344  0.000  0.356
    2  0.000  0.000  0.000  0.000  0.000  0.000  0.000  0.108  0.000  0.109
    3  0.000  0.000  0.000  0.000  0.008  0.000  0.000  0.461  0.000  0.469
    4  0.000  0.000  0.000  0.000  0.008  0.000  0.000  0.045  0.000  0.052
    5  0.000  0.000  0.000  0.000  0.000  0.000  0.000  0.000  0.000  0.000
tot    0.000  0.000  0.000  0.001  0.027  0.000  0.000  0.958  0.000  0.986
 
band    22 # energy   -4.30612025 # occ.  2.00000000
 
ion      s     py     pz     px    dxy    dyz    dz2    dxz  x2-y2    tot
    1  0.000  0.000  0.000  0.000  0.000  0.341  0.000  0.000  0.009  0.351
    2  0.000  0.000  0.000  0.000  0.000  0.083  0.000  0.000  0.000  0.084
    3  0.000  0.000  0.000  0.000  0.000  0.428  0.000  0.000  0.010  0.438
    4  0.000  0.000  0.000  0.000  0.000  0.105  0.000  0.000  0.008  0.113
    5  0.000  0.000  0.000  0.000  0.000  0.000  0.000  0.000  0.000  0.000
tot    0.000  0.000  0.000  0.000  0.000  0.957  0.001  0.000  0.027  0.985
 
band    23 # energy   -4.03683703 # occ.  2.00000000
 
ion      s     py     pz     px    dxy    dyz    dz2    dxz  x2-y2    tot
    1  0.000  0.000  0.000  0.000  0.008  0.000  0.000  0.552  0.000  0.560
    2  0.000  0.000  0.000  0.000  0.026  0.000  0.000  0.277  0.000  0.302
    3  0.000  0.000  0.000  0.000  0.007  0.000  0.000  0.112  0.000  0.120
    4  0.000  0.000  0.000  0.000  0.001  0.000  0.000  0.006  0.000  0.008
    5  0.000  0.000  0.000  0.000  0.000  0.000  0.000  0.000  0.000  0.000
tot    0.000  0.000  0.000  0.000  0.042  0.000  0.000  0.947  0.000  0.990
 
band    24 # energy   -4.03209841 # occ.  2.00000000
 
ion      s     py     pz     px    dxy    dyz    dz2    dxz  x2-y2    tot
    1  0.000  0.000  0.000  0.000  0.000  0.541  0.000  0.000  0.008  0.549
    2  0.000  0.000  0.000  0.000  0.000  0.276  0.000  0.000  0.025  0.302
    3  0.000  0.000  0.000  0.000  0.000  0.117  0.000  0.000  0.008  0.125
    4  0.000  0.000  0.000  0.000  0.000  0.012  0.000  0.000  0.001  0.013
    5  0.000  0.000  0.000  0.000  0.000  0.000  0.000  0.000  0.000  0.000
tot    0.000  0.000  0.000  0.000  0.000  0.947  0.000  0.000  0.043  0.990
 
band    25 # energy   -2.94074661 # occ.  2.00000000
 
ion      s     py     pz     px    dxy    dyz    dz2    dxz  x2-y2    tot
    1  0.018  0.000  0.154  0.000  0.000  0.000  0.027  0.000  0.000  0.199
    2  0.014  0.000  0.081  0.000  0.000  0.000  0.022  0.000  0.000  0.118
    3  0.012  0.000  0.036  0.000  0.000  0.000  0.019  0.000  0.000  0.068
    4  0.009  0.000  0.014  0.000  0.000  0.000  0.009  0.000  0.001  0.032
    5  0.004  0.000  0.000  0.000  0.000  0.000  0.000  0.000  0.000  0.005
tot    0.058  0.000  0.285  0.000  0.000  0.000  0.077  0.000  0.001  0.421
 
band    26 # energy    1.61073627 # occ.  0.00000000
 
ion      s     py     pz     px    dxy    dyz    dz2    dxz  x2-y2    tot
    1  0.020  0.000  0.001  0.000  0.000  0.000  0.020  0.000  0.000  0.041
    2  0.026  0.000  0.001  0.000  0.000  0.000  0.023  0.000  0.000  0.050
    3  0.032  0.000  0.001  0.000  0.000  0.000  0.029  0.000  0.000  0.062
    4  0.034  0.000  0.000  0.000  0.000  0.000  0.034  0.000  0.000  0.067
    5  0.000  0.000  0.002  0.000  0.000  0.000  0.000  0.000  0.000  0.003
tot    0.112  0.000  0.005  0.000  0.000  0.000  0.105  0.000  0.000  0.222
 
band    27 # energy    1.91569248 # occ.  0.00000000
 
ion      s     py     pz     px    dxy    dyz    dz2    dxz  x2-y2    tot
    1  0.002  0.000  0.005  0.000  0.000  0.000  0.002  0.000  0.000  0.009
    2  0.000  0.000  0.005  0.000  0.000  0.000  0.000  0.000  0.000  0.005
    3  0.002  0.000  0.005  0.000  0.000  0.000  0.002  0.000  0.000  0.008
    4  0.007  0.000  0.002  0.000  0.000  0.000  0.009  0.000  0.000  0.018
    5  0.001  0.000  0.001  0.000  0.000  0.000  0.000  0.000  0.000  0.002
tot    0.012  0.000  0.018  0.000  0.000  0.000  0.013  0.000  0.000  0.043
 
band    28 # energy    2.34102532 # occ.  0.00000000
 
ion      s     py     pz     px    dxy    dyz    dz2    dxz  x2-y2    tot
    1  0.005  0.000  0.003  0.000  0.000  0.000  0.005  0.000  0.000  0.012
    2  0.001  0.000  0.003  0.000  0.000  0.000  0.001  0.000  0.000  0.005
    3  0.000  0.000  0.004  0.000  0.000  0.000  0.000  0.000  0.000  0.004
    4  0.003  0.000  0.002  0.000  0.000  0.000  0.004  0.000  0.000  0.009
    5  0.001  0.000  0.001  0.000  0.000  0.000  0.000  0.000  0.000  0.001
tot    0.009  0.000  0.012  0.000  0.000  0.000  0.009  0.000  0.000  0.030
 

 k-point     2 :    0.10000000 0.00000000 0.00000000     weight = 0.04000000

band     1 # energy  -11.24908647 # occ.  2.00000000
 
ion      s     py     pz     px    dxy    dyz    dz2    dxz  x2-y2    tot
    1  0.010  0.000  0.001  0.000  0.000  0.000  0.000  0.000  0.000  0.012
    2  0.057  0.000  0.002  0.001  0.000  0.000  0.000  0.000  0.000  0.060
    3  0.137  0.001  0.002  0.003  0.000  0.000  0.000  0.000  0.000  0.143
    4  0.275  0.002  0.000  0.008  0.000  0.000  0.005  0.001  0.005  0.296
    5  0.085  0.000  0.001  0.000  0.000  0.000  0.000  0.000  0.000  0.087
tot    0.565  0.003  0.006  0.013  0.000  0.000  0.005  0.001  0.005  0.598
 
band     2 # energy  -10.36816334 # occ.  2.00000000
 
ion      s     py     pz     px    dxy    dyz    dz2    dxz  x2-y2    tot
    1  0.111  0.001  0.010  0.002  0.000  0.000  0.000  0.001  0.000  0.126
    2  0.243  0.002  0.000  0.005  0.000  0.000  0.002  0.000  0.000  0.253
    3  0.040  0.000  0.018  0.001  0.000  0.000  0.000  0.001  0.000  0.061
    4  0.082  0.001  0.008  0.003  0.000  0.000  0.009  0.002  0.004  0.110
    5  0.049  0.000  0.000  0.000  0.000  0.000  0.000  0.000  0.000  0.050
tot    0.526  0.003  0.038  0.012  0.000  0.001  0.012  0.004  0.004  0.600
 
band     3 # energy   -8.76748817 # occ.  2.00000000
 
ion      s     py     pz     px    dxy    dyz    dz2    dxz  x2-y2    tot
    1  0.181  0.001  0.002  0.004  0.000  0.000  0.018  0.000  0.000  0.208
    2  0.004  0.000  0.047  0.000  0.000  0.002  0.001  0.005  0.000  0.058
    3  0.194  0.002  0.000  0.005  0.000  0.000  0.035  0.000  0.000  0.236
    4  0.007  0.000  0.031  0.001  0.000  0.001  0.021  0.008  0.006  0.075
    5  0.035  0.000  0.000  0.000  0.000  0.000  0.000  0.000  0.000  0.035
tot    0.420  0.003  0.080  0.010  0.001  0.003  0.075  0.013  0.006  0.612
 
band     4 # energy   -7.36201165 # occ.  2.00000000
 
ion      s     py     pz     px    dxy    dyz    dz2    dxz  x2-y2    tot
    1  0.100  0.001  0.005  0.004  0.001  0.000  0.135  0.000  0.000  0.245
    2  0.088  0.001  0.003  0.004  0.001  0.000  0.240  0.001  0.000  0.337
    3  0.027  0.000  0.015  0.001  0.000  0.001  0.087  0.002  0.000  0.134
    4  0.000  0.000  0.011  0.000  0.000  0.001  0.010  0.005  0.003  0.031
    5  0.006  0.000  0.000  0.000  0.000  0.000  0.000  0.000  0.000  0.006
tot    0.220  0.003  0.034  0.009  0.002  0.002  0.472  0.009  0.004  0.754
 
band     5 # energy   -6.27430962 # occ.  2.00000000
 
ion      s     py     pz     px    dxy    dyz    dz2    dxz  x2-y2    tot
    1  0.000  0.000  0.000  0.000  0.000  0.000  0.003  0.000  0.000  0.003
    2  0.001  0.000  0.000  0.000  0.001  0.000  0.001  0.000  0.000  0.003
    3  0.000  0.000  0.008  0.000  0.005  0.001  0.131  0.001  0.001  0.147
    4  0.014  0.001  0.036  0.000  0.010  0.011  0.365  0.090  0.107  0.634
    5  0.048  0.000  0.000  0.000  0.000  0.000  0.000  0.000  0.000  0.048
tot    0.063  0.001  0.044  0.001  0.017  0.012  0.499  0.090  0.109  0.836
 
band     6 # energy   -5.72924006 # occ.  2.00000000
 
ion      s     py     pz     px    dxy    dyz    dz2    dxz  x2-y2    tot
    1  0.001  0.000  0.001  0.000  0.001  0.000  0.031  0.000  0.000  0.034
    2  0.002  0.000  0.000  0.000  0.030  0.002  0.063  0.004  0.010  0.112
    3  0.000  0.000  0.017  0.000  0.014  0.018  0.194  0.046  0.006  0.295
    4  0.005  0.000  0.007  0.000  0.007  0.002  0.387  0.017  0.058  0.483
    5  0.001  0.000  0.001  0.000  0.000  0.000  0.000  0.000  0.000  0.001
tot    0.009  0.000  0.026  0.001  0.051  0.021  0.675  0.067  0.075  0.925
 
band     7 # energy   -5.60190411 # occ.  2.00000000
 
ion      s     py     pz     px    dxy    dyz    dz2    dxz  x2-y2    tot
    1  0.001  0.000  0.000  0.000  0.004  0.000  0.014  0.000  0.001  0.020
    2  0.000  0.000  0.004  0.000  0.018  0.004  0.042  0.012  0.007  0.088
    3  0.001  0.000  0.002  0.000  0.011  0.014  0.093  0.038  0.004  0.163
    4  0.001  0.000  0.002  0.000  0.450  0.004  0.003  0.027  0.188  0.676
    5  0.001  0.000  0.000  0.000  0.000  0.000  0.000  0.000  0.000  0.001
tot    0.002  0.000  0.008  0.001  0.483  0.023  0.152  0.078  0.200  0.947
 
band     8 # energy   -5.45682035 # occ.  2.00000000
 
ion      s     py     pz     px    dxy    dyz    dz2    dxz  x2-y2    tot
    1  0.003  0.000  0.000  0.000  0.012  0.004  0.009  0.016  0.004  0.049
    2  0.001  0.000  0.006  0.000  0.137  0.009  0.109  0.026  0.036  0.324
    3  0.000  0.000  0.009  0.000  0.082  0.004  0.083  0.012  0.016  0.207
    4  0.003  0.000  0.001  0.000  0.209  0.003  0.001  0.003  0.143  0.363
    5  0.001  0.000  0.000  0.000  0.000  0.000  0.000  0.000  0.000  0.001
tot    0.008  0.001  0.015  0.000  0.441  0.021  0.202  0.057  0.198  0.944
 
band     9 # energy   -5.41844437 # occ.  2.00000000
 
ion      s     py     pz     px    dxy    dyz    dz2    dxz  x2-y2    tot
    1  0.001  0.000  0.001  0.000  0.023  0.001  0.088  0.002  0.007  0.122
    2  0.000  0.000  0.005  0.000  0.017  0.028  0.008  0.111  0.001  0.169
    3  0.000  0.000  0.006  0.000  0.268  0.003  0.000  0.009  0.088  0.376
    4  0.001  0.000  0.000  0.000  0.089  0.007  0.042  0.089  0.052  0.280
    5  0.000  0.000  0.000  0.000  0.000  0.000  0.000  0.000  0.000  0.001
tot    0.002  0.000  0.013  0.001  0.397  0.038  0.137  0.211  0.147  0.947
 
band    10 # energy   -5.36623367 # occ.  2.00000000
 
ion      s     py     pz     px    dxy    dyz    dz2    dxz  x2-y2    tot
    1  0.001  0.000  0.001  0.000  0.020  0.005  0.049  0.008  0.007  0.090
    2  0.001  0.000  0.001  0.001  0.087  0.004  0.171  0.006  0.096  0.366
    3  0.000  0.000  0.005  0.000  0.024  0.032  0.075  0.006  0.011  0.153
    4  0.000  0.000  0.003  0.000  0.116  0.004  0.031  0.044  0.141  0.339
    5  0.001  0.000  0.000  0.000  0.000  0.000  0.000  0.000  0.000  0.001
tot    0.004  0.000  0.010  0.001  0.247  0.044  0.325  0.064  0.254  0.949
 
band    11 # energy   -5.33477728 # occ.  2.00000000
 
ion      s     py     pz     px    dxy    dyz    dz2    dxz  x2-y2    tot
    1  0.001  0.000  0.001  0.000  0.027  0.004  0.042  0.014  0.009  0.098
    2  0.002  0.000  0.001  0.000  0.313  0.006  0.104  0.008  0.074  0.507
    3  0.000  0.000  0.004  0.000  0.028  0.002  0.078  0.009  0.020  0.141
    4  0.000  0.000  0.004  0.000  0.031  0.001  0.006  0.041  0.118  0.201
    5  0.001  0.000  0.000  0.000  0.000  0.000  0.000  0.000  0.000  0.001
tot    0.004  0.000  0.010  0.001  0.399  0.012  0.230  0.072  0.221  0.949
 
band    12 # energy   -5.22862295 # occ.  2.00000000
 
ion      s     py     pz     px    dxy    dyz    dz2    dxz  x2-y2    tot
    1  0.000  0.000  0.000  0.000  0.003  0.010  0.006  0.001  0.021  0.041
    2  0.000  0.000  0.000  0.000  0.001  0.087  0.005  0.026  0.023  0.142
    3  0.000  0.000  0.000  0.000  0.111  0.037  0.001  0.010  0.515  0.674
    4  0.000  0.000  0.000  0.000  0.001  0.089  0.000  0.016  0.003  0.110
    5  0.000  0.000  0.000  0.000  0.000  0.000  0.000  0.000  0.000  0.000
tot    0.000  0.001  0.001  0.000  0.116  0.224  0.012  0.052  0.561  0.967
 
band    13 # energy   -5.20452675 # occ.  2.00000000
 
ion      s     py     pz     px    dxy    dyz    dz2    dxz  x2-y2    tot
    1  0.000  0.000  0.000  0.000  0.005  0.021  0.016  0.009  0.005  0.057
    2  0.000  0.001  0.001  0.000  0.210  0.003  0.006  0.000  0.552  0.773
    3  0.000  0.000  0.000  0.000  0.018  0.029  0.000  0.013  0.040  0.101
    4  0.000  0.000  0.000  0.000  0.014  0.001  0.000  0.002  0.019  0.035
    5  0.000  0.000  0.000  0.000  0.000  0.000  0.000  0.000  0.000  0.000
tot    0.000  0.001  0.001  0.000  0.246  0.054  0.023  0.024  0.617  0.966
 
band    14 # energy   -5.14053621 # occ.  2.00000000
 
ion      s     py     pz     px    dxy    dyz    dz2    dxz  x2-y2    tot
    1  0.003  0.000  0.002  0.000  0.029  0.002  0.298  0.008  0.021  0.364
    2  0.001  0.000  0.016  0.000  0.015  0.017  0.056  0.013  0.032  0.149
    3  0.000  0.000  0.009  0.000  0.253  0.008  0.001  0.034  0.034  0.340
    4  0.001  0.000  0.007  0.000  0.001  0.001  0.000  0.016  0.044  0.071
    5  0.002  0.000  0.000  0.000  0.000  0.000  0.000  0.000  0.000  0.002
tot    0.007  0.000  0.034  0.000  0.297  0.028  0.355  0.071  0.131  0.926
 
band    15 # energy   -5.05415435 # occ.  2.00000000
 
ion      s     py     pz     px    dxy    dyz    dz2    dxz  x2-y2    tot
    1  0.002  0.000  0.000  0.001  0.540  0.001  0.046  0.005  0.156  0.750
    2  0.000  0.000  0.008  0.000  0.007  0.001  0.020  0.012  0.003  0.051
    3  0.001  0.000  0.004  0.000  0.010  0.013  0.041  0.043  0.007  0.119
    4  0.000  0.000  0.001  0.000  0.008  0.001  0.000  0.012  0.009  0.032
    5  0.000  0.000  0.000  0.000  0.000  0.000  0.000  0.000  0.000  0.000
tot    0.003  0.000  0.013  0.001  0.564  0.016  0.108  0.072  0.175  0.953
 
band    16 # energy   -4.95011270 # occ.  2.00000000
 
ion      s     py     pz     px    dxy    dyz    dz2    dxz  x2-y2    tot
    1  0.000  0.001  0.000  0.000  0.167  0.009  0.001  0.004  0.543  0.724
    2  0.000  0.000  0.000  0.000  0.000  0.087  0.000  0.032  0.001  0.121
    3  0.000  0.000  0.000  0.000  0.018  0.008  0.000  0.003  0.050  0.080
    4  0.000  0.000  0.000  0.000  0.001  0.033  0.000  0.006  0.004  0.044
    5  0.000  0.000  0.000  0.000  0.000  0.000  0.000  0.000  0.000  0.000
tot    0.000  0.001  0.000  0.000  0.186  0.138  0.001  0.045  0.598  0.969
 
band    17 # energy   -4.76866069 # occ.  2.00000000
 
ion      s     py     pz     px    dxy    dyz    dz2    dxz  x2-y2    tot
    1  0.001  0.000  0.000  0.000  0.001  0.000  0.005  0.017  0.046  0.071
    2  0.000  0.000  0.000  0.000  0.019  0.017  0.001  0.004  0.010  0.051
    3  0.001  0.000  0.001  0.000  0.061  0.023  0.009  0.139  0.053  0.288
    4  0.000  0.000  0.005  0.000  0.013  0.239  0.002  0.276  0.017  0.553
    5  0.001  0.000  0.000  0.001  0.000  0.000  0.000  0.000  0.000  0.003
tot    0.004  0.000  0.007  0.001  0.094  0.281  0.016  0.437  0.126  0.965
 
band    18 # energy   -4.71660745 # occ.  2.00000000
 
ion      s     py     pz     px    dxy    dyz    dz2    dxz  x2-y2    tot
    1  0.000  0.000  0.000  0.000  0.049  0.018  0.005  0.015  0.002  0.089
    2  0.000  0.000  0.000  0.000  0.026  0.001  0.004  0.058  0.019  0.108
    3  0.002  0.000  0.000  0.000  0.022  0.146  0.015  0.138  0.051  0.374
    4  0.000  0.000  0.004  0.000  0.007  0.297  0.004  0.068  0.016  0.395
    5  0.002  0.000  0.000  0.000  0.000  0.000  0.000  0.000  0.000  0.003
tot    0.005  0.000  0.005  0.000  0.103  0.461  0.027  0.279  0.088  0.968
 
band    19 # energy   -4.54624333 # occ.  2.00000000
 
ion      s     py     pz     px    dxy    dyz    dz2    dxz  x2-y2    tot
    1  0.000  0.000  0.000  0.000  0.018  0.084  0.000  0.006  0.121  0.230
    2  0.000  0.000  0.000  0.000  0.003  0.304  0.000  0.034  0.065  0.407
    3  0.000  0.000  0.000  0.000  0.006  0.144  0.002  0.019  0.054  0.226
    4  0.000  0.000  0.000  0.000  0.000  0.068  0.000  0.046  0.003  0.118
    5  0.000  0.000  0.000  0.000  0.000  0.000  0.000  0.000  0.000  0.000
tot    0.001  0.000  0.001  0.000  0.028  0.601  0.003  0.105  0.242  0.982
 
band    20 # energy   -4.50927310 # occ.  2.00000000
 
ion      s     py     pz     px    dxy    dyz    dz2    dxz  x2-y2    tot
    1  0.000  0.000  0.004  0.000  0.045  0.048  0.001  0.324  0.005  0.428
    2  0.000  0.000  0.004  0.000  0.056  0.019  0.000  0.189  0.003  0.272
    3  0.003  0.000  0.001  0.000  0.018  0.004  0.023  0.066  0.002  0.117
    4  0.000  0.000  0.003  0.000  0.003  0.082  0.000  0.050  0.003  0.142
    5  0.002  0.000  0.000  0.000  0.000  0.000  0.000  0.000  0.000  0.002
tot    0.005  0.000  0.012  0.000  0.122  0.154  0.025  0.630  0.012  0.960
 
band    21 # energy   -4.33886523 # occ.  2.00000000
 
ion      s     py     pz     px    dxy    dyz    dz2    dxz  x2-y2    tot
    1  0.010  0.000  0.013  0.000  0.018  0.170  0.075  0.156  0.002  0.444
    2  0.001  0.000  0.001  0.000  0.010  0.040  0.002  0.276  0.005  0.335
    3  0.001  0.000  0.003  0.000  0.007  0.022  0.009  0.014  0.000  0.056
    4  0.000  0.000  0.006  0.000  0.000  0.012  0.000  0.048  0.002  0.068
    5  0.002  0.000  0.000  0.000  0.000  0.000  0.000  0.000  0.000  0.003
tot    0.015  0.000  0.023  0.001  0.035  0.243  0.087  0.493  0.009  0.906
 
band    22 # energy   -4.30417656 # occ.  2.00000000
 
ion      s     py     pz     px    dxy    dyz    dz2    dxz  x2-y2    tot
    1  0.001  0.000  0.001  0.000  0.001  0.178  0.006  0.148  0.012  0.346
    2  0.000  0.000  0.000  0.000  0.005  0.094  0.000  0.004  0.012  0.117
    3  0.000  0.000  0.000  0.000  0.000  0.303  0.002  0.105  0.006  0.416
    4  0.000  0.000  0.001  0.000  0.002  0.081  0.000  0.009  0.009  0.102
    5  0.000  0.000  0.000  0.000  0.000  0.000  0.000  0.000  0.000  0.000
tot    0.001  0.000  0.002  0.000  0.008  0.656  0.008  0.266  0.038  0.980
 
band    23 # energy   -4.02815823 # occ.  2.00000000
 
ion      s     py     pz     px    dxy    dyz    dz2    dxz  x2-y2    tot
    1  0.000  0.000  0.000  0.000  0.003  0.385  0.000  0.128  0.008  0.524
    2  0.000  0.000  0.000  0.000  0.006  0.231  0.000  0.070  0.018  0.324
    3  0.000  0.000  0.000  0.000  0.002  0.090  0.000  0.030  0.007  0.129