Starting job 28338458 ("jobname") on c16-30 at Fri Oct 11 13:51:50 CEST 2019
 running on    4 total cores
 distrk:  each k-point on    4 cores,    1 groups
 distr:  one band on    2 cores,    2 groups
 using from now: INCAR     
 vasp.5.4.4.18Apr17-6-g9f103f2a35 (build Jun 30 2017 11:15:00) complex          
  
 POSCAR found type information on POSCAR  Cu H 
 POSCAR found :  2 types and       5 ions
 scaLAPACK will be used

 ----------------------------------------------------------------------------- 
|                                                                             |
|  ADVICE TO THIS USER RUNNING 'VASP/VAMP'   (HEAR YOUR MASTER'S VOICE ...):  |
|                                                                             |
|      You have a (more or less) 'small supercell' and for smaller cells      |
|      it is recommended  to use the reciprocal-space projection scheme!      |
|      The real space optimization is not  efficient for small cells and it   |
|      is also less accurate ...                                              |
|      Therefore set LREAL=.FALSE. in the  INCAR file                         |
|                                                                             |
 ----------------------------------------------------------------------------- 

 LDA part: xc-table for Pade appr. of Perdew
 POSCAR, INCAR and KPOINTS ok, starting setup
 FFT: planning ...
 WAVECAR not read
 WARNING: random wavefunctions but no delay for mixing, default for NELMDL
 entering main loop
       N       E                     dE             d eps       ncg     rms          rms(c)
DAV:   1     0.196447457582E+03    0.19645E+03   -0.13946E+04  1808   0.922E+02
DAV:   2    -0.106702564216E+02   -0.20712E+03   -0.20107E+03  1828   0.265E+02
DAV:   3    -0.209001909696E+02   -0.10230E+02   -0.10010E+02  1904   0.782E+01
DAV:   4    -0.210311852995E+02   -0.13099E+00   -0.13034E+00  1880   0.790E+00
DAV:   5    -0.210325541270E+02   -0.13688E-02   -0.13688E-02  1956   0.565E-01    0.148E+01
RMM:   6    -0.189496944331E+02    0.20829E+01   -0.44158E+01  1901   0.648E+01    0.744E+00
RMM:   7    -0.171129201629E+02    0.18368E+01   -0.73389E+00  1796   0.274E+01    0.131E+00
RMM:   8    -0.171509756531E+02   -0.38055E-01   -0.14632E-01  1935   0.316E+00    0.196E+00
RMM:   9    -0.170540080686E+02    0.96968E-01   -0.54496E-02  1920   0.186E+00    0.802E-01
RMM:  10    -0.170425843679E+02    0.11424E-01   -0.18626E-02  1893   0.116E+00    0.439E-01
RMM:  11    -0.170370021466E+02    0.55822E-02   -0.10638E-02  1894   0.824E-01    0.137E-01
RMM:  12    -0.170361180341E+02    0.88411E-03   -0.99576E-04  1908   0.271E-01    0.800E-02
RMM:  13    -0.170356896318E+02    0.42840E-03   -0.52464E-04  1878   0.180E-01    0.493E-02
RMM:  14    -0.170355942179E+02    0.95414E-04   -0.22840E-04  1831   0.107E-01    0.238E-02
RMM:  15    -0.170358790292E+02   -0.28481E-03   -0.14336E-04  1774   0.491E-02    0.166E-02
RMM:  16    -0.170360832764E+02   -0.20425E-03   -0.61693E-05  1785   0.530E-02    0.106E-02
RMM:  17    -0.170362262756E+02   -0.14300E-03   -0.47804E-05  1766   0.307E-02    0.860E-03
RMM:  18    -0.170362978153E+02   -0.71540E-04   -0.11121E-05  1552   0.182E-02    0.626E-03
RMM:  19    -0.170363324337E+02   -0.34618E-04   -0.10915E-06  1164   0.502E-03    0.599E-03
RMM:  20    -0.170363697848E+02   -0.37351E-04   -0.18919E-06  1133   0.683E-03    0.569E-03
RMM:  21    -0.170363793196E+02   -0.95348E-05   -0.29618E-07  1076   0.271E-03    0.564E-03
RMM:  22    -0.170363839978E+02   -0.46782E-05   -0.11113E-07   699   0.169E-03    0.562E-03
RMM:  23    -0.170363840788E+02   -0.81045E-07   -0.17958E-08   526   0.127E-03
   1 F= -.17036384E+02 E0= -.17028223E+02  d E =-.163230E-01

Currently Loaded Modulefiles:
  1) intel/2017.4         2) perf-reports/7.0.6

Job script resource usage:
       JobID  MaxVMSize     MaxRSS 
------------ ---------- ---------- 
28338458.ba+    216884K      2304K 

Job step resource usage:
       JobID    JobName  AllocCPUS  MaxVMSize     MaxRSS    Elapsed ExitCode 
------------ ---------- ---------- ---------- ---------- ---------- -------- 
28338458        jobname          4                         00:00:18      0:0 
28338458.0    pmi_proxy          1    279832K       509K   00:00:16      0:0 

Job 28338458 ("jobname") completed on c16-30 at Fri Oct 11 13:52:06 CEST 2019
