Starting job 28337923 ("jobname") on c16-30 at Fri Oct 11 11:15:35 CEST 2019
 running on    4 total cores
 distrk:  each k-point on    4 cores,    1 groups
 distr:  one band on    2 cores,    2 groups
 using from now: INCAR     
 vasp.5.4.4.18Apr17-6-g9f103f2a35 (build Jun 30 2017 11:15:00) complex          
  
 POSCAR found type information on POSCAR  Cu H 
 POSCAR found :  2 types and       5 ions
 scaLAPACK will be used

 ----------------------------------------------------------------------------- 
|                                                                             |
|  ADVICE TO THIS USER RUNNING 'VASP/VAMP'   (HEAR YOUR MASTER'S VOICE ...):  |
|                                                                             |
|      You have a (more or less) 'small supercell' and for smaller cells      |
|      it is recommended  to use the reciprocal-space projection scheme!      |
|      The real space optimization is not  efficient for small cells and it   |
|      is also less accurate ...                                              |
|      Therefore set LREAL=.FALSE. in the  INCAR file                         |
|                                                                             |
 ----------------------------------------------------------------------------- 

 LDA part: xc-table for Pade appr. of Perdew
 POSCAR, INCAR and KPOINTS ok, starting setup
 FFT: planning ...
 WAVECAR not read
 entering main loop
       N       E                     dE             d eps       ncg     rms          rms(c)
DAV:   1     0.196517688485E+03    0.19652E+03   -0.13945E+04  1808   0.922E+02
DAV:   2    -0.107439640174E+02   -0.20726E+03   -0.20112E+03  1828   0.265E+02
DAV:   3    -0.209029996356E+02   -0.10159E+02   -0.99868E+01  1904   0.783E+01
DAV:   4    -0.210257535810E+02   -0.12275E+00   -0.12230E+00  1892   0.766E+00
DAV:   5    -0.210271284511E+02   -0.13749E-02   -0.13748E-02  1960   0.560E-01    0.148E+01
RMM:   6    -0.189444853207E+02    0.20826E+01   -0.44210E+01  1902   0.649E+01    0.746E+00
RMM:   7    -0.171074743077E+02    0.18370E+01   -0.73533E+00  1793   0.274E+01    0.136E+00
RMM:   8    -0.171483348295E+02   -0.40861E-01   -0.14340E-01  1936   0.315E+00    0.200E+00
RMM:   9    -0.170460464966E+02    0.10229E+00   -0.57605E-02  1922   0.188E+00    0.816E-01
RMM:  10    -0.170340380551E+02    0.12008E-01   -0.18178E-02  1902   0.114E+00    0.452E-01
RMM:  11    -0.170280183507E+02    0.60197E-02   -0.10643E-02  1896   0.829E-01    0.116E-01
RMM:  12    -0.170272919891E+02    0.72636E-03   -0.10045E-03  1911   0.270E-01    0.848E-02
RMM:  13    -0.170268031289E+02    0.48886E-03   -0.54343E-04  1870   0.180E-01    0.443E-02
RMM:  14    -0.170267550317E+02    0.48097E-04   -0.25969E-04  1830   0.124E-01    0.256E-02
RMM:  15    -0.170269463254E+02   -0.19129E-03   -0.11681E-04  1792   0.655E-02    0.213E-02
RMM:  16    -0.170272129104E+02   -0.26659E-03   -0.96559E-05  1771   0.608E-02    0.942E-03
RMM:  17    -0.170273601039E+02   -0.14719E-03   -0.49357E-05  1701   0.244E-02    0.823E-03
RMM:  18    -0.170274316170E+02   -0.71513E-04   -0.10904E-05  1618   0.190E-02    0.660E-03
RMM:  19    -0.170274547021E+02   -0.23085E-04   -0.83005E-07  1155   0.596E-03    0.600E-03
RMM:  20    -0.170274904557E+02   -0.35754E-04   -0.16186E-06  1111   0.660E-03    0.569E-03
RMM:  21    -0.170275017062E+02   -0.11250E-04   -0.38247E-07  1078   0.312E-03    0.567E-03
RMM:  22    -0.170275075432E+02   -0.58370E-05   -0.16541E-07  1037   0.253E-03    0.562E-03
RMM:  23    -0.170275078775E+02   -0.33428E-06   -0.12438E-08   433   0.131E-03
   1 F= -.17027508E+02 E0= -.17019051E+02  d E =-.169133E-01

Currently Loaded Modulefiles:
  1) intel/2017.4         2) perf-reports/7.0.6

Job script resource usage:
       JobID  MaxVMSize     MaxRSS 
------------ ---------- ---------- 
28337923.ba+    216884K      2268K 

Job step resource usage:
       JobID    JobName  AllocCPUS  MaxVMSize     MaxRSS    Elapsed ExitCode 
------------ ---------- ---------- ---------- ---------- ---------- -------- 
28337923        jobname          4                         00:00:17      0:0 
28337923.0    pmi_proxy          1    279832K       514K   00:00:15      0:0 

Job 28337923 ("jobname") completed on c16-30 at Fri Oct 11 11:15:51 CEST 2019
