<?xml version="1.0" encoding="ISO-8859-1"?>
<modeling>
 <generator>
  <i name="program" type="string">vasp </i>
  <i name="version" type="string">5.4.4.18Apr17-6-g9f103f2a35  </i>
  <i name="subversion" type="string">(build Jun 30 2017 11:15:00) complex            parallel </i>
  <i name="platform" type="string">STALLO_VASP_5.4.4 </i>
  <i name="date" type="string">2019 10 11 </i>
  <i name="time" type="string">13:51:51 </i>
 </generator>
 <incar>
  <i type="string" name="PREC">normal    ! low/normal/accurate</i>
  <i type="string" name="ALGO"> Fast      ! Algorithm for electronic re</i>
  <i type="int" name="ISPIN">     1</i>
  <i type="int" name="NELMIN">     4</i>
  <i name="EDIFF">      0.00000100</i>
  <i type="int" name="NSW">     0</i>
  <i name="ENCUT">    250.00000000</i>
  <i type="int" name="NEDOS">  2401</i>
  <i type="string" name="LREAL"> Auto      ! Projection in reciprocal sp</i>
  <i name="EMIN">    -17.00000000</i>
  <i name="EMAX">      7.00000000</i>
  <i type="int" name="ISMEAR">     0</i>
  <i name="SIGMA">      0.10000000</i>
  <i type="logical" name="LWAVE"> F  </i>
  <i type="int" name="LORBIT">    11</i>
  <i type="logical" name="LELF"> T  </i>
  <v type="int" name="KPOINT_BSE">    -1     0     0     0</v>
 </incar>
 <structure name="primitive_cell" >
  <crystal>
   <varray name="basis" >
    <v>       2.57386868       0.00000000       0.00000000 </v>
    <v>       1.28693434       2.22903567       0.00000000 </v>
    <v>       0.00000000       0.00000000      30.30466494 </v>
   </varray>
   <i name="volume">    173.86529028 </i>
   <varray name="rec_basis" >
    <v>       0.38852021      -0.22431225       0.00000000 </v>
    <v>       0.00000000       0.44862450       0.00000000 </v>
    <v>       0.00000000       0.00000000       0.03299822 </v>
   </varray>
  </crystal>
  <varray name="positions" >
   <v>      -0.00029385       0.00058770       0.39656700 </v>
   <v>       0.33318627       0.33362409       0.46513961 </v>
   <v>      -0.33417090      -0.33165717      -0.46640558 </v>
   <v>       0.00080079      -0.00160159      -0.39578411 </v>
   <v>       0.47708930       0.04581802      -0.36249716 </v>
  </varray>
 </structure>
 <varray name="primitive_index" >
  <v type="int" >        1 </v>
  <v type="int" >        2 </v>
  <v type="int" >        3 </v>
  <v type="int" >        4 </v>
  <v type="int" >        5 </v>
 </varray>
 <kpoints>
  <generation param="Gamma">
   <v type="int" name="divisions">      10       10        1 </v>
   <v name="usershift">      0.00000000       0.00000000       0.00000000 </v>
   <v name="genvec1">      0.10000000       0.00000000       0.00000000 </v>
   <v name="genvec2">      0.00000000       0.10000000       0.00000000 </v>
   <v name="genvec3">      0.00000000       0.00000000       1.00000000 </v>
   <v name="shift">      0.00000000       0.00000000       0.00000000 </v>
  </generation>
  <varray name="kpointlist" >
   <v>       0.00000000       0.00000000       0.00000000 </v>
   <v>       0.10000000       0.00000000       0.00000000 </v>
   <v>       0.20000000      -0.00000000       0.00000000 </v>
   <v>       0.30000000      -0.00000000       0.00000000 </v>
   <v>       0.40000000      -0.00000000       0.00000000 </v>
   <v>       0.50000000      -0.00000000       0.00000000 </v>
   <v>       0.00000000       0.10000000       0.00000000 </v>
   <v>       0.20000000       0.10000000       0.00000000 </v>
   <v>       0.30000000       0.10000000       0.00000000 </v>
   <v>       0.40000000       0.10000000       0.00000000 </v>
   <v>       0.50000000       0.10000000       0.00000000 </v>
   <v>      -0.40000000       0.10000000       0.00000000 </v>
   <v>      -0.30000000       0.10000000       0.00000000 </v>
   <v>      -0.20000000       0.10000000       0.00000000 </v>
   <v>      -0.10000000       0.10000000       0.00000000 </v>
   <v>       0.00000000       0.20000000       0.00000000 </v>
   <v>       0.40000000       0.20000000       0.00000000 </v>
   <v>       0.50000000       0.20000000       0.00000000 </v>
   <v>      -0.40000000       0.20000000       0.00000000 </v>
   <v>      -0.30000000       0.20000000       0.00000000 </v>
   <v>      -0.20000000       0.20000000       0.00000000 </v>
   <v>      -0.10000000       0.20000000       0.00000000 </v>
   <v>       0.00000000       0.30000000       0.00000000 </v>
   <v>      -0.40000000       0.30000000       0.00000000 </v>
   <v>      -0.30000000       0.30000000       0.00000000 </v>
   <v>      -0.20000000       0.30000000       0.00000000 </v>
   <v>      -0.10000000       0.30000000       0.00000000 </v>
   <v>       0.00000000       0.40000000       0.00000000 </v>
   <v>      -0.20000000       0.40000000       0.00000000 </v>
   <v>      -0.10000000       0.40000000       0.00000000 </v>
   <v>       0.00000000       0.50000000       0.00000000 </v>
  </varray>
  <varray name="weights" >
   <v>       0.01000000 </v>
   <v>       0.04000000 </v>
   <v>       0.04000000 </v>
   <v>       0.04000000 </v>
   <v>       0.04000000 </v>
   <v>       0.02000000 </v>
   <v>       0.02000000 </v>
   <v>       0.02000000 </v>
   <v>       0.04000000 </v>
   <v>       0.04000000 </v>
   <v>       0.04000000 </v>
   <v>       0.04000000 </v>
   <v>       0.04000000 </v>
   <v>       0.04000000 </v>
   <v>       0.04000000 </v>
   <v>       0.02000000 </v>
   <v>       0.02000000 </v>
   <v>       0.04000000 </v>
   <v>       0.04000000 </v>
   <v>       0.04000000 </v>
   <v>       0.04000000 </v>
   <v>       0.04000000 </v>
   <v>       0.02000000 </v>
   <v>       0.02000000 </v>
   <v>       0.04000000 </v>
   <v>       0.04000000 </v>
   <v>       0.04000000 </v>
   <v>       0.02000000 </v>
   <v>       0.02000000 </v>
   <v>       0.04000000 </v>
   <v>       0.01000000 </v>
  </varray>
 </kpoints>
 <parameters>
  <separator name="general" >
   <i type="string" name="SYSTEM">unknown system</i>
   <i type="logical" name="LCOMPAT"> F  </i>
  </separator>
  <separator name="electronic" >
   <i type="string" name="PREC">normal</i>
   <i name="ENMAX">    250.00000000</i>
   <i name="ENAUG">    516.45600000</i>
   <i name="EDIFF">      0.00000100</i>
   <i type="int" name="IALGO">    68</i>
   <i type="int" name="IWAVPR">    10</i>
   <i type="int" name="NBANDS">    28</i>
   <i name="NELECT">     45.00000000</i>
   <i type="int" name="TURBO">     0</i>
   <i type="int" name="IRESTART">     0</i>
   <i type="int" name="NREBOOT">     0</i>
   <i type="int" name="NMIN">     0</i>
   <i name="EREF">      0.00000000</i>
   <separator name="electronic smearing" >
    <i type="int" name="ISMEAR">     0</i>
    <i name="SIGMA">      0.10000000</i>
    <i name="KSPACING">      0.50000000</i>
    <i type="logical" name="KGAMMA"> T  </i>
   </separator>
   <separator name="electronic projectors" >
    <i type="logical" name="LREAL"> T  </i>
    <v name="ROPT">     -0.00050000     -0.00050000</v>
    <i type="int" name="LMAXPAW">  -100</i>
    <i type="int" name="LMAXMIX">     2</i>
    <i type="logical" name="NLSPLINE"> F  </i>
   </separator>
   <separator name="electronic startup" >
    <i type="int" name="ISTART">     0</i>
    <i type="int" name="ICHARG">     2</i>
    <i type="int" name="INIWAV">     1</i>
   </separator>
   <separator name="electronic spin" >
    <i type="int" name="ISPIN">     1</i>
    <i type="logical" name="LNONCOLLINEAR"> F  </i>
    <v name="MAGMOM">      1.00000000      1.00000000      1.00000000      1.00000000      1.00000000</v>
    <i name="NUPDOWN">     -1.00000000</i>
    <i type="logical" name="LSORBIT"> F  </i>
    <v name="SAXIS">      0.00000000      0.00000000      1.00000000</v>
    <i type="logical" name="LSPIRAL"> F  </i>
    <v name="QSPIRAL">      0.00000000      0.00000000      0.00000000</v>
    <i type="logical" name="LZEROZ"> F  </i>
   </separator>
   <separator name="electronic exchange-correlation" >
    <i type="logical" name="LASPH"> F  </i>
    <i type="logical" name="LMETAGGA"> F  </i>
   </separator>
   <separator name="electronic convergence" >
    <i type="int" name="NELM">    60</i>
    <i type="int" name="NELMDL">     0</i>
    <i type="int" name="NELMIN">     4</i>
    <i name="ENINI">    250.00000000</i>
    <separator name="electronic convergence detail" >
     <i type="logical" name="LDIAG"> T  </i>
     <i type="logical" name="LSUBROT"> F  </i>
     <i name="WEIMIN">      0.00000000</i>
     <i name="EBREAK">      0.00000001</i>
     <i name="DEPER">      0.30000000</i>
     <i type="int" name="NRMM">     4</i>
     <i name="TIME">      0.40000000</i>
    </separator>
   </separator>
   <separator name="electronic mixer" >
    <i name="AMIX">      0.40000000</i>
    <i name="BMIX">      1.00000000</i>
    <i name="AMIN">      0.10000000</i>
    <i name="AMIX_MAG">      1.60000000</i>
    <i name="BMIX_MAG">      1.00000000</i>
    <separator name="electronic mixer details" >
     <i type="int" name="IMIX">     4</i>
     <i type="logical" name="MIXFIRST"> F  </i>
     <i type="int" name="MAXMIX">   -45</i>
     <i name="WC">    100.00000000</i>
     <i type="int" name="INIMIX">     1</i>
     <i type="int" name="MIXPRE">     1</i>
     <i type="int" name="MREMOVE">     5</i>
    </separator>
   </separator>
   <separator name="electronic dipolcorrection" >
    <i type="logical" name="LDIPOL"> F  </i>
    <i type="logical" name="LMONO"> F  </i>
    <i type="int" name="IDIPOL">     0</i>
    <i name="EPSILON">      1.00000000</i>
    <v name="DIPOL">   -100.00000000   -100.00000000   -100.00000000</v>
    <i name="EFIELD">      0.00000000</i>
   </separator>
  </separator>
  <separator name="grids" >
   <i type="int" name="NGX">    10</i>
   <i type="int" name="NGY">    10</i>
   <i type="int" name="NGZ">   120</i>
   <i type="int" name="NGXF">    20</i>
   <i type="int" name="NGYF">    20</i>
   <i type="int" name="NGZF">   240</i>
   <i type="logical" name="ADDGRID"> F  </i>
  </separator>
  <separator name="ionic" >
   <i type="int" name="NSW">     0</i>
   <i type="int" name="IBRION">    -1</i>
   <i type="int" name="MDALGO">     0</i>
   <i type="int" name="ISIF">     2</i>
   <i name="PSTRESS">      0.00000000</i>
   <i name="EDIFFG">      0.00001000</i>
   <i type="int" name="NFREE">     0</i>
   <i name="POTIM">      0.50000000</i>
   <i name="SMASS">     -3.00000000</i>
   <i name="SCALEE">      1.00000000</i>
  </separator>
  <separator name="ionic md" >
   <i name="TEBEG">      0.00010000</i>
   <i name="TEEND">      0.00010000</i>
   <i type="int" name="NBLOCK">     1</i>
   <i type="int" name="KBLOCK">     1</i>
   <i type="int" name="NPACO">   256</i>
   <i name="APACO">     16.00000000</i>
  </separator>
  <separator name="symmetry" >
   <i type="int" name="ISYM">     2</i>
   <i name="SYMPREC">      0.00001000</i>
  </separator>
  <separator name="dos" >
   <i type="int" name="LORBIT">    11</i>
   <v name="RWIGS">     -1.00000000     -1.00000000</v>
   <i type="int" name="NEDOS">  2401</i>
   <i name="EMIN">    -17.00000000</i>
   <i name="EMAX">      7.00000000</i>
   <i name="EFERMI">      0.00000000</i>
  </separator>
  <separator name="writing" >
   <i type="int" name="NWRITE">     2</i>
   <i type="logical" name="LWAVE"> F  </i>
   <i type="logical" name="LDOWNSAMPLE"> F  </i>
   <i type="logical" name="LCHARG"> T  </i>
   <i type="logical" name="LPARD"> F  </i>
   <i type="logical" name="LVTOT"> F  </i>
   <i type="logical" name="LVHAR"> F  </i>
   <i type="logical" name="LELF"> T  </i>
   <i type="logical" name="LOPTICS"> F  </i>
   <v name="STM">      0.00000000      0.00000000      0.00000000      0.00000000      0.00000000      0.00000000      0.00000000</v>
  </separator>
  <separator name="performance" >
   <i type="int" name="NPAR">     2</i>
   <i type="int" name="NSIM">     4</i>
   <i type="int" name="NBLK">    -1</i>
   <i type="logical" name="LPLANE"> T  </i>
   <i type="logical" name="LSCALAPACK"> T  </i>
   <i type="logical" name="LSCAAWARE"> F  </i>
   <i type="logical" name="LSCALU"> F  </i>
   <i type="logical" name="LASYNC"> F  </i>
   <i type="logical" name="LORBITALREAL"> F  </i>
  </separator>
  <separator name="miscellaneous" >
   <i type="int" name="IDIOT">     3</i>
   <i type="int" name="ISPECIAL">     0</i>
   <i type="logical" name="LMUSIC"> F  </i>
   <v name="POMASS">     63.54600000      1.00000000</v>
   <v name="DARWINR">      0.00000000      0.00000000</v>
   <v name="DARWINV">      1.00000000      1.00000000</v>
   <i type="logical" name="LCORR"> T  </i>
  </separator>
  <i type="logical" name="GGA_COMPAT"> T  </i>
  <i type="logical" name="LBERRY"> F  </i>
  <i type="int" name="ICORELEVEL">     0</i>
  <i type="logical" name="LDAU"> F  </i>
  <i type="int" name="I_CONSTRAINED_M">     0</i>
  <separator name="electronic exchange-correlation" >
   <i type="string" name="GGA">--</i>
   <i type="int" name="VOSKOWN">     0</i>
   <i type="logical" name="LHFCALC"> F  </i>
   <i type="string" name="PRECFOCK"></i>
   <i type="logical" name="LSYMGRAD"> F  </i>
   <i type="logical" name="LHFONE"> F  </i>
   <i type="logical" name="LRHFCALC"> F  </i>
   <i type="logical" name="LTHOMAS"> F  </i>
   <i type="logical" name="LMODELHF"> F  </i>
   <i name="ENCUT4O">     -1.00000000</i>
   <i type="int" name="EXXOEP">     0</i>
   <i type="int" name="FOURORBIT">     0</i>
   <i name="AEXX">      0.00000000</i>
   <i name="HFALPHA">      0.00000000</i>
   <i name="MCALPHA">      0.00000000</i>
   <i name="ALDAX">      1.00000000</i>
   <i name="AGGAX">      1.00000000</i>
   <i name="ALDAC">      1.00000000</i>
   <i name="AGGAC">      1.00000000</i>
   <i type="int" name="NKREDX">     1</i>
   <i type="int" name="NKREDY">     1</i>
   <i type="int" name="NKREDZ">     1</i>
   <i type="logical" name="SHIFTRED"> F  </i>
   <i type="logical" name="ODDONLY"> F  </i>
   <i type="logical" name="EVENONLY"> F  </i>
   <i type="int" name="LMAXFOCK">     0</i>
   <i type="int" name="NMAXFOCKAE">     0</i>
   <i type="logical" name="LFOCKAEDFT"> F  </i>
   <i name="HFSCREEN">      0.00000000</i>
   <i name="HFSCREENC">      0.00000000</i>
   <i type="int" name="NBANDSGWLOW">     0</i>
  </separator>
  <separator name="vdW DFT" >
   <i type="logical" name="LUSE_VDW"> F  </i>
   <i name="Zab_VDW">     -0.84910000</i>
   <i name="PARAM1">      0.12340000</i>
   <i name="PARAM2">      1.00000000</i>
   <i name="PARAM3">      0.00000000</i>
  </separator>
  <separator name="model GW" >
   <i type="int" name="MODEL_GW">     0</i>
   <i name="MODEL_EPS0">     20.86383483</i>
   <i name="MODEL_ALPHA">      1.00000000</i>
  </separator>
  <separator name="linear response parameters" >
   <i type="logical" name="LEPSILON"> F  </i>
   <i type="logical" name="LRPA"> F  </i>
   <i type="logical" name="LNABLA"> F  </i>
   <i type="logical" name="LVEL"> F  </i>
   <i type="int" name="KINTER">     0</i>
   <i name="CSHIFT">      0.10000000</i>
   <i name="OMEGAMAX">     -1.00000000</i>
   <i name="DEG_THRESHOLD">      0.00200000</i>
   <i name="RTIME">     -0.10000000</i>
   <i name="WPLASMAI">      0.00000000</i>
   <v name="DFIELD">      0.00000000      0.00000000      0.00000000</v>
   <v name="WPLASMA">      0.00000000      0.00000000      0.00000000      0.00000000      0.00000000      0.00000000      0.00000000      0.00000000      0.00000000</v>
  </separator>
  <separator name="orbital magnetization" >
   <i type="logical" name="NUCIND"> F  </i>
   <v name="MAGPOS">      0.00000000      0.00000000      0.00000000</v>
   <i type="logical" name="LNICSALL"> T  </i>
   <i type="logical" name="ORBITALMAG"> F  </i>
   <i type="logical" name="LMAGBLOCH"> F  </i>
   <i type="logical" name="LCHIMAG"> F  </i>
   <i type="logical" name="LGAUGE"> T  </i>
   <i type="int" name="MAGATOM">     0</i>
   <v name="MAGDIPOL">      0.00000000      0.00000000      0.00000000</v>
   <v name="AVECCONST">      0.00000000      0.00000000      0.00000000</v>
  </separator>
  <separator name="response functions" >
   <i type="logical" name="LADDER"> F  </i>
   <i type="logical" name="LRPAFORCE"> F  </i>
   <i type="logical" name="LFXC"> F  </i>
   <i type="logical" name="LHARTREE"> T  </i>
   <i type="int" name="IBSE">     0</i>
   <v type="int" name="KPOINT">    -1     0     0     0</v>
   <i type="logical" name="LTCTE"> F  </i>
   <i type="logical" name="LTETE"> F  </i>
   <i type="logical" name="LTRIPLET"> F  </i>
   <i type="logical" name="LFXCEPS"> F  </i>
   <i type="logical" name="LFXHEG"> F  </i>
   <i type="int" name="NATURALO">     2</i>
   <i type="logical" name="L2ORDER"> F  </i>
   <i type="logical" name="LMP2LT"> F  </i>
   <i type="logical" name="LUSEW"> F  </i>
   <i name="ENCUTGW">     -2.00000000</i>
   <i name="ENCUTGWSOFT">     -2.00000000</i>
   <i name="ENCUTLF">     -1.00000000</i>
   <i type="int" name="LMAXMP2">    -1</i>
   <i name="SCISSOR">      0.00000000</i>
   <i type="int" name="NOMEGA">     0</i>
   <i type="int" name="NOMEGAR">     0</i>
   <i type="int" name="NBANDSGW">    -1</i>
   <i type="int" name="NBANDSO">    -1</i>
   <i type="int" name="NBANDSV">    -1</i>
   <i type="int" name="NELM">     1</i>
   <i type="int" name="NELMHF">     1</i>
   <i type="int" name="DIM">     3</i>
   <i type="int" name="ANTIRES">     0</i>
   <i name="OMEGAMAX">    -30.00000000</i>
   <i name="OMEGAMIN">    -30.00000000</i>
   <i name="OMEGATL">   -200.00000000</i>
   <i type="int" name="OMEGAGRID">   140</i>
   <i name="CSHIFT">     -0.10000000</i>
   <i type="logical" name="SELFENERGY"> F  </i>
   <i type="logical" name="LSPECTRAL"> F  </i>
   <i type="logical" name="LSPECTRALGW"> F  </i>
   <i type="logical" name="LSINGLES"> F  </i>
   <i type="logical" name="LFERMIGW"> F  </i>
   <i type="logical" name="ODDONLYGW"> F  </i>
   <i type="logical" name="EVENONLYGW"> F  </i>
   <i type="int" name="NKREDLFX">     1</i>
   <i type="int" name="NKREDLFY">     1</i>
   <i type="int" name="NKREDLFZ">     1</i>
   <i type="int" name="MAXMEM">  2800</i>
   <i type="int" name="TELESCOPE">     0</i>
   <i type="int" name="TAUPAR">     1</i>
   <i type="int" name="OMEGAPAR">    -1</i>
   <i name="LAMBDA">      1.00000000</i>
  </separator>
  <separator name="External order field" >
   <i name="OFIELD_KAPPA">      0.00000000</i>
   <v name="OFIELD_K">      0.00000000      0.00000000      0.00000000</v>
   <i name="OFIELD_Q6_NEAR">      0.00000000</i>
   <i name="OFIELD_Q6_FAR">      0.00000000</i>
   <i name="OFIELD_A">      0.00000000</i>
  </separator>
 </parameters>
 <atominfo>
  <atoms>       5 </atoms>
  <types>       2 </types>
  <array name="atoms" >
   <dimension dim="1">ion</dimension>
   <field type="string">element</field>
   <field type="int">atomtype</field>
   <set>
    <rc><c>Cu</c><c>   1</c></rc>
    <rc><c>Cu</c><c>   1</c></rc>
    <rc><c>Cu</c><c>   1</c></rc>
    <rc><c>Cu</c><c>   1</c></rc>
    <rc><c>H </c><c>   2</c></rc>
   </set>
  </array>
  <array name="atomtypes" >
   <dimension dim="1">type</dimension>
   <field type="int">atomspertype</field>
   <field type="string">element</field>
   <field>mass</field>
   <field>valence</field>
   <field type="string">pseudopotential</field>
   <set>
    <rc><c>   4</c><c>Cu</c><c>     63.54600000</c><c>     11.00000000</c><c> PAW_PBE Cu 05Jan2001                   </c></rc>
    <rc><c>   1</c><c>H </c><c>      1.00000000</c><c>      1.00000000</c><c> PAW_PBE H 15Jun2001                    </c></rc>
   </set>
  </array>
 </atominfo>
 <structure name="initialpos" >
  <crystal>
   <varray name="basis" >
    <v>       2.57386868       0.00000000       0.00000000 </v>
    <v>       1.28693434       2.22903567       0.00000000 </v>
    <v>       0.00000000       0.00000000      30.30466494 </v>
   </varray>
   <i name="volume">    173.86529028 </i>
   <varray name="rec_basis" >
    <v>       0.38852021      -0.22431225       0.00000000 </v>
    <v>       0.00000000       0.44862450       0.00000000 </v>
    <v>       0.00000000       0.00000000       0.03299822 </v>
   </varray>
  </crystal>
  <varray name="positions" >
   <v>       0.99970615       0.00058770       0.39656700 </v>
   <v>       0.33318627       0.33362409       0.46513961 </v>
   <v>       0.66582910       0.66834283       0.53359442 </v>
   <v>       0.00080079       0.99839841       0.60421589 </v>
   <v>       0.47708930       0.04581802       0.63750284 </v>
  </varray>
 </structure>
 <calculation>
  <scstep>
   <time name="dav">    0.61    0.62</time>
   <time name="total">    0.63    0.65</time>
   <energy>
    <i name="alphaZ">    120.87645803 </i>
    <i name="ewald">  38084.24760412 </i>
    <i name="hartreedc"> -43204.83511130 </i>
    <i name="XCdc">    177.43886778 </i>
    <i name="pawpsdc">   4328.99049516 </i>
    <i name="pawaedc">  -4905.09836044 </i>
    <i name="eentropy">     -0.00982041 </i>
    <i name="bandstr">     18.88770637 </i>
    <i name="atom">   5575.94961827 </i>
    <i name="e_fr_energy">    196.44745758 </i>
    <i name="e_wo_entrp">    196.45727799 </i>
    <i name="e_0_energy">    196.45236779 </i>
   </energy>
  </scstep>
  <scstep>
   <time name="dav">    0.61    0.61</time>
   <time name="total">    0.62    0.62</time>
   <energy>
    <i name="e_fr_energy">    -10.67025642 </i>
    <i name="e_wo_entrp">    -10.65285194 </i>
    <i name="e_0_energy">    -10.66155418 </i>
   </energy>
  </scstep>
  <scstep>
   <time name="dav">    0.63    0.63</time>
   <time name="total">    0.64    0.64</time>
   <energy>
    <i name="e_fr_energy">    -20.90019097 </i>
    <i name="e_wo_entrp">    -20.88853323 </i>
    <i name="e_0_energy">    -20.89436210 </i>
   </energy>
  </scstep>
  <scstep>
   <time name="dav">    0.62    0.63</time>
   <time name="total">    0.63    0.63</time>
   <energy>
    <i name="e_fr_energy">    -21.03118530 </i>
    <i name="e_wo_entrp">    -21.02033600 </i>
    <i name="e_0_energy">    -21.02576065 </i>
   </energy>
  </scstep>
  <scstep>
   <time name="dav">    0.64    0.65</time>
   <time name="total">    0.69    0.69</time>
   <energy>
    <i name="e_fr_energy">    -21.03255413 </i>
    <i name="e_wo_entrp">    -21.02170733 </i>
    <i name="e_0_energy">    -21.02713073 </i>
   </energy>
  </scstep>
  <scstep>
   <time name="diag">    0.13    0.13</time>
   <time name="diis">    0.37    0.37</time>
   <time name="orth">    0.02    0.02</time>
   <time name="total">    0.57    0.57</time>
   <energy>
    <i name="e_fr_energy">    -18.94969443 </i>
    <i name="e_wo_entrp">    -18.94212114 </i>
    <i name="e_0_energy">    -18.94590779 </i>
   </energy>
  </scstep>
  <scstep>
   <time name="diag">    0.12    0.13</time>
   <time name="diis">    0.35    0.35</time>
   <time name="orth">    0.02    0.02</time>
   <time name="total">    0.54    0.55</time>
   <energy>
    <i name="e_fr_energy">    -17.11292016 </i>
    <i name="e_wo_entrp">    -17.09786718 </i>
    <i name="e_0_energy">    -17.10539367 </i>
   </energy>
  </scstep>
  <scstep>
   <time name="diag">    0.12    0.13</time>
   <time name="diis">    0.38    0.38</time>
   <time name="orth">    0.02    0.02</time>
   <time name="total">    0.57    0.58</time>
   <energy>
    <i name="e_fr_energy">    -17.15097565 </i>
    <i name="e_wo_entrp">    -17.14020393 </i>
    <i name="e_0_energy">    -17.14558979 </i>
   </energy>
  </scstep>
  <scstep>
   <time name="diag">    0.12    0.13</time>
   <time name="diis">    0.38    0.38</time>
   <time name="orth">    0.02    0.02</time>
   <time name="total">    0.57    0.57</time>
   <energy>
    <i name="e_fr_energy">    -17.05400807 </i>
    <i name="e_wo_entrp">    -17.03905701 </i>
    <i name="e_0_energy">    -17.04653254 </i>
   </energy>
  </scstep>
  <scstep>
   <time name="diag">    0.12    0.13</time>
   <time name="diis">    0.37    0.37</time>
   <time name="orth">    0.02    0.02</time>
   <time name="total">    0.57    0.57</time>
   <energy>
    <i name="e_fr_energy">    -17.04258437 </i>
    <i name="e_wo_entrp">    -17.02667330 </i>
    <i name="e_0_energy">    -17.03462884 </i>
   </energy>
  </scstep>
  <scstep>
   <time name="diag">    0.12    0.13</time>
   <time name="diis">    0.37    0.37</time>
   <time name="orth">    0.02    0.02</time>
   <time name="total">    0.57    0.57</time>
   <energy>
    <i name="e_fr_energy">    -17.03700215 </i>
    <i name="e_wo_entrp">    -17.02069990 </i>
    <i name="e_0_energy">    -17.02885102 </i>
   </energy>
  </scstep>
  <scstep>
   <time name="diag">    0.12    0.13</time>
   <time name="diis">    0.37    0.37</time>
   <time name="orth">    0.02    0.02</time>
   <time name="total">    0.57    0.57</time>
   <energy>
    <i name="e_fr_energy">    -17.03611803 </i>
    <i name="e_wo_entrp">    -17.02001621 </i>
    <i name="e_0_energy">    -17.02806712 </i>
   </energy>
  </scstep>
  <scstep>
   <time name="diag">    0.12    0.13</time>
   <time name="diis">    0.37    0.37</time>
   <time name="orth">    0.02    0.02</time>
   <time name="total">    0.57    0.57</time>
   <energy>
    <i name="e_fr_energy">    -17.03568963 </i>
    <i name="e_wo_entrp">    -17.01960264 </i>
    <i name="e_0_energy">    -17.02764614 </i>
   </energy>
  </scstep>
  <scstep>
   <time name="diag">    0.12    0.13</time>
   <time name="diis">    0.36    0.36</time>
   <time name="orth">    0.02    0.02</time>
   <time name="total">    0.56    0.56</time>
   <energy>
    <i name="e_fr_energy">    -17.03559422 </i>
    <i name="e_wo_entrp">    -17.01947583 </i>
    <i name="e_0_energy">    -17.02753502 </i>
   </energy>
  </scstep>
  <scstep>
   <time name="diag">    0.12    0.13</time>
   <time name="diis">    0.35    0.35</time>
   <time name="orth">    0.02    0.02</time>
   <time name="total">    0.54    0.54</time>
   <energy>
    <i name="e_fr_energy">    -17.03587903 </i>
    <i name="e_wo_entrp">    -17.01956934 </i>
    <i name="e_0_energy">    -17.02772418 </i>
   </energy>
  </scstep>
  <scstep>
   <time name="diag">    0.12    0.13</time>
   <time name="diis">    0.35    0.35</time>
   <time name="orth">    0.02    0.02</time>
   <time name="total">    0.54    0.55</time>
   <energy>
    <i name="e_fr_energy">    -17.03608328 </i>
    <i name="e_wo_entrp">    -17.01980727 </i>
    <i name="e_0_energy">    -17.02794528 </i>
   </energy>
  </scstep>
  <scstep>
   <time name="diag">    0.12    0.13</time>
   <time name="diis">    0.34    0.34</time>
   <time name="orth">    0.02    0.02</time>
   <time name="total">    0.54    0.54</time>
   <energy>
    <i name="e_fr_energy">    -17.03622628 </i>
    <i name="e_wo_entrp">    -17.01991262 </i>
    <i name="e_0_energy">    -17.02806945 </i>
   </energy>
  </scstep>
  <scstep>
   <time name="diag">    0.12    0.13</time>
   <time name="diis">    0.30    0.30</time>
   <time name="orth">    0.01    0.02</time>
   <time name="total">    0.50    0.50</time>
   <energy>
    <i name="e_fr_energy">    -17.03629782 </i>
    <i name="e_wo_entrp">    -17.01997413 </i>
    <i name="e_0_energy">    -17.02813597 </i>
   </energy>
  </scstep>
  <scstep>
   <time name="diag">    0.12    0.13</time>
   <time name="diis">    0.25    0.25</time>
   <time name="orth">    0.01    0.02</time>
   <time name="total">    0.45    0.45</time>
   <energy>
    <i name="e_fr_energy">    -17.03633243 </i>
    <i name="e_wo_entrp">    -17.02002068 </i>
    <i name="e_0_energy">    -17.02817656 </i>
   </energy>
  </scstep>
  <scstep>
   <time name="diag">    0.12    0.13</time>
   <time name="diis">    0.24    0.24</time>
   <time name="orth">    0.02    0.02</time>
   <time name="total">    0.44    0.44</time>
   <energy>
    <i name="e_fr_energy">    -17.03636978 </i>
    <i name="e_wo_entrp">    -17.02004628 </i>
    <i name="e_0_energy">    -17.02820803 </i>
   </energy>
  </scstep>
  <scstep>
   <time name="diag">    0.12    0.13</time>
   <time name="diis">    0.24    0.24</time>
   <time name="orth">    0.02    0.02</time>
   <time name="total">    0.44    0.44</time>
   <energy>
    <i name="e_fr_energy">    -17.03637932 </i>
    <i name="e_wo_entrp">    -17.02005738 </i>
    <i name="e_0_energy">    -17.02821835 </i>
   </energy>
  </scstep>
  <scstep>
   <time name="diag">    0.12    0.13</time>
   <time name="diis">    0.21    0.21</time>
   <time name="orth">    0.01    0.02</time>
   <time name="total">    0.40    0.41</time>
   <energy>
    <i name="e_fr_energy">    -17.03638400 </i>
    <i name="e_wo_entrp">    -17.02006054 </i>
    <i name="e_0_energy">    -17.02822227 </i>
   </energy>
  </scstep>
  <scstep>
   <time name="diag">    0.12    0.13</time>
   <time name="diis">    0.20    0.20</time>
   <time name="orth">    0.02    0.02</time>
   <time name="total">    0.36    0.36</time>
   <energy>
    <i name="alphaZ">    120.87645803 </i>
    <i name="ewald">  38084.24760412 </i>
    <i name="hartreedc"> -43152.49373823 </i>
    <i name="XCdc">    173.39417495 </i>
    <i name="pawpsdc">   4395.92841291 </i>
    <i name="pawaedc">  -4971.83351180 </i>
    <i name="eentropy">     -0.01632298 </i>
    <i name="bandstr">   -243.08907933 </i>
    <i name="atom">   5575.94961827 </i>
    <i name="e_fr_energy">    -17.03638408 </i>
    <i name="e_wo_entrp">    -17.02006110 </i>
    <i name="e_0_energy">    -17.02822259 </i>
   </energy>
  </scstep>
  <structure>
   <crystal>
    <varray name="basis" >
     <v>       2.57386868       0.00000000       0.00000000 </v>
     <v>       1.28693434       2.22903567       0.00000000 </v>
     <v>       0.00000000       0.00000000      30.30466494 </v>
    </varray>
    <i name="volume">    173.86529028 </i>
    <varray name="rec_basis" >
     <v>       0.38852021      -0.22431225       0.00000000 </v>
     <v>       0.00000000       0.44862450       0.00000000 </v>
     <v>       0.00000000       0.00000000       0.03299822 </v>
    </varray>
   </crystal>
   <varray name="positions" >
    <v>       0.99970615       0.00058770       0.39656700 </v>
    <v>       0.33318627       0.33362409       0.46513961 </v>
    <v>       0.66582910       0.66834283       0.53359442 </v>
    <v>       0.00080079       0.99839841       0.60421589 </v>
    <v>       0.47708930       0.04581802       0.63750284 </v>
   </varray>
  </structure>
  <varray name="forces" >
   <v>      -0.00000000       0.01141359       0.07714544 </v>
   <v>       0.00000000       0.00455845      -0.03573616 </v>
   <v>      -0.00000000       0.00027785      -0.03932503 </v>
   <v>       0.00000000      -0.17209779       0.02485879 </v>
   <v>      -0.00000000       0.15584791      -0.02694305 </v>
  </varray>
  <varray name="stress" >
   <v>     -44.44101791       0.00000000       0.00000000 </v>
   <v>       0.00000000     -44.09311437       0.53654016 </v>
   <v>       0.00000000       0.53515438     -45.82180346 </v>
  </varray>
  <energy>
   <i name="e_fr_energy">    -17.03638408 </i>
   <i name="e_wo_entrp">    -17.02822259 </i>
   <i name="e_0_energy">     -0.01632298 </i>
  </energy>
  <time name="totalsc">   13.41   13.46</time>
  <eigenvalues>
   <array>
    <dimension dim="1">band</dimension>
    <dimension dim="2">kpoint</dimension>
    <dimension dim="3">spin</dimension>
    <field>eigene</field>
    <field>occ</field>
    <set>
     <set comment="spin 1">
      <set comment="kpoint 1">
       <r>  -11.5574    1.0000 </r>
       <r>  -10.6643    1.0000 </r>
       <r>   -9.0283    1.0000 </r>
       <r>   -7.5805    1.0000 </r>
       <r>   -6.2486    1.0000 </r>
       <r>   -5.6789    1.0000 </r>
       <r>   -5.4969    1.0000 </r>
       <r>   -5.4528    1.0000 </r>
       <r>   -5.3409    1.0000 </r>
       <r>   -5.3313    1.0000 </r>
       <r>   -5.3110    1.0000 </r>
       <r>   -5.3004    1.0000 </r>
       <r>   -5.2947    1.0000 </r>
       <r>   -5.0403    1.0000 </r>
       <r>   -5.0373    1.0000 </r>
       <r>   -4.8666    1.0000 </r>
       <r>   -4.8599    1.0000 </r>
       <r>   -4.6976    1.0000 </r>
       <r>   -4.5410    1.0000 </r>
       <r>   -4.5345    1.0000 </r>
       <r>   -4.3236    1.0000 </r>
       <r>   -4.3061    1.0000 </r>
       <r>   -4.0368    1.0000 </r>
       <r>   -4.0321    1.0000 </r>
       <r>   -2.9407    1.0000 </r>
       <r>    1.6107    0.0000 </r>
       <r>    1.9157    0.0000 </r>
       <r>    2.3410    0.0000 </r>
      </set>
      <set comment="kpoint 2">
       <r>  -11.2491    1.0000 </r>
       <r>  -10.3682    1.0000 </r>
       <r>   -8.7675    1.0000 </r>
       <r>   -7.3620    1.0000 </r>
       <r>   -6.2743    1.0000 </r>
       <r>   -5.7292    1.0000 </r>
       <r>   -5.6019    1.0000 </r>
       <r>   -5.4568    1.0000 </r>
       <r>   -5.4184    1.0000 </r>
       <r>   -5.3662    1.0000 </r>
       <r>   -5.3348    1.0000 </r>
       <r>   -5.2286    1.0000 </r>
       <r>   -5.2045    1.0000 </r>
       <r>   -5.1405    1.0000 </r>
       <r>   -5.0542    1.0000 </r>
       <r>   -4.9501    1.0000 </r>
       <r>   -4.7687    1.0000 </r>
       <r>   -4.7166    1.0000 </r>
       <r>   -4.5462    1.0000 </r>
       <r>   -4.5093    1.0000 </r>
       <r>   -4.3389    1.0000 </r>
       <r>   -4.3042    1.0000 </r>
       <r>   -4.0282    1.0000 </r>
       <r>   -3.7901    1.0000 </r>
       <r>   -2.2513    0.0288 </r>
       <r>    1.8547    0.0000 </r>
       <r>    2.2192    0.0000 </r>
       <r>    2.6443    0.0000 </r>
      </set>
      <set comment="kpoint 3">
       <r>  -10.3617    1.0000 </r>
       <r>   -9.5323    1.0000 </r>
       <r>   -8.0950    1.0000 </r>
       <r>   -6.8517    1.0000 </r>
       <r>   -6.3942    1.0000 </r>
       <r>   -5.9572    1.0000 </r>
       <r>   -5.7796    1.0000 </r>
       <r>   -5.7081    1.0000 </r>
       <r>   -5.5390    1.0000 </r>
       <r>   -5.3157    1.0000 </r>
       <r>   -5.2588    1.0000 </r>
       <r>   -5.1949    1.0000 </r>
       <r>   -5.0784    1.0000 </r>
       <r>   -5.0413    1.0000 </r>
       <r>   -4.9329    1.0000 </r>
       <r>   -4.8706    1.0000 </r>
       <r>   -4.8288    1.0000 </r>
       <r>   -4.6470    1.0000 </r>
       <r>   -4.6001    1.0000 </r>
       <r>   -4.4867    1.0000 </r>
       <r>   -4.3070    1.0000 </r>
       <r>   -4.0995    1.0000 </r>
       <r>   -4.0205    1.0000 </r>
       <r>   -2.8905    1.0000 </r>
       <r>   -0.9164    0.0000 </r>
       <r>    2.5794    0.0000 </r>
       <r>    3.1292    0.0000 </r>
       <r>    3.5539    0.0000 </r>
      </set>
      <set comment="kpoint 4">
       <r>   -9.0571    1.0000 </r>
       <r>   -8.3913    1.0000 </r>
       <r>   -7.4488    1.0000 </r>
       <r>   -6.6841    1.0000 </r>
       <r>   -6.4172    1.0000 </r>
       <r>   -6.2320    1.0000 </r>
       <r>   -5.9211    1.0000 </r>
       <r>   -5.7038    1.0000 </r>
       <r>   -5.5832    1.0000 </r>
       <r>   -5.3242    1.0000 </r>
       <r>   -5.1850    1.0000 </r>
       <r>   -5.1002    1.0000 </r>
       <r>   -4.9148    1.0000 </r>
       <r>   -4.8837    1.0000 </r>
       <r>   -4.7601    1.0000 </r>
       <r>   -4.6452    1.0000 </r>
       <r>   -4.5761    1.0000 </r>
       <r>   -4.4064    1.0000 </r>
       <r>   -4.3721    1.0000 </r>
       <r>   -4.2993    1.0000 </r>
       <r>   -4.1846    1.0000 </r>
       <r>   -4.0058    1.0000 </r>
       <r>   -3.5933    1.0000 </r>
       <r>   -1.6864    0.0000 </r>
       <r>    0.7697    0.0000 </r>
       <r>    3.7623    0.0000 </r>
       <r>    4.6116    0.0000 </r>
       <r>    5.0231    0.0000 </r>
      </set>
      <set comment="kpoint 5">
       <r>   -7.9896    1.0000 </r>
       <r>   -7.4500    1.0000 </r>
       <r>   -7.1461    1.0000 </r>
       <r>   -6.7899    1.0000 </r>
       <r>   -6.5482    1.0000 </r>
       <r>   -6.4052    1.0000 </r>
       <r>   -6.0513    1.0000 </r>
       <r>   -5.5252    1.0000 </r>
       <r>   -5.3807    1.0000 </r>
       <r>   -5.3121    1.0000 </r>
       <r>   -5.2439    1.0000 </r>
       <r>   -4.9536    1.0000 </r>
       <r>   -4.8280    1.0000 </r>
       <r>   -4.5066    1.0000 </r>
       <r>   -4.4091    1.0000 </r>
       <r>   -4.3526    1.0000 </r>
       <r>   -4.1550    1.0000 </r>
       <r>   -4.1293    1.0000 </r>
       <r>   -4.0962    1.0000 </r>
       <r>   -4.0102    1.0000 </r>
       <r>   -3.8683    1.0000 </r>
       <r>   -3.5840    1.0000 </r>
       <r>   -2.5289    0.9787 </r>
       <r>   -0.2739    0.0000 </r>
       <r>    2.0368    0.0000 </r>
       <r>    2.9060    0.0000 </r>
       <r>    3.3171    0.0000 </r>
       <r>    4.3702    0.0000 </r>
      </set>
      <set comment="kpoint 6">
       <r>   -7.7813    1.0000 </r>
       <r>   -7.1338    1.0000 </r>
       <r>   -6.9805    1.0000 </r>
       <r>   -6.8271    1.0000 </r>
       <r>   -6.6197    1.0000 </r>
       <r>   -6.4677    1.0000 </r>
       <r>   -6.0758    1.0000 </r>
       <r>   -5.4449    1.0000 </r>
       <r>   -5.3919    1.0000 </r>
       <r>   -5.2659    1.0000 </r>
       <r>   -5.1768    1.0000 </r>
       <r>   -4.9441    1.0000 </r>
       <r>   -4.5879    1.0000 </r>
       <r>   -4.4593    1.0000 </r>
       <r>   -4.2819    1.0000 </r>
       <r>   -4.2410    1.0000 </r>
       <r>   -4.0883    1.0000 </r>
       <r>   -4.0008    1.0000 </r>
       <r>   -3.9406    1.0000 </r>
       <r>   -3.7535    1.0000 </r>
       <r>   -3.6375    1.0000 </r>
       <r>   -2.2651    0.0443 </r>
       <r>   -1.3951    0.0000 </r>
       <r>   -0.8599    0.0000 </r>
       <r>    1.2072    0.0000 </r>
       <r>    2.2236    0.0000 </r>
       <r>    3.0015    0.0000 </r>
       <r>    3.6099    0.0000 </r>
      </set>
      <set comment="kpoint 7">
       <r>  -11.2617    1.0000 </r>
       <r>  -10.3700    1.0000 </r>
       <r>   -8.7588    1.0000 </r>
       <r>   -7.3575    1.0000 </r>
       <r>   -6.2011    1.0000 </r>
       <r>   -5.7500    1.0000 </r>
       <r>   -5.5438    1.0000 </r>
       <r>   -5.4064    1.0000 </r>
       <r>   -5.3976    1.0000 </r>
       <r>   -5.3844    1.0000 </r>
       <r>   -5.3257    1.0000 </r>
       <r>   -5.2564    1.0000 </r>
       <r>   -5.2008    1.0000 </r>
       <r>   -5.1424    1.0000 </r>
       <r>   -5.0543    1.0000 </r>
       <r>   -4.9671    1.0000 </r>
       <r>   -4.8626    1.0000 </r>
       <r>   -4.7248    1.0000 </r>
       <r>   -4.5558    1.0000 </r>
       <r>   -4.4971    1.0000 </r>
       <r>   -4.3405    1.0000 </r>
       <r>   -4.3184    1.0000 </r>
       <r>   -4.0316    1.0000 </r>
       <r>   -3.8131    1.0000 </r>
       <r>   -2.2608    0.0388 </r>
       <r>    1.8555    0.0000 </r>
       <r>    2.2191    0.0000 </r>
       <r>    2.6438    0.0000 </r>
      </set>
      <set comment="kpoint 8">
       <r>  -10.6413    1.0000 </r>
       <r>   -9.8014    1.0000 </r>
       <r>   -8.3074    1.0000 </r>
       <r>   -6.9896    1.0000 </r>
       <r>   -6.3680    1.0000 </r>
       <r>   -5.8516    1.0000 </r>
       <r>   -5.7598    1.0000 </r>
       <r>   -5.6367    1.0000 </r>
       <r>   -5.5239    1.0000 </r>
       <r>   -5.3957    1.0000 </r>
       <r>   -5.2944    1.0000 </r>
       <r>   -5.1979    1.0000 </r>
       <r>   -5.1430    1.0000 </r>
       <r>   -5.0945    1.0000 </r>
       <r>   -4.9942    1.0000 </r>
       <r>   -4.8642    1.0000 </r>
       <r>   -4.7516    1.0000 </r>
       <r>   -4.6498    1.0000 </r>
       <r>   -4.6048    1.0000 </r>
       <r>   -4.4797    1.0000 </r>
       <r>   -4.3849    1.0000 </r>
       <r>   -4.1217    1.0000 </r>
       <r>   -4.0572    1.0000 </r>
       <r>   -3.1234    1.0000 </r>
       <r>   -1.2987    0.0000 </r>
       <r>    2.3391    0.0000 </r>
       <r>    2.8265    0.0000 </r>
       <r>    3.2511    0.0000 </r>
      </set>
      <set comment="kpoint 9">
       <r>   -9.5343    1.0000 </r>
       <r>   -8.8007    1.0000 </r>
       <r>   -7.6335    1.0000 </r>
       <r>   -6.6148    1.0000 </r>
       <r>   -6.3372    1.0000 </r>
       <r>   -6.0721    1.0000 </r>
       <r>   -5.8867    1.0000 </r>
       <r>   -5.8174    1.0000 </r>
       <r>   -5.6468    1.0000 </r>
       <r>   -5.3585    1.0000 </r>
       <r>   -5.3205    1.0000 </r>
       <r>   -5.1906    1.0000 </r>
       <r>   -5.0852    1.0000 </r>
       <r>   -4.9621    1.0000 </r>
       <r>   -4.8868    1.0000 </r>
       <r>   -4.7878    1.0000 </r>
       <r>   -4.6565    1.0000 </r>
       <r>   -4.5039    1.0000 </r>
       <r>   -4.3834    1.0000 </r>
       <r>   -4.3447    1.0000 </r>
       <r>   -4.1964    1.0000 </r>
       <r>   -4.0823    1.0000 </r>
       <r>   -3.7112    1.0000 </r>
       <r>   -2.0884    0.0000 </r>
       <r>    0.1684    0.0000 </r>
       <r>    3.3137    0.0000 </r>
       <r>    4.0358    0.0000 </r>
       <r>    4.4786    0.0000 </r>
      </set>
      <set comment="kpoint 10">
       <r>   -8.3238    1.0000 </r>
       <r>   -7.7327    1.0000 </r>
       <r>   -7.1581    1.0000 </r>
       <r>   -6.6481    1.0000 </r>
       <r>   -6.3986    1.0000 </r>
       <r>   -6.2376    1.0000 </r>
       <r>   -5.9698    1.0000 </r>
       <r>   -5.6726    1.0000 </r>
       <r>   -5.5881    1.0000 </r>
       <r>   -5.3188    1.0000 </r>
       <r>   -5.2626    1.0000 </r>
       <r>   -5.1117    1.0000 </r>
       <r>   -4.9485    1.0000 </r>
       <r>   -4.7889    1.0000 </r>
       <r>   -4.6851    1.0000 </r>
       <r>   -4.5396    1.0000 </r>
       <r>   -4.4219    1.0000 </r>
       <r>   -4.3149    1.0000 </r>
       <r>   -4.2146    1.0000 </r>
       <r>   -4.0306    1.0000 </r>
       <r>   -3.9800    1.0000 </r>
       <r>   -3.6737    1.0000 </r>
       <r>   -2.8138    1.0000 </r>
       <r>   -0.6643    0.0000 </r>
       <r>    1.9532    0.0000 </r>
       <r>    3.9553    0.0000 </r>
       <r>    4.5348    0.0000 </r>
       <r>    5.0828    0.0000 </r>
      </set>
      <set comment="kpoint 11">
       <r>   -7.8026    1.0000 </r>
       <r>   -7.0569    1.0000 </r>
       <r>   -6.9241    1.0000 </r>
       <r>   -6.6967    1.0000 </r>
       <r>   -6.5231    1.0000 </r>
       <r>   -6.3470    1.0000 </r>
       <r>   -6.0466    1.0000 </r>
       <r>   -5.5503    1.0000 </r>
       <r>   -5.4377    1.0000 </r>
       <r>   -5.3362    1.0000 </r>
       <r>   -5.2182    1.0000 </r>
       <r>   -5.0221    1.0000 </r>
       <r>   -4.8186    1.0000 </r>
       <r>   -4.5689    1.0000 </r>
       <r>   -4.4332    1.0000 </r>
       <r>   -4.2882    1.0000 </r>
       <r>   -4.1728    1.0000 </r>
       <r>   -4.1420    1.0000 </r>
       <r>   -4.0681    1.0000 </r>
       <r>   -3.9177    1.0000 </r>
       <r>   -3.4509    1.0000 </r>
       <r>   -2.3845    0.4944 </r>
       <r>   -1.3540    0.0000 </r>
       <r>    0.0910    0.0000 </r>
       <r>    1.5161    0.0000 </r>
       <r>    2.5810    0.0000 </r>
       <r>    3.1404    0.0000 </r>
       <r>    4.1338    0.0000 </r>
      </set>
      <set comment="kpoint 12">
       <r>   -7.7235    1.0000 </r>
       <r>   -7.0547    1.0000 </r>
       <r>   -6.9170    1.0000 </r>
       <r>   -6.7157    1.0000 </r>
       <r>   -6.5224    1.0000 </r>
       <r>   -6.3742    1.0000 </r>
       <r>   -6.0671    1.0000 </r>
       <r>   -5.6130    1.0000 </r>
       <r>   -5.4256    1.0000 </r>
       <r>   -5.3443    1.0000 </r>
       <r>   -5.2580    1.0000 </r>
       <r>   -5.0275    1.0000 </r>
       <r>   -4.8421    1.0000 </r>
       <r>   -4.5520    1.0000 </r>
       <r>   -4.4403    1.0000 </r>
       <r>   -4.2871    1.0000 </r>
       <r>   -4.1801    1.0000 </r>
       <r>   -4.1145    1.0000 </r>
       <r>   -4.0683    1.0000 </r>
       <r>   -3.9139    1.0000 </r>
       <r>   -3.3680    1.0000 </r>
       <r>   -2.3842    0.4923 </r>
       <r>   -1.3769    0.0000 </r>
       <r>    0.0806    0.0000 </r>
       <r>    1.5006    0.0000 </r>
       <r>    2.5527    0.0000 </r>
       <r>    3.1863    0.0000 </r>
       <r>    4.1101    0.0000 </r>
      </set>
      <set comment="kpoint 13">
       <r>   -8.2769    1.0000 </r>
       <r>   -7.6997    1.0000 </r>
       <r>   -7.1336    1.0000 </r>
       <r>   -6.6595    1.0000 </r>
       <r>   -6.4013    1.0000 </r>
       <r>   -6.2758    1.0000 </r>
       <r>   -6.0092    1.0000 </r>
       <r>   -5.7164    1.0000 </r>
       <r>   -5.6075    1.0000 </r>
       <r>   -5.3457    1.0000 </r>
       <r>   -5.2978    1.0000 </r>
       <r>   -5.1334    1.0000 </r>
       <r>   -4.9466    1.0000 </r>
       <r>   -4.7901    1.0000 </r>
       <r>   -4.6511    1.0000 </r>
       <r>   -4.5342    1.0000 </r>
       <r>   -4.4107    1.0000 </r>
       <r>   -4.2548    1.0000 </r>
       <r>   -4.1807    1.0000 </r>
       <r>   -4.0195    1.0000 </r>
       <r>   -3.9474    1.0000 </r>
       <r>   -3.6680    1.0000 </r>
       <r>   -2.8635    1.0000 </r>
       <r>   -0.7643    0.0000 </r>
       <r>    1.8780    0.0000 </r>
       <r>    4.0061    0.0000 </r>
       <r>    4.6085    0.0000 </r>
       <r>    5.1000    0.0000 </r>
      </set>
      <set comment="kpoint 14">
       <r>   -9.5780    1.0000 </r>
       <r>   -8.7790    1.0000 </r>
       <r>   -7.5553    1.0000 </r>
       <r>   -6.5747    1.0000 </r>
       <r>   -6.3261    1.0000 </r>
       <r>   -6.0936    1.0000 </r>
       <r>   -5.9118    1.0000 </r>
       <r>   -5.8262    1.0000 </r>
       <r>   -5.6415    1.0000 </r>
       <r>   -5.3630    1.0000 </r>
       <r>   -5.3228    1.0000 </r>
       <r>   -5.2170    1.0000 </r>
       <r>   -5.0606    1.0000 </r>
       <r>   -4.9666    1.0000 </r>
       <r>   -4.8246    1.0000 </r>
       <r>   -4.7791    1.0000 </r>
       <r>   -4.6263    1.0000 </r>
       <r>   -4.5432    1.0000 </r>
       <r>   -4.3986    1.0000 </r>
       <r>   -4.3396    1.0000 </r>
       <r>   -4.1936    1.0000 </r>
       <r>   -4.0900    1.0000 </r>
       <r>   -3.7562    1.0000 </r>
       <r>   -2.2011    0.0045 </r>
       <r>    0.1126    0.0000 </r>
       <r>    3.3095    0.0000 </r>
       <r>    4.0358    0.0000 </r>
       <r>    4.4789    0.0000 </r>
      </set>
      <set comment="kpoint 15">
       <r>  -10.6771    1.0000 </r>
       <r>   -9.8016    1.0000 </r>
       <r>   -8.2720    1.0000 </r>
       <r>   -6.9720    1.0000 </r>
       <r>   -6.2421    1.0000 </r>
       <r>   -5.8584    1.0000 </r>
       <r>   -5.7487    1.0000 </r>
       <r>   -5.6269    1.0000 </r>
       <r>   -5.5086    1.0000 </r>
       <r>   -5.3780    1.0000 </r>
       <r>   -5.2267    1.0000 </r>
       <r>   -5.1993    1.0000 </r>
       <r>   -5.1465    1.0000 </r>
       <r>   -5.1148    1.0000 </r>
       <r>   -4.9992    1.0000 </r>
       <r>   -4.9115    1.0000 </r>
       <r>   -4.7553    1.0000 </r>
       <r>   -4.6667    1.0000 </r>
       <r>   -4.6504    1.0000 </r>
       <r>   -4.5182    1.0000 </r>
       <r>   -4.3977    1.0000 </r>
       <r>   -4.1209    1.0000 </r>
       <r>   -4.0744    1.0000 </r>
       <r>   -3.2087    1.0000 </r>
       <r>   -1.3298    0.0000 </r>
       <r>    2.3404    0.0000 </r>
       <r>    2.8262    0.0000 </r>
       <r>    3.2500    0.0000 </r>
      </set>
      <set comment="kpoint 16">
       <r>  -10.4292    1.0000 </r>
       <r>   -9.5373    1.0000 </r>
       <r>   -8.0456    1.0000 </r>
       <r>   -6.8227    1.0000 </r>
       <r>   -6.1718    1.0000 </r>
       <r>   -5.9056    1.0000 </r>
       <r>   -5.7336    1.0000 </r>
       <r>   -5.6383    1.0000 </r>
       <r>   -5.5379    1.0000 </r>
       <r>   -5.3417    1.0000 </r>
       <r>   -5.2505    1.0000 </r>
       <r>   -5.2248    1.0000 </r>
       <r>   -5.0801    1.0000 </r>
       <r>   -5.0739    1.0000 </r>
       <r>   -4.9668    1.0000 </r>
       <r>   -4.8995    1.0000 </r>
       <r>   -4.8640    1.0000 </r>
       <r>   -4.6666    1.0000 </r>
       <r>   -4.6266    1.0000 </r>
       <r>   -4.5008    1.0000 </r>
       <r>   -4.3158    1.0000 </r>
       <r>   -4.1654    1.0000 </r>
       <r>   -4.0246    1.0000 </r>
       <r>   -3.0207    1.0000 </r>
       <r>   -0.9672    0.0000 </r>
       <r>    2.5768    0.0000 </r>
       <r>    3.1289    0.0000 </r>
       <r>    3.5524    0.0000 </r>
      </set>
      <set comment="kpoint 17">
       <r>   -8.4714    1.0000 </r>
       <r>   -7.8272    1.0000 </r>
       <r>   -7.1115    1.0000 </r>
       <r>   -6.5163    1.0000 </r>
       <r>   -6.1812    1.0000 </r>
       <r>   -6.0944    1.0000 </r>
       <r>   -5.9753    1.0000 </r>
       <r>   -5.8871    1.0000 </r>
       <r>   -5.6253    1.0000 </r>
       <r>   -5.4822    1.0000 </r>
       <r>   -5.3674    1.0000 </r>
       <r>   -5.2684    1.0000 </r>
       <r>   -5.0295    1.0000 </r>
       <r>   -4.9704    1.0000 </r>
       <r>   -4.7692    1.0000 </r>
       <r>   -4.6982    1.0000 </r>
       <r>   -4.4603    1.0000 </r>
       <r>   -4.3464    1.0000 </r>
       <r>   -4.2566    1.0000 </r>
       <r>   -4.0253    1.0000 </r>
       <r>   -3.9754    1.0000 </r>
       <r>   -3.6199    1.0000 </r>
       <r>   -2.8176    1.0000 </r>
       <r>   -0.7940    0.0000 </r>
       <r>    1.7437    0.0000 </r>
       <r>    4.5504    0.0000 </r>
       <r>    5.2162    0.0000 </r>
       <r>    5.6225    0.0000 </r>
      </set>
      <set comment="kpoint 18">
       <r>   -7.8392    1.0000 </r>
       <r>   -6.9135    1.0000 </r>
       <r>   -6.7140    1.0000 </r>
       <r>   -6.4945    1.0000 </r>
       <r>   -6.2976    1.0000 </r>
       <r>   -6.1571    1.0000 </r>
       <r>   -5.9633    1.0000 </r>
       <r>   -5.8135    1.0000 </r>
       <r>   -5.6114    1.0000 </r>
       <r>   -5.5065    1.0000 </r>
       <r>   -5.3642    1.0000 </r>
       <r>   -5.1049    1.0000 </r>
       <r>   -5.0036    1.0000 </r>
       <r>   -4.8624    1.0000 </r>
       <r>   -4.6754    1.0000 </r>
       <r>   -4.5726    1.0000 </r>
       <r>   -4.4248    1.0000 </r>
       <r>   -4.2362    1.0000 </r>
       <r>   -4.0968    1.0000 </r>
       <r>   -3.9343    1.0000 </r>
       <r>   -3.2948    1.0000 </r>
       <r>   -2.4015    0.5891 </r>
       <r>   -1.2073    0.0000 </r>
       <r>    0.8678    0.0000 </r>
       <r>    2.6877    0.0000 </r>
       <r>    3.6423    0.0000 </r>
       <r>    3.9167    0.0000 </r>
       <r>    4.9194    0.0000 </r>
      </set>
      <set comment="kpoint 19">
       <r>   -7.6023    1.0000 </r>
       <r>   -6.6827    1.0000 </r>
       <r>   -6.6287    1.0000 </r>
       <r>   -6.4218    1.0000 </r>
       <r>   -6.3335    1.0000 </r>
       <r>   -6.1723    1.0000 </r>
       <r>   -5.9939    1.0000 </r>
       <r>   -5.8579    1.0000 </r>
       <r>   -5.5786    1.0000 </r>
       <r>   -5.5006    1.0000 </r>
       <r>   -5.3475    1.0000 </r>
       <r>   -5.1402    1.0000 </r>
       <r>   -4.9240    1.0000 </r>
       <r>   -4.7525    1.0000 </r>
       <r>   -4.6018    1.0000 </r>
       <r>   -4.4922    1.0000 </r>
       <r>   -4.3225    1.0000 </r>
       <r>   -4.1597    1.0000 </r>
       <r>   -4.1054    1.0000 </r>
       <r>   -4.0006    1.0000 </r>
       <r>   -2.4725    0.8905 </r>
       <r>   -0.7494    0.0000 </r>
       <r>   -0.1688    0.0000 </r>
       <r>    0.6021    0.0000 </r>
       <r>    1.6018    0.0000 </r>
       <r>    2.8448    0.0000 </r>
       <r>    3.5326    0.0000 </r>
       <r>    4.2218    0.0000 </r>
      </set>
      <set comment="kpoint 20">
       <r>   -7.6972    1.0000 </r>
       <r>   -6.9256    1.0000 </r>
       <r>   -6.7205    1.0000 </r>
       <r>   -6.4949    1.0000 </r>
       <r>   -6.2991    1.0000 </r>
       <r>   -6.2036    1.0000 </r>
       <r>   -5.9846    1.0000 </r>
       <r>   -5.8516    1.0000 </r>
       <r>   -5.6166    1.0000 </r>
       <r>   -5.5393    1.0000 </r>
       <r>   -5.4312    1.0000 </r>
       <r>   -5.1107    1.0000 </r>
       <r>   -5.0084    1.0000 </r>
       <r>   -4.8618    1.0000 </r>
       <r>   -4.6954    1.0000 </r>
       <r>   -4.5717    1.0000 </r>
       <r>   -4.4224    1.0000 </r>
       <r>   -4.2338    1.0000 </r>
       <r>   -4.0654    1.0000 </r>
       <r>   -3.9347    1.0000 </r>
       <r>   -3.1242    1.0000 </r>
       <r>   -2.4102    0.6365 </r>
       <r>   -1.3019    0.0000 </r>
       <r>    0.6986    0.0000 </r>
       <r>    2.6596    0.0000 </r>
       <r>    3.5990    0.0000 </r>
       <r>    3.9537    0.0000 </r>
       <r>    4.8431    0.0000 </r>
      </set>
      <set comment="kpoint 21">
       <r>   -8.5562    1.0000 </r>
       <r>   -7.7509    1.0000 </r>
       <r>   -6.9889    1.0000 </r>
       <r>   -6.4793    1.0000 </r>
       <r>   -6.1688    1.0000 </r>
       <r>   -6.0966    1.0000 </r>
       <r>   -5.9742    1.0000 </r>
       <r>   -5.8873    1.0000 </r>
       <r>   -5.6260    1.0000 </r>
       <r>   -5.4864    1.0000 </r>
       <r>   -5.3960    1.0000 </r>
       <r>   -5.3541    1.0000 </r>
       <r>   -5.0376    1.0000 </r>
       <r>   -4.9845    1.0000 </r>
       <r>   -4.8143    1.0000 </r>
       <r>   -4.6471    1.0000 </r>
       <r>   -4.4772    1.0000 </r>
       <r>   -4.3089    1.0000 </r>
       <r>   -4.1717    1.0000 </r>
       <r>   -4.0304    1.0000 </r>
       <r>   -3.9126    1.0000 </r>
       <r>   -3.6256    1.0000 </r>
       <r>   -2.9309    1.0000 </r>
       <r>   -1.0345    0.0000 </r>
       <r>    1.5550    0.0000 </r>
       <r>    4.4273    0.0000 </r>
       <r>    5.4138    0.0000 </r>
       <r>    5.5940    0.0000 </r>
      </set>
      <set comment="kpoint 22">
       <r>   -9.6607    1.0000 </r>
       <r>   -8.7825    1.0000 </r>
       <r>   -7.5049    1.0000 </r>
       <r>   -6.5018    1.0000 </r>
       <r>   -6.2457    1.0000 </r>
       <r>   -6.0103    1.0000 </r>
       <r>   -5.8457    1.0000 </r>
       <r>   -5.7836    1.0000 </r>
       <r>   -5.6468    1.0000 </r>
       <r>   -5.3489    1.0000 </r>
       <r>   -5.3213    1.0000 </r>
       <r>   -5.2394    1.0000 </r>
       <r>   -5.1440    1.0000 </r>
       <r>   -4.9887    1.0000 </r>
       <r>   -4.8195    1.0000 </r>
       <r>   -4.7965    1.0000 </r>
       <r>   -4.6277    1.0000 </r>
       <r>   -4.5558    1.0000 </r>
       <r>   -4.4340    1.0000 </r>
       <r>   -4.3420    1.0000 </r>
       <r>   -4.1938    1.0000 </r>
       <r>   -4.0907    1.0000 </r>
       <r>   -3.8150    1.0000 </r>
       <r>   -2.3083    0.1374 </r>
       <r>    0.0556    0.0000 </r>
       <r>    3.2916    0.0000 </r>
       <r>    4.0367    0.0000 </r>
       <r>    4.4690    0.0000 </r>
      </set>
      <set comment="kpoint 23">
       <r>   -9.3026    1.0000 </r>
       <r>   -8.3728    1.0000 </r>
       <r>   -7.3033    1.0000 </r>
       <r>   -6.5094    1.0000 </r>
       <r>   -6.3532    1.0000 </r>
       <r>   -6.0447    1.0000 </r>
       <r>   -5.7528    1.0000 </r>
       <r>   -5.6705    1.0000 </r>
       <r>   -5.4411    1.0000 </r>
       <r>   -5.3246    1.0000 </r>
       <r>   -5.2631    1.0000 </r>
       <r>   -5.1272    1.0000 </r>
       <r>   -4.9827    1.0000 </r>
       <r>   -4.8934    1.0000 </r>
       <r>   -4.7748    1.0000 </r>
       <r>   -4.7218    1.0000 </r>
       <r>   -4.5785    1.0000 </r>
       <r>   -4.4245    1.0000 </r>
       <r>   -4.3866    1.0000 </r>
       <r>   -4.3041    1.0000 </r>
       <r>   -4.1849    1.0000 </r>
       <r>   -4.0093    1.0000 </r>
       <r>   -3.7801    1.0000 </r>
       <r>   -1.9883    0.0000 </r>
       <r>    0.5691    0.0000 </r>
       <r>    3.6356    0.0000 </r>
       <r>    4.6295    0.0000 </r>
       <r>    4.8672    0.0000 </r>
      </set>
      <set comment="kpoint 24">
       <r>   -7.5665    1.0000 </r>
       <r>   -6.4416    1.0000 </r>
       <r>   -6.3835    1.0000 </r>
       <r>   -6.3157    1.0000 </r>
       <r>   -6.2062    1.0000 </r>
       <r>   -6.0813    1.0000 </r>
       <r>   -6.0316    1.0000 </r>
       <r>   -5.9260    1.0000 </r>
       <r>   -5.7341    1.0000 </r>
       <r>   -5.5524    1.0000 </r>
       <r>   -5.4798    1.0000 </r>
       <r>   -5.0967    1.0000 </r>
       <r>   -5.0485    1.0000 </r>
       <r>   -4.8426    1.0000 </r>
       <r>   -4.6937    1.0000 </r>
       <r>   -4.5410    1.0000 </r>
       <r>   -4.4911    1.0000 </r>
       <r>   -4.2026    1.0000 </r>
       <r>   -4.1185    1.0000 </r>
       <r>   -4.0245    1.0000 </r>
       <r>   -2.0885    0.0000 </r>
       <r>   -0.4244    0.0000 </r>
       <r>    0.7829    0.0000 </r>
       <r>    2.2087    0.0000 </r>
       <r>    2.2306    0.0000 </r>
       <r>    2.4859    0.0000 </r>
       <r>    3.3336    0.0000 </r>
       <r>    4.0083    0.0000 </r>
      </set>
      <set comment="kpoint 25">
       <r>   -7.5194    1.0000 </r>
       <r>   -6.4583    1.0000 </r>
       <r>   -6.4018    1.0000 </r>
       <r>   -6.3128    1.0000 </r>
       <r>   -6.2036    1.0000 </r>
       <r>   -6.0821    1.0000 </r>
       <r>   -6.0333    1.0000 </r>
       <r>   -5.9181    1.0000 </r>
       <r>   -5.6967    1.0000 </r>
       <r>   -5.5922    1.0000 </r>
       <r>   -5.4838    1.0000 </r>
       <r>   -5.0986    1.0000 </r>
       <r>   -5.0481    1.0000 </r>
       <r>   -4.8682    1.0000 </r>
       <r>   -4.6975    1.0000 </r>
       <r>   -4.5530    1.0000 </r>
       <r>   -4.4895    1.0000 </r>
       <r>   -4.1907    1.0000 </r>
       <r>   -4.1147    1.0000 </r>
       <r>   -4.0260    1.0000 </r>
       <r>   -1.9351    0.0000 </r>
       <r>   -0.4461    0.0000 </r>
       <r>    0.6400    0.0000 </r>
       <r>    1.7648    0.0000 </r>
       <r>    2.3248    0.0000 </r>
       <r>    2.4570    0.0000 </r>
       <r>    3.2540    0.0000 </r>
       <r>    3.8359    0.0000 </r>
      </set>
      <set comment="kpoint 26">
       <r>   -7.9198    1.0000 </r>
       <r>   -6.8887    1.0000 </r>
       <r>   -6.6834    1.0000 </r>
       <r>   -6.4237    1.0000 </r>
       <r>   -6.2871    1.0000 </r>
       <r>   -6.0523    1.0000 </r>
       <r>   -5.9391    1.0000 </r>
       <r>   -5.7826    1.0000 </r>
       <r>   -5.6135    1.0000 </r>
       <r>   -5.5171    1.0000 </r>
       <r>   -5.4119    1.0000 </r>
       <r>   -5.1153    1.0000 </r>
       <r>   -5.0406    1.0000 </r>
       <r>   -4.9002    1.0000 </r>
       <r>   -4.6733    1.0000 </r>
       <r>   -4.6089    1.0000 </r>
       <r>   -4.4232    1.0000 </r>
       <r>   -4.2442    1.0000 </r>
       <r>   -4.0602    1.0000 </r>
       <r>   -3.9346    1.0000 </r>
       <r>   -3.0173    1.0000 </r>
       <r>   -2.4268    0.7204 </r>
       <r>   -1.4058    0.0000 </r>
       <r>    0.3832    0.0000 </r>
       <r>    2.1270    0.0000 </r>
       <r>    3.2896    0.0000 </r>
       <r>    4.3242    0.0000 </r>
       <r>    5.6039    0.0000 </r>
      </set>
      <set comment="kpoint 27">
       <r>   -8.6334    1.0000 </r>
       <r>   -7.6525    1.0000 </r>
       <r>   -7.0016    1.0000 </r>
       <r>   -6.4766    1.0000 </r>
       <r>   -6.3846    1.0000 </r>
       <r>   -6.0860    1.0000 </r>
       <r>   -5.8315    1.0000 </r>
       <r>   -5.6389    1.0000 </r>
       <r>   -5.5089    1.0000 </r>
       <r>   -5.3854    1.0000 </r>
       <r>   -5.2388    1.0000 </r>
       <r>   -5.1687    1.0000 </r>
       <r>   -5.0162    1.0000 </r>
       <r>   -4.7983    1.0000 </r>
       <r>   -4.7113    1.0000 </r>
       <r>   -4.5539    1.0000 </r>
       <r>   -4.4182    1.0000 </r>
       <r>   -4.2408    1.0000 </r>
       <r>   -4.1944    1.0000 </r>
       <r>   -4.0262    1.0000 </r>
       <r>   -3.9434    1.0000 </r>
       <r>   -3.6889    1.0000 </r>
       <r>   -3.0247    1.0000 </r>
       <r>   -1.0882    0.0000 </r>
       <r>    1.4849    0.0000 </r>
       <r>    3.6305    0.0000 </r>
       <r>    4.5914    0.0000 </r>
       <r>    5.4214    0.0000 </r>
      </set>
      <set comment="kpoint 28">
       <r>   -8.4898    1.0000 </r>
       <r>   -7.3966    1.0000 </r>
       <r>   -7.0333    1.0000 </r>
       <r>   -6.5655    1.0000 </r>
       <r>   -6.5222    1.0000 </r>
       <r>   -6.1904    1.0000 </r>
       <r>   -5.7868    1.0000 </r>
       <r>   -5.4686    1.0000 </r>
       <r>   -5.3522    1.0000 </r>
       <r>   -5.3443    1.0000 </r>
       <r>   -5.1362    1.0000 </r>
       <r>   -5.0322    1.0000 </r>
       <r>   -4.6306    1.0000 </r>
       <r>   -4.5272    1.0000 </r>
       <r>   -4.4240    1.0000 </r>
       <r>   -4.3713    1.0000 </r>
       <r>   -4.1563    1.0000 </r>
       <r>   -4.0954    1.0000 </r>
       <r>   -4.0268    1.0000 </r>
       <r>   -4.0137    1.0000 </r>
       <r>   -3.8687    1.0000 </r>
       <r>   -3.5885    1.0000 </r>
       <r>   -2.8324    1.0000 </r>
       <r>   -0.8943    0.0000 </r>
       <r>    1.0231    0.0000 </r>
       <r>    2.6350    0.0000 </r>
       <r>    3.5485    0.0000 </r>
       <r>    5.0159    0.0000 </r>
      </set>
      <set comment="kpoint 29">
       <r>   -7.7808    1.0000 </r>
       <r>   -6.6706    1.0000 </r>
       <r>   -6.6310    1.0000 </r>
       <r>   -6.3527    1.0000 </r>
       <r>   -6.2778    1.0000 </r>
       <r>   -6.0369    1.0000 </r>
       <r>   -5.9477    1.0000 </r>
       <r>   -5.9140    1.0000 </r>
       <r>   -5.5247    1.0000 </r>
       <r>   -5.4679    1.0000 </r>
       <r>   -5.2837    1.0000 </r>
       <r>   -5.1271    1.0000 </r>
       <r>   -4.9895    1.0000 </r>
       <r>   -4.7547    1.0000 </r>
       <r>   -4.6338    1.0000 </r>
       <r>   -4.5156    1.0000 </r>
       <r>   -4.3260    1.0000 </r>
       <r>   -4.1488    1.0000 </r>
       <r>   -4.1032    1.0000 </r>
       <r>   -4.0010    1.0000 </r>
       <r>   -1.9289    0.0000 </r>
       <r>   -0.7768    0.0000 </r>
       <r>   -0.4379    0.0000 </r>
       <r>    0.0676    0.0000 </r>
       <r>    0.7405    0.0000 </r>
       <r>    2.4610    0.0000 </r>
       <r>    3.7946    0.0000 </r>
       <r>    5.0521    0.0000 </r>
      </set>
      <set comment="kpoint 30">
       <r>   -8.1733    1.0000 </r>
       <r>   -7.0335    1.0000 </r>
       <r>   -6.9062    1.0000 </r>
       <r>   -6.5285    1.0000 </r>
       <r>   -6.4619    1.0000 </r>
       <r>   -6.1797    1.0000 </r>
       <r>   -5.8174    1.0000 </r>
       <r>   -5.5983    1.0000 </r>
       <r>   -5.4201    1.0000 </r>
       <r>   -5.2974    1.0000 </r>
       <r>   -5.2628    1.0000 </r>
       <r>   -4.9338    1.0000 </r>
       <r>   -4.7591    1.0000 </r>
       <r>   -4.6438    1.0000 </r>
       <r>   -4.4457    1.0000 </r>
       <r>   -4.3054    1.0000 </r>
       <r>   -4.1777    1.0000 </r>
       <r>   -4.1193    1.0000 </r>
       <r>   -4.0559    1.0000 </r>
       <r>   -3.9164    1.0000 </r>
       <r>   -2.8936    1.0000 </r>
       <r>   -2.4401    0.7797 </r>
       <r>   -1.6499    0.0000 </r>
       <r>   -0.5187    0.0000 </r>
       <r>    0.2847    0.0000 </r>
       <r>    2.2210    0.0000 </r>
       <r>    3.3777    0.0000 </r>
       <r>    4.9493    0.0000 </r>
      </set>
      <set comment="kpoint 31">
       <r>   -8.2735    1.0000 </r>
       <r>   -7.1031    1.0000 </r>
       <r>   -7.0122    1.0000 </r>
       <r>   -6.6225    1.0000 </r>
       <r>   -6.5486    1.0000 </r>
       <r>   -6.2558    1.0000 </r>
       <r>   -5.7896    1.0000 </r>
       <r>   -5.4507    1.0000 </r>
       <r>   -5.3768    1.0000 </r>
       <r>   -5.3058    1.0000 </r>
       <r>   -5.0530    1.0000 </r>
       <r>   -5.0133    1.0000 </r>
       <r>   -4.5138    1.0000 </r>
       <r>   -4.4560    1.0000 </r>
       <r>   -4.2570    1.0000 </r>
       <r>   -4.1668    1.0000 </r>
       <r>   -4.0929    1.0000 </r>
       <r>   -4.0005    1.0000 </r>
       <r>   -3.9408    1.0000 </r>
       <r>   -3.7534    1.0000 </r>
       <r>   -2.6957    1.0000 </r>
       <r>   -2.4516    0.8248 </r>
       <r>   -1.6890    0.0000 </r>
       <r>   -1.2060    0.0000 </r>
       <r>   -0.8391    0.0000 </r>
       <r>    1.9164    0.0000 </r>
       <r>    3.0600    0.0000 </r>
       <r>    4.5451    0.0000 </r>
      </set>
     </set>
    </set>
   </array>
  </eigenvalues>
  <separator name="orbital magnetization" >
   <v name="MAGDIPOLOUT">      0.00000000      0.00000000      0.00000000</v>
  </separator>
  <dos>
   <i name="efermi">     -2.38554501 </i>
   <total>
    <array>
     <dimension dim="1">gridpoints</dimension>
     <dimension dim="2">spin</dimension>
     <field>energy</field>
     <field>total</field>
     <field>integrated</field>
     <set>
      <set comment="spin 1">
       <r>   -17.0000     0.0000     0.0000 </r>
       <r>   -16.9900     0.0000     0.0000 </r>
       <r>   -16.9800     0.0000     0.0000 </r>
       <r>   -16.9700     0.0000     0.0000 </r>
       <r>   -16.9600     0.0000     0.0000 </r>
       <r>   -16.9500     0.0000     0.0000 </r>
       <r>   -16.9400     0.0000     0.0000 </r>
       <r>   -16.9300     0.0000     0.0000 </r>
       <r>   -16.9200     0.0000     0.0000 </r>
       <r>   -16.9100     0.0000     0.0000 </r>
       <r>   -16.9000     0.0000     0.0000 </r>
       <r>   -16.8900     0.0000     0.0000 </r>
       <r>   -16.8800     0.0000     0.0000 </r>
       <r>   -16.8700     0.0000     0.0000 </r>
       <r>   -16.8600     0.0000     0.0000 </r>
       <r>   -16.8500     0.0000     0.0000 </r>
       <r>   -16.8400     0.0000     0.0000 </r>
       <r>   -16.8300     0.0000     0.0000 </r>
       <r>   -16.8200     0.0000     0.0000 </r>
       <r>   -16.8100     0.0000     0.0000 </r>
       <r>   -16.8000     0.0000     0.0000 </r>
       <r>   -16.7900     0.0000     0.0000 </r>
       <r>   -16.7800     0.0000     0.0000 </r>
       <r>   -16.7700     0.0000     0.0000 </r>
       <r>   -16.7600     0.0000     0.0000 </r>
       <r>   -16.7500     0.0000     0.0000 </r>
       <r>   -16.7400     0.0000     0.0000 </r>
       <r>   -16.7300     0.0000     0.0000 </r>
       <r>   -16.7200     0.0000     0.0000 </r>
       <r>   -16.7100     0.0000     0.0000 </r>
       <r>   -16.7000     0.0000     0.0000 </r>
       <r>   -16.6900     0.0000     0.0000 </r>
       <r>   -16.6800     0.0000     0.0000 </r>
       <r>   -16.6700     0.0000     0.0000 </r>
       <r>   -16.6600     0.0000     0.0000 </r>
       <r>   -16.6500     0.0000     0.0000 </r>
       <r>   -16.6400     0.0000     0.0000 </r>
       <r>   -16.6300     0.0000     0.0000 </r>
       <r>   -16.6200     0.0000     0.0000 </r>
       <r>   -16.6100     0.0000     0.0000 </r>
       <r>   -16.6000     0.0000     0.0000 </r>
       <r>   -16.5900     0.0000     0.0000 </r>
       <r>   -16.5800     0.0000     0.0000 </r>
       <r>   -16.5700     0.0000     0.0000 </r>
       <r>   -16.5600     0.0000     0.0000 </r>
       <r>   -16.5500     0.0000     0.0000 </r>
       <r>   -16.5400     0.0000     0.0000 </r>
       <r>   -16.5300     0.0000     0.0000 </r>
       <r>   -16.5200     0.0000     0.0000 </r>
       <r>   -16.5100     0.0000     0.0000 </r>
       <r>   -16.5000     0.0000     0.0000 </r>
       <r>   -16.4900     0.0000     0.0000 </r>
       <r>   -16.4800     0.0000     0.0000 </r>
       <r>   -16.4700     0.0000     0.0000 </r>
       <r>   -16.4600     0.0000     0.0000 </r>
       <r>   -16.4500     0.0000     0.0000 </r>
       <r>   -16.4400     0.0000     0.0000 </r>
       <r>   -16.4300     0.0000     0.0000 </r>
       <r>   -16.4200     0.0000     0.0000 </r>
       <r>   -16.4100     0.0000     0.0000 </r>
       <r>   -16.4000     0.0000     0.0000 </r>
       <r>   -16.3900     0.0000     0.0000 </r>
       <r>   -16.3800     0.0000     0.0000 </r>
       <r>   -16.3700     0.0000     0.0000 </r>
       <r>   -16.3600     0.0000     0.0000 </r>
       <r>   -16.3500     0.0000     0.0000 </r>
       <r>   -16.3400     0.0000     0.0000 </r>
       <r>   -16.3300     0.0000     0.0000 </r>
       <r>   -16.3200     0.0000     0.0000 </r>
       <r>   -16.3100     0.0000     0.0000 </r>
       <r>   -16.3000     0.0000     0.0000 </r>
       <r>   -16.2900     0.0000     0.0000 </r>
       <r>   -16.2800     0.0000     0.0000 </r>
       <r>   -16.2700     0.0000     0.0000 </r>
       <r>   -16.2600     0.0000     0.0000 </r>
       <r>   -16.2500     0.0000     0.0000 </r>
       <r>   -16.2400     0.0000     0.0000 </r>
       <r>   -16.2300     0.0000     0.0000 </r>
       <r>   -16.2200     0.0000     0.0000 </r>
       <r>   -16.2100     0.0000     0.0000 </r>
       <r>   -16.2000     0.0000     0.0000 </r>
       <r>   -16.1900     0.0000     0.0000 </r>
       <r>   -16.1800     0.0000     0.0000 </r>
       <r>   -16.1700     0.0000     0.0000 </r>
       <r>   -16.1600     0.0000     0.0000 </r>
       <r>   -16.1500     0.0000     0.0000 </r>
       <r>   -16.1400     0.0000     0.0000 </r>
       <r>   -16.1300     0.0000     0.0000 </r>
       <r>   -16.1200     0.0000     0.0000 </r>
       <r>   -16.1100     0.0000     0.0000 </r>
       <r>   -16.1000     0.0000     0.0000 </r>
       <r>   -16.0900     0.0000     0.0000 </r>
       <r>   -16.0800     0.0000     0.0000 </r>
       <r>   -16.0700     0.0000     0.0000 </r>
       <r>   -16.0600     0.0000     0.0000 </r>
       <r>   -16.0500     0.0000     0.0000 </r>
       <r>   -16.0400     0.0000     0.0000 </r>
       <r>   -16.0300     0.0000     0.0000 </r>
       <r>   -16.0200     0.0000     0.0000 </r>
       <r>   -16.0100     0.0000     0.0000 </r>
       <r>   -16.0000     0.0000     0.0000 </r>
       <r>   -15.9900     0.0000     0.0000 </r>
       <r>   -15.9800     0.0000     0.0000 </r>
       <r>   -15.9700     0.0000     0.0000 </r>
       <r>   -15.9600     0.0000     0.0000 </r>
       <r>   -15.9500     0.0000     0.0000 </r>
       <r>   -15.9400     0.0000     0.0000 </r>
       <r>   -15.9300     0.0000     0.0000 </r>
       <r>   -15.9200     0.0000     0.0000 </r>
       <r>   -15.9100     0.0000     0.0000 </r>
       <r>   -15.9000     0.0000     0.0000 </r>
       <r>   -15.8900     0.0000     0.0000 </r>
       <r>   -15.8800     0.0000     0.0000 </r>
       <r>   -15.8700     0.0000     0.0000 </r>
       <r>   -15.8600     0.0000     0.0000 </r>
       <r>   -15.8500     0.0000     0.0000 </r>
       <r>   -15.8400     0.0000     0.0000 </r>
       <r>   -15.8300     0.0000     0.0000 </r>
       <r>   -15.8200     0.0000     0.0000 </r>
       <r>   -15.8100     0.0000     0.0000 </r>
       <r>   -15.8000     0.0000     0.0000 </r>
       <r>   -15.7900     0.0000     0.0000 </r>
       <r>   -15.7800     0.0000     0.0000 </r>
       <r>   -15.7700     0.0000     0.0000 </r>
       <r>   -15.7600     0.0000     0.0000 </r>
       <r>   -15.7500     0.0000     0.0000 </r>
       <r>   -15.7400     0.0000     0.0000 </r>
       <r>   -15.7300     0.0000     0.0000 </r>
       <r>   -15.7200     0.0000     0.0000 </r>
       <r>   -15.7100     0.0000     0.0000 </r>
       <r>   -15.7000     0.0000     0.0000 </r>
       <r>   -15.6900     0.0000     0.0000 </r>
       <r>   -15.6800     0.0000     0.0000 </r>
       <r>   -15.6700     0.0000     0.0000 </r>
       <r>   -15.6600     0.0000     0.0000 </r>
       <r>   -15.6500     0.0000     0.0000 </r>
       <r>   -15.6400     0.0000     0.0000 </r>
       <r>   -15.6300     0.0000     0.0000 </r>
       <r>   -15.6200     0.0000     0.0000 </r>
       <r>   -15.6100     0.0000     0.0000 </r>
       <r>   -15.6000     0.0000     0.0000 </r>
       <r>   -15.5900     0.0000     0.0000 </r>
       <r>   -15.5800     0.0000     0.0000 </r>
       <r>   -15.5700     0.0000     0.0000 </r>
       <r>   -15.5600     0.0000     0.0000 </r>
       <r>   -15.5500     0.0000     0.0000 </r>
       <r>   -15.5400     0.0000     0.0000 </r>
       <r>   -15.5300     0.0000     0.0000 </r>
       <r>   -15.5200     0.0000     0.0000 </r>
       <r>   -15.5100     0.0000     0.0000 </r>
       <r>   -15.5000     0.0000     0.0000 </r>
       <r>   -15.4900     0.0000     0.0000 </r>
       <r>   -15.4800     0.0000     0.0000 </r>
       <r>   -15.4700     0.0000     0.0000 </r>
       <r>   -15.4600     0.0000     0.0000 </r>
       <r>   -15.4500     0.0000     0.0000 </r>
       <r>   -15.4400     0.0000     0.0000 </r>
       <r>   -15.4300     0.0000     0.0000 </r>
       <r>   -15.4200     0.0000     0.0000 </r>
       <r>   -15.4100     0.0000     0.0000 </r>
       <r>   -15.4000     0.0000     0.0000 </r>
       <r>   -15.3900     0.0000     0.0000 </r>
       <r>   -15.3800     0.0000     0.0000 </r>
       <r>   -15.3700     0.0000     0.0000 </r>
       <r>   -15.3600     0.0000     0.0000 </r>
       <r>   -15.3500     0.0000     0.0000 </r>
       <r>   -15.3400     0.0000     0.0000 </r>
       <r>   -15.3300     0.0000     0.0000 </r>
       <r>   -15.3200     0.0000     0.0000 </r>
       <r>   -15.3100     0.0000     0.0000 </r>
       <r>   -15.3000     0.0000     0.0000 </r>
       <r>   -15.2900     0.0000     0.0000 </r>
       <r>   -15.2800     0.0000     0.0000 </r>
       <r>   -15.2700     0.0000     0.0000 </r>
       <r>   -15.2600     0.0000     0.0000 </r>
       <r>   -15.2500     0.0000     0.0000 </r>
       <r>   -15.2400     0.0000     0.0000 </r>
       <r>   -15.2300     0.0000     0.0000 </r>
       <r>   -15.2200     0.0000     0.0000 </r>
       <r>   -15.2100     0.0000     0.0000 </r>
       <r>   -15.2000     0.0000     0.0000 </r>
       <r>   -15.1900     0.0000     0.0000 </r>
       <r>   -15.1800     0.0000     0.0000 </r>
       <r>   -15.1700     0.0000     0.0000 </r>
       <r>   -15.1600     0.0000     0.0000 </r>
       <r>   -15.1500     0.0000     0.0000 </r>
       <r>   -15.1400     0.0000     0.0000 </r>
       <r>   -15.1300     0.0000     0.0000 </r>
       <r>   -15.1200     0.0000     0.0000 </r>
       <r>   -15.1100     0.0000     0.0000 </r>
       <r>   -15.1000     0.0000     0.0000 </r>
       <r>   -15.0900     0.0000     0.0000 </r>
       <r>   -15.0800     0.0000     0.0000 </r>
       <r>   -15.0700     0.0000     0.0000 </r>
       <r>   -15.0600     0.0000     0.0000 </r>
       <r>   -15.0500     0.0000     0.0000 </r>
       <r>   -15.0400     0.0000     0.0000 </r>
       <r>   -15.0300     0.0000     0.0000 </r>
       <r>   -15.0200     0.0000     0.0000 </r>
       <r>   -15.0100     0.0000     0.0000 </r>
       <r>   -15.0000     0.0000     0.0000 </r>
       <r>   -14.9900     0.0000     0.0000 </r>
       <r>   -14.9800     0.0000     0.0000 </r>
       <r>   -14.9700     0.0000     0.0000 </r>
       <r>   -14.9600     0.0000     0.0000 </r>
       <r>   -14.9500     0.0000     0.0000 </r>
       <r>   -14.9400     0.0000     0.0000 </r>
       <r>   -14.9300     0.0000     0.0000 </r>
       <r>   -14.9200     0.0000     0.0000 </r>
       <r>   -14.9100     0.0000     0.0000 </r>
       <r>   -14.9000     0.0000     0.0000 </r>
       <r>   -14.8900     0.0000     0.0000 </r>
       <r>   -14.8800     0.0000     0.0000 </r>
       <r>   -14.8700     0.0000     0.0000 </r>
       <r>   -14.8600     0.0000     0.0000 </r>
       <r>   -14.8500     0.0000     0.0000 </r>
       <r>   -14.8400     0.0000     0.0000 </r>
       <r>   -14.8300     0.0000     0.0000 </r>
       <r>   -14.8200     0.0000     0.0000 </r>
       <r>   -14.8100     0.0000     0.0000 </r>
       <r>   -14.8000     0.0000     0.0000 </r>
       <r>   -14.7900     0.0000     0.0000 </r>
       <r>   -14.7800     0.0000     0.0000 </r>
       <r>   -14.7700     0.0000     0.0000 </r>
       <r>   -14.7600     0.0000     0.0000 </r>
       <r>   -14.7500     0.0000     0.0000 </r>
       <r>   -14.7400     0.0000     0.0000 </r>
       <r>   -14.7300     0.0000     0.0000 </r>
       <r>   -14.7200     0.0000     0.0000 </r>
       <r>   -14.7100     0.0000     0.0000 </r>
       <r>   -14.7000     0.0000     0.0000 </r>
       <r>   -14.6900     0.0000     0.0000 </r>
       <r>   -14.6800     0.0000     0.0000 </r>
       <r>   -14.6700     0.0000     0.0000 </r>
       <r>   -14.6600     0.0000     0.0000 </r>
       <r>   -14.6500     0.0000     0.0000 </r>
       <r>   -14.6400     0.0000     0.0000 </r>
       <r>   -14.6300     0.0000     0.0000 </r>
       <r>   -14.6200     0.0000     0.0000 </r>
       <r>   -14.6100     0.0000     0.0000 </r>
       <r>   -14.6000     0.0000     0.0000 </r>
       <r>   -14.5900     0.0000     0.0000 </r>
       <r>   -14.5800     0.0000     0.0000 </r>
       <r>   -14.5700     0.0000     0.0000 </r>
       <r>   -14.5600     0.0000     0.0000 </r>
       <r>   -14.5500     0.0000     0.0000 </r>
       <r>   -14.5400     0.0000     0.0000 </r>
       <r>   -14.5300     0.0000     0.0000 </r>
       <r>   -14.5200     0.0000     0.0000 </r>
       <r>   -14.5100     0.0000     0.0000 </r>
       <r>   -14.5000     0.0000     0.0000 </r>
       <r>   -14.4900     0.0000     0.0000 </r>
       <r>   -14.4800     0.0000     0.0000 </r>
       <r>   -14.4700     0.0000     0.0000 </r>
       <r>   -14.4600     0.0000     0.0000 </r>
       <r>   -14.4500     0.0000     0.0000 </r>
       <r>   -14.4400     0.0000     0.0000 </r>
       <r>   -14.4300     0.0000     0.0000 </r>
       <r>   -14.4200     0.0000     0.0000 </r>
       <r>   -14.4100     0.0000     0.0000 </r>
       <r>   -14.4000     0.0000     0.0000 </r>
       <r>   -14.3900     0.0000     0.0000 </r>
       <r>   -14.3800     0.0000     0.0000 </r>
       <r>   -14.3700     0.0000     0.0000 </r>
       <r>   -14.3600     0.0000     0.0000 </r>
       <r>   -14.3500     0.0000     0.0000 </r>
       <r>   -14.3400     0.0000     0.0000 </r>
       <r>   -14.3300     0.0000     0.0000 </r>
       <r>   -14.3200     0.0000     0.0000 </r>
       <r>   -14.3100     0.0000     0.0000 </r>
       <r>   -14.3000     0.0000     0.0000 </r>
       <r>   -14.2900     0.0000     0.0000 </r>
       <r>   -14.2800     0.0000     0.0000 </r>
       <r>   -14.2700     0.0000     0.0000 </r>
       <r>   -14.2600     0.0000     0.0000 </r>
       <r>   -14.2500     0.0000     0.0000 </r>
       <r>   -14.2400     0.0000     0.0000 </r>
       <r>   -14.2300     0.0000     0.0000 </r>
       <r>   -14.2200     0.0000     0.0000 </r>
       <r>   -14.2100     0.0000     0.0000 </r>
       <r>   -14.2000     0.0000     0.0000 </r>
       <r>   -14.1900     0.0000     0.0000 </r>
       <r>   -14.1800     0.0000     0.0000 </r>
       <r>   -14.1700     0.0000     0.0000 </r>
       <r>   -14.1600     0.0000     0.0000 </r>
       <r>   -14.1500     0.0000     0.0000 </r>
       <r>   -14.1400     0.0000     0.0000 </r>
       <r>   -14.1300     0.0000     0.0000 </r>
       <r>   -14.1200     0.0000     0.0000 </r>
       <r>   -14.1100     0.0000     0.0000 </r>
       <r>   -14.1000     0.0000     0.0000 </r>
       <r>   -14.0900     0.0000     0.0000 </r>
       <r>   -14.0800     0.0000     0.0000 </r>
       <r>   -14.0700     0.0000     0.0000 </r>
       <r>   -14.0600     0.0000     0.0000 </r>
       <r>   -14.0500     0.0000     0.0000 </r>
       <r>   -14.0400     0.0000     0.0000 </r>
       <r>   -14.0300     0.0000     0.0000 </r>
       <r>   -14.0200     0.0000     0.0000 </r>
       <r>   -14.0100     0.0000     0.0000 </r>
       <r>   -14.0000     0.0000     0.0000 </r>
       <r>   -13.9900     0.0000     0.0000 </r>
       <r>   -13.9800     0.0000     0.0000 </r>
       <r>   -13.9700     0.0000     0.0000 </r>
       <r>   -13.9600     0.0000     0.0000 </r>
       <r>   -13.9500     0.0000     0.0000 </r>
       <r>   -13.9400     0.0000     0.0000 </r>
       <r>   -13.9300     0.0000     0.0000 </r>
       <r>   -13.9200     0.0000     0.0000 </r>
       <r>   -13.9100     0.0000     0.0000 </r>
       <r>   -13.9000     0.0000     0.0000 </r>
       <r>   -13.8900     0.0000     0.0000 </r>
       <r>   -13.8800     0.0000     0.0000 </r>
       <r>   -13.8700     0.0000     0.0000 </r>
       <r>   -13.8600     0.0000     0.0000 </r>
       <r>   -13.8500     0.0000     0.0000 </r>
       <r>   -13.8400     0.0000     0.0000 </r>
       <r>   -13.8300     0.0000     0.0000 </r>
       <r>   -13.8200     0.0000     0.0000 </r>
[...]
        <r>  0.0002  0.0003  0.0007  0.0002  0.0149  0.0005  0.0969  0.0321  0.0134 </r>
        <r>  0.0000  0.0012  0.0008  0.0001  0.0568  0.0081  0.0036  0.0026  0.0019 </r>
        <r>  0.0012  0.0000  0.0000  0.0000  0.0000  0.0000  0.0000  0.0000  0.0000 </r>
       </set>
       <set comment="band 19">
        <r>  0.0012  0.0028  0.0009  0.0000  0.1109  0.0065  0.2055  0.0186  0.0246 </r>
        <r>  0.0001  0.0002  0.0001  0.0001  0.0776  0.0831  0.0427  0.0008  0.0122 </r>
        <r>  0.0003  0.0006  0.0005  0.0000  0.2178  0.0067  0.0859  0.0088  0.0131 </r>
        <r>  0.0001  0.0012  0.0001  0.0000  0.0425  0.0082  0.0012  0.0050  0.0010 </r>
        <r>  0.0002  0.0000  0.0000  0.0000  0.0000  0.0000  0.0000  0.0000  0.0000 </r>
       </set>
       <set comment="band 20">
        <r>  0.0016  0.0034  0.0003  0.0000  0.4486  0.0142  0.0508  0.0072  0.0080 </r>
        <r>  0.0000  0.0002  0.0004  0.0000  0.1187  0.0080  0.1457  0.0143  0.0332 </r>
        <r>  0.0000  0.0004  0.0001  0.0000  0.0768  0.0150  0.0088  0.0146  0.0059 </r>
        <r>  0.0000  0.0000  0.0003  0.0000  0.0023  0.0001  0.0029  0.0035  0.0008 </r>
        <r>  0.0001  0.0000  0.0000  0.0000  0.0000  0.0000  0.0000  0.0000  0.0000 </r>
       </set>
       <set comment="band 21">
        <r>  0.0011  0.0034  0.0005  0.0000  0.0084  0.0034  0.0074  0.0003  0.0030 </r>
        <r>  0.0025  0.0099  0.0011  0.0000  0.0157  0.0039  0.0060  0.0001  0.0028 </r>
        <r>  0.0074  0.0179  0.0050  0.0001  0.0257  0.0026  0.0288  0.0051  0.0181 </r>
        <r>  0.0605  0.0760  0.0085  0.0018  0.0875  0.0016  0.0654  0.0187  0.2288 </r>
        <r>  0.0718  0.0013  0.0000  0.0001  0.0000  0.0000  0.0000  0.0000  0.0000 </r>
       </set>
       <set comment="band 22">
        <r>  0.0150  0.0333  0.0043  0.0003  0.0368  0.0113  0.0341  0.0016  0.0247 </r>
        <r>  0.0349  0.0823  0.0018  0.0009  0.0651  0.0004  0.0300  0.0007  0.0444 </r>
        <r>  0.0252  0.0538  0.0030  0.0007  0.0452  0.0077  0.0380  0.0003  0.0349 </r>
        <r>  0.0070  0.0007  0.0194  0.0004  0.0007  0.0126  0.0053  0.0121  0.0407 </r>
        <r>  0.0385  0.0000  0.0000  0.0001  0.0000  0.0000  0.0000  0.0000  0.0000 </r>
       </set>
       <set comment="band 23">
        <r>  0.0322  0.0992  0.0008  0.0010  0.0437  0.0042  0.0042  0.0008  0.0228 </r>
        <r>  0.0153  0.0168  0.0223  0.0004  0.0064  0.0245  0.0184  0.0049  0.0168 </r>
        <r>  0.0222  0.0857  0.0064  0.0008  0.0322  0.0054  0.0048  0.0026  0.0133 </r>
        <r>  0.0008  0.0251  0.0355  0.0001  0.0068  0.0142  0.0000  0.0145  0.0192 </r>
        <r>  0.0503  0.0005  0.0001  0.0001  0.0000  0.0000  0.0000  0.0000  0.0000 </r>
       </set>
       <set comment="band 24">
        <r>  0.0117  0.0936  0.0059  0.0005  0.0177  0.0007  0.0074  0.0009  0.0048 </r>
        <r>  0.0043  0.0431  0.0160  0.0001  0.0070  0.0104  0.0093  0.0024  0.0033 </r>
        <r>  0.0094  0.0124  0.0283  0.0001  0.0017  0.0132  0.0106  0.0037  0.0082 </r>
        <r>  0.0142  0.1477  0.0070  0.0007  0.0212  0.0009  0.0190  0.0033  0.0471 </r>
        <r>  0.0376  0.0030  0.0000  0.0000  0.0000  0.0000  0.0000  0.0000  0.0000 </r>
       </set>
       <set comment="band 25">
        <r>  0.0127  0.0562  0.0132  0.0003  0.0068  0.0023  0.0130  0.0014  0.0116 </r>
        <r>  0.0138  0.1120  0.0143  0.0002  0.0119  0.0007  0.0304  0.0018  0.0222 </r>
        <r>  0.0163  0.0964  0.0172  0.0003  0.0101  0.0017  0.0301  0.0019  0.0240 </r>
        <r>  0.0223  0.0550  0.0074  0.0007  0.0055  0.0014  0.0144  0.0004  0.0252 </r>
        <r>  0.0030  0.0014  0.0000  0.0000  0.0000  0.0000  0.0000  0.0000  0.0000 </r>
       </set>
       <set comment="band 26">
        <r>  0.0876  0.0281  0.0103  0.0022  0.0016  0.0116  0.0092  0.0004  0.0410 </r>
        <r>  0.1431  0.0041  0.0006  0.0046  0.0002  0.0356  0.0059  0.0000  0.0638 </r>
        <r>  0.0914  0.0080  0.0044  0.0030  0.0004  0.0411  0.0048  0.0001  0.0433 </r>
        <r>  0.0196  0.0171  0.0204  0.0004  0.0010  0.0046  0.0028  0.0010  0.0081 </r>
        <r>  0.0028  0.0009  0.0002  0.0000  0.0000  0.0000  0.0000  0.0000  0.0000 </r>
       </set>
       <set comment="band 27">
        <r>  0.1716  0.0197  0.0363  0.0050  0.0008  0.0130  0.0054  0.0009  0.0649 </r>
        <r>  0.0052  0.0159  0.0288  0.0003  0.0008  0.0079  0.0006  0.0008  0.0008 </r>
        <r>  0.0813  0.0086  0.0009  0.0034  0.0004  0.0167  0.0012  0.0000  0.0322 </r>
        <r>  0.0120  0.0180  0.0131  0.0003  0.0009  0.0156  0.0007  0.0006  0.0046 </r>
        <r>  0.0026  0.0015  0.0002  0.0000  0.0000  0.0000  0.0000  0.0000  0.0000 </r>
       </set>
       <set comment="band 28">
        <r>  0.0233  0.0304  0.0655  0.0005  0.0011  0.0289  0.0012  0.0015  0.0093 </r>
        <r>  0.0479  0.0085  0.0173  0.0032  0.0003  0.0493  0.0004  0.0004  0.0197 </r>
        <r>  0.0005  0.0268  0.0510  0.0003  0.0010  0.0193  0.0012  0.0011  0.0009 </r>
        <r>  0.0455  0.0073  0.0278  0.0017  0.0003  0.0208  0.0000  0.0011  0.0134 </r>
        <r>  0.0032  0.0021  0.0009  0.0000  0.0000  0.0000  0.0000  0.0000  0.0000 </r>
       </set>
      </set>
      <set comment="kpoint 31">
       <set comment="band 1">
        <r>  0.0000  0.0000  0.0000  0.0000  0.0000  0.0000  0.0000  0.0000  0.0000 </r>
        <r>  0.0004  0.0001  0.0001  0.0000  0.0000  0.0003  0.0001  0.0000  0.0008 </r>
        <r>  0.0038  0.0024  0.0011  0.0000  0.0000  0.0171  0.0074  0.0000  0.0013 </r>
        <r>  0.1149  0.0004  0.0051  0.0000  0.0000  0.0046  0.0003  0.0000  0.5231 </r>
        <r>  0.1399  0.0000  0.0028  0.0000  0.0000  0.0000  0.0000  0.0000  0.0000 </r>
       </set>
       <set comment="band 2">
        <r>  0.0113  0.0018  0.0024  0.0000  0.0000  0.0154  0.0070  0.0000  0.0297 </r>
        <r>  0.0430  0.0017  0.0003  0.0000  0.0000  0.0997  0.0191  0.0000  0.1603 </r>
        <r>  0.0608  0.0025  0.0011  0.0000  0.0000  0.0075  0.0135  0.0000  0.2725 </r>
        <r>  0.0000  0.0042  0.0017  0.0000  0.0000  0.0616  0.0140  0.0000  0.0119 </r>
        <r>  0.0011  0.0000  0.0001  0.0000  0.0000  0.0000  0.0000  0.0000  0.0000 </r>
       </set>
       <set comment="band 3">
        <r>  0.0000  0.0064  0.0001  0.0000  0.0000  0.0672  0.0026  0.0000  0.0028 </r>
        <r>  0.0444  0.0014  0.0000  0.0000  0.0000  0.1108  0.0007  0.0000  0.2797 </r>
        <r>  0.0105  0.0043  0.0006  0.0000  0.0000  0.1739  0.0001  0.0000  0.0755 </r>
        <r>  0.0000  0.0022  0.0002  0.0000  0.0000  0.0576  0.0001  0.0000  0.0009 </r>
        <r>  0.0007  0.0000  0.0000  0.0000  0.0000  0.0000  0.0000  0.0000  0.0000 </r>
       </set>
       <set comment="band 4">
        <r>  0.0086  0.0007  0.0023  0.0000  0.0000  0.0106  0.0173  0.0000  0.0111 </r>
        <r>  0.0005  0.0006  0.0020  0.0000  0.0000  0.1421  0.0703  0.0000  0.1388 </r>
        <r>  0.0023  0.0000  0.0012  0.0000  0.0000  0.1295  0.0807  0.0000  0.2227 </r>
        <r>  0.0029  0.0003  0.0019  0.0000  0.0000  0.0103  0.0458  0.0000  0.0041 </r>
        <r>  0.0000  0.0000  0.0000  0.0000  0.0000  0.0000  0.0000  0.0000  0.0000 </r>
       </set>
       <set comment="band 5">
        <r>  0.0435  0.0003  0.0013  0.0000  0.0000  0.0073  0.0041  0.0000  0.4497 </r>
        <r>  0.0002  0.0125  0.0005  0.0000  0.0000  0.0647  0.0342  0.0000  0.0258 </r>
        <r>  0.0047  0.0014  0.0013  0.0000  0.0000  0.0479  0.0090  0.0000  0.0109 </r>
        <r>  0.0002  0.0022  0.0002  0.0000  0.0000  0.1392  0.0013  0.0000  0.0000 </r>
        <r>  0.0001  0.0002  0.0000  0.0000  0.0000  0.0000  0.0000  0.0000  0.0000 </r>
       </set>
       <set comment="band 6">
        <r>  0.0026  0.0049  0.0008  0.0000  0.0000  0.1324  0.0452  0.0000  0.1653 </r>
        <r>  0.0019  0.0004  0.0044  0.0000  0.0000  0.1299  0.0554  0.0000  0.0129 </r>
        <r>  0.0007  0.0117  0.0039  0.0000  0.0000  0.0440  0.0033  0.0000  0.0218 </r>
        <r>  0.0019  0.0007  0.0014  0.0000  0.0000  0.2155  0.0318  0.0000  0.0009 </r>
        <r>  0.0001  0.0003  0.0000  0.0000  0.0000  0.0000  0.0000  0.0000  0.0000 </r>
       </set>
       <set comment="band 7">
        <r>  0.0003  0.0019  0.0000  0.0000  0.0000  0.2199  0.0000  0.0000  0.0037 </r>
        <r>  0.0009  0.0121  0.0059  0.0000  0.0000  0.0055  0.0056  0.0000  0.0015 </r>
        <r>  0.0003  0.0007  0.0042  0.0000  0.0000  0.1961  0.0198  0.0000  0.0469 </r>
        <r>  0.0008  0.0009  0.0008  0.0000  0.0000  0.2805  0.0733  0.0000  0.0222 </r>
        <r>  0.0001  0.0007  0.0001  0.0000  0.0000  0.0000  0.0000  0.0000  0.0000 </r>
       </set>
       <set comment="band 8">
        <r>  0.0010  0.0001  0.0002  0.0000  0.0000  0.1664  0.0135  0.0000  0.0671 </r>
        <r>  0.0000  0.0062  0.0004  0.0000  0.0000  0.1259  0.1199  0.0000  0.1075 </r>
        <r>  0.0006  0.0022  0.0009  0.0000  0.0000  0.0374  0.1645  0.0000  0.0882 </r>
        <r>  0.0002  0.0000  0.0007  0.0000  0.0000  0.0006  0.0319  0.0000  0.0064 </r>
        <r>  0.0004  0.0000  0.0000  0.0000  0.0000  0.0000  0.0000  0.0000  0.0000 </r>
       </set>
       <set comment="band 9">
        <r>  0.0000  0.0000  0.0000  0.0002  0.0002  0.0000  0.0000  0.0202  0.0000 </r>
        <r>  0.0000  0.0000  0.0000  0.0002  0.0009  0.0000  0.0000  0.1447  0.0000 </r>
        <r>  0.0000  0.0000  0.0000  0.0001  0.0018  0.0000  0.0000  0.3001  0.0000 </r>
        <r>  0.0000  0.0000  0.0000  0.0001  0.0016  0.0000  0.0000  0.4951  0.0000 </r>
        <r>  0.0000  0.0000  0.0000  0.0018  0.0000  0.0000  0.0000  0.0000  0.0000 </r>
       </set>
       <set comment="band 10">
        <r>  0.0002  0.0001  0.0007  0.0000  0.0000  0.0462  0.0492  0.0000  0.0292 </r>
        <r>  0.0028  0.0095  0.0045  0.0000  0.0000  0.0070  0.1281  0.0000  0.0070 </r>
        <r>  0.0000  0.0298  0.0001  0.0000  0.0000  0.0482  0.0040  0.0000  0.0026 </r>
        <r>  0.0098  0.0001  0.0007  0.0000  0.0000  0.0046  0.5038  0.0000  0.0119 </r>
        <r>  0.0110  0.0000  0.0002  0.0000  0.0000  0.0000  0.0000  0.0000  0.0000 </r>
       </set>
       <set comment="band 11">
        <r>  0.0000  0.0000  0.0000  0.0006  0.0009  0.0000  0.0000  0.1582  0.0000 </r>
        <r>  0.0000  0.0000  0.0000  0.0001  0.0016  0.0000  0.0000  0.4420  0.0000 </r>
        <r>  0.0000  0.0000  0.0000  0.0015  0.0002  0.0000  0.0000  0.0294  0.0000 </r>
        <r>  0.0000  0.0000  0.0000  0.0001  0.0002  0.0000  0.0000  0.3355  0.0000 </r>
        <r>  0.0000  0.0000  0.0000  0.0013  0.0000  0.0000  0.0000  0.0000  0.0000 </r>
       </set>
       <set comment="band 12">
        <r>  0.0090  0.0005  0.0023  0.0000  0.0000  0.0496  0.2932  0.0000  0.0028 </r>
        <r>  0.0000  0.0373  0.0041  0.0000  0.0000  0.0124  0.0012  0.0000  0.0003 </r>
        <r>  0.0108  0.0000  0.0007  0.0000  0.0000  0.0091  0.3416  0.0000  0.0082 </r>
        <r>  0.0007  0.0129  0.0038  0.0000  0.0000  0.0525  0.0346  0.0000  0.0004 </r>
        <r>  0.0104  0.0004  0.0000  0.0000  0.0000  0.0000  0.0000  0.0000  0.0000 </r>
       </set>
       <set comment="band 13">
        <r>  0.0000  0.0000  0.0000  0.0001  0.0003  0.0000  0.0000  0.3820  0.0000 </r>
        <r>  0.0000  0.0000  0.0000  0.0021  0.0000  0.0000  0.0000  0.0107  0.0000 </r>
        <r>  0.0000  0.0000  0.0000  0.0001  0.0000  0.0000  0.0000  0.4555  0.0000 </r>
        <r>  0.0000  0.0000  0.0000  0.0006  0.0040  0.0000  0.0000  0.1234  0.0000 </r>
        <r>  0.0000  0.0000  0.0000  0.0005  0.0000  0.0000  0.0000  0.0000  0.0000 </r>
       </set>
       <set comment="band 14">
        <r>  0.0002  0.0149  0.0000  0.0000  0.0000  0.1455  0.0416  0.0000  0.0018 </r>
        <r>  0.0021  0.0002  0.0000  0.0000  0.0000  0.0454  0.3303  0.0000  0.0137 </r>
        <r>  0.0000  0.0113  0.0000  0.0000  0.0000  0.1406  0.0219  0.0000  0.0041 </r>
        <r>  0.0002  0.0064  0.0061  0.0000  0.0000  0.0310  0.1081  0.0000  0.0001 </r>
        <r>  0.0063  0.0003  0.0000  0.0000  0.0000  0.0000  0.0000  0.0000  0.0000 </r>
       </set>
       <set comment="band 15">
        <r>  0.0000  0.0000  0.0000  0.0000  0.0000  0.0000  0.0000  0.0068  0.0000 </r>
        <r>  0.0000  0.0000  0.0000  0.0000  0.0001  0.0000  0.0000  0.0019  0.0000 </r>
        <r>  0.0000  0.0000  0.0000  0.0000  0.0028  0.0000  0.0000  0.0012  0.0000 </r>
        <r>  0.0000  0.0000  0.0000  0.0000  0.9805  0.0000  0.0000  0.0006  0.0000 </r>
        <r>  0.0000  0.0000  0.0000  0.0000  0.0000  0.0000  0.0000  0.0000  0.0000 </r>
       </set>
       <set comment="band 16">
        <r>  0.0038  0.0017  0.0009  0.0000  0.0000  0.0066  0.3950  0.0000  0.0425 </r>
        <r>  0.0005  0.0043  0.0001  0.0000  0.0000  0.1052  0.0909  0.0000  0.0447 </r>
        <r>  0.0004  0.0003  0.0056  0.0000  0.0000  0.0010  0.1702  0.0000  0.0334 </r>
        <r>  0.0000  0.0163  0.0029  0.0000  0.0000  0.0124  0.0013  0.0000  0.0005 </r>
        <r>  0.0054  0.0003  0.0000  0.0000  0.0000  0.0000  0.0000  0.0000  0.0000 </r>
       </set>
       <set comment="band 17">
        <r>  0.0000  0.0000  0.0000  0.0003  0.0020  0.0000  0.0000  0.3535  0.0000 </r>
        <r>  0.0000  0.0000  0.0000  0.0001  0.0955  0.0000  0.0000  0.3339  0.0000 </r>
        <r>  0.0000  0.0000  0.0000  0.0003  0.0250  0.0000  0.0000  0.1600  0.0000 </r>
        <r>  0.0000  0.0000  0.0000  0.0002  0.0036  0.0000  0.0000  0.0146  0.0000 </r>
        <r>  0.0000  0.0000  0.0000  0.0001  0.0000  0.0000  0.0000  0.0000  0.0000 </r>
       </set>
       <set comment="band 18">
        <r>  0.0000  0.0000  0.0000  0.0000  0.0053  0.0000  0.0000  0.0112  0.0000 </r>
        <r>  0.0000  0.0000  0.0000  0.0000  0.5092  0.0000  0.0000  0.0007  0.0000 </r>
        <r>  0.0000  0.0000  0.0000  0.0000  0.4591  0.0000  0.0000  0.0068  0.0000 </r>
        <r>  0.0000  0.0000  0.0000  0.0000  0.0014  0.0000  0.0000  0.0000  0.0000 </r>
        <r>  0.0000  0.0000  0.0000  0.0000  0.0000  0.0000  0.0000  0.0000  0.0000 </r>
       </set>
       <set comment="band 19">
        <r>  0.0000  0.0000  0.0000  0.0001  0.0145  0.0000  0.0000  0.0421  0.0000 </r>
        <r>  0.0000  0.0000  0.0000  0.0000  0.3736  0.0000  0.0000  0.0340  0.0000 </r>
        <r>  0.0000  0.0000  0.0000  0.0000  0.5044  0.0000  0.0000  0.0190  0.0000 </r>
        <r>  0.0000  0.0000  0.0000  0.0000  0.0028  0.0000  0.0000  0.0038  0.0000 </r>
        <r>  0.0000  0.0000  0.0000  0.0000  0.0000  0.0000  0.0000  0.0000  0.0000 </r>
       </set>
       <set comment="band 20">
        <r>  0.0000  0.0000  0.0000  0.0000  0.9713  0.0000  0.0000  0.0013  0.0000 </r>
        <r>  0.0000  0.0000  0.0000  0.0000  0.0133  0.0000  0.0000  0.0060  0.0000 </r>
        <r>  0.0000  0.0000  0.0000  0.0000  0.0008  0.0000  0.0000  0.0016  0.0000 </r>
        <r>  0.0000  0.0000  0.0000  0.0000  0.0000  0.0000  0.0000  0.0001  0.0000 </r>
        <r>  0.0000  0.0000  0.0000  0.0000  0.0000  0.0000  0.0000  0.0000  0.0000 </r>
       </set>
       <set comment="band 21">
        <r>  0.0025  0.0416  0.0042  0.0000  0.0000  0.0175  0.0446  0.0000  0.0142 </r>
        <r>  0.0005  0.0869  0.0079  0.0000  0.0000  0.0068  0.0055  0.0000  0.0013 </r>
        <r>  0.0003  0.0938  0.0151  0.0000  0.0000  0.0001  0.0027  0.0000  0.0013 </r>
        <r>  0.0143  0.1207  0.0000  0.0000  0.0000  0.0036  0.0544  0.0000  0.0728 </r>
        <r>  0.0166  0.0022  0.0000  0.0000  0.0000  0.0000  0.0000  0.0000  0.0000 </r>
       </set>
       <set comment="band 22">
        <r>  0.0007  0.0189  0.0009  0.0000  0.0000  0.0050  0.0077  0.0000  0.0026 </r>
        <r>  0.0007  0.0243  0.0054  0.0000  0.0000  0.0002  0.0040  0.0000  0.0027 </r>
        <r>  0.0049  0.0483  0.0001  0.0000  0.0000  0.0006  0.0322  0.0000  0.0142 </r>
        <r>  0.0380  0.0027  0.0620  0.0000  0.0000  0.0132  0.0331  0.0000  0.2366 </r>
        <r>  0.1771  0.0000  0.0000  0.0000  0.0000  0.0000  0.0000  0.0000  0.0000 </r>
       </set>
       <set comment="band 23">
        <r>  0.0034  0.0829  0.0026  0.0000  0.0000  0.0049  0.0105  0.0000  0.0069 </r>
        <r>  0.0209  0.0664  0.0000  0.0000  0.0000  0.0095  0.0450  0.0000  0.0343 </r>
        <r>  0.0368  0.0214  0.0000  0.0000  0.0000  0.0173  0.0801  0.0000  0.0623 </r>
        <r>  0.0064  0.1171  0.0072  0.0000  0.0000  0.0007  0.0021  0.0000  0.0188 </r>
        <r>  0.0143  0.0027  0.0000  0.0000  0.0000  0.0000  0.0000  0.0000  0.0000 </r>
       </set>
       <set comment="band 24">
        <r>  0.0005  0.0675  0.0003  0.0000  0.0000  0.0007  0.0007  0.0000  0.0007 </r>
        <r>  0.0529  0.0001  0.0004  0.0000  0.0000  0.0088  0.0638  0.0000  0.0677 </r>
        <r>  0.0136  0.1054  0.0180  0.0000  0.0000  0.0015  0.0168  0.0000  0.0180 </r>
        <r>  0.0430  0.1033  0.0072  0.0000  0.0000  0.0014  0.0330  0.0000  0.0552 </r>
        <r>  0.0014  0.0023  0.0000  0.0000  0.0000  0.0000  0.0000  0.0000  0.0000 </r>
       </set>
       <set comment="band 25">
        <r>  0.0355  0.1571  0.0161  0.0000  0.0000  0.0000  0.0362  0.0000  0.0448 </r>
        <r>  0.0055  0.1171  0.0517  0.0000  0.0000  0.0009  0.0048  0.0000  0.0054 </r>
        <r>  0.0106  0.0491  0.0256  0.0000  0.0000  0.0017  0.0086  0.0000  0.0116 </r>
        <r>  0.0111  0.0113  0.0051  0.0000  0.0000  0.0008  0.0073  0.0000  0.0105 </r>
        <r>  0.0001  0.0003  0.0000  0.0000  0.0000  0.0000  0.0000  0.0000  0.0000 </r>
       </set>
       <set comment="band 26">
        <r>  0.1114  0.0234  0.0007  0.0000  0.0000  0.0073  0.0082  0.0000  0.0514 </r>
        <r>  0.1093  0.0000  0.0034  0.0000  0.0000  0.0608  0.0049  0.0000  0.0531 </r>
        <r>  0.1383  0.0018  0.0037  0.0000  0.0000  0.0373  0.0070  0.0000  0.0648 </r>
        <r>  0.0147  0.0143  0.0174  0.0000  0.0000  0.0076  0.0014  0.0000  0.0049 </r>
        <r>  0.0024  0.0008  0.0001  0.0000  0.0000  0.0000  0.0000  0.0000  0.0000 </r>
       </set>
       <set comment="band 27">
        <r>  0.2191  0.0020  0.0377  0.0000  0.0000  0.0012  0.0039  0.0000  0.0793 </r>
        <r>  0.0117  0.0373  0.0090  0.0000  0.0000  0.0039  0.0002  0.0000  0.0039 </r>
        <r>  0.0404  0.0004  0.0085  0.0000  0.0000  0.0397  0.0002  0.0000  0.0166 </r>
        <r>  0.0268  0.0098  0.0246  0.0000  0.0000  0.0099  0.0008  0.0000  0.0077 </r>
        <r>  0.0035  0.0009  0.0003  0.0000  0.0000  0.0000  0.0000  0.0000  0.0000 </r>
       </set>
       <set comment="band 28">
        <r>  0.0076  0.0248  0.0536  0.0000  0.0000  0.0405  0.0001  0.0000  0.0015 </r>
        <r>  0.1408  0.0032  0.0098  0.0000  0.0000  0.0066  0.0002  0.0000  0.0458 </r>
        <r>  0.0509  0.0331  0.0367  0.0000  0.0000  0.0002  0.0000  0.0000  0.0155 </r>
        <r>  0.0087  0.0127  0.0104  0.0000  0.0000  0.0562  0.0000  0.0000  0.0027 </r>
        <r>  0.0008  0.0037  0.0001  0.0000  0.0000  0.0000  0.0000  0.0000  0.0000 </r>
       </set>
      </set>
     </set>
    </set>
   </array>
  </projected>
 </calculation>
 <structure name="finalpos" >
  <crystal>
   <varray name="basis" >
    <v>       2.57386868       0.00000000       0.00000000 </v>
    <v>       1.28693434       2.22903567       0.00000000 </v>
    <v>       0.00000000       0.00000000      30.30466494 </v>
   </varray>
   <i name="volume">    173.86529028 </i>
   <varray name="rec_basis" >
    <v>       0.38852021      -0.22431225       0.00000000 </v>
    <v>       0.00000000       0.44862450       0.00000000 </v>
    <v>       0.00000000       0.00000000       0.03299822 </v>
   </varray>
  </crystal>
  <varray name="positions" >
   <v>       0.99970615       0.00058770       0.39656700 </v>
   <v>       0.33318627       0.33362409       0.46513961 </v>
   <v>       0.66582910       0.66834283       0.53359442 </v>
   <v>       0.00080079       0.99839841       0.60421589 </v>
   <v>       0.47708930       0.04581802       0.63750284 </v>
  </varray>
 </structure>
</modeling>
