unknown system                          
           1
     2.573869    0.000000    0.000000
     1.286934    2.229036    0.000000
     0.000000    0.000000   30.304665
   Cu   H 
   4   1
Direct configuration=     1
   0.99970615  0.00058770  0.39656700
   0.33318627  0.33362409  0.46513961
   0.66582910  0.66834283  0.53359442
   0.00080079  0.99839841  0.60421589
   0.47708930  0.04581802  0.63750284
