  20  20   0   0
  0.1957362E+02  0.3905268E-09  0.3905268E-09  0.2566844E-08  0.5000000E-15
  1.000000000000000E-004
  CAR 
 unknown system                          
      9.90227564    -35.86324864  301      0.63475697      1.00000000
    -35.863  0.0000E+00  0.0000E+00
    -35.711  0.0000E+00  0.0000E+00
    -35.558  0.0000E+00  0.0000E+00
    -35.406  0.0000E+00  0.0000E+00
    -35.253  0.0000E+00  0.0000E+00
    -35.100  0.0000E+00  0.0000E+00
    -34.948  0.0000E+00  0.0000E+00
    -34.795  0.0000E+00  0.0000E+00
    -34.643  0.0000E+00  0.0000E+00
    -34.490  0.0000E+00  0.0000E+00
    -34.338  0.0000E+00  0.0000E+00
    -34.185  0.0000E+00  0.0000E+00
    -34.033  0.0000E+00  0.0000E+00
    -33.880  0.0000E+00  0.0000E+00
    -33.728  0.0000E+00  0.2000E+01
    -33.575  0.0000E+00  0.2000E+01
    -33.422  0.0000E+00  0.2000E+01
    -33.270  0.0000E+00  0.2000E+01
    -33.117  0.0000E+00  0.2000E+01
    -32.965  0.0000E+00  0.2000E+01
    -32.812  0.0000E+00  0.2000E+01
    -32.660  0.2050E+02  0.6022E+01
    -32.507  0.0000E+00  0.8000E+01
    -32.355  0.0000E+00  0.8000E+01
    -32.202  0.0000E+00  0.8000E+01
    -32.049  0.0000E+00  0.8000E+01
    -31.897  0.0000E+00  0.8000E+01
    -31.744  0.0000E+00  0.8000E+01
    -31.592  0.0000E+00  0.8000E+01
    -31.439  0.0000E+00  0.8000E+01
    -31.287  0.0000E+00  0.8000E+01
    -31.134  0.0000E+00  0.8000E+01
    -30.982  0.0000E+00  0.8000E+01
    -30.829  0.0000E+00  0.8000E+01
    -30.676  0.0000E+00  0.8000E+01
    -30.524  0.0000E+00  0.8000E+01
    -30.371  0.0000E+00  0.8000E+01
    -30.219  0.0000E+00  0.8000E+01
    -30.066  0.0000E+00  0.8000E+01
    -29.914  0.0000E+00  0.8000E+01
    -29.761  0.0000E+00  0.8000E+01
    -29.609  0.0000E+00  0.8000E+01
    -29.456  0.0000E+00  0.8000E+01
    -29.304  0.0000E+00  0.8000E+01
    -29.151  0.0000E+00  0.8000E+01
    -28.998  0.0000E+00  0.8000E+01
    -28.846  0.0000E+00  0.8000E+01
    -28.693  0.0000E+00  0.8000E+01
    -28.541  0.0000E+00  0.8000E+01
    -28.388  0.0000E+00  0.8000E+01
    -28.236  0.0000E+00  0.8000E+01
    -28.083  0.0000E+00  0.8000E+01
    -27.931  0.0000E+00  0.8000E+01
    -27.778  0.0000E+00  0.8000E+01
    -27.625  0.0000E+00  0.8000E+01
    -27.473  0.0000E+00  0.8000E+01
    -27.320  0.0000E+00  0.8000E+01
    -27.168  0.0000E+00  0.8000E+01
    -27.015  0.0000E+00  0.8000E+01
    -26.863  0.0000E+00  0.8000E+01
    -26.710  0.0000E+00  0.8000E+01
    -26.558  0.0000E+00  0.8000E+01
    -26.405  0.0000E+00  0.8000E+01
    -26.252  0.0000E+00  0.8000E+01
    -26.100  0.0000E+00  0.8000E+01
    -25.947  0.0000E+00  0.8000E+01
    -25.795  0.0000E+00  0.8000E+01
    -25.642  0.0000E+00  0.8000E+01
    -25.490  0.0000E+00  0.8000E+01
    -25.337  0.0000E+00  0.8000E+01
    -25.185  0.0000E+00  0.8000E+01
    -25.032  0.0000E+00  0.8000E+01
    -24.880  0.0000E+00  0.8000E+01
    -24.727  0.0000E+00  0.8000E+01
    -24.574  0.0000E+00  0.8000E+01
    -24.422  0.0000E+00  0.8000E+01
    -24.269  0.0000E+00  0.8000E+01
    -24.117  0.0000E+00  0.8000E+01
    -23.964  0.0000E+00  0.8000E+01
    -23.812  0.0000E+00  0.8000E+01
    -23.659  0.0000E+00  0.8000E+01
    -23.507  0.0000E+00  0.8000E+01
    -23.354  0.0000E+00  0.8000E+01
    -23.201  0.0000E+00  0.8000E+01
    -23.049  0.0000E+00  0.8000E+01
    -22.896  0.0000E+00  0.8000E+01
    -22.744  0.0000E+00  0.8000E+01
    -22.591  0.0000E+00  0.8000E+01
    -22.439  0.0000E+00  0.8000E+01
    -22.286  0.0000E+00  0.8000E+01
    -22.134  0.0000E+00  0.8000E+01
    -21.981  0.0000E+00  0.8000E+01
    -21.828  0.0000E+00  0.8000E+01
    -21.676  0.0000E+00  0.8000E+01
    -21.523  0.0000E+00  0.8000E+01
    -21.371  0.0000E+00  0.8000E+01
    -21.218  0.0000E+00  0.8000E+01
    -21.066  0.0000E+00  0.8000E+01
    -20.913  0.0000E+00  0.8000E+01
    -20.761  0.0000E+00  0.8000E+01
    -20.608  0.0000E+00  0.8000E+01
    -20.456  0.0000E+00  0.8000E+01
    -20.303  0.0000E+00  0.8000E+01
    -20.150  0.0000E+00  0.8000E+01
    -19.998  0.0000E+00  0.8000E+01
    -19.845  0.0000E+00  0.8000E+01
    -19.693  0.0000E+00  0.8000E+01
    -19.540  0.0000E+00  0.8000E+01
    -19.388  0.0000E+00  0.8000E+01
    -19.235  0.0000E+00  0.8000E+01
    -19.083  0.0000E+00  0.8000E+01
    -18.930  0.0000E+00  0.8000E+01
    -18.777  0.0000E+00  0.8000E+01
    -18.625  0.0000E+00  0.8000E+01
    -18.472  0.0000E+00  0.8000E+01
    -18.320  0.0000E+00  0.8000E+01
    -18.167  0.0000E+00  0.8000E+01
    -18.015  0.0000E+00  0.8000E+01
    -17.862  0.0000E+00  0.8000E+01
    -17.710  0.8266E-01  0.8000E+01
    -17.557  0.1019E+02  0.9035E+01
    -17.404  0.1229E+02  0.1067E+02
    -17.252  0.6722E+01  0.1194E+02
    -17.099  0.4376E+01  0.1297E+02
    -16.947  0.7194E+01  0.1432E+02
    -16.794  0.3969E+01  0.1534E+02
    -16.642  0.4666E+02  0.1731E+02
    -16.489  0.8383E+02  0.2251E+02
    -16.337  0.4396E+01  0.2647E+02
    -16.184  0.1864E+02  0.2814E+02
    -16.032  0.6135E+01  0.2957E+02
    -15.879  0.8367E+00  0.3195E+02
    -15.726  0.1361E+02  0.3337E+02
    -15.574  0.4531E-01  0.3600E+02
    -15.421  0.3005E+00  0.3603E+02
    -15.269  0.1376E+01  0.3621E+02
    -15.116  0.2557E+01  0.3653E+02
    -14.964  0.9834E+01  0.3731E+02
    -14.811  0.2065E+02  0.4054E+02
    -14.659  0.2626E+02  0.4610E+02
    -14.506  0.2498E+02  0.5027E+02
    -14.353  0.1825E+02  0.5514E+02
    -14.201  0.0000E+00  0.5600E+02
    -14.048  0.0000E+00  0.5600E+02
    -13.896  0.0000E+00  0.5600E+02
    -13.743  0.0000E+00  0.5600E+02
    -13.591  0.0000E+00  0.5600E+02
    -13.438  0.0000E+00  0.5600E+02
    -13.286  0.0000E+00  0.5600E+02
    -13.133  0.0000E+00  0.5600E+02
    -12.980  0.0000E+00  0.5600E+02
    -12.828  0.0000E+00  0.5600E+02
    -12.675  0.0000E+00  0.5600E+02
    -12.523  0.0000E+00  0.5600E+02
    -12.370  0.0000E+00  0.5600E+02
    -12.218  0.0000E+00  0.5600E+02
    -12.065  0.0000E+00  0.5600E+02
    -11.913  0.0000E+00  0.5600E+02
    -11.760  0.0000E+00  0.5600E+02
    -11.608  0.0000E+00  0.5600E+02
    -11.455  0.0000E+00  0.5600E+02
    -11.302  0.0000E+00  0.5600E+02
    -11.150  0.0000E+00  0.5600E+02
    -10.997  0.0000E+00  0.5600E+02
    -10.845  0.0000E+00  0.5600E+02
    -10.692  0.0000E+00  0.5600E+02
    -10.540  0.0000E+00  0.5600E+02
    -10.387  0.0000E+00  0.5600E+02
    -10.235  0.0000E+00  0.5600E+02
    -10.082  0.0000E+00  0.5600E+02
     -9.929  0.0000E+00  0.5600E+02
     -9.777  0.0000E+00  0.5600E+02
     -9.624  0.0000E+00  0.5600E+02
     -9.472  0.0000E+00  0.5600E+02
     -9.319  0.0000E+00  0.5600E+02
     -9.167  0.0000E+00  0.5600E+02
     -9.014  0.0000E+00  0.5600E+02
     -8.862  0.0000E+00  0.5600E+02
     -8.709  0.0000E+00  0.5600E+02
     -8.556  0.0000E+00  0.5600E+02
     -8.404  0.0000E+00  0.5600E+02
     -8.251  0.0000E+00  0.5600E+02
     -8.099  0.0000E+00  0.5600E+02
     -7.946  0.0000E+00  0.5600E+02
     -7.794  0.0000E+00  0.5600E+02
     -7.641  0.0000E+00  0.5600E+02
     -7.489  0.0000E+00  0.5600E+02
     -7.336  0.0000E+00  0.5600E+02
     -7.184  0.0000E+00  0.5600E+02
     -7.031  0.0000E+00  0.5600E+02
     -6.878  0.0000E+00  0.5600E+02
     -6.726  0.0000E+00  0.5600E+02
     -6.573  0.0000E+00  0.5600E+02
     -6.421  0.0000E+00  0.5600E+02
     -6.268  0.0000E+00  0.5600E+02
     -6.116  0.0000E+00  0.5600E+02
     -5.963  0.0000E+00  0.5600E+02
     -5.811  0.0000E+00  0.5600E+02
     -5.658  0.0000E+00  0.5600E+02
     -5.505  0.0000E+00  0.5600E+02
     -5.353  0.0000E+00  0.5600E+02
     -5.200  0.0000E+00  0.5600E+02
     -5.048  0.0000E+00  0.5600E+02
     -4.895  0.0000E+00  0.5600E+02
     -4.743  0.0000E+00  0.5600E+02
     -4.590  0.1710E+01  0.5607E+02
     -4.438  0.1001E+02  0.5730E+02
     -4.285  0.1791E+02  0.5970E+02
     -4.132  0.1650E+02  0.6219E+02
     -3.980  0.1384E+02  0.6457E+02
     -3.827  0.1327E+02  0.6683E+02
     -3.675  0.1479E+02  0.6918E+02
     -3.522  0.1749E+02  0.7175E+02
     -3.370  0.1947E+02  0.7479E+02
     -3.217  0.2203E+02  0.7794E+02
     -3.065  0.2741E+02  0.8192E+02
     -2.912  0.1969E+02  0.8543E+02
     -2.760  0.1160E+02  0.8774E+02
     -2.607  0.1406E+02  0.8995E+02
     -2.454  0.1136E+02  0.9191E+02
     -2.302  0.1291E+02  0.9382E+02
     -2.149  0.1049E+02  0.9577E+02
     -1.997  0.1002E+02  0.9743E+02
     -1.844  0.1011E+02  0.9901E+02
     -1.692  0.2287E+02  0.1008E+03
     -1.539  0.1116E+02  0.1027E+03
     -1.387  0.1338E+02  0.1052E+03
     -1.234  0.2065E+02  0.1086E+03
     -1.081  0.2128E+02  0.1116E+03
     -0.929  0.2109E+02  0.1156E+03
     -0.776  0.1019E+02  0.1179E+03
     -0.624  0.2064E+02  0.1209E+03
     -0.471  0.1679E+02  0.1237E+03
     -0.319  0.1162E+02  0.1256E+03
     -0.166  0.5029E+01  0.1271E+03
     -0.014  0.1235E+01  0.1274E+03
      0.139  0.1163E+01  0.1276E+03
      0.292  0.9005E+00  0.1278E+03
      0.444  0.6518E+00  0.1279E+03
      0.597  0.0000E+00  0.1280E+03
      0.749  0.0000E+00  0.1280E+03
      0.902  0.0000E+00  0.1280E+03
      1.054  0.0000E+00  0.1280E+03
      1.207  0.0000E+00  0.1280E+03
      1.359  0.0000E+00  0.1280E+03
      1.512  0.0000E+00  0.1280E+03
      1.664  0.4817E+00  0.1280E+03
      1.817  0.2855E+01  0.1282E+03
      1.970  0.3740E+01  0.1288E+03
      2.122  0.4299E+01  0.1294E+03
      2.275  0.4132E+01  0.1300E+03
      2.427  0.8203E+01  0.1310E+03
      2.580  0.7116E+01  0.1322E+03
      2.732  0.8093E+01  0.1332E+03
      2.885  0.9351E+01  0.1345E+03
      3.037  0.1210E+02  0.1361E+03
      3.190  0.1178E+02  0.1379E+03
      3.343  0.1264E+02  0.1397E+03
      3.495  0.1620E+02  0.1425E+03
      3.648  0.1824E+02  0.1453E+03
      3.800  0.1198E+02  0.1473E+03
      3.953  0.4818E+01  0.1487E+03
      4.105  0.4721E+00  0.1491E+03
      4.258  0.4666E+00  0.1492E+03
      4.410  0.4612E+00  0.1493E+03
      4.563  0.4557E+00  0.1494E+03
      4.716  0.4503E+00  0.1494E+03
      4.868  0.4448E+00  0.1495E+03
      5.021  0.4394E+00  0.1496E+03
      5.173  0.4340E+00  0.1496E+03
      5.326  0.4285E+00  0.1497E+03
      5.478  0.3083E+00  0.1498E+03
      5.631  0.3294E+00  0.1498E+03
      5.783  0.6182E+00  0.1499E+03
      5.936  0.8735E+00  0.1500E+03
      6.088  0.8277E+00  0.1502E+03
      6.241  0.7900E+00  0.1503E+03
      6.394  0.7887E+00  0.1504E+03
      6.546  0.7875E+00  0.1505E+03
      6.699  0.7930E+00  0.1506E+03
      6.851  0.8009E+00  0.1508E+03
      7.004  0.8088E+00  0.1509E+03
      7.156  0.7202E+00  0.1510E+03
      7.309  0.7153E+00  0.1511E+03
      7.461  0.1369E+01  0.1513E+03
      7.614  0.1742E+01  0.1516E+03
      7.767  0.2172E+01  0.1519E+03
      7.919  0.0000E+00  0.1520E+03
      8.072  0.0000E+00  0.1520E+03
      8.224  0.0000E+00  0.1520E+03
      8.377  0.0000E+00  0.1520E+03
      8.529  0.0000E+00  0.1520E+03
      8.682  0.0000E+00  0.1520E+03
      8.834  0.0000E+00  0.1520E+03
      8.987  0.0000E+00  0.1520E+03
      9.140  0.0000E+00  0.1520E+03
      9.292  0.0000E+00  0.1520E+03
      9.445  0.0000E+00  0.1520E+03
      9.597  0.0000E+00  0.1520E+03
      9.750  0.0000E+00  0.1520E+03
      9.902  0.0000E+00  0.1520E+03
