       N       E                     dE             d eps       ncg     rms          rms(c)
DAV:   1     0.203172642835E+04    0.20317E+04   -0.73162E+04  1520   0.227E+03
DAV:   2     0.306777490551E+03   -0.17249E+04   -0.16381E+04  1732   0.493E+02
DAV:   3    -0.153369013993E+03   -0.46015E+03   -0.44404E+03  1932   0.232E+02
DAV:   4    -0.199784168911E+03   -0.46415E+02   -0.46200E+02  2008   0.739E+01
DAV:   5    -0.201807340508E+03   -0.20232E+01   -0.20215E+01  2328   0.174E+01    0.371E+01
RMM:   6    -0.161333151222E+03    0.40474E+02   -0.28315E+02  1701   0.507E+01    0.136E+01
RMM:   7    -0.157763645472E+03    0.35695E+01   -0.12349E+01  1877   0.134E+01    0.705E+00
RMM:   8    -0.157035828389E+03    0.72782E+00   -0.32855E+00  2046   0.624E+00    0.313E+00
RMM:   9    -0.156834887093E+03    0.20094E+00   -0.13365E+00  2141   0.409E+00    0.100E+00
RMM:  10    -0.156795312227E+03    0.39575E-01   -0.25345E-01  2444   0.138E+00    0.590E-01
RMM:  11    -0.156774541408E+03    0.20771E-01   -0.15914E-01  2402   0.102E+00    0.409E-01
RMM:  12    -0.156762623736E+03    0.11918E-01   -0.54217E-02  2493   0.568E-01    0.325E-01
RMM:  13    -0.156757042558E+03    0.55812E-02   -0.22666E-02  2567   0.403E-01    0.166E-01
RMM:  14    -0.156752693916E+03    0.43486E-02   -0.23583E-02  2265   0.417E-01    0.159E-01
RMM:  15    -0.156751928193E+03    0.76572E-03   -0.67574E-03  2534   0.201E-01    0.694E-02
RMM:  16    -0.156753289206E+03   -0.13610E-02   -0.67971E-03  2389   0.189E-01    0.111E-01
RMM:  17    -0.156753711780E+03   -0.42257E-03   -0.30038E-03  2272   0.153E-01    0.327E-02
RMM:  18    -0.156754529133E+03   -0.81735E-03   -0.75869E-04  2268   0.699E-02    0.190E-02
RMM:  19    -0.156755930308E+03   -0.14012E-02   -0.53169E-04  2082   0.445E-02    0.956E-03
RMM:  20    -0.156756501205E+03   -0.57090E-03   -0.23641E-04  1738   0.287E-02    0.724E-03
RMM:  21    -0.156756777035E+03   -0.27583E-03   -0.14306E-04  1755   0.239E-02    0.501E-03
RMM:  22    -0.156756828004E+03   -0.50969E-04   -0.41371E-05  1402   0.153E-02    0.252E-03
RMM:  23    -0.156756847484E+03   -0.19480E-04   -0.24565E-05  1289   0.131E-02    0.187E-03
RMM:  24    -0.156756853501E+03   -0.60172E-05   -0.10914E-05  1147   0.109E-02
   1 F= -.15675685E+03 E0= -.15675685E+03  d E =0.000000E+00
