 vasp.5.4.4.18Apr17-6-g9f103f2a35 (build Jun 30 2017 11:15:00) complex          
  
 executed on    STALLO_VASP_5.4.4 date 2019.11.06  13:29:58
 running on    4 total cores
 distrk:  each k-point on    4 cores,    1 groups
 distr:  one band on NCORES_PER_BAND=   2 cores,    2 groups


--------------------------------------------------------------------------------------------------------


 INCAR:
 POTCAR:   PAW_PBE O 08Apr2002                    
 POTCAR:   PAW_PBE Sr_sv 07Sep2000                
 POTCAR:   PAW_PBE Ti 08Apr2002                   
 POTCAR:   PAW_PBE O 08Apr2002                    
   VRHFIN =O: s2p4                                                              
   LEXCH  = PE                                                                  
   EATOM  =   432.3788 eV,   31.7789 Ry                                         
                                                                                
   TITEL  = PAW_PBE O 08Apr2002                                                 
   LULTRA =        F    use ultrasoft PP ?                                      
   IUNSCR =        0    unscreen: 0-lin 1-nonlin 2-no                           
   RPACOR =     .000    partial core radius                                     
   POMASS =   16.000; ZVAL   =    6.000    mass and valenz                      
   RCORE  =    1.520    outmost cutoff radius                                   
   RWIGS  =    1.550; RWIGS  =     .820    wigner-seitz radius (au A)           
   ENMAX  =  400.000; ENMIN  =  300.000 eV                                      
   ICORE  =        2    local potential                                         
   LCOR   =        T    correct aug charges                                     
   LPAW   =        T    paw PP                                                  
   EAUG   =  605.392                                                            
   DEXC   =     .000                                                            
   RMAX   =    2.264    core radius for proj-oper                               
   RAUG   =    1.300    factor for augmentation sphere                          
   RDEP   =    1.550    radius for radial grids                                 
   QCUT   =   -5.520; QGAM   =   11.041    optimization parameters              
                                                                                
   Description                                                                  
     l     E      TYP  RCUT    TYP  RCUT                                        
     0   .000     23  1.200                                                     
     0  -.700     23  1.200                                                     
     1   .000     23  1.520                                                     
     1   .600     23  1.520                                                     
     2   .000      7  1.500                                                     
  local pseudopotential read in
  atomic valenz-charges read in
  non local Contribution for L=           0  read in
    real space projection operators read in
  non local Contribution for L=           0  read in
    real space projection operators read in
  non local Contribution for L=           1  read in
    real space projection operators read in
  non local Contribution for L=           1  read in
    real space projection operators read in
    PAW grid and wavefunctions read in
 
   number of l-projection  operators is LMAX  =           4
   number of lm-projection operators is LMMAX =           8
 
 POTCAR:   PAW_PBE Sr_sv 07Sep2000                
   VRHFIN =Sr: 4s4p5s                                                           
   LEXCH  = PE                                                                  
   EATOM  =   842.4562 eV,   61.9188 Ry                                         
                                                                                
   TITEL  = PAW_PBE Sr_sv 07Sep2000                                             
   LULTRA =        F    use ultrasoft PP ?                                      
   IUNSCR =        1    unscreen: 0-lin 1-nonlin 2-no                           
   RPACOR =    2.200    partial core radius                                     
   POMASS =   87.620; ZVAL   =   10.000    mass and valenz                      
   RCORE  =    2.500    outmost cutoff radius                                   
   RWIGS  =    4.040; RWIGS  =    2.138    wigner-seitz radius (au A)           
   ENMAX  =  229.282; ENMIN  =  171.961 eV                                      
   RCLOC  =    2.201    cutoff for local pot                                    
   LCOR   =        T    correct aug charges                                     
   LPAW   =        T    paw PP                                                  
   EAUG   =  366.804                                                            
   DEXC   =     .000                                                            
   RMAX   =    3.045    core radius for proj-oper                               
   RAUG   =    1.300    factor for augmentation sphere                          
   RDEP   =    2.562    radius for radial grids                                 
   QCUT   =   -4.105; QGAM   =    8.210    optimization parameters              
                                                                                
   Description                                                                  
     l     E      TYP  RCUT    TYP  RCUT                                        
     0   .000     23  2.480                                                     
     0   .000     23  2.480                                                     
     1   .000     23  2.500                                                     
     1   .000     23  2.500                                                     
     2   .000     23  2.500                                                     
     2   .000     23  2.500                                                     
  local pseudopotential read in
  partial core-charges read in
  atomic valenz-charges read in
  non local Contribution for L=           0  read in
    real space projection operators read in
  non local Contribution for L=           0  read in
    real space projection operators read in
  non local Contribution for L=           1  read in
    real space projection operators read in
  non local Contribution for L=           1  read in
    real space projection operators read in
  non local Contribution for L=           2  read in
    real space projection operators read in
  non local Contribution for L=           2  read in
    real space projection operators read in
    PAW grid and wavefunctions read in
 
   number of l-projection  operators is LMAX  =           6
   number of lm-projection operators is LMMAX =          18
 
 POTCAR:   PAW_PBE Ti 08Apr2002                   
   VRHFIN =Ti: d3 s1                                                            
   LEXCH  = PE                                                                  
   EATOM  =    94.7929 eV,    6.9671 Ry                                         
                                                                                
   TITEL  = PAW_PBE Ti 08Apr2002                                                
   LULTRA =        F    use ultrasoft PP ?                                      
   IUNSCR =        1    unscreen: 0-lin 1-nonlin 2-no                           
   RPACOR =    2.200    partial core radius                                     
   POMASS =   47.880; ZVAL   =    4.000    mass and valenz                      
   RCORE  =    2.800    outmost cutoff radius                                   
   RWIGS  =    2.500; RWIGS  =    1.323    wigner-seitz radius (au A)           
   ENMAX  =  178.330; ENMIN  =  133.747 eV                                      
   RCLOC  =    2.215    cutoff for local pot                                    
   LCOR   =        T    correct aug charges                                     
   LPAW   =        T    paw PP                                                  
   EAUG   =  328.883                                                            
   DEXC   =    -.043                                                            
   RMAX   =    3.453    core radius for proj-oper                               
   RAUG   =    1.300    factor for augmentation sphere                          
   RDEP   =    2.885    radius for radial grids                                 
   QCUT   =   -3.620; QGAM   =    7.241    optimization parameters              
                                                                                
   Description                                                                  
     l     E      TYP  RCUT    TYP  RCUT                                        
     2   .000     23  2.800                                                     
     2   .000     23  2.800                                                     
     0   .000     23  2.800                                                     
     0  1.500     23  2.800                                                     
     1  -.400     23  2.800                                                     
     3   .000      7   .000                                                     
  local pseudopotential read in
  partial core-charges read in
  atomic valenz-charges read in
  non local Contribution for L=           2  read in
    real space projection operators read in
  non local Contribution for L=           2  read in
    real space projection operators read in
  non local Contribution for L=           0  read in
    real space projection operators read in
  non local Contribution for L=           0  read in
    real space projection operators read in
  non local Contribution for L=           1  read in
    real space projection operators read in
    PAW grid and wavefunctions read in
 
   number of l-projection  operators is LMAX  =           5
   number of lm-projection operators is LMMAX =          15
 

 ----------------------------------------------------------------------------- 
|                                                                             |
|  ADVICE TO THIS USER RUNNING 'VASP/VAMP'   (HEAR YOUR MASTER'S VOICE ...):  |
|                                                                             |
|      You have a (more or less) 'large supercell' and for larger cells       |
|      it might be more efficient to use real space projection operators      |
|      So try LREAL= Auto  in the INCAR   file.                               |
|      Mind: If you want to do a very accurate calculations keep the          |
|      reciprocal projection scheme          (i.e. LREAL=.FALSE.)             |
|                                                                             |
 ----------------------------------------------------------------------------- 

 WARNING: PSMAXN for non-local potential too small
          PSMAXN should be >   14.9363967919573       NTYP=           3
 PAW_PBE O 08Apr2002                    :
 energy of atom  1       EATOM= -432.3788
 kinetic energy error for atom=    0.0031 (will be added to EATOM!!)
 PAW_PBE Sr_sv 07Sep2000                :
 energy of atom  2       EATOM= -842.4562
 kinetic energy error for atom=    0.0002 (will be added to EATOM!!)
 PAW_PBE Ti 08Apr2002                   :
 energy of atom  3       EATOM=  -94.7929
 kinetic energy error for atom=    0.0000 (will be added to EATOM!!)
 
 
 POSCAR:  O Sr Ti                                
  positions in direct lattice
  No initial velocities read in
 exchange correlation table for  LEXCH =        8
   RHO(1)=    0.500       N(1)  =     2000
   RHO(2)=  100.500       N(2)  =     4000
 


--------------------------------------------------------------------------------------------------------


 ion  position               nearest neighbor table
   1  0.500  0.500  0.234-  17 1.95  13 2.76  13 2.76  13 2.76  13 2.76
   2  0.500  0.000  0.310-  17 1.95  17 1.95  13 2.76  14 2.76  13 2.76  14 2.76
   3  0.000  0.500  0.310-  17 1.95  17 1.95  13 2.76  13 2.76  14 2.76  14 2.76
   4  0.500  0.500  0.386-  17 1.95  18 1.95  14 2.76  14 2.76  14 2.76  14 2.76
   5  0.500  0.000  0.462-  18 1.95  18 1.95  15 2.76  15 2.76  14 2.76  14 2.76
   6  0.000  0.500  0.462-  18 1.95  18 1.95  15 2.76  15 2.76  14 2.76  14 2.76
   7  0.500  0.500  0.538-  18 1.95  19 1.95  15 2.76  15 2.76  15 2.76  15 2.76
   8  0.500  0.000  0.614-  19 1.95  19 1.95  16 2.76  16 2.76  15 2.76  15 2.76
   9  0.000  0.500  0.614-  19 1.95  19 1.95  16 2.76  16 2.76  15 2.76  15 2.76
  10  0.500  0.500  0.690-  19 1.95  20 1.95  16 2.76  16 2.76  16 2.76  16 2.76
  11  0.500  0.000  0.766-  20 1.95  20 1.95  16 2.76  16 2.76
  12  0.000  0.500  0.766-  20 1.95  20 1.95  16 2.76  16 2.76
  13  0.000  0.000  0.234-   2 2.76   3 2.76   3 2.76   2 2.76   1 2.76   1 2.76   1 2.76   1 2.76
                            17 3.38  17 3.38  17 3.38  17 3.38  14 3.91
  14  0.000  0.000  0.386-   2 2.76   3 2.76   3 2.76   2 2.76   4 2.76   4 2.76   4 2.76   4 2.76
                             5 2.76   6 2.76   5 2.76   6 2.76  17 3.38  17 3.38  17 3.38  17 3.38
  15  0.000  0.000  0.538-   5 2.76   6 2.76   6 2.76   5 2.76   7 2.76   7 2.76   7 2.76   7 2.76
                             8 2.76   9 2.76   8 2.76   9 2.76  18 3.38  18 3.38  18 3.38  18 3.38
  16  0.000  0.000  0.690-   8 2.76   9 2.76  11 2.76  12 2.76   9 2.76  12 2.76   8 2.76  11 2.76
                            10 2.76  10 2.76  10 2.76  10 2.76  20 3.38  19 3.38  19 3.38  19 3.38
  17  0.500  0.500  0.310-   1 1.95   4 1.95   3 1.95   2 1.95   2 1.95   3 1.95  13 3.38  13 3.38
                            14 3.38  14 3.38  13 3.38  14 3.38  13 3.38  14 3.38
  18  0.500  0.500  0.462-   7 1.95   6 1.95   5 1.95   5 1.95   6 1.95   4 1.95  15 3.38  15 3.38
                            15 3.38  15 3.38  14 3.38  14 3.38  14 3.38  14 3.38
  19  0.500  0.500  0.614-  10 1.95   9 1.95   8 1.95   8 1.95   9 1.95   7 1.95  16 3.38  16 3.38
                            16 3.38  16 3.38  15 3.38  15 3.38  15 3.38  15 3.38
  20  0.500  0.500  0.766-  10 1.95  11 1.95  12 1.95  11 1.95  12 1.95  16 3.38  16 3.38  16 3.38
                            16 3.38
 
  LATTYP: Found a simple tetragonal cell.
 ALAT       =     3.9052680000
 C/A-ratio  =     6.5727724704
  
  Lattice vectors:
  
 A1 = (   3.9052680000,   0.0000000000,   0.0000000000)
 A2 = (   0.0000000000,   3.9052680000,   0.0000000000)
 A3 = (   0.0000000000,   0.0000000000,  25.6684380000)


Analysis of symmetry for initial positions (statically):
=====================================================================
 Subroutine PRICEL returns:
 Original cell was already a primitive cell.
 

 Routine SETGRP: Setting up the symmetry group for a 
 simple tetragonal supercell.


 Subroutine GETGRP returns: Found  8 space group operations
 (whereof  8 operations were pure point group operations)
 out of a pool of 16 trial point group operations.


The static configuration has the point symmetry C_4v.


Analysis of symmetry for dynamics (positions and initial velocities):
=====================================================================
 Subroutine PRICEL returns:
 Original cell was already a primitive cell.
 

 Routine SETGRP: Setting up the symmetry group for a 
 simple tetragonal supercell.


 Subroutine GETGRP returns: Found  8 space group operations
 (whereof  8 operations were pure point group operations)
 out of a pool of 16 trial point group operations.


The dynamic configuration has the point symmetry C_4v.


 Subroutine INISYM returns: Found  8 space group operations
 (whereof  8 operations are pure point group operations),
 and found     1 'primitive' translations

 
 
 KPOINTS: k-density: 4.0                          

Automatic generation of k-mesh.
Space group operators:
 irot       det(A)        alpha          n_x          n_y          n_z        tau_x        tau_y        tau_z
    1     1.000000     0.000000     1.000000     0.000000     0.000000     0.000000     0.000000     0.000000
    2     1.000000    90.000000     0.000000     0.000000    -1.000000     0.000000     0.000000     0.000000
    3     1.000000   180.000000     0.000000     0.000000     1.000000     0.000000     0.000000     0.000000
    4     1.000000    90.000000     0.000000     0.000000     1.000000     0.000000     0.000000     0.000000
    5    -1.000000   180.000000     0.000000     1.000000     0.000000     0.000000     0.000000     0.000000
    6    -1.000000   180.000000     0.707107     0.707107     0.000000     0.000000     0.000000     0.000000
    7    -1.000000   180.000000     1.000000     0.000000     0.000000     0.000000     0.000000     0.000000
    8    -1.000000   180.000000     0.707107    -0.707107     0.000000     0.000000     0.000000     0.000000
 
 Subroutine IBZKPT returns following result:
 ===========================================
 
 Found     10 irreducible k-points:
 
 Following reciprocal coordinates:
            Coordinates               Weight
  0.000000  0.000000  0.000000      1.000000
  0.142857  0.000000  0.000000      4.000000
  0.285714  0.000000  0.000000      4.000000
  0.428571  0.000000  0.000000      4.000000
  0.142857  0.142857  0.000000      4.000000
  0.285714  0.142857  0.000000      8.000000
  0.428571  0.142857  0.000000      8.000000
  0.285714  0.285714  0.000000      4.000000
  0.428571  0.285714  0.000000      8.000000
  0.428571  0.428571  0.000000      4.000000
 
 Following cartesian coordinates:
            Coordinates               Weight
  0.000000  0.000000  0.000000      1.000000
  0.036581  0.000000  0.000000      4.000000
  0.073161  0.000000  0.000000      4.000000
  0.109742  0.000000  0.000000      4.000000
  0.036581  0.036581  0.000000      4.000000
  0.073161  0.036581  0.000000      8.000000
  0.109742  0.036581  0.000000      8.000000
  0.073161  0.073161  0.000000      4.000000
  0.109742  0.073161  0.000000      8.000000
  0.109742  0.109742  0.000000      4.000000
 
 TETIRR: Found     65 inequivalent tetrahedra from      294


--------------------------------------------------------------------------------------------------------




 Dimension of arrays:
   k-points           NKPTS =     10   k-points in BZ     NKDIM =     10   number of bands    NBANDS=     76
   number of dos      NEDOS =    301   number of ions     NIONS =     20
   non local maximal  LDIM  =      6   non local SUM 2l+1 LMDIM =     18
   total plane-waves  NPLWV = 150528
   max r-space proj   IRMAX =      1   max aug-charges    IRDMAX=  26753
   dimension x,y,z NGX =    28 NGY =   28 NGZ =  192
   dimension x,y,z NGXF=    56 NGYF=   56 NGZF=  384
   support grid    NGXF=    56 NGYF=   56 NGZF=  384
   ions per type =              12   4   4
   NGX,Y,Z   is equivalent  to a cutoff of  11.92, 11.92, 12.44 a.u.
   NGXF,Y,Z  is equivalent  to a cutoff of  23.84, 23.84, 24.87 a.u.

 SYSTEM =  unknown system                          
 POSCAR =   O Sr Ti                                

 Startparameter for this run:
   NWRITE =      2    write-flag & timer
   PREC   = normal    normal or accurate (medium, high low for compatibility)
   ISTART =      0    job   : 0-new  1-cont  2-samecut
   ICHARG =      2    charge: 1-file 2-atom 10-const
   ISPIN  =      1    spin polarized calculation?
   LNONCOLLINEAR =      F non collinear calculations
   LSORBIT =      F    spin-orbit coupling
   INIWAV =      1    electr: 0-lowe 1-rand  2-diag
   LASPH  =      F    aspherical Exc in radial PAW
   METAGGA=      F    non-selfconsistent MetaGGA calc.

 Electronic Relaxation 1
   ENCUT  =  850.0 eV  62.47 Ry    7.90 a.u.   9.28  9.28 61.02*2*pi/ulx,y,z
   ENINI  =  850.0     initial cutoff
   ENAUG  =  605.4 eV  augmentation charge cutoff
   NELM   =     60;   NELMIN=  4; NELMDL= -5     # of ELM steps 
   EDIFF  = 0.1E-04   stopping-criterion for ELM
   LREAL  =      F    real-space projection
   NLSPLINE    = F    spline interpolate recip. space projectors
   LCOMPAT=      F    compatible to vasp.4.4
   GGA_COMPAT  = T    GGA compatible to vasp.4.4-vasp.4.6
   LMAXPAW     = -100 max onsite density
   LMAXMIX     =    2 max onsite mixed and CHGCAR
   VOSKOWN=      0    Vosko Wilk Nusair interpolation
   ROPT   =    0.00000   0.00000   0.00000
 Ionic relaxation
   EDIFFG = 0.1E-03   stopping-criterion for IOM
   NSW    =      0    number of steps for IOM
   NBLOCK =      1;   KBLOCK =      1    inner block; outer block 
   IBRION =     -1    ionic relax: 0-MD 1-quasi-New 2-CG
   NFREE  =      0    steps in history (QN), initial steepest desc. (CG)
   ISIF   =      2    stress and relaxation
   IWAVPR =     10    prediction:  0-non 1-charg 2-wave 3-comb
   ISYM   =      2    0-nonsym 1-usesym 2-fastsym
   LCORR  =      T    Harris-Foulkes like correction to forces

   POTIM  = 0.5000    time-step for ionic-motion
   TEIN   =    0.0    initial temperature
   TEBEG  =    0.0;   TEEND  =   0.0 temperature during run
   SMASS  =  -3.00    Nose mass-parameter (am)
   estimated Nose-frequenzy (Omega)   =  0.10E-29 period in steps =****** mass=  -0.349E-27a.u.
   SCALEE = 1.0000    scale energy and forces
   NPACO  =    256;   APACO  = 16.0  distance and # of slots for P.C.
   PSTRESS=    0.0 pullay stress

  Mass of Ions in am
   POMASS =  16.00 87.62 47.88
  Ionic Valenz
   ZVAL   =   6.00 10.00  4.00
  Atomic Wigner-Seitz radii
   RWIGS  =  -1.00 -1.00 -1.00
  virtual crystal weights 
   VCA    =   1.00  1.00  1.00
   NELECT =     128.0000    total number of electrons
   NUPDOWN=      -1.0000    fix difference up-down

 DOS related values:
   EMIN   =  10.00;   EMAX   =-10.00  energy-range for DOS
   EFERMI =   0.00
   ISMEAR =    -5;   SIGMA  =   0.20  broadening in eV -4-tet -1-fermi 0-gaus

 Electronic relaxation 2 (details)
   IALGO  =     68    algorithm
   LDIAG  =      T    sub-space diagonalisation (order eigenvalues)
   LSUBROT=      F    optimize rotation matrix (better conditioning)
   TURBO    =      0    0=normal 1=particle mesh
   IRESTART =      0    0=no restart 2=restart with 2 vectors
   NREBOOT  =      0    no. of reboots
   NMIN     =      0    reboot dimension
   EREF     =   0.00    reference energy to select bands
   IMIX   =      4    mixing-type and parameters
     AMIX     =   0.40;   BMIX     =  1.00
     AMIX_MAG =   1.60;   BMIX_MAG =  1.00
     AMIN     =   0.10
     WC   =   100.;   INIMIX=   1;  MIXPRE=   1;  MAXMIX= -45

 Intra band minimization:
   WEIMIN = 0.0000     energy-eigenvalue tresh-hold
   EBREAK =  0.33E-07  absolut break condition
   DEPER  =   0.30     relativ break condition  

   TIME   =   0.40     timestep for ELM

  volume/ion in A,a.u.               =      19.57       132.09
  Fermi-wavevector in a.u.,A,eV,Ry     =   1.127832  2.131294 17.306682  1.272005
  Thomas-Fermi vector in A             =   2.264520
 
 Write flags
   LWAVE        =      F    write WAVECAR
   LDOWNSAMPLE  =      F    k-point downsampling of WAVECAR
   LCHARG       =      T    write CHGCAR
   LVTOT        =      F    write LOCPOT, total local potential
   LVHAR        =      F    write LOCPOT, Hartree potential only
   LELF         =      F    write electronic localiz. function (ELF)
   LORBIT       =      0    0 simple, 1 ext, 2 COOP (PROOUT), +10 PAW based schemes


 Dipole corrections
   LMONO  =      F    monopole corrections only (constant potential shift)
   LDIPOL =      F    correct potential (dipole corrections)
   IDIPOL =      0    1-x, 2-y, 3-z, 4-all directions 
   EPSILON=  1.0000000 bulk dielectric constant

 Exchange correlation treatment:
   GGA     =    --    GGA type
   LEXCH   =     8    internal setting for exchange type
   VOSKOWN=      0    Vosko Wilk Nusair interpolation
   LHFCALC =     F    Hartree Fock is set to
   LHFONE  =     F    Hartree Fock one center treatment
   AEXX    =    0.0000 exact exchange contribution

 Linear response parameters
   LEPSILON=     F    determine dielectric tensor
   LRPA    =     F    only Hartree local field effects (RPA)
   LNABLA  =     F    use nabla operator in PAW spheres
   LVEL    =     F    velocity operator in full k-point grid
   LINTERFAST=   F  fast interpolation
   KINTER  =     0    interpolate to denser k-point grid
   CSHIFT  =0.1000    complex shift for real part using Kramers Kronig
   OMEGAMAX=  -1.0    maximum frequency
   DEG_THRESHOLD= 0.2000000E-02 threshold for treating states as degnerate
   RTIME   =   -0.100 relaxation time in fs
  (WPLASMAI=    0.000 imaginary part of plasma frequency in eV, 0.658/RTIME)
   DFIELD  = 0.0000000 0.0000000 0.0000000 field for delta impulse in time
 
 Orbital magnetization related:
   ORBITALMAG=     F  switch on orbital magnetization
   LCHIMAG   =     F  perturbation theory with respect to B field
   DQ        =  0.001000  dq finite difference perturbation B field
   LLRAUG    =     F  two centre corrections for induced B field



--------------------------------------------------------------------------------------------------------


 Static calculation
 charge density and potential will be updated during run
 non-spin polarized calculation
 RMM-DIIS sequential band-by-band and
  variant of blocked Davidson during initial phase
 perform sub-space diagonalisation
    before iterative eigenvector-optimisation
 modified Broyden-mixing scheme, WC =      100.0
 initial mixing is a Kerker type mixing with AMIX =  0.4000 and BMIX =      1.0000
 Hartree-type preconditioning will be used
 using additional bands           12
 reciprocal scheme for non local part
 use partial core corrections
 calculate Harris-corrections to forces 
   (improved forces if not selfconsistent)
 use gradient corrections 
 use of overlap-Matrix (Vanderbilt PP)
 Fermi weights with tetrahedron method with Bloechl corrections


--------------------------------------------------------------------------------------------------------


  energy-cutoff  :      850.00
  volume of cell :      391.47
      direct lattice vectors                 reciprocal lattice vectors
     3.905268000  0.000000000  0.000000000     0.256064373  0.000000000  0.000000000
     0.000000000  3.905268000  0.000000000     0.000000000  0.256064373  0.000000000
     0.000000000  0.000000000 25.668438000     0.000000000  0.000000000  0.038958350

  length of vectors
     3.905268000  3.905268000 25.668438000     0.256064373  0.256064373  0.038958350


 
 k-points in units of 2pi/SCALE and weight: k-density: 4.0                          
   0.00000000  0.00000000  0.00000000       0.020
   0.03658062  0.00000000  0.00000000       0.082
   0.07316125  0.00000000  0.00000000       0.082
   0.10974187  0.00000000  0.00000000       0.082
   0.03658062  0.03658062  0.00000000       0.082
   0.07316125  0.03658062  0.00000000       0.163
   0.10974187  0.03658062  0.00000000       0.163
   0.07316125  0.07316125  0.00000000       0.082
   0.10974187  0.07316125  0.00000000       0.163
   0.10974187  0.10974187  0.00000000       0.082
 
 k-points in reciprocal lattice and weights: k-density: 4.0                          
   0.00000000  0.00000000  0.00000000       0.020
   0.14285714  0.00000000  0.00000000       0.082
   0.28571429  0.00000000  0.00000000       0.082
   0.42857143  0.00000000  0.00000000       0.082
   0.14285714  0.14285714  0.00000000       0.082
   0.28571429  0.14285714  0.00000000       0.163
   0.42857143  0.14285714  0.00000000       0.163
   0.28571429  0.28571429  0.00000000       0.082
   0.42857143  0.28571429  0.00000000       0.163
   0.42857143  0.42857143  0.00000000       0.082
 
 position of ions in fractional coordinates (direct lattice) 
   0.50000000  0.50000000  0.23375010
   0.50000000  0.00000000  0.30982150
   0.00000000  0.50000000  0.30982150
   0.50000000  0.50000000  0.38589290
   0.50000000  0.00000000  0.46196430
   0.00000000  0.50000000  0.46196430
   0.50000000  0.50000000  0.53803570
   0.50000000  0.00000000  0.61410710
   0.00000000  0.50000000  0.61410710
   0.50000000  0.50000000  0.69017850
   0.50000000  0.00000000  0.76624990
   0.00000000  0.50000000  0.76624990
   0.00000000  0.00000000  0.23375010
   0.00000000  0.00000000  0.38589290
   0.00000000  0.00000000  0.53803570
   0.00000000  0.00000000  0.69017850
   0.50000000  0.50000000  0.30982150
   0.50000000  0.50000000  0.46196430
   0.50000000  0.50000000  0.61410710
   0.50000000  0.50000000  0.76624990
 
 position of ions in cartesian coordinates  (Angst):
   1.95263400  1.95263400  6.00000000
   1.95263400  0.00000000  7.95263400
   0.00000000  1.95263400  7.95263400
   1.95263400  1.95263400  9.90526800
   1.95263400  0.00000000 11.85790200
   0.00000000  1.95263400 11.85790200
   1.95263400  1.95263400 13.81053600
   1.95263400  0.00000000 15.76317000
   0.00000000  1.95263400 15.76317000
   1.95263400  1.95263400 17.71580400
   1.95263400  0.00000000 19.66843800
   0.00000000  1.95263400 19.66843800
   0.00000000  0.00000000  6.00000000
   0.00000000  0.00000000  9.90526800
   0.00000000  0.00000000 13.81053600
   0.00000000  0.00000000 17.71580400
   1.95263400  1.95263400  7.95263400
   1.95263400  1.95263400 11.85790200
   1.95263400  1.95263400 15.76317000
   1.95263400  1.95263400 19.66843800
 


--------------------------------------------------------------------------------------------------------


 k-point  1 :   0.0000 0.0000 0.0000  plane waves:   22087
 k-point  2 :   0.1429 0.0000 0.0000  plane waves:   22021
 k-point  3 :   0.2857 0.0000 0.0000  plane waves:   22030
 k-point  4 :   0.4286 0.0000 0.0000  plane waves:   22052
 k-point  5 :   0.1429 0.1429 0.0000  plane waves:   22047
 k-point  6 :   0.2857 0.1429 0.0000  plane waves:   22028
 k-point  7 :   0.4286 0.1429 0.0000  plane waves:   22046
 k-point  8 :   0.2857 0.2857 0.0000  plane waves:   21979
 k-point  9 :   0.4286 0.2857 0.0000  plane waves:   22003
 k-point 10 :   0.4286 0.4286 0.0000  plane waves:   22013

 maximum and minimum number of plane-waves per node :     11054    10980

 maximum number of plane-waves:     22087
 maximum index in each direction: 
   IXMAX=    9   IYMAX=    9   IZMAX=   61
   IXMIN=   -9   IYMIN=   -9   IZMIN=  -61


 parallel 3D FFT for wavefunctions:
    minimum data exchange during FFTs selected (reduces bandwidth)
 parallel 3D FFT for charge:
    minimum data exchange during FFTs selected (reduces bandwidth)


 total amount of memory used by VASP MPI-rank0   183941. kBytes
=======================================================================

   base      :      30000. kBytes
   nonl-proj :      51197. kBytes
   fftplans  :      12451. kBytes
   grid      :      22359. kBytes
   one-center:        155. kBytes
   wavefun   :      67779. kBytes
 
     INWAV:  cpu time    0.0000: real time    0.0000
 Broyden mixing: mesh for mixing (old mesh)
   NGX = 19   NGY = 19   NGZ =123
  (NGX  = 56   NGY  = 56   NGZ  =384)
  gives a total of  44403 points

 initial charge density was supplied:
 charge density of overlapping atoms calculated
 number of electron     128.0000000 magnetization 
 keeping initial charge density in first step


--------------------------------------------------------------------------------------------------------


 Maximum index for augmentation-charges         6501 (set IRDMAX)


--------------------------------------------------------------------------------------------------------


 First call to EWALD:  gamma=   0.242
 Maximum number of real-space cells 5x 5x 1
 Maximum number of reciprocal cells 2x 2x 8

    FEWALD:  cpu time    0.0020: real time    0.0020


--------------------------------------- Iteration      1(   1)  ---------------------------------------


    POTLOK:  cpu time    0.2430: real time    0.2702
    SETDIJ:  cpu time    0.0190: real time    0.0181
     EDDAV:  cpu time   12.5461: real time   12.5430
 BZINTS: Fermi energy: 18.466272;128.000000 electrons
         Band energy: 572.142403;  BLOECHL correction: -0.066748
       DOS:  cpu time    0.0070: real time    0.0073
    --------------------------------------------
      LOOP:  cpu time   12.8151: real time   12.8386

 eigenvalue-minimisations  :  1520
 total energy-change (2. order) : 0.2031726E+04  (-0.7316217E+04)
 number of electron     128.0000000 magnetization 
 augmentation part      128.0000000 magnetization 

 Free energy of the ion-electron system (eV)
  ---------------------------------------------------
  alpha Z        PSCENC =       451.31605171
  Ewald energy   TEWEN  =     24913.70541863
  -Hartree energ DENC   =    -33364.93616085
  -exchange      EXHF   =         0.00000000
  -V(xc)+E(xc)   XCENC  =       326.68050955
  PAW double counting   =      5334.45189010    -5139.13784255
  entropy T*S    EENTRO =         0.00000000
  eigenvalues    EBANDS =       572.14240295
  atomic energy  EATOM  =      8937.50415881
  Solvation  Ediel_sol  =         0.00000000
  ---------------------------------------------------
  free energy    TOTEN  =      2031.72642835 eV

  energy without entropy =     2031.72642835  energy(sigma->0) =     2031.72642835


--------------------------------------------------------------------------------------------------------




--------------------------------------- Iteration      1(   2)  ---------------------------------------


     EDDAV:  cpu time   13.8459: real time   13.8479
 BZINTS: Fermi energy:  5.791221;128.000000 electrons
         Band energy:***********;  BLOECHL correction: -0.161456
       DOS:  cpu time    0.0070: real time    0.0070
    --------------------------------------------
      LOOP:  cpu time   13.8529: real time   13.8549

 eigenvalue-minimisations  :  1732
 total energy-change (2. order) :-0.1724949E+04  (-0.1638090E+04)
 number of electron     128.0000000 magnetization 
 augmentation part      128.0000000 magnetization 

 Free energy of the ion-electron system (eV)
  ---------------------------------------------------
  alpha Z        PSCENC =       451.31605171
  Ewald energy   TEWEN  =     24913.70541863
  -Hartree energ DENC   =    -33364.93616085
  -exchange      EXHF   =         0.00000000
  -V(xc)+E(xc)   XCENC  =       326.68050955
  PAW double counting   =      5334.45189010    -5139.13784255
  entropy T*S    EENTRO =         0.00000000
  eigenvalues    EBANDS =     -1152.80653485
  atomic energy  EATOM  =      8937.50415881
  Solvation  Ediel_sol  =         0.00000000
  ---------------------------------------------------
  free energy    TOTEN  =       306.77749055 eV

  energy without entropy =      306.77749055  energy(sigma->0) =      306.77749055


--------------------------------------------------------------------------------------------------------




--------------------------------------- Iteration      1(   3)  ---------------------------------------


     EDDAV:  cpu time   14.9857: real time   14.9862
 BZINTS: Fermi energy: -1.749779;128.000000 electrons
         Band energy:***********;  BLOECHL correction:  0.000000
       DOS:  cpu time    0.0020: real time    0.0016
    --------------------------------------------
      LOOP:  cpu time   14.9877: real time   14.9878

 eigenvalue-minimisations  :  1932
 total energy-change (2. order) :-0.4601465E+03  (-0.4440414E+03)
 number of electron     128.0000000 magnetization 
 augmentation part      128.0000000 magnetization 

 Free energy of the ion-electron system (eV)
  ---------------------------------------------------
  alpha Z        PSCENC =       451.31605171
  Ewald energy   TEWEN  =     24913.70541863
  -Hartree energ DENC   =    -33364.93616085
  -exchange      EXHF   =         0.00000000
  -V(xc)+E(xc)   XCENC  =       326.68050955
  PAW double counting   =      5334.45189010    -5139.13784255
  entropy T*S    EENTRO =         0.00000000
  eigenvalues    EBANDS =     -1612.95303940
  atomic energy  EATOM  =      8937.50415881
  Solvation  Ediel_sol  =         0.00000000
  ---------------------------------------------------
  free energy    TOTEN  =      -153.36901399 eV

  energy without entropy =     -153.36901399  energy(sigma->0) =     -153.36901399


--------------------------------------------------------------------------------------------------------




--------------------------------------- Iteration      1(   4)  ---------------------------------------


     EDDAV:  cpu time   15.5526: real time   15.5522
 BZINTS: Fermi energy: -4.207705;128.000000 electrons
         Band energy:***********;  BLOECHL correction:  0.000000
       DOS:  cpu time    0.0010: real time    0.0014
    --------------------------------------------
      LOOP:  cpu time   15.5536: real time   15.5536

 eigenvalue-minimisations  :  2008
 total energy-change (2. order) :-0.4641515E+02  (-0.4619955E+02)
 number of electron     128.0000000 magnetization 
 augmentation part      128.0000000 magnetization 

 Free energy of the ion-electron system (eV)
  ---------------------------------------------------
  alpha Z        PSCENC =       451.31605171
  Ewald energy   TEWEN  =     24913.70541863
  -Hartree energ DENC   =    -33364.93616085
  -exchange      EXHF   =         0.00000000
  -V(xc)+E(xc)   XCENC  =       326.68050955
  PAW double counting   =      5334.45189010    -5139.13784255
  entropy T*S    EENTRO =         0.00000000
  eigenvalues    EBANDS =     -1659.36819432
  atomic energy  EATOM  =      8937.50415881
  Solvation  Ediel_sol  =         0.00000000
  ---------------------------------------------------
  free energy    TOTEN  =      -199.78416891 eV

  energy without entropy =     -199.78416891  energy(sigma->0) =     -199.78416891


--------------------------------------------------------------------------------------------------------




--------------------------------------- Iteration      1(   5)  ---------------------------------------


     EDDAV:  cpu time   17.3434: real time   17.3431
 BZINTS: Fermi energy: -4.256770;128.000000 electrons
         Band energy:***********;  BLOECHL correction:  0.000000
       DOS:  cpu time    0.0020: real time    0.0012
    CHARGE:  cpu time    0.4839: real time    0.4842
    MIXING:  cpu time    0.0060: real time    0.0058
    --------------------------------------------
      LOOP:  cpu time   17.8353: real time   17.8344

 eigenvalue-minimisations  :  2328
 total energy-change (2. order) :-0.2023172E+01  (-0.2021548E+01)
 number of electron     128.0000091 magnetization 
 augmentation part       13.7921316 magnetization 

 Broyden mixing:
  rms(total) = 0.37141E+01    rms(broyden)= 0.37141E+01
  rms(prec ) = 0.39648E+01
  weight for this iteration     100.00

 Free energy of the ion-electron system (eV)
  ---------------------------------------------------
  alpha Z        PSCENC =       451.31605171
  Ewald energy   TEWEN  =     24913.70541863
  -Hartree energ DENC   =    -33364.93616085
  -exchange      EXHF   =         0.00000000
  -V(xc)+E(xc)   XCENC  =       326.68050955
  PAW double counting   =      5334.45189010    -5139.13784255
  entropy T*S    EENTRO =         0.00000000
  eigenvalues    EBANDS =     -1661.39136591
  atomic energy  EATOM  =      8937.50415881
  Solvation  Ediel_sol  =         0.00000000
  ---------------------------------------------------
  free energy    TOTEN  =      -201.80734051 eV

  energy without entropy =     -201.80734051  energy(sigma->0) =     -201.80734051


--------------------------------------------------------------------------------------------------------




--------------------------------------- Iteration      1(   6)  ---------------------------------------


    POTLOK:  cpu time    0.2340: real time    0.2385
    SETDIJ:  cpu time    0.0180: real time    0.0181
    EDDIAG:  cpu time    1.5088: real time    1.5072
  RMM-DIIS:  cpu time    9.9875: real time    9.9853
    ORTHCH:  cpu time    0.2600: real time    0.2603
 BZINTS: Fermi energy: -0.046460;128.000000 electrons
         Band energy:***********;  BLOECHL correction: -0.041018
       DOS:  cpu time    0.0070: real time    0.0069
    CHARGE:  cpu time    0.4849: real time    0.4853
    MIXING:  cpu time    0.0060: real time    0.0060
    --------------------------------------------
      LOOP:  cpu time   12.5061: real time   12.5077

 eigenvalue-minimisations  :  1701
 total energy-change (2. order) : 0.4047419E+02  (-0.2831536E+02)
 number of electron     128.0000066 magnetization 
 augmentation part       14.3197231 magnetization 

 Broyden mixing:
  rms(total) = 0.13648E+01    rms(broyden)= 0.13648E+01
  rms(prec ) = 0.14346E+01
  weight for this iteration     100.00

 eigenvalues of (default mixing * dielectric matrix)
  average eigenvalue GAMMA=   0.7739
  0.7739

 Free energy of the ion-electron system (eV)
  ---------------------------------------------------
  alpha Z        PSCENC =       451.31605171
  Ewald energy   TEWEN  =     24913.70541863
  -Hartree energ DENC   =    -33646.59277851
  -exchange      EXHF   =         0.00000000
  -V(xc)+E(xc)   XCENC  =       346.42393047
  PAW double counting   =      5949.79329063    -5767.95943524
  entropy T*S    EENTRO =         0.00000000
  eigenvalues    EBANDS =     -1345.52378772
  atomic energy  EATOM  =      8937.50415881
  Solvation  Ediel_sol  =         0.00000000
  ---------------------------------------------------
  free energy    TOTEN  =      -161.33315122 eV

  energy without entropy =     -161.33315122  energy(sigma->0) =     -161.33315122


--------------------------------------------------------------------------------------------------------




--------------------------------------- Iteration      1(   7)  ---------------------------------------


    POTLOK:  cpu time    0.2290: real time    0.2330
    SETDIJ:  cpu time    0.0180: real time    0.0181
    EDDIAG:  cpu time    1.5118: real time    1.5114
  RMM-DIIS:  cpu time   11.1903: real time   11.1872
    ORTHCH:  cpu time    0.2600: real time    0.2603
 BZINTS: Fermi energy: -0.937877;128.000000 electrons
         Band energy:***********;  BLOECHL correction:  0.000000
       DOS:  cpu time    0.0020: real time    0.0014
    CHARGE:  cpu time    0.4719: real time    0.4723
    MIXING:  cpu time    0.0060: real time    0.0063
    --------------------------------------------
      LOOP:  cpu time   13.6889: real time   13.6900

 eigenvalue-minimisations  :  1877
 total energy-change (2. order) : 0.3569506E+01  (-0.1234876E+01)
 number of electron     128.0000071 magnetization 
 augmentation part       13.5465735 magnetization 

 Broyden mixing:
  rms(total) = 0.70506E+00    rms(broyden)= 0.70506E+00
  rms(prec ) = 0.73443E+00
  weight for this iteration     100.00

 eigenvalues of (default mixing * dielectric matrix)
  average eigenvalue GAMMA=   1.0724
  0.9002  1.2446

 Free energy of the ion-electron system (eV)
  ---------------------------------------------------
  alpha Z        PSCENC =       451.31605171
  Ewald energy   TEWEN  =     24913.70541863
  -Hartree energ DENC   =    -33655.80307664
  -exchange      EXHF   =         0.00000000
  -V(xc)+E(xc)   XCENC  =       342.78915083
  PAW double counting   =      5975.04280009    -5798.18435084
  entropy T*S    EENTRO =         0.00000000
  eigenvalues    EBANDS =     -1324.13379806
  atomic energy  EATOM  =      8937.50415881
  Solvation  Ediel_sol  =         0.00000000
  ---------------------------------------------------
  free energy    TOTEN  =      -157.76364547 eV

  energy without entropy =     -157.76364547  energy(sigma->0) =     -157.76364547


--------------------------------------------------------------------------------------------------------




--------------------------------------- Iteration      1(   8)  ---------------------------------------


    POTLOK:  cpu time    0.2220: real time    0.2252
    SETDIJ:  cpu time    0.0190: real time    0.0176
    EDDIAG:  cpu time    1.3968: real time    1.3965
  RMM-DIIS:  cpu time   12.2421: real time   12.2402
    ORTHCH:  cpu time    0.2600: real time    0.2599
 BZINTS: Fermi energy: -0.564502;128.000000 electrons
         Band energy:***********;  BLOECHL correction:  0.000000
       DOS:  cpu time    0.0010: real time    0.0012
    CHARGE:  cpu time    0.4949: real time    0.4938
    MIXING:  cpu time    0.0060: real time    0.0067
    --------------------------------------------
      LOOP:  cpu time   14.6418: real time   14.6411

 eigenvalue-minimisations  :  2046
 total energy-change (2. order) : 0.7278171E+00  (-0.3285540E+00)
 number of electron     128.0000071 magnetization 
 augmentation part       13.7810753 magnetization 

 Broyden mixing:
  rms(total) = 0.31340E+00    rms(broyden)= 0.31340E+00
  rms(prec ) = 0.33411E+00
  weight for this iteration     100.00

 eigenvalues of (default mixing * dielectric matrix)
  average eigenvalue GAMMA=   1.2733
  2.1983  0.9157  0.7058

 Free energy of the ion-electron system (eV)
  ---------------------------------------------------
  alpha Z        PSCENC =       451.31605171
  Ewald energy   TEWEN  =     24913.70541863
  -Hartree energ DENC   =    -33674.09475152
  -exchange      EXHF   =         0.00000000
  -V(xc)+E(xc)   XCENC  =       342.48992656
  PAW double counting   =      6072.63660565    -5899.68497982
  entropy T*S    EENTRO =         0.00000000
  eigenvalues    EBANDS =     -1300.90825839
  atomic energy  EATOM  =      8937.50415881
  Solvation  Ediel_sol  =         0.00000000
  ---------------------------------------------------
  free energy    TOTEN  =      -157.03582839 eV

  energy without entropy =     -157.03582839  energy(sigma->0) =     -157.03582839


--------------------------------------------------------------------------------------------------------




--------------------------------------- Iteration      1(   9)  ---------------------------------------


    POTLOK:  cpu time    0.2340: real time    0.2383
    SETDIJ:  cpu time    0.0180: real time    0.0182
    EDDIAG:  cpu time    1.5008: real time    1.4999
  RMM-DIIS:  cpu time   12.5661: real time   12.5638
    ORTHCH:  cpu time    0.2590: real time    0.2595
 BZINTS: Fermi energy: -0.206392;128.000000 electrons
         Band energy:***********;  BLOECHL correction:  0.000000
       DOS:  cpu time    0.0010: real time    0.0012
    CHARGE:  cpu time    0.4699: real time    0.4696
    MIXING:  cpu time    0.0070: real time    0.0065
    --------------------------------------------
      LOOP:  cpu time   15.0557: real time   15.0572

 eigenvalue-minimisations  :  2141
 total energy-change (2. order) : 0.2009413E+00  (-0.1336548E+00)
 number of electron     128.0000072 magnetization 
 augmentation part       13.7723752 magnetization 

 Broyden mixing:
  rms(total) = 0.10024E+00    rms(broyden)= 0.10023E+00
  rms(prec ) = 0.11837E+00
  weight for this iteration     100.00

 eigenvalues of (default mixing * dielectric matrix)
  average eigenvalue GAMMA=   1.1838
  2.2069  0.9062  0.9062  0.7159

 Free energy of the ion-electron system (eV)
  ---------------------------------------------------
  alpha Z        PSCENC =       451.31605171
  Ewald energy   TEWEN  =     24913.70541863
  -Hartree energ DENC   =    -33700.59702014
  -exchange      EXHF   =         0.00000000
  -V(xc)+E(xc)   XCENC  =       342.14865542
  PAW double counting   =      6167.76556612    -5998.30843424
  entropy T*S    EENTRO =         0.00000000
  eigenvalues    EBANDS =     -1270.36928341
  atomic energy  EATOM  =      8937.50415881
  Solvation  Ediel_sol  =         0.00000000
  ---------------------------------------------------
  free energy    TOTEN  =      -156.83488709 eV

  energy without entropy =     -156.83488709  energy(sigma->0) =     -156.83488709


--------------------------------------------------------------------------------------------------------




--------------------------------------- Iteration      1(  10)  ---------------------------------------


    POTLOK:  cpu time    0.2130: real time    0.2165
    SETDIJ:  cpu time    0.0170: real time    0.0171
    EDDIAG:  cpu time    1.4128: real time    1.4115
  RMM-DIIS:  cpu time   14.3638: real time   14.3607
    ORTHCH:  cpu time    0.2600: real time    0.2599
 BZINTS: Fermi energy: -0.032187;128.000000 electrons
         Band energy:***********;  BLOECHL correction:  0.000000
       DOS:  cpu time    0.0020: real time    0.0012
    CHARGE:  cpu time    0.4719: real time    0.4721
    MIXING:  cpu time    0.0070: real time    0.0076
    --------------------------------------------
      LOOP:  cpu time   16.7475: real time   16.7467

 eigenvalue-minimisations  :  2444
 total energy-change (2. order) : 0.3957487E-01  (-0.2534459E-01)
 number of electron     128.0000072 magnetization 
 augmentation part       13.7278216 magnetization 

 Broyden mixing:
  rms(total) = 0.59002E-01    rms(broyden)= 0.59001E-01
  rms(prec ) = 0.74706E-01
  weight for this iteration     100.00

 eigenvalues of (default mixing * dielectric matrix)
  average eigenvalue GAMMA=   1.2045
  2.0778  1.5142  1.0136  0.7635  0.6531

 Free energy of the ion-electron system (eV)
  ---------------------------------------------------
  alpha Z        PSCENC =       451.31605171
  Ewald energy   TEWEN  =     24913.70541863
  -Hartree energ DENC   =    -33718.68960786
  -exchange      EXHF   =         0.00000000
  -V(xc)+E(xc)   XCENC  =       342.54302426
  PAW double counting   =      6188.01927966    -6018.91705534
  entropy T*S    EENTRO =         0.00000000
  eigenvalues    EBANDS =     -1252.27658209
  atomic energy  EATOM  =      8937.50415881
  Solvation  Ediel_sol  =         0.00000000
  ---------------------------------------------------
  free energy    TOTEN  =      -156.79531223 eV

  energy without entropy =     -156.79531223  energy(sigma->0) =     -156.79531223


--------------------------------------------------------------------------------------------------------




--------------------------------------- Iteration      1(  11)  ---------------------------------------


    POTLOK:  cpu time    0.2340: real time    0.2378
    SETDIJ:  cpu time    0.0180: real time    0.0181
    EDDIAG:  cpu time    1.3838: real time    1.3829
  RMM-DIIS:  cpu time   14.0309: real time   14.0281
    ORTHCH:  cpu time    0.2610: real time    0.2605
 BZINTS: Fermi energy:  0.104853;128.000000 electrons
         Band energy:***********;  BLOECHL correction:  0.000000
       DOS:  cpu time    0.0010: real time    0.0012
    CHARGE:  cpu time    0.4809: real time    0.4815
    MIXING:  cpu time    0.0080: real time    0.0077
    --------------------------------------------
      LOOP:  cpu time   16.4175: real time   16.4177

 eigenvalue-minimisations  :  2402
 total energy-change (2. order) : 0.2077082E-01  (-0.1591373E-01)
 number of electron     128.0000071 magnetization 
 augmentation part       13.6614253 magnetization 

 Broyden mixing:
  rms(total) = 0.40925E-01    rms(broyden)= 0.40925E-01
  rms(prec ) = 0.52708E-01
  weight for this iteration     100.00

 eigenvalues of (default mixing * dielectric matrix)
  average eigenvalue GAMMA=   1.2965
  2.3127  2.3127  0.8915  0.8915  0.7536  0.6172

 Free energy of the ion-electron system (eV)
  ---------------------------------------------------
  alpha Z        PSCENC =       451.31605171
  Ewald energy   TEWEN  =     24913.70541863
  -Hartree energ DENC   =    -33738.30388840
  -exchange      EXHF   =         0.00000000
  -V(xc)+E(xc)   XCENC  =       342.91104954
  PAW double counting   =      6202.89636456    -6033.79896868
  entropy T*S    EENTRO =         0.00000000
  eigenvalues    EBANDS =     -1233.00472756
  atomic energy  EATOM  =      8937.50415881
  Solvation  Ediel_sol  =         0.00000000
  ---------------------------------------------------
  free energy    TOTEN  =      -156.77454141 eV

  energy without entropy =     -156.77454141  energy(sigma->0) =     -156.77454141


--------------------------------------------------------------------------------------------------------




--------------------------------------- Iteration      1(  12)  ---------------------------------------


    POTLOK:  cpu time    0.2340: real time    0.2387
    SETDIJ:  cpu time    0.0180: real time    0.0183
    EDDIAG:  cpu time    1.4678: real time    1.4671
  RMM-DIIS:  cpu time   14.5718: real time   14.5684
    ORTHCH:  cpu time    0.2620: real time    0.2619
 BZINTS: Fermi energy:  0.336826;128.000000 electrons
         Band energy:***********;  BLOECHL correction:  0.000000
       DOS:  cpu time    0.0010: real time    0.0014
    CHARGE:  cpu time    0.4849: real time    0.4841
    MIXING:  cpu time    0.0080: real time    0.0080
    --------------------------------------------
      LOOP:  cpu time   17.0474: real time   17.0478

 eigenvalue-minimisations  :  2493
 total energy-change (2. order) : 0.1191767E-01  (-0.5421661E-02)
 number of electron     128.0000071 magnetization 
 augmentation part       13.6265028 magnetization 

 Broyden mixing:
  rms(total) = 0.32462E-01    rms(broyden)= 0.32462E-01
  rms(prec ) = 0.40539E-01
  weight for this iteration     100.00

 eigenvalues of (default mixing * dielectric matrix)
  average eigenvalue GAMMA=   1.2421
  2.3042  2.3042  0.9961  0.9961  0.8039  0.6715  0.6189

 Free energy of the ion-electron system (eV)
  ---------------------------------------------------
  alpha Z        PSCENC =       451.31605171
  Ewald energy   TEWEN  =     24913.70541863
  -Hartree energ DENC   =    -33752.01488521
  -exchange      EXHF   =         0.00000000
  -V(xc)+E(xc)   XCENC  =       342.99885357
  PAW double counting   =      6207.77921557    -6038.49526676
  entropy T*S    EENTRO =         0.00000000
  eigenvalues    EBANDS =     -1219.55617006
  atomic energy  EATOM  =      8937.50415881
  Solvation  Ediel_sol  =         0.00000000
  ---------------------------------------------------
  free energy    TOTEN  =      -156.76262374 eV

  energy without entropy =     -156.76262374  energy(sigma->0) =     -156.76262374


--------------------------------------------------------------------------------------------------------




--------------------------------------- Iteration      1(  13)  ---------------------------------------


    POTLOK:  cpu time    0.2360: real time    0.2385
    SETDIJ:  cpu time    0.0190: real time    0.0184
    EDDIAG:  cpu time    1.4678: real time    1.4680
  RMM-DIIS:  cpu time   15.1157: real time   15.1122
    ORTHCH:  cpu time    0.2600: real time    0.2606
 BZINTS: Fermi energy:  0.388492;128.000000 electrons
         Band energy:***********;  BLOECHL correction:  0.000000
       DOS:  cpu time    0.0020: real time    0.0014
    CHARGE:  cpu time    0.4849: real time    0.4855
    MIXING:  cpu time    0.0090: real time    0.0084
    --------------------------------------------
      LOOP:  cpu time   17.5943: real time   17.5930

 eigenvalue-minimisations  :  2567
 total energy-change (2. order) : 0.5581178E-02  (-0.2266594E-02)
 number of electron     128.0000071 magnetization 
 augmentation part       13.6378321 magnetization 

 Broyden mixing:
  rms(total) = 0.16620E-01    rms(broyden)= 0.16620E-01
  rms(prec ) = 0.25068E-01
  weight for this iteration     100.00

 eigenvalues of (default mixing * dielectric matrix)
  average eigenvalue GAMMA=   1.4067
  2.8324  2.8324  1.5505  0.9489  0.9489  0.8375  0.6705  0.6322

 Free energy of the ion-electron system (eV)
  ---------------------------------------------------
  alpha Z        PSCENC =       451.31605171
  Ewald energy   TEWEN  =     24913.70541863
  -Hartree energ DENC   =    -33756.53487716
  -exchange      EXHF   =         0.00000000
  -V(xc)+E(xc)   XCENC  =       342.96153982
  PAW double counting   =      6206.78220493    -6037.37931866
  entropy T*S    EENTRO =         0.00000000
  eigenvalues    EBANDS =     -1215.11222063
  atomic energy  EATOM  =      8937.50415881
  Solvation  Ediel_sol  =         0.00000000
  ---------------------------------------------------
  free energy    TOTEN  =      -156.75704256 eV

  energy without entropy =     -156.75704256  energy(sigma->0) =     -156.75704256


--------------------------------------------------------------------------------------------------------




--------------------------------------- Iteration      1(  14)  ---------------------------------------


    POTLOK:  cpu time    0.2350: real time    0.2403
    SETDIJ:  cpu time    0.0180: real time    0.0183
    EDDIAG:  cpu time    1.4768: real time    1.4761
  RMM-DIIS:  cpu time   13.3510: real time   13.3474
    ORTHCH:  cpu time    0.2540: real time    0.2546
 BZINTS: Fermi energy:  0.541501;128.000000 electrons
         Band energy:***********;  BLOECHL correction:  0.000000
       DOS:  cpu time    0.0020: real time    0.0014
    CHARGE:  cpu time    0.4599: real time    0.4606
    MIXING:  cpu time    0.0090: real time    0.0087
    --------------------------------------------
      LOOP:  cpu time   15.8056: real time   15.8072

 eigenvalue-minimisations  :  2265
 total energy-change (2. order) : 0.4348642E-02  (-0.2358332E-02)
 number of electron     128.0000071 magnetization 
 augmentation part       13.6486438 magnetization 

 Broyden mixing:
  rms(total) = 0.15916E-01    rms(broyden)= 0.15916E-01
  rms(prec ) = 0.19599E-01
  weight for this iteration     100.00

 eigenvalues of (default mixing * dielectric matrix)
  average eigenvalue GAMMA=   1.3994
  3.4040  2.6250  1.3513  1.0948  1.0948  0.9330  0.8389  0.6550  0.5975

 Free energy of the ion-electron system (eV)
  ---------------------------------------------------
  alpha Z        PSCENC =       451.31605171
  Ewald energy   TEWEN  =     24913.70541863
  -Hartree energ DENC   =    -33768.29172672
  -exchange      EXHF   =         0.00000000
  -V(xc)+E(xc)   XCENC  =       342.89738306
  PAW double counting   =      6200.01131813    -6030.16803262
  entropy T*S    EENTRO =         0.00000000
  eigenvalues    EBANDS =     -1203.72726491
  atomic energy  EATOM  =      8937.50415881
  Solvation  Ediel_sol  =         0.00000000
  ---------------------------------------------------
  free energy    TOTEN  =      -156.75269392 eV

  energy without entropy =     -156.75269392  energy(sigma->0) =     -156.75269392


--------------------------------------------------------------------------------------------------------




--------------------------------------- Iteration      1(  15)  ---------------------------------------


    POTLOK:  cpu time    0.2380: real time    0.2393
    SETDIJ:  cpu time    0.0190: real time    0.0184
    EDDIAG:  cpu time    1.4888: real time    1.4885
  RMM-DIIS:  cpu time   15.0927: real time   15.0891
    ORTHCH:  cpu time    0.2640: real time    0.2643
 BZINTS: Fermi energy:  0.518399;128.000000 electrons
         Band energy:***********;  BLOECHL correction:  0.000000
       DOS:  cpu time    0.0010: real time    0.0013
    CHARGE:  cpu time    0.4839: real time    0.4836
    MIXING:  cpu time    0.0090: real time    0.0093
    --------------------------------------------
      LOOP:  cpu time   17.5963: real time   17.5939

 eigenvalue-minimisations  :  2534
 total energy-change (2. order) : 0.7657225E-03  (-0.6757444E-03)
 number of electron     128.0000071 magnetization 
 augmentation part       13.6405275 magnetization 

 Broyden mixing:
  rms(total) = 0.69448E-02    rms(broyden)= 0.69448E-02
  rms(prec ) = 0.10743E-01
  weight for this iteration     100.00

 eigenvalues of (default mixing * dielectric matrix)
  average eigenvalue GAMMA=   1.4791
  4.1159  2.3067  1.9101  1.5078  1.0937  0.9311  0.9311  0.7657  0.5903  0.6386

 Free energy of the ion-electron system (eV)
  ---------------------------------------------------
  alpha Z        PSCENC =       451.31605171
  Ewald energy   TEWEN  =     24913.70541863
  -Hartree energ DENC   =    -33773.48900116
  -exchange      EXHF   =         0.00000000
  -V(xc)+E(xc)   XCENC  =       342.95821894
  PAW double counting   =      6201.43948474    -6031.61724682
  entropy T*S    EENTRO =         0.00000000
  eigenvalues    EBANDS =     -1198.56901304
  atomic energy  EATOM  =      8937.50415881
  Solvation  Ediel_sol  =         0.00000000
  ---------------------------------------------------
  free energy    TOTEN  =      -156.75192819 eV

  energy without entropy =     -156.75192819  energy(sigma->0) =     -156.75192819


--------------------------------------------------------------------------------------------------------




--------------------------------------- Iteration      1(  16)  ---------------------------------------


    POTLOK:  cpu time    0.2350: real time    0.2384
    SETDIJ:  cpu time    0.0190: real time    0.0183
    EDDIAG:  cpu time    1.4788: real time    1.4790
  RMM-DIIS:  cpu time   14.0239: real time   14.0204
    ORTHCH:  cpu time    0.2550: real time    0.2554
 BZINTS: Fermi energy:  0.584103;128.000000 electrons
         Band energy:***********;  BLOECHL correction:  0.000000
       DOS:  cpu time    0.0020: real time    0.0014
    CHARGE:  cpu time    0.4409: real time    0.4414
    MIXING:  cpu time    0.0100: real time    0.0099
    --------------------------------------------
      LOOP:  cpu time   16.4645: real time   16.4642

 eigenvalue-minimisations  :  2389
 total energy-change (2. order) :-0.1361013E-02  (-0.6797077E-03)
 number of electron     128.0000071 magnetization 
 augmentation part       13.6351105 magnetization 

 Broyden mixing:
  rms(total) = 0.11103E-01    rms(broyden)= 0.11103E-01
  rms(prec ) = 0.12438E-01
  weight for this iteration     100.00

 eigenvalues of (default mixing * dielectric matrix)
  average eigenvalue GAMMA=   1.6174
  5.3623  2.8406  2.3300  1.2717  1.1825  1.1825  0.8494  0.8494  0.6939  0.6307
  0.5983

 Free energy of the ion-electron system (eV)
  ---------------------------------------------------
  alpha Z        PSCENC =       451.31605171
  Ewald energy   TEWEN  =     24913.70541863
  -Hartree energ DENC   =    -33781.42358055
  -exchange      EXHF   =         0.00000000
  -V(xc)+E(xc)   XCENC  =       343.01058800
  PAW double counting   =      6202.59542560    -6032.84797845
  entropy T*S    EENTRO =         0.00000000
  eigenvalues    EBANDS =     -1190.61337295
  atomic energy  EATOM  =      8937.50415881
  Solvation  Ediel_sol  =         0.00000000
  ---------------------------------------------------
  free energy    TOTEN  =      -156.75328921 eV

  energy without entropy =     -156.75328921  energy(sigma->0) =     -156.75328921


--------------------------------------------------------------------------------------------------------




--------------------------------------- Iteration      1(  17)  ---------------------------------------


    POTLOK:  cpu time    0.2340: real time    0.2360
    SETDIJ:  cpu time    0.0190: real time    0.0184
    EDDIAG:  cpu time    1.4808: real time    1.4802
  RMM-DIIS:  cpu time   13.4290: real time   13.4256
    ORTHCH:  cpu time    0.2620: real time    0.2627
 BZINTS: Fermi energy:  0.644083;128.000000 electrons
         Band energy:***********;  BLOECHL correction:  0.000000
       DOS:  cpu time    0.0010: real time    0.0014
    CHARGE:  cpu time    0.4659: real time    0.4660
    MIXING:  cpu time    0.0110: real time    0.0103
    --------------------------------------------
      LOOP:  cpu time   15.9026: real time   15.9006

 eigenvalue-minimisations  :  2272
 total energy-change (2. order) :-0.4225738E-03  (-0.3003820E-03)
 number of electron     128.0000071 magnetization 
 augmentation part       13.6304092 magnetization 

 Broyden mixing:
  rms(total) = 0.32713E-02    rms(broyden)= 0.32712E-02
  rms(prec ) = 0.42144E-02
  weight for this iteration     100.00

 eigenvalues of (default mixing * dielectric matrix)
  average eigenvalue GAMMA=   1.6034
  5.7887  2.8271  2.3022  1.1987  1.1987  1.1777  1.1777  0.8488  0.8488  0.6625
  0.6162  0.5933

 Free energy of the ion-electron system (eV)
  ---------------------------------------------------
  alpha Z        PSCENC =       451.31605171
  Ewald energy   TEWEN  =     24913.70541863
  -Hartree energ DENC   =    -33783.23116173
  -exchange      EXHF   =         0.00000000
  -V(xc)+E(xc)   XCENC  =       342.95449381
  PAW double counting   =      6200.17756432    -6030.39032381
  entropy T*S    EENTRO =         0.00000000
  eigenvalues    EBANDS =     -1188.78991353
  atomic energy  EATOM  =      8937.50415881
  Solvation  Ediel_sol  =         0.00000000
  ---------------------------------------------------
  free energy    TOTEN  =      -156.75371178 eV

  energy without entropy =     -156.75371178  energy(sigma->0) =     -156.75371178


--------------------------------------------------------------------------------------------------------




--------------------------------------- Iteration      1(  18)  ---------------------------------------


    POTLOK:  cpu time    0.2150: real time    0.2183
    SETDIJ:  cpu time    0.0180: real time    0.0172
    EDDIAG:  cpu time    1.4078: real time    1.4076
  RMM-DIIS:  cpu time   13.3910: real time   13.3887
    ORTHCH:  cpu time    0.2580: real time    0.2578
 BZINTS: Fermi energy:  0.568786;128.000000 electrons
         Band energy:***********;  BLOECHL correction:  0.000000
       DOS:  cpu time    0.0010: real time    0.0012
    CHARGE:  cpu time    0.4719: real time    0.4712
    MIXING:  cpu time    0.0100: real time    0.0107
    --------------------------------------------
      LOOP:  cpu time   15.7726: real time   15.7727

 eigenvalue-minimisations  :  2268
 total energy-change (2. order) :-0.8173525E-03  (-0.7586949E-04)
 number of electron     128.0000071 magnetization 
 augmentation part       13.6329087 magnetization 

 Broyden mixing:
  rms(total) = 0.19047E-02    rms(broyden)= 0.19047E-02
  rms(prec ) = 0.25953E-02
  weight for this iteration     100.00

 eigenvalues of (default mixing * dielectric matrix)
  average eigenvalue GAMMA=   1.7125
  6.8233  3.1065  2.1961  2.1961  1.2464  1.2464  1.0306  0.9277  0.8163  0.8163
  0.6369  0.6369  0.5827

 Free energy of the ion-electron system (eV)
  ---------------------------------------------------
  alpha Z        PSCENC =       451.31605171
  Ewald energy   TEWEN  =     24913.70541863
  -Hartree energ DENC   =    -33784.03927529
  -exchange      EXHF   =         0.00000000
  -V(xc)+E(xc)   XCENC  =       342.96346702
  PAW double counting   =      6200.37538921    -6030.56668299
  entropy T*S    EENTRO =         0.00000000
  eigenvalues    EBANDS =     -1188.01305622
  atomic energy  EATOM  =      8937.50415881
  Solvation  Ediel_sol  =         0.00000000
  ---------------------------------------------------
  free energy    TOTEN  =      -156.75452913 eV

  energy without entropy =     -156.75452913  energy(sigma->0) =     -156.75452913


--------------------------------------------------------------------------------------------------------




--------------------------------------- Iteration      1(  19)  ---------------------------------------


    POTLOK:  cpu time    0.2350: real time    0.2384
    SETDIJ:  cpu time    0.0190: real time    0.0185
    EDDIAG:  cpu time    1.4768: real time    1.4772
  RMM-DIIS:  cpu time   12.4701: real time   12.4662
    ORTHCH:  cpu time    0.2590: real time    0.2597
 BZINTS: Fermi energy:  0.598120;128.000000 electrons
         Band energy:***********;  BLOECHL correction:  0.000000
       DOS:  cpu time    0.0010: real time    0.0012
    CHARGE:  cpu time    0.4299: real time    0.4297
    MIXING:  cpu time    0.0110: real time    0.0111
    --------------------------------------------
      LOOP:  cpu time   14.9017: real time   14.9019

 eigenvalue-minimisations  :  2082
 total energy-change (2. order) :-0.1401175E-02  (-0.5316899E-04)
 number of electron     128.0000071 magnetization 
 augmentation part       13.6314091 magnetization 

 Broyden mixing:
  rms(total) = 0.95616E-03    rms(broyden)= 0.95615E-03
  rms(prec ) = 0.12317E-02
  weight for this iteration     100.00

 eigenvalues of (default mixing * dielectric matrix)
  average eigenvalue GAMMA=   1.7836
  7.3617  3.7724  2.2288  2.2288  1.5440  1.1973  1.1973  0.9631  0.9631  0.8289
  0.8289  0.6375  0.6375  0.5813

 Free energy of the ion-electron system (eV)
  ---------------------------------------------------
  alpha Z        PSCENC =       451.31605171
  Ewald energy   TEWEN  =     24913.70541863
  -Hartree energ DENC   =    -33784.48962385
  -exchange      EXHF   =         0.00000000
  -V(xc)+E(xc)   XCENC  =       342.96145975
  PAW double counting   =      6200.46469461    -6030.63614876
  entropy T*S    EENTRO =         0.00000000
  eigenvalues    EBANDS =     -1187.58194121
  atomic energy  EATOM  =      8937.50415881
  Solvation  Ediel_sol  =         0.00000000
  ---------------------------------------------------
  free energy    TOTEN  =      -156.75593031 eV

  energy without entropy =     -156.75593031  energy(sigma->0) =     -156.75593031


--------------------------------------------------------------------------------------------------------




--------------------------------------- Iteration      1(  20)  ---------------------------------------


    POTLOK:  cpu time    0.2230: real time    0.2235
    SETDIJ:  cpu time    0.0170: real time    0.0177
    EDDIAG:  cpu time    1.4568: real time    1.4568
  RMM-DIIS:  cpu time   10.3814: real time   10.3782
    ORTHCH:  cpu time    0.2550: real time    0.2554
 BZINTS: Fermi energy:  0.618894;128.000000 electrons
         Band energy:***********;  BLOECHL correction:  0.000000
       DOS:  cpu time    0.0010: real time    0.0012
    CHARGE:  cpu time    0.4609: real time    0.4613
    MIXING:  cpu time    0.0120: real time    0.0116
    --------------------------------------------
      LOOP:  cpu time   12.8071: real time   12.8058

 eigenvalue-minimisations  :  1738
 total energy-change (2. order) :-0.5708972E-03  (-0.2364110E-04)
 number of electron     128.0000071 magnetization 
 augmentation part       13.6311806 magnetization 

 Broyden mixing:
  rms(total) = 0.72404E-03    rms(broyden)= 0.72404E-03
  rms(prec ) = 0.82717E-03
  weight for this iteration     100.00

 eigenvalues of (default mixing * dielectric matrix)
  average eigenvalue GAMMA=   1.8982
  8.2172  4.3410  2.6441  2.1989  2.1989  1.1825  1.1825  1.2464  0.9050  0.8501
  0.8501  0.7989  0.6378  0.6378  0.5816

 Free energy of the ion-electron system (eV)
  ---------------------------------------------------
  alpha Z        PSCENC =       451.31605171
  Ewald energy   TEWEN  =     24913.70541863
  -Hartree energ DENC   =    -33784.48381621
  -exchange      EXHF   =         0.00000000
  -V(xc)+E(xc)   XCENC  =       342.95972119
  PAW double counting   =      6200.79079505    -6030.97101414
  entropy T*S    EENTRO =         0.00000000
  eigenvalues    EBANDS =     -1187.57781626
  atomic energy  EATOM  =      8937.50415881
  Solvation  Ediel_sol  =         0.00000000
  ---------------------------------------------------
  free energy    TOTEN  =      -156.75650120 eV

  energy without entropy =     -156.75650120  energy(sigma->0) =     -156.75650120


--------------------------------------------------------------------------------------------------------




--------------------------------------- Iteration      1(  21)  ---------------------------------------


    POTLOK:  cpu time    0.2340: real time    0.2380
    SETDIJ:  cpu time    0.0180: real time    0.0183
    EDDIAG:  cpu time    1.4678: real time    1.4666
  RMM-DIIS:  cpu time    9.7195: real time    9.7168
    ORTHCH:  cpu time    0.2380: real time    0.2381
 BZINTS: Fermi energy:  0.597554;128.000000 electrons
         Band energy:***********;  BLOECHL correction:  0.000000
       DOS:  cpu time    0.0010: real time    0.0013
    CHARGE:  cpu time    0.4089: real time    0.4090
    MIXING:  cpu time    0.0110: real time    0.0106
    --------------------------------------------
      LOOP:  cpu time   12.0982: real time   12.0987

 eigenvalue-minimisations  :  1755
 total energy-change (2. order) :-0.2758297E-03  (-0.1430553E-04)
 number of electron     128.0000071 magnetization 
 augmentation part       13.6301399 magnetization 

 Broyden mixing:
  rms(total) = 0.50114E-03    rms(broyden)= 0.50114E-03
  rms(prec ) = 0.55085E-03
  weight for this iteration     100.00

 eigenvalues of (default mixing * dielectric matrix)
  average eigenvalue GAMMA=   1.9129
  8.3650  4.8166  2.6841  2.6841  2.0213  1.3883  1.2064  1.2064  0.9764  0.9764
  0.8215  0.8215  0.7867  0.6354  0.6354  0.5809

 Free energy of the ion-electron system (eV)
  ---------------------------------------------------
  alpha Z        PSCENC =       451.31605171
  Ewald energy   TEWEN  =     24913.70541863
  -Hartree energ DENC   =    -33784.48148032
  -exchange      EXHF   =         0.00000000
  -V(xc)+E(xc)   XCENC  =       342.96321024
  PAW double counting   =      6200.98606952    -6031.16134473
  entropy T*S    EENTRO =         0.00000000
  eigenvalues    EBANDS =     -1187.58886089
  atomic energy  EATOM  =      8937.50415881
  Solvation  Ediel_sol  =         0.00000000
  ---------------------------------------------------
  free energy    TOTEN  =      -156.75677703 eV

  energy without entropy =     -156.75677703  energy(sigma->0) =     -156.75677703


--------------------------------------------------------------------------------------------------------




--------------------------------------- Iteration      1(  22)  ---------------------------------------


    POTLOK:  cpu time    0.1920: real time    0.1952
    SETDIJ:  cpu time    0.0170: real time    0.0163
    EDDIAG:  cpu time    1.1118: real time    1.1123
WARNING in EDDRMM: call to ZHEGV failed, returncode =   6  3     24
  RMM-DIIS:  cpu time    7.0139: real time    7.0123
    ORTHCH:  cpu time    0.2300: real time    0.2301
 BZINTS: Fermi energy:  0.611964;128.000000 electrons
         Band energy:***********;  BLOECHL correction:  0.000000
       DOS:  cpu time    0.0010: real time    0.0013
    CHARGE:  cpu time    0.3999: real time    0.4000
    MIXING:  cpu time    0.0120: real time    0.0112
    --------------------------------------------
      LOOP:  cpu time    8.9776: real time    8.9789

 eigenvalue-minimisations  :  1402
 total energy-change (2. order) :-0.5096912E-04  (-0.4137081E-05)
 number of electron     128.0000071 magnetization 
 augmentation part       13.6300781 magnetization 

 Broyden mixing:
  rms(total) = 0.25175E-03    rms(broyden)= 0.25175E-03
  rms(prec ) = 0.29058E-03
  weight for this iteration     100.00

 eigenvalues of (default mixing * dielectric matrix)
  average eigenvalue GAMMA=   1.9182
  8.3742  5.2174  3.0352  2.5585  2.0860  1.5113  1.2390  1.2390  1.2689  0.9469
  0.9469  0.8032  0.8032  0.7298  0.5813  0.6342  0.6342

 Free energy of the ion-electron system (eV)
  ---------------------------------------------------
  alpha Z        PSCENC =       451.31605171
  Ewald energy   TEWEN  =     24913.70541863
  -Hartree energ DENC   =    -33784.40608977
  -exchange      EXHF   =         0.00000000
  -V(xc)+E(xc)   XCENC  =       342.96103761
  PAW double counting   =      6200.85401445    -6031.01974530
  entropy T*S    EENTRO =         0.00000000
  eigenvalues    EBANDS =     -1187.67167415
  atomic energy  EATOM  =      8937.50415881
  Solvation  Ediel_sol  =         0.00000000
  ---------------------------------------------------
  free energy    TOTEN  =      -156.75682800 eV

  energy without entropy =     -156.75682800  energy(sigma->0) =     -156.75682800


--------------------------------------------------------------------------------------------------------




--------------------------------------- Iteration      1(  23)  ---------------------------------------


    POTLOK:  cpu time    0.1880: real time    0.1913
    SETDIJ:  cpu time    0.0160: real time    0.0160
    EDDIAG:  cpu time    1.1138: real time    1.1129
  RMM-DIIS:  cpu time    6.5320: real time    6.5308
    ORTHCH:  cpu time    0.2310: real time    0.2310
 BZINTS: Fermi energy:  0.624316;128.000000 electrons
         Band energy:***********;  BLOECHL correction:  0.000000
       DOS:  cpu time    0.0010: real time    0.0013
    CHARGE:  cpu time    0.3989: real time    0.3990
    MIXING:  cpu time    0.0120: real time    0.0117
    --------------------------------------------
      LOOP:  cpu time    8.4927: real time    8.4940

 eigenvalue-minimisations  :  1289
 total energy-change (2. order) :-0.1948007E-04  (-0.2456456E-05)
 number of electron     128.0000071 magnetization 
 augmentation part       13.6304766 magnetization 

 Broyden mixing:
  rms(total) = 0.18741E-03    rms(broyden)= 0.18741E-03
  rms(prec ) = 0.21193E-03
  weight for this iteration     100.00

 eigenvalues of (default mixing * dielectric matrix)
  average eigenvalue GAMMA=   1.8669
  8.3365  5.3603  3.0400  2.7345  2.0777  1.2282  1.2282  1.4438  1.3319  0.9815
  0.9815  0.8237  0.8237  0.7704  0.6347  0.6347  0.5868  0.5868

 Free energy of the ion-electron system (eV)
  ---------------------------------------------------
  alpha Z        PSCENC =       451.31605171
  Ewald energy   TEWEN  =     24913.70541863
  -Hartree energ DENC   =    -33784.37604965
  -exchange      EXHF   =         0.00000000
  -V(xc)+E(xc)   XCENC  =       342.96122483
  PAW double counting   =      6200.85118492    -6031.01345823
  entropy T*S    EENTRO =         0.00000000
  eigenvalues    EBANDS =     -1187.70537851
  atomic energy  EATOM  =      8937.50415881
  Solvation  Ediel_sol  =         0.00000000
  ---------------------------------------------------
  free energy    TOTEN  =      -156.75684748 eV

  energy without entropy =     -156.75684748  energy(sigma->0) =     -156.75684748


--------------------------------------------------------------------------------------------------------




--------------------------------------- Iteration      1(  24)  ---------------------------------------


    POTLOK:  cpu time    0.1870: real time    0.1916
    SETDIJ:  cpu time    0.0170: real time    0.0160
    EDDIAG:  cpu time    1.1128: real time    1.1129
  RMM-DIIS:  cpu time    5.8361: real time    5.8344
    ORTHCH:  cpu time    0.2300: real time    0.2305
 BZINTS: Fermi energy:  0.634757;128.000000 electrons
         Band energy:***********;  BLOECHL correction:  0.000000
       DOS:  cpu time    0.0010: real time    0.0013
    --------------------------------------------
      LOOP:  cpu time    7.3839: real time    7.3867

 eigenvalue-minimisations  :  1147
 total energy-change (2. order) :-0.6017230E-05  (-0.1091399E-05)
 number of electron     128.0000071 magnetization 
 augmentation part       13.6304766 magnetization 

 Free energy of the ion-electron system (eV)
  ---------------------------------------------------
  alpha Z        PSCENC =       451.31605171
  Ewald energy   TEWEN  =     24913.70541863
  -Hartree energ DENC   =    -33784.35715579
  -exchange      EXHF   =         0.00000000
  -V(xc)+E(xc)   XCENC  =       342.96094889
  PAW double counting   =      6200.84070201    -6031.00260467
  entropy T*S    EENTRO =         0.00000000
  eigenvalues    EBANDS =     -1187.72437309
  atomic energy  EATOM  =      8937.50415881
  Solvation  Ediel_sol  =         0.00000000
  ---------------------------------------------------
  free energy    TOTEN  =      -156.75685350 eV

  energy without entropy =     -156.75685350  energy(sigma->0) =     -156.75685350


--------------------------------------------------------------------------------------------------------




 average (electrostatic) potential at core
  the test charge radii are     0.7215  1.1929  1.2598
  (the norm of the test charge is              1.0000)
       1 -73.1671       2 -73.6922       3 -73.6922       4 -73.6535       5 -73.7379
       6 -73.7379       7 -73.8172       8 -73.8396       9 -73.8396      10 -74.0736
[...]
     43      -3.0644      2.00000
     44      -2.9787      2.00000
     45      -2.6466      2.00000
     46      -2.6062      2.00000
     47      -2.4713      2.00000
     48      -2.3462      2.00000
     49      -2.2093      2.00000
     50      -1.9112      2.00000
     51      -1.7154      2.00000
     52      -1.7027      2.00000
     53      -1.4051      2.00000
     54      -1.3409      2.00000
     55      -1.2759      2.00000
     56      -1.2545      2.00000
     57      -1.2216      2.00000
     58      -1.1110      2.00000
     59      -1.0801      2.00000
     60      -0.9744      2.00000
     61      -0.7392      2.00000
     62      -0.5763      2.00000
     63      -0.4252      2.00000
     64      -0.2356      2.00000
     65       2.1600      0.00000
     66       2.6032      0.00000
     67       3.0756      0.00000
     68       3.4301      0.00000
     69       3.4387      0.00000
     70       3.5115      0.00000
     71       3.5586      0.00000
     72       3.5863      0.00000
     73       3.6604      0.00000
     74       3.7447      0.00000
     75       3.8523      0.00000
     76       7.6921      0.00000

 k-point     8 :       0.2857    0.2857    0.0000
  band No.  band energies     occupation 
      1     -33.7613      2.00000
      2     -32.7716      2.00000
      3     -32.6814      2.00000
      4     -32.6360      2.00000
      5     -17.3932      2.00000
      6     -17.2197      2.00000
      7     -17.0729      2.00000
      8     -16.8439      2.00000
      9     -16.6580      2.00000
     10     -16.5762      2.00000
     11     -16.5281      2.00000
     12     -16.4394      2.00000
     13     -16.4301      2.00000
     14     -16.2540      2.00000
     15     -16.1564      2.00000
     16     -15.9159      2.00000
     17     -15.7594      2.00000
     18     -15.6598      2.00000
     19     -15.0121      2.00000
     20     -14.8933      2.00000
     21     -14.8014      2.00000
     22     -14.7259      2.00000
     23     -14.6793      2.00000
     24     -14.5949      2.00000
     25     -14.5905      2.00000
     26     -14.4889      2.00000
     27     -14.4441      2.00000
     28     -14.4359      2.00000
     29      -4.3335      2.00000
     30      -4.1797      2.00000
     31      -4.0490      2.00000
     32      -4.0343      2.00000
     33      -3.7635      2.00000
     34      -3.6884      2.00000
     35      -3.5850      2.00000
     36      -3.5625      2.00000
     37      -3.5373      2.00000
     38      -3.4775      2.00000
     39      -3.4706      2.00000
     40      -3.4429      2.00000
     41      -3.3110      2.00000
     42      -3.2678      2.00000
     43      -3.2071      2.00000
     44      -3.1510      2.00000
     45      -3.1282      2.00000
     46      -3.0952      2.00000
     47      -2.7902      2.00000
     48      -2.7629      2.00000
     49      -2.5801      2.00000
     50      -2.2698      2.00000
     51      -2.1010      2.00000
     52      -1.5937      2.00000
     53      -1.4723      2.00000
     54      -1.2359      2.00000
     55      -0.9924      2.00000
     56      -0.9506      2.00000
     57      -0.8371      2.00000
     58      -0.8197      2.00000
     59      -0.7165      2.00000
     60      -0.7057      2.00000
     61      -0.5848      2.00000
     62      -0.5568      2.00000
     63      -0.3986      2.00000
     64       0.0454      2.00000
     65       2.7163      0.00000
     66       2.9721      0.00000
     67       3.0584      0.00000
     68       3.1749      0.00000
     69       3.2613      0.00000
     70       3.3441      0.00000
     71       3.4011      0.00000
     72       3.4181      0.00000
     73       3.5057      0.00000
     74       3.5927      0.00000
     75       3.6947      0.00000
     76       3.7307      0.00000

 k-point     9 :       0.4286    0.2857    0.0000
  band No.  band energies     occupation 
      1     -33.7555      2.00000
      2     -32.7647      2.00000
      3     -32.6745      2.00000
      4     -32.6291      2.00000
      5     -17.3238      2.00000
      6     -17.1188      2.00000
      7     -16.9039      2.00000
      8     -16.6762      2.00000
      9     -16.6377      2.00000
     10     -16.6199      2.00000
     11     -16.4924      2.00000
     12     -16.4808      2.00000
     13     -16.3867      2.00000
     14     -16.0985      2.00000
     15     -16.0287      2.00000
     16     -15.9111      2.00000
     17     -15.8766      2.00000
     18     -15.6189      2.00000
     19     -15.0847      2.00000
     20     -14.9282      2.00000
     21     -14.8718      2.00000
     22     -14.7541      2.00000
     23     -14.6794      2.00000
     24     -14.6232      2.00000
     25     -14.5740      2.00000
     26     -14.5437      2.00000
     27     -14.4924      2.00000
     28     -14.4238      2.00000
     29      -4.4980      2.00000
     30      -4.3968      2.00000
     31      -4.2933      2.00000
     32      -4.1809      2.00000
     33      -4.1078      2.00000
     34      -4.0696      2.00000
     35      -4.0049      2.00000
     36      -3.9075      2.00000
     37      -3.7602      2.00000
     38      -3.7291      2.00000
     39      -3.6452      2.00000
     40      -3.6057      2.00000
     41      -3.5484      2.00000
     42      -3.4795      2.00000
     43      -3.4369      2.00000
     44      -3.2854      2.00000
     45      -3.1701      2.00000
     46      -3.1223      2.00000
     47      -3.0609      2.00000
     48      -2.9735      2.00000
     49      -2.6747      2.00000
     50      -2.5482      2.00000
     51      -2.1440      2.00000
     52      -1.5555      2.00000
     53      -1.4345      2.00000
     54      -1.3235      2.00000
     55      -1.0062      2.00000
     56      -0.9487      2.00000
     57      -0.7476      2.00000
     58      -0.6701      2.00000
     59      -0.6053      2.00000
     60      -0.5748      2.00000
     61      -0.5542      2.00000
     62      -0.4563      2.00000
     63      -0.2160      2.00000
     64       0.2088      2.00000
     65       2.8464      0.00000
     66       3.1592      0.00000
     67       3.4321      0.00000
     68       3.4710      0.00000
     69       3.6314      0.00000
     70       3.6429      0.00000
     71       3.7688      0.00000
     72       3.7855      0.00000
     73       3.8486      0.00000
     74       3.9114      0.00000
     75       3.9950      0.00000
     76       7.8220      0.00000

 k-point    10 :       0.4286    0.4286    0.0000
  band No.  band energies     occupation 
      1     -33.7498      2.00000
      2     -32.7581      2.00000
      3     -32.6680      2.00000
      4     -32.6225      2.00000
      5     -17.0459      2.00000
      6     -16.8479      2.00000
      7     -16.7208      2.00000
      8     -16.6848      2.00000
      9     -16.6280      2.00000
     10     -16.5858      2.00000
     11     -16.4488      2.00000
     12     -16.4196      2.00000
     13     -16.3829      2.00000
     14     -16.0100      2.00000
     15     -15.9215      2.00000
     16     -15.8904      2.00000
     17     -15.8145      2.00000
     18     -15.6531      2.00000
     19     -15.3836      2.00000
     20     -14.9791      2.00000
     21     -14.9280      2.00000
     22     -14.9202      2.00000
     23     -14.7739      2.00000
     24     -14.7030      2.00000
     25     -14.6282      2.00000
     26     -14.5741      2.00000
     27     -14.4900      2.00000
     28     -14.4691      2.00000
     29      -4.6060      2.00000
     30      -4.5279      2.00000
     31      -4.4671      2.00000
     32      -4.3965      2.00000
     33      -4.2747      2.00000
     34      -4.2396      2.00000
     35      -4.1711      2.00000
     36      -4.1606      2.00000
     37      -4.0764      2.00000
     38      -4.0324      2.00000
     39      -3.9170      2.00000
     40      -3.8538      2.00000
     41      -3.7925      2.00000
     42      -3.7338      2.00000
     43      -3.5275      2.00000
     44      -3.4740      2.00000
     45      -3.4584      2.00000
     46      -3.3939      2.00000
     47      -3.1494      2.00000
     48      -3.1164      2.00000
     49      -2.7588      2.00000
     50      -2.6628      2.00000
     51      -2.4063      2.00000
     52      -1.4261      2.00000
     53      -1.3540      2.00000
     54      -1.3453      2.00000
     55      -0.9481      2.00000
     56      -0.9030      2.00000
     57      -0.5480      2.00000
     58      -0.5048      2.00000
     59      -0.2933      2.00000
     60      -0.2546      2.00000
     61      -0.2290      2.00000
     62      -0.1822      2.00000
     63      -0.1545      2.00000
     64       0.5522      2.00000
     65       3.4159      0.00000
     66       3.4801      0.00000
     67       3.6694      0.00000
     68       3.7189      0.00000
     69       3.8826      0.00000
     70       3.9192      0.00000
     71       3.9909      0.00000
     72       4.0367      0.00000
     73       4.0867      0.00000
     74       7.2277      0.00000
     75       7.3454      0.00000
     76       7.5274      0.00000


--------------------------------------------------------------------------------------------------------


 soft charge-density along one line, spin component           1
         0         1         2         3         4         5         6         7         8         9
 total charge-density along one line
 
 pseudopotential strength for first ion, spin component:           1
 12.656  -0.342   0.000  -0.022   0.000  -0.000   0.001  -0.000
 -0.342   0.083  -0.000   0.002  -0.000   0.000  -0.000   0.000
  0.000  -0.000  -8.950   0.000  -0.000  -0.091  -0.000   0.000
 -0.022   0.002   0.000  -8.971   0.000  -0.000  -0.088  -0.000
  0.000  -0.000  -0.000   0.000  -8.950   0.000  -0.000  -0.091
 -0.000   0.000  -0.091  -0.000   0.000   0.247   0.000  -0.000
  0.001  -0.000  -0.000  -0.088  -0.000   0.000   0.246   0.000
 -0.000   0.000   0.000  -0.000  -0.091  -0.000   0.000   0.247
 total augmentation occupancy for first ion, spin component:           1
  1.862   0.115   0.000  -0.006  -0.000   0.000   0.013   0.000
  0.115   0.011   0.000   0.026  -0.000   0.000   0.005   0.000
 -0.000   0.000   1.520   0.000   0.000   0.126   0.000   0.000
 -0.006   0.026   0.000   1.520  -0.000   0.000   0.136   0.000
  0.000   0.000   0.000   0.000   1.520   0.000  -0.000   0.126
  0.000   0.000   0.126   0.000   0.000   0.012   0.000   0.000
  0.013   0.005   0.000   0.136   0.000   0.000   0.013   0.000
 -0.000   0.000   0.000   0.000   0.126   0.000  -0.000   0.012


------------------------ aborting loop because EDIFF is reached ----------------------------------------


    CHARGE:  cpu time    0.3979: real time    0.3985
    FORLOC:  cpu time    0.0380: real time    0.0374
    FORNL :  cpu time    4.2444: real time    4.2431
    STRESS:  cpu time    9.4856: real time    9.4835
    FORCOR:  cpu time    0.2060: real time    0.2053
    FORHAR:  cpu time    0.0700: real time    0.0704
    MIXING:  cpu time    0.0120: real time    0.0119
    OFIELD:  cpu time    0.0000: real time    0.0000

  FORCE on cell =-STRESS in cart. coord.  units (eV):
  Direction    XX          YY          ZZ          XY          YZ          ZX
  --------------------------------------------------------------------------------------
  Alpha Z   451.31605   451.31605   451.31605
  Ewald   30025.31756 30025.31756-35136.94585     0.00000     0.00000     0.00000
  Hartree 32582.08365 32582.08365-31379.78723    -0.00000    -0.00000    -0.00000
  E(xc)    -579.84751  -579.84751  -579.34504    -0.00000    -0.00000    -0.00000
  Local  -64349.96194-64349.96194 64782.24577     0.00000    -0.00000     0.00000
  n-local  -487.93986  -464.86854  -478.67643    -1.75513     0.00005     0.00006
  augment   115.80397   115.80397   114.80186     0.00000     0.00000    -0.00000
  Kinetic  2212.08138  2257.81081  2230.80095    -9.55396    -0.00001    -0.00006
  Fock        0.00000     0.00000     0.00000     0.00000     0.00000     0.00000
  -------------------------------------------------------------------------------------
  Total       3.25368     3.25368     4.41008     0.00000    -0.00000     0.00000
  in kB      13.31633    13.31633    18.04910     0.00000    -0.00000     0.00000
  external pressure =       14.89 kB  Pullay stress =        0.00 kB


 VOLUME and BASIS-vectors are now :
 -----------------------------------------------------------------------------
  energy-cutoff  :      850.00
  volume of cell :      391.47
      direct lattice vectors                 reciprocal lattice vectors
     3.905268000  0.000000000  0.000000000     0.256064373  0.000000000  0.000000000
     0.000000000  3.905268000  0.000000000     0.000000000  0.256064373  0.000000000
     0.000000000  0.000000000 25.668438000     0.000000000  0.000000000  0.038958350

  length of vectors
     3.905268000  3.905268000 25.668438000     0.256064373  0.256064373  0.038958350


 FORCES acting on ions
    electron-ion (+dipol)            ewald-force                    non-local-force                 convergence-correction
 -----------------------------------------------------------------------------------------------
   0.143E-12 -.138E-12 0.157E+04   -.276E-14 0.267E-14 -.158E+04   0.847E-21 -.169E-20 0.789E+01   0.141E-13 0.135E-13 0.216E-02
   0.156E-12 0.455E-13 0.112E+04   -.723E-14 -.374E-14 -.111E+04   0.000E+00 -.424E-21 -.244E+00   -.559E-14 0.166E-13 0.689E-03
   -.455E-14 0.342E-12 0.112E+04   0.548E-14 -.847E-14 -.111E+04   0.000E+00 -.424E-21 -.244E+00   -.860E-14 0.129E-13 0.689E-03
   0.156E-12 0.509E-13 0.669E+03   -.956E-14 -.300E-14 -.669E+03   0.000E+00 0.424E-21 0.675E+00   0.545E-15 -.615E-14 0.458E-03
   0.162E-12 0.846E-13 0.223E+03   -.458E-14 -.321E-14 -.223E+03   0.000E+00 -.635E-21 0.208E+00   0.122E-13 0.343E-14 -.106E-03
   -.862E-14 -.328E-12 0.223E+03   0.843E-14 -.119E-13 -.223E+03   0.000E+00 0.318E-21 0.208E+00   0.147E-13 -.671E-14 -.106E-03
   0.152E-12 -.378E-12 -.223E+03   0.148E-14 0.548E-14 0.223E+03   0.000E+00 0.000E+00 0.551E+00   -.808E-15 -.800E-14 -.783E-03
   0.145E-12 -.111E-12 -.669E+03   -.364E-14 -.423E-14 0.669E+03   0.000E+00 0.212E-21 0.406E-01   0.168E-14 -.809E-14 -.689E-03
   -.147E-13 -.910E-14 -.669E+03   0.918E-14 -.129E-13 0.669E+03   0.000E+00 -.529E-21 0.406E-01   0.822E-14 0.172E-15 -.689E-03
   0.144E-12 -.437E-13 -.112E+04   -.275E-14 -.659E-17 0.111E+04   0.000E+00 0.847E-21 0.272E+01   0.618E-14 -.138E-13 0.554E-03
   0.171E-12 0.240E-12 -.154E+04   -.662E-14 -.619E-14 0.154E+04   0.424E-21 0.000E+00 -.219E+01   -.539E-14 -.266E-13 0.197E-02
   -.195E-14 0.393E-12 -.154E+04   0.656E-14 -.517E-14 0.154E+04   0.000E+00 0.000E+00 -.219E+01   -.186E-14 -.283E-13 0.197E-02
   -.932E-14 0.232E-12 0.255E+04   0.718E-14 0.728E-15 -.255E+04   -.635E-21 0.000E+00 -.499E+01   0.131E-13 0.281E-13 0.264E-02
   -.369E-14 -.893E-13 0.111E+04   0.107E-13 0.217E-14 -.111E+04   0.000E+00 -.529E-22 0.177E-01   0.622E-14 -.402E-14 0.490E-03
   -.336E-14 -.162E-14 -.372E+03   0.231E-14 0.116E-13 0.372E+03   0.000E+00 -.212E-21 0.105E+00   0.155E-14 -.293E-14 -.745E-03
   -.402E-14 -.156E-12 -.186E+04   0.115E-13 0.210E-14 0.186E+04   0.000E+00 0.000E+00 -.810E+00   0.730E-14 -.259E-13 0.558E-03
   0.464E-14 -.163E-12 0.743E+03   -.881E-14 0.112E-13 -.744E+03   0.000E+00 -.424E-21 -.381E+00   0.312E-16 -.486E-14 0.565E-03
   0.702E-14 -.426E-12 0.148E+03   -.903E-14 0.795E-14 -.149E+03   0.298E-22 0.000E+00 -.865E-01   -.263E-14 -.102E-14 -.599E-04
   0.105E-13 0.773E-14 -.446E+03   -.935E-14 0.112E-13 0.446E+03   0.529E-22 0.000E+00 -.130E-01   -.188E-14 0.301E-14 -.433E-03
   0.338E-14 -.122E-12 -.105E+04   -.597E-14 0.907E-14 0.104E+04   0.000E+00 0.000E+00 0.144E+01   0.869E-16 0.899E-14 0.152E-02
 -----------------------------------------------------------------------------------------------
   0.120E-11 -.570E-12 -.275E+01   -.747E-14 0.527E-14 0.909E-12   0.718E-21 -.259E-20 0.275E+01   0.591E-13 -.497E-13 0.106E-01
 
 
 POSITION                                       TOTAL-FORCE (eV/Angst)
 -----------------------------------------------------------------------------------
      1.95263      1.95263      6.00000         0.000000      0.000000     -1.069848
      1.95263      0.00000      7.95263        -0.000000     -0.000000     -0.001778
      0.00000      1.95263      7.95263        -0.000000      0.000000     -0.001778
      1.95263      1.95263      9.90527        -0.000000      0.000000      0.379300
      1.95263      0.00000     11.85790        -0.000000     -0.000000      0.067659
      0.00000      1.95263     11.85790        -0.000000      0.000000      0.067659
      1.95263      1.95263     13.81054        -0.000000      0.000000      0.305970
      1.95263      0.00000     15.76317         0.000000      0.000000      0.021105
      0.00000      1.95263     15.76317        -0.000000      0.000000      0.021105
      1.95263      1.95263     17.71580        -0.000000      0.000000      1.062666
      1.95263      0.00000     19.66844        -0.000000      0.000000      0.453777
      0.00000      1.95263     19.66844        -0.000000     -0.000000      0.453777
      0.00000      0.00000      6.00000        -0.000000     -0.000000      1.192309
      0.00000      0.00000      9.90527        -0.000000     -0.000000     -0.006593
      0.00000      0.00000     13.81054        -0.000000     -0.000000     -0.058587
      0.00000      0.00000     17.71580        -0.000000      0.000000      0.662062
      1.95263      1.95263      7.95263        -0.000000     -0.000000     -1.025973
      1.95263      1.95263     11.85790        -0.000000      0.000000     -0.310705
      1.95263      1.95263     15.76317        -0.000000      0.000000     -0.368612
      1.95263      1.95263     19.66844        -0.000000     -0.000000     -1.843515
 -----------------------------------------------------------------------------------
    total drift:                                0.000000     -0.000000      0.002938


--------------------------------------------------------------------------------------------------------



  FREE ENERGIE OF THE ION-ELECTRON SYSTEM (eV)
  ---------------------------------------------------
  free  energy   TOTEN  =      -156.75685350 eV

  energy  without entropy=     -156.75685350  energy(sigma->0) =     -156.75685350
 


--------------------------------------------------------------------------------------------------------


    POTLOK:  cpu time    0.2030: real time    0.2026


--------------------------------------------------------------------------------------------------------


     LOOP+:  cpu time  360.7971: real time  360.9106
    4ORBIT:  cpu time    0.0000: real time    0.0000
 BZINTS: Fermi energy:  0.634757;128.000000 electrons
         Band energy:***********;  BLOECHL correction:  0.000000

 total amount of memory used by VASP MPI-rank0   183941. kBytes
=======================================================================

   base      :      30000. kBytes
   nonl-proj :      51197. kBytes
   fftplans  :      12451. kBytes
   grid      :      22359. kBytes
   one-center:        155. kBytes
   wavefun   :      67779. kBytes
 
  
  
 General timing and accounting informations for this job:
 ========================================================
  
                  Total CPU time used (sec):      365.265
                            User time (sec):      358.310
                          System time (sec):        6.956
                         Elapsed time (sec):      366.231
  
                   Maximum memory used (kb):      200584.
                   Average memory used (kb):           0.
  
                          Minor page faults:        72010
                          Major page faults:           65
                 Voluntary context switches:         3333
