unknown system                          
   1.00000000000000     
     2.573869    0.000000    0.000000
     1.286934    2.229036    0.000000
     0.000000    0.000000   30.304665
   Cu   H 
     4     1
Direct
  0.999707  0.000587  0.396567
  0.333187  0.333626  0.465140
  0.665828  0.668345  0.533594
  0.000801  0.998399  0.604216
  0.500478  0.999044  0.637503
 
   20   20  240
 -.18853E-01 -.17559E-01 -.13677E-01 -.84056E-02 -.33390E-02 0.22154E-03 0.16807E-02 0.11483E-02 -.72326E-03 -.28806E-02
 -.41313E-02 -.36863E-02 -.17268E-02 0.54214E-03 0.15496E-02 0.27093E-03 -.32877E-02 -.82544E-02 -.13352E-01 -.17258E-01
 -.17474E-01 -.14741E-01 -.98729E-02 -.44686E-02 -.37303E-03 0.11717E-02 0.67881E-04 -.26563E-02 -.53628E-02 -.65725E-02
 -.56617E-02 -.31519E-02 -.40401E-03 0.11235E-02 0.58210E-03 -.20242E-02 -.60722E-02 -.10668E-01 -.14801E-01 -.17385E-01
 -.13621E-01 -.10245E-01 -.56962E-02 -.16253E-02 0.25553E-03 -.10362E-02 -.50903E-02 -.10092E-01 -.13672E-01 -.14192E-01
 -.11601E-01 -.73003E-02 -.32273E-02 -.87743E-03 -.85916E-03 -.29810E-02 -.65212E-02 -.10435E-01 -.13540E-01 -.14788E-01
 -.87003E-02 -.58707E-02 -.29016E-02 -.11633E-02 -.21210E-02 -.65364E-02 -.13608E-01 -.20913E-01 -.25509E-01 -.25518E-01
 -.21078E-01 -.14088E-01 -.71218E-02 -.23124E-02 -.69216E-03 -.20426E-02 -.51459E-02 -.83602E-02 -.10318E-01 -.10391E-01
 -.39457E-02 -.23577E-02 -.16059E-02 -.29579E-02 -.76771E-02 -.16030E-01 -.26405E-01 -.35503E-01 -.39816E-01 -.37489E-01
 -.29336E-01 -.18374E-01 -.82936E-02 -.18107E-02 0.28132E-03 -.96303E-03 -.35264E-02 -.55707E-02 -.61935E-02 -.54613E-02
 -.16716E-03 0.79823E-04 -.18766E-02 -.73896E-02 -.17057E-01 -.29766E-01 -.42387E-01 -.50721E-01 -.51475E-01 -.44108E-01
 -.31267E-01 -.17441E-01 -.66867E-02 -.89337E-03 0.48794E-03 -.57044E-03 -.20491E-02 -.27476E-02 -.23919E-02 -.13122E-02
 0.17574E-02 0.70564E-03 -.43550E-02 -.14442E-01 -.28680E-01 -.43977E-01 -.55802E-01 -.60012E-01 -.54941E-01 -.42439E-01
 -.26996E-01 -.13405E-01 -.45100E-02 -.47845E-03 0.27639E-03 -.37517E-03 -.11387E-02 -.13232E-02 -.63579E-03 0.72132E-03
 0.12853E-02 -.84756E-03 -.84292E-02 -.21531E-01 -.37640E-01 -.52228E-01 -.60483E-01 -.59508E-01 -.49809E-01 -.35055E-01
 -.20145E-01 -.88348E-02 -.24302E-02 -.15534E-03 -.41692E-03 -.17648E-02 -.30640E-02 -.33726E-02 -.21844E-02 -.20088E-04
 -.84843E-03 -.33858E-02 -.11775E-01 -.25069E-01 -.39822E-01 -.51268E-01 -.55390E-01 -.50820E-01 -.39435E-01 -.25299E-01
 -.12687E-01 -.43869E-02 -.11019E-02 -.18720E-02 -.48868E-02 -.81590E-02 -.99848E-02 -.93672E-02 -.64534E-02 -.27575E-02
 -.29759E-02 -.51651E-02 -.12752E-01 -.24049E-01 -.35482E-01 -.42943E-01 -.43632E-01 -.37319E-01 -.26352E-01 -.14550E-01
 -.56731E-02 -.21117E-02 -.41464E-02 -.99706E-02 -.16511E-01 -.20763E-01 -.21006E-01 -.17334E-01 -.11395E-01 -.57205E-02
 -.38706E-02 -.55312E-02 -.11674E-01 -.20016E-01 -.27327E-01 -.30658E-01 -.28576E-01 -.21773E-01 -.12835E-01 -.53362E-02
 -.25492E-02 -.60727E-02 -.14912E-01 -.25659E-01 -.33966E-01 -.36610E-01 -.32900E-01 -.24660E-01 -.15080E-01 -.73740E-02
 -.32629E-02 -.46389E-02 -.92035E-02 -.14310E-01 -.17517E-01 -.17345E-01 -.13740E-01 -.81538E-02 -.32099E-02 -.19211E-02
 -.65125E-02 -.17171E-01 -.31403E-01 -.44651E-01 -.52183E-01 -.51296E-01 -.42566E-01 -.29402E-01 -.16320E-01 -.70274E-02
 -.14234E-02 -.25801E-02 -.55083E-02 -.78412E-02 -.82512E-02 -.65306E-02 -.34847E-02 -.78721E-03 -.67373E-03 -.52985E-02
 -.15759E-01 -.31111E-01 -.47967E-01 -.61282E-01 -.66339E-01 -.61074E-01 -.47299E-01 -.29924E-01 -.14523E-01 -.48018E-02
 0.79912E-03 -.70694E-04 -.17643E-02 -.27180E-02 -.24258E-02 -.11459E-02 0.23365E-03 0.20286E-03 -.31647E-02 -.11572E-01
 -.25484E-01 -.43146E-01 -.60355E-01 -.71616E-01 -.72570E-01 -.62416E-01 -.44658E-01 -.25399E-01 -.10220E-01 -.17271E-02
 0.17974E-02 0.95429E-03 -.33225E-03 -.11340E-02 -.11091E-02 -.39409E-03 0.18505E-03 -.10511E-02 -.62635E-02 -.17033E-01
 -.33002E-01 -.51068E-01 -.65963E-01 -.72388E-01 -.67696E-01 -.53461E-01 -.34737E-01 -.17415E-01 -.54303E-02 0.43815E-03
 0.19312E-03 -.10399E-02 -.22506E-02 -.27495E-02 -.22079E-02 -.87804E-03 0.13591E-04 -.17365E-02 -.84333E-02 -.20905E-01
 -.37200E-01 -.52710E-01 -.62070E-01 -.61851E-01 -.52332E-01 -.37225E-01 -.21595E-01 -.94392E-02 -.23442E-02 0.30698E-03
 -.38470E-02 -.54514E-02 -.61015E-02 -.54111E-02 -.34792E-02 -.11015E-02 0.18067E-04 -.23880E-02 -.99388E-02 -.22096E-01
 -.35604E-01 -.45713E-01 -.48627E-01 -.43528E-01 -.32804E-01 -.20508E-01 -.10274E-01 -.39901E-02 -.16755E-02 -.21458E-02
 -.89082E-02 -.10429E-01 -.10052E-01 -.79562E-02 -.48444E-02 -.19009E-02 -.75237E-03 -.30116E-02 -.92931E-02 -.18316E-01
 -.27018E-01 -.31957E-01 -.31160E-01 -.25151E-01 -.16492E-01 -.83491E-02 -.30680E-02 -.14772E-02 -.29593E-02 -.60006E-02
 -.13691E-01 -.14684E-01 -.13284E-01 -.10132E-01 -.62594E-02 -.28485E-02 -.10780E-02 -.18565E-02 -.53498E-02 -.10570E-01
 -.15493E-01 -.17903E-01 -.16560E-01 -.11949E-01 -.60783E-02 -.14587E-02 0.11657E-03 -.16931E-02 -.58108E-02 -.10394E-01
 -.17336E-01 -.17411E-01 -.14908E-01 -.10698E-01 -.60203E-02 -.20510E-02 0.34474E-03 0.68248E-03 -.10377E-02 -.41149E-02
 -.71173E-02 -.84085E-02 -.71130E-02 -.38246E-02 -.39499E-03 0.11322E-02 -.32798E-03 -.44328E-02 -.97596E-02 -.14543E-01
 -.76067E-02 -.69081E-02 -.53631E-02 -.35423E-02 -.19496E-02 -.83909E-03 -.22274E-03 0.49239E-05 -.49028E-04 -.30292E-03
 -.65411E-03 -.94466E-03 -.10181E-02 -.85791E-03 -.69269E-03 -.93294E-03 -.19191E-02 -.36345E-02 -.56098E-02 -.71275E-02
 -.69344E-02 -.57277E-02 -.37114E-02 -.16577E-02 -.36993E-03 -.22908E-03 -.96561E-03 -.18358E-02 -.21168E-02 -.15803E-02
 -.59389E-03 0.20864E-03 0.39434E-03 -.53353E-04 -.89471E-03 -.19406E-02 -.31782E-02 -.46146E-02 -.60394E-02 -.69794E-02
 -.55406E-02 -.41849E-02 -.22867E-02 -.69918E-03 -.12537E-03 -.66894E-03 -.17567E-02 -.25209E-02 -.23901E-02 -.14542E-02
 -.33391E-03 0.31791E-03 0.25601E-03 -.31578E-03 -.10649E-02 -.18618E-02 -.28107E-02 -.39869E-02 -.51686E-02 -.58468E-02
 -.38105E-02 -.27643E-02 -.15933E-02 -.73485E-03 -.40423E-03 -.55010E-03 -.95866E-03 -.14015E-02 -.17238E-02 -.18464E-02
 -.17344E-02 -.13926E-02 -.90569E-03 -.47092E-03 -.35948E-03 -.78568E-03 -.17486E-02 -.29611E-02 -.39469E-02 -.42781E-02
 -.18586E-02 -.14326E-02 -.11208E-02 -.78801E-03 -.35985E-03 -.27344E-04 -.16387E-03 -.97649E-03 -.22026E-02 -.31750E-02
 -.32640E-02 -.23546E-02 -.96104E-03 0.11475E-03 0.30966E-03 -.37734E-03 -.14585E-02 -.23205E-02 -.26016E-02 -.23442E-02
 -.15112E-03 -.27801E-03 -.61608E-03 -.85623E-03 -.89878E-03 -.96265E-03 -.13624E-02 -.21410E-02 -.29169E-02 -.31306E-02
 -.25039E-02 -.13106E-02 -.21122E-03 0.21286E-03 -.14866E-03 -.90414E-03 -.14744E-02 -.14941E-02 -.10214E-02 -.44044E-03
 0.64862E-03 0.33924E-03 -.42325E-03 -.14459E-02 -.24172E-02 -.30436E-02 -.31658E-02 -.28029E-02 -.21211E-02 -.13570E-02
 -.73034E-03 -.37590E-03 -.31203E-03 -.45368E-03 -.65677E-03 -.77101E-03 -.68636E-03 -.37306E-03 0.88026E-04 0.50751E-03
 0.56605E-03 0.40295E-03 -.46963E-03 -.18854E-02 -.32225E-02 -.37969E-02 -.33499E-02 -.22357E-02 -.11482E-02 -.60874E-03
 -.63234E-03 -.81880E-03 -.74679E-03 -.31849E-03 0.21225E-03 0.50536E-03 0.44095E-03 0.21067E-03 0.12906E-03 0.32401E-03
 0.22173E-03 0.26073E-03 -.25789E-03 -.12423E-02 -.22266E-02 -.27327E-02 -.26378E-02 -.22201E-02 -.18566E-02 -.16704E-02
 -.14546E-02 -.92038E-03 -.16232E-04 0.96958E-03 0.15986E-02 0.15950E-02 0.10437E-02 0.33875E-03 -.82225E-04 -.46152E-04
 -.13002E-03 -.48246E-04 -.44221E-05 -.27516E-03 -.93925E-03 -.18177E-02 -.25751E-02 -.28969E-02 -.26355E-02 -.18592E-02
 -.79814E-03 0.27554E-03 0.11622E-02 0.17749E-02 0.20928E-02 0.20967E-02 0.17709E-02 0.11786E-02 0.51310E-03 0.28133E-04
 -.59767E-03 -.69332E-03 -.42375E-03 -.36584E-03 -.84979E-03 -.16753E-02 -.22667E-02 -.21394E-02 -.12844E-02 -.15280E-03
 0.72740E-03 0.11618E-02 0.13827E-02 0.17694E-02 0.24539E-02 0.31519E-02 0.33606E-02 0.27634E-02 0.15205E-02 0.20291E-03
 -.82268E-03 -.12555E-02 -.12315E-02 -.11158E-02 -.10779E-02 -.99326E-03 -.64921E-03 -.32747E-04 0.60415E-03 0.97736E-03
 0.10682E-02 0.11824E-02 0.16974E-02 0.27175E-02 0.39251E-02 0.47425E-02 0.46794E-02 0.36343E-02 0.19677E-02 0.30402E-03
 -.25116E-03 -.98378E-03 -.12880E-02 -.10974E-02 -.51790E-03 0.16698E-03 0.62268E-03 0.67723E-03 0.47875E-03 0.44420E-03
 0.98357E-03 0.21824E-02 0.36951E-02 0.49469E-02 0.54856E-02 0.52098E-02 0.43313E-02 0.31618E-02 0.19323E-02 0.76407E-03
 0.71337E-03 -.42125E-04 -.48223E-03 -.41116E-03 -.34502E-04 0.19404E-03 -.82863E-05 -.43290E-03 -.46677E-03 0.44176E-03
 0.22989E-02 0.44612E-02 0.60129E-02 0.63491E-02 0.55318E-02 0.41752E-02 0.29758E-02 0.22580E-02 0.18606E-02 0.14085E-02
 0.89119E-03 0.39159E-03 -.86746E-04 -.39694E-03 -.58421E-03 -.76341E-03 -.88825E-03 -.67617E-03 0.20018E-03 0.18057E-02
 0.37826E-02 0.54782E-02 0.62808E-02 0.59490E-02 0.47367E-02 0.32414E-02 0.20611E-02 0.14663E-02 0.13049E-02 0.12026E-02
 -.19080E-03 -.46310E-03 -.93260E-03 -.13176E-02 -.13412E-02 -.91898E-03 -.18081E-03 0.65680E-03 0.14606E-02 0.22612E-02
 0.31659E-02 0.41587E-02 0.49681E-02 0.51701E-02 0.44976E-02 0.31075E-02 0.15444E-02 0.39195E-03 -.10885E-03 -.16427E-03
 -.19207E-02 -.22382E-02 -.25084E-02 -.23445E-02 -.15518E-02 -.36735E-03 0.67280E-03 0.11458E-02 0.10961E-02 0.10240E-02
 0.14852E-02 0.26044E-02 0.38986E-02 0.45792E-02 0.41149E-02 0.26196E-02 0.76327E-03 -.71218E-03 -.14791E-02 -.17398E-02
 -.37274E-02 -.42054E-02 -.40890E-02 -.32908E-02 -.20594E-02 -.87907E-03 -.15125E-03 0.83905E-04 0.14880E-03 0.44907E-03
 0.11473E-02 0.20431E-02 0.27240E-02 0.28425E-02 0.23127E-02 0.13158E-02 0.14653E-03 -.97455E-03 -.19872E-02 -.29195E-02
 -.55477E-02 -.59408E-02 -.54210E-02 -.43551E-02 -.31966E-02 -.21885E-02 -.12811E-02 -.32435E-03 0.65389E-03 0.13717E-02
 0.15207E-02 0.10869E-02 0.43497E-03 0.38024E-04 0.78746E-04 0.27728E-03 0.97994E-04 -.83783E-03 -.24548E-02 -.42421E-02
 -.70742E-02 -.70087E-02 -.60494E-02 -.47328E-02 -.34311E-02 -.21855E-02 -.88628E-03 0.40350E-03 0.13195E-02 0.14291E-02
 0.64482E-03 -.57156E-03 -.14547E-02 -.14848E-02 -.80589E-03 -.16066E-03 -.37349E-03 -.17640E-02 -.39172E-02 -.59524E-02
 0.19138E-01 0.18062E-01 0.14205E-01 0.87798E-02 0.35962E-02 0.16267E-03 -.92793E-03 -.19183E-04 0.19418E-02 0.37616E-02
 0.43678E-02 0.32837E-02 0.10049E-02 -.11434E-02 -.17412E-02 -.75280E-04 0.36085E-02 0.84469E-02 0.13386E-01 0.17320E-01
 0.17807E-01 0.15337E-01 0.11058E-01 0.62757E-02 0.22357E-02 -.21726E-03 -.70529E-03 0.68339E-03 0.32822E-02 0.58263E-02
 0.68889E-02 0.57232E-02 0.28918E-02 0.63376E-04 -.95882E-03 0.74620E-03 0.48392E-02 0.10047E-01 0.14773E-01 0.17628E-01
 0.13538E-01 0.10334E-01 0.65076E-02 0.30750E-02 0.96711E-03 0.95772E-03 0.33422E-02 0.75085E-02 0.11865E-01 0.14439E-01
 0.13906E-01 0.10396E-01 0.55093E-02 0.15104E-02 0.20434E-03 0.21032E-02 0.62816E-02 0.10920E-01 0.14201E-01 0.15078E-01
 0.81401E-02 0.51483E-02 0.23836E-02 0.10677E-02 0.24579E-02 0.71575E-02 0.14305E-01 0.21505E-01 0.25887E-01 0.25650E-01
 0.21004E-01 0.13918E-01 0.70343E-02 0.25176E-02 0.13461E-02 0.31374E-02 0.64536E-02 0.94996E-02 0.10935E-01 0.10345E-01
 0.38375E-02 0.15947E-02 0.45967E-03 0.23291E-02 0.85462E-02 0.18623E-01 0.29766E-01 0.37957E-01 0.40068E-01 0.35546E-01
 0.26495E-01 0.16309E-01 0.79575E-02 0.29857E-02 0.14332E-02 0.23117E-02 0.42198E-02 0.58804E-02 0.64751E-02 0.57228E-02
 0.12106E-02 0.75326E-04 0.13224E-02 0.70136E-02 0.17735E-01 0.31568E-01 0.44404E-01 0.51734E-01 0.50936E-01 0.42587E-01
 0.29985E-01 0.17294E-01 0.75988E-02 0.19968E-02 -.72705E-04 0.10989E-03 0.13046E-02 0.25580E-02 0.31470E-02 0.26340E-02
 -.16954E-03 0.35726E-03 0.45044E-02 0.13632E-01 0.27252E-01 0.42538E-01 0.54986E-01 0.60232E-01 0.56216E-01 0.44374E-01
 0.28943E-01 0.14736E-01 0.48832E-02 -.42735E-04 -.12984E-02 -.61789E-03 0.64288E-03 0.15975E-02 0.16896E-02 0.84317E-03
 -.13692E-03 0.22518E-02 0.90301E-02 0.20531E-01 0.35274E-01 0.49814E-01 0.59591E-01 0.60846E-01 0.52695E-01 0.37918E-01
 0.21652E-01 0.87384E-02 0.15372E-02 -.46413E-03 0.57485E-03 0.24078E-02 0.35566E-02 0.34067E-02 0.20787E-02 0.40351E-03
 0.13344E-02 0.48146E-02 0.13223E-01 0.25749E-01 0.39699E-01 0.50994E-01 0.55624E-01 0.51571E-01 0.40052E-01 0.25123E-01
 0.11741E-01 0.34529E-02 0.11105E-02 0.31375E-02 0.68206E-02 0.96695E-02 0.10240E-01 0.83662E-02 0.50272E-02 0.19933E-02
 0.28105E-02 0.61592E-02 0.14859E-01 0.26668E-01 0.37695E-01 0.43949E-01 0.43121E-01 0.35614E-01 0.24249E-01 0.12949E-01
 0.51669E-02 0.27547E-02 0.55207E-02 0.11480E-01 0.17679E-01 0.21342E-01 0.20932E-01 0.16670E-01 0.10381E-01 0.48292E-02
 0.27828E-02 0.52327E-02 0.12787E-01 0.22049E-01 0.29005E-01 0.30919E-01 0.27420E-01 0.20258E-01 0.12226E-01 0.61183E-02
 0.41112E-02 0.72740E-02 0.15027E-01 0.24923E-01 0.33315E-01 0.36862E-01 0.34060E-01 0.25909E-01 0.15469E-01 0.66571E-02
 0.17010E-02 0.30214E-02 0.82566E-02 0.14104E-01 0.17699E-01 0.17697E-01 0.14469E-01 0.96050E-02 0.53117E-02 0.39598E-02
 0.75216E-02 0.16641E-01 0.29725E-01 0.42945E-01 0.51615E-01 0.52363E-01 0.44783E-01 0.31597E-01 0.17358E-01 0.65063E-02
 0.93924E-03 0.11746E-02 0.38603E-02 0.68400E-02 0.85133E-02 0.80584E-02 0.56588E-02 0.27051E-02 0.16508E-02 0.52223E-02
 0.15060E-01 0.30387E-01 0.47581E-01 0.61258E-01 0.66572E-01 0.61577E-01 0.48189E-01 0.31160E-01 0.15722E-01 0.53647E-02
 0.61346E-03 0.31412E-03 0.13610E-02 0.26046E-02 0.30660E-02 0.20959E-02 0.77629E-04 -.10832E-02 0.15394E-02 0.10399E-01
 0.25776E-01 0.44882E-01 0.62427E-01 0.72653E-01 0.71973E-01 0.60817E-01 0.43426E-01 0.25611E-01 0.11885E-01 0.38528E-02
 0.26640E-03 0.48880E-03 0.11104E-02 0.14103E-02 0.89379E-03 -.47244E-03 -.16823E-02 -.56210E-03 0.54120E-02 0.17625E-01
 0.34978E-01 0.53549E-01 0.67736E-01 0.72608E-01 0.66381E-01 0.51470E-01 0.33268E-01 0.17326E-01 0.67887E-02 0.17090E-02
 0.82735E-03 0.22108E-02 0.29248E-02 0.26534E-02 0.16218E-02 0.44131E-03 0.25199E-03 0.27706E-02 0.97612E-02 0.21879E-01
 0.37513E-01 0.52620E-01 0.62110E-01 0.62293E-01 0.52916E-01 0.37417E-01 0.21132E-01 0.86289E-02 0.18474E-02 -.76339E-05
 0.37708E-02 0.58487E-02 0.63901E-02 0.55940E-02 0.41400E-02 0.27651E-02 0.24170E-02 0.45159E-02 0.10530E-01 0.20754E-01
 0.33230E-01 0.43997E-01 0.48885E-01 0.45758E-01 0.35687E-01 0.22358E-01 0.10201E-01 0.24020E-02 -.19563E-03 0.10628E-02
 0.87580E-02 0.10602E-01 0.10457E-01 0.86792E-02 0.59891E-02 0.32932E-02 0.18558E-02 0.32186E-02 0.83833E-02 0.16703E-01
 0.25576E-01 0.31534E-01 0.32100E-01 0.27101E-01 0.18610E-01 0.97769E-02 0.34020E-02 0.93312E-03 0.21332E-02 0.54240E-02
 0.13852E-01 0.14977E-01 0.13698E-01 0.10297E-01 0.57933E-02 0.17774E-02 -.20907E-04 0.15255E-02 0.61809E-02 0.12150E-01
 0.16825E-01 0.18152E-01 0.15724E-01 0.10865E-01 0.57617E-02 0.23322E-02 0.15429E-02 0.33230E-02 0.68278E-02 0.10785E-01
 0.17557E-01 0.17764E-01 0.15091E-01 0.10159E-01 0.46322E-02 0.52299E-03 -.78818E-03 0.79729E-03 0.40969E-02 0.72426E-02
 0.85732E-02 0.74315E-02 0.44721E-02 0.12729E-02 -.54683E-03 -.12607E-03 0.24244E-02 0.63804E-02 0.10853E-01 0.14921E-01
 0.81101E-02 0.81424E-02 0.66399E-02 0.42761E-02 0.22696E-02 0.13497E-02 0.12773E-02 0.13653E-02 0.12635E-02 0.10948E-02
 0.98475E-03 0.78246E-03 0.35910E-03 -.23669E-04 0.11620E-03 0.96584E-03 0.22653E-02 0.37044E-02 0.52494E-02 0.68779E-02
 0.76122E-02 0.67644E-02 0.51470E-02 0.34558E-02 0.21618E-02 0.12362E-02 0.46161E-03 -.73733E-04 0.25403E-04 0.90499E-03
 0.20447E-02 0.25830E-02 0.21112E-02 0.10823E-02 0.41517E-03 0.75344E-03 0.21053E-02 0.40280E-02 0.59474E-02 0.72973E-02
 0.53442E-02 0.40292E-02 0.28870E-02 0.19876E-02 0.11730E-02 0.42019E-03 -.33081E-04 0.11313E-03 0.91841E-03 0.20580E-02
 0.29432E-02 0.30503E-02 0.22893E-02 0.11738E-02 0.58808E-03 0.12070E-02 0.29591E-02 0.50028E-02 0.62988E-02 0.63260E-02
 0.28636E-02 0.18327E-02 0.11631E-02 0.75093E-03 0.67288E-03 0.11185E-02 0.19679E-02 0.27028E-02 0.28706E-02 0.25187E-02
 0.20326E-02 0.16300E-02 0.12313E-02 0.86230E-03 0.93382E-03 0.18624E-02 0.34267E-02 0.47330E-02 0.49677E-02 0.41190E-02
 0.18255E-02 0.10320E-02 0.44362E-03 0.46817E-03 0.14258E-02 0.30541E-02 0.44178E-02 0.45854E-02 0.34813E-02 0.19603E-02
 0.97567E-03 0.75413E-03 0.85081E-03 0.87865E-03 0.95882E-03 0.14093E-02 0.21897E-02 0.28480E-02 0.29772E-02 0.25561E-02
 0.15463E-02 0.70585E-03 0.25805E-03 0.72843E-03 0.20597E-02 0.36013E-02 0.45475E-02 0.44952E-02 0.36746E-02 0.26814E-02
 0.19755E-02 0.15881E-02 0.12523E-02 0.77530E-03 0.27831E-03 0.97759E-04 0.46091E-03 0.12299E-02 0.19344E-02 0.20843E-02
 0.74317E-03 0.33754E-03 0.43016E-03 0.97127E-03 0.17122E-02 0.25757E-02 0.35971E-02 0.45738E-02 0.50127E-02 0.45616E-02
 0.34061E-02 0.21077E-02 0.10756E-02 0.33082E-03 -.20808E-03 -.40517E-03 -.58865E-04 0.67926E-03 0.12596E-02 0.12373E-02
 0.20690E-04 0.61891E-03 0.12448E-02 0.15617E-02 0.17698E-02 0.24713E-02 0.38702E-02 0.52673E-02 0.55870E-02 0.44439E-02
 0.25497E-02 0.10105E-02 0.34199E-03 0.25422E-03 0.24647E-03 0.15123E-03 0.61724E-04 -.71178E-05 -.12993E-03 -.20951E-03
 0.28356E-03 0.14547E-02 0.23109E-02 0.27743E-02 0.31477E-02 0.37138E-02 0.43035E-02 0.43562E-02 0.34833E-02 0.19518E-02
 0.54439E-03 -.86528E-04 0.75088E-04 0.49687E-03 0.60527E-03 0.19656E-03 -.52500E-03 -.11526E-02 -.12995E-02 -.77594E-03
 0.49693E-03 0.14295E-02 0.25250E-02 0.36058E-02 0.42176E-02 0.40139E-02 0.31155E-02 0.20122E-02 0.11289E-02 0.55848E-03
 0.19478E-03 -.21464E-04 -.96070E-04 -.14579E-03 -.38896E-03 -.88762E-03 -.13811E-02 -.14898E-02 -.10801E-02 -.34269E-03
 -.40473E-03 0.19527E-03 0.15575E-02 0.29604E-02 0.34250E-02 0.27352E-02 0.16696E-02 0.11509E-02 0.12952E-02 0.14258E-02
 0.92625E-03 -.12630E-03 -.11844E-02 -.18456E-02 -.20719E-02 -.19415E-02 -.14876E-02 -.86712E-03 -.43795E-03 -.39999E-03
 -.11261E-02 -.68497E-03 0.36724E-03 0.13843E-02 0.18063E-02 0.17172E-02 0.16454E-02 0.18647E-02 0.20367E-02 0.15922E-02
 0.36859E-03 -.12112E-02 -.25207E-02 -.31646E-02 -.30747E-02 -.23972E-02 -.14535E-02 -.71703E-03 -.56373E-03 -.89785E-03
 -.17959E-03 -.23585E-03 -.11935E-03 0.33737E-03 0.10002E-02 0.15085E-02 0.15664E-02 0.11653E-02 0.51535E-03 -.20832E-03
 -.10010E-02 -.19052E-02 -.28096E-02 -.34345E-02 -.35287E-02 -.30623E-02 -.22349E-02 -.13383E-02 -.62592E-03 -.24374E-03
 0.12474E-02 0.56404E-03 0.65244E-04 0.28391E-03 0.83091E-03 0.86021E-03 0.58118E-04 -.99971E-03 -.15242E-02 -.13926E-02
 -.12167E-02 -.16110E-02 -.25705E-02 -.35776E-02 -.41187E-02 -.39522E-02 -.30350E-02 -.15053E-02 0.16070E-03 0.12277E-02
 0.13219E-02 0.85192E-03 0.59938E-03 0.69761E-03 0.66617E-03 0.86155E-04 -.79709E-03 -.13132E-02 -.11641E-02 -.80086E-03
 -.93495E-03 -.17945E-02 -.29630E-02 -.38484E-02 -.41225E-02 -.37123E-02 -.26310E-02 -.10589E-02 0.48521E-03 0.13524E-02
 0.87127E-03 0.13681E-02 0.15300E-02 0.13725E-02 0.10684E-02 0.82649E-03 0.71857E-03 0.59084E-03 0.16708E-03 -.70121E-03
 -.18451E-02 -.28411E-02 -.32998E-02 -.31362E-02 -.25868E-02 -.19794E-02 -.14798E-02 -.10301E-02 -.48953E-03 0.18429E-03
 0.18987E-02 0.28627E-02 0.28845E-02 0.24583E-02 0.22668E-02 0.23830E-02 0.22390E-02 0.13229E-02 -.24161E-03 -.18168E-02
 -.27968E-02 -.29499E-02 -.23800E-02 -.14052E-02 -.51647E-03 -.20710E-03 -.56837E-03 -.10481E-02 -.83476E-03 0.35128E-03
 0.42116E-02 0.47795E-02 0.43733E-02 0.36163E-02 0.29875E-02 0.23590E-02 0.13778E-02 0.84569E-04 -.10529E-02 -.16533E-02
 -.17458E-02 -.15387E-02 -.10881E-02 -.39256E-03 0.29649E-03 0.56839E-03 0.38959E-03 0.35504E-03 0.11458E-02 0.27171E-02
 0.61633E-02 0.64182E-02 0.57292E-02 0.42876E-02 0.25265E-02 0.95470E-03 0.39515E-05 -.16785E-03 0.17053E-03 0.44923E-03
 0.23376E-03 -.38787E-03 -.88470E-03 -.78594E-03 -.88567E-04 0.84858E-03 0.17543E-02 0.26937E-02 0.38515E-02 0.51495E-02
 0.73622E-02 0.77101E-02 0.66892E-02 0.44589E-02 0.20379E-02 0.57686E-03 0.48196E-03 0.12077E-02 0.18214E-02 0.17229E-02
 0.92305E-03 -.14386E-03 -.93343E-03 -.10206E-02 -.26907E-03 0.10820E-02 0.25678E-02 0.38667E-02 0.50309E-02 0.62512E-02
 -.18885E-01 -.16536E-01 -.12536E-01 -.79192E-02 -.33023E-02 0.50548E-03 0.23673E-02 0.16791E-02 -.77760E-03 -.32015E-02
 -.41246E-02 -.33464E-02 -.16476E-02 0.26468E-04 0.85847E-03 -.24345E-04 -.33232E-02 -.87301E-02 -.14500E-01 -.18324E-01
 -.17229E-01 -.14248E-01 -.96572E-02 -.46381E-02 -.54092E-03 0.13215E-02 0.36198E-03 -.26015E-02 -.55863E-02 -.67215E-02
 -.55035E-02 -.29102E-02 -.44024E-03 0.83199E-03 0.41804E-03 -.18694E-02 -.59026E-02 -.10884E-01 -.15318E-01 -.17680E-01
 -.14213E-01 -.11025E-01 -.62981E-02 -.20175E-02 -.10867E-03 -.14383E-02 -.53945E-02 -.10185E-01 -.13641E-01 -.14194E-01
 -.11631E-01 -.71985E-02 -.29190E-02 -.48687E-03 -.51709E-03 -.26060E-02 -.59264E-02 -.96631E-02 -.12967E-01 -.14801E-01
 -.97222E-02 -.64567E-02 -.28060E-02 -.98454E-03 -.23870E-02 -.70097E-02 -.13706E-01 -.20578E-01 -.25283E-01 -.25750E-01
 -.21418E-01 -.13996E-01 -.66614E-02 -.20672E-02 -.89524E-03 -.21588E-02 -.45723E-02 -.73424E-02 -.98008E-02 -.10908E-01
 -.39127E-02 -.16874E-02 -.70300E-03 -.24796E-02 -.77149E-02 -.16064E-01 -.26066E-01 -.35079E-01 -.39820E-01 -.37920E-01
 -.29680E-01 -.18349E-01 -.82732E-02 -.23132E-02 -.64581E-03 -.16503E-02 -.35667E-02 -.53026E-02 -.61922E-02 -.57291E-02
 0.52571E-03 0.63175E-03 -.15729E-02 -.72764E-02 -.17001E-01 -.29682E-01 -.42290E-01 -.50680E-01 -.51524E-01 -.44206E-01
 -.31350E-01 -.17501E-01 -.68125E-02 -.12142E-02 -.78693E-04 -.12734E-02 -.26442E-02 -.29846E-02 -.21644E-02 -.72570E-03
 0.14019E-02 -.78070E-04 -.48860E-02 -.14507E-01 -.28688E-01 -.44277E-01 -.56171E-01 -.60009E-01 -.54569E-01 -.42141E-01
 -.26991E-01 -.13339E-01 -.39756E-02 0.30610E-03 0.62632E-03 -.74477E-03 -.16888E-02 -.13296E-02 -.98391E-04 0.10801E-02
 0.17452E-03 -.17120E-02 -.85408E-02 -.21268E-01 -.37703E-01 -.52693E-01 -.60760E-01 -.59220E-01 -.49343E-01 -.34999E-01
 -.20414E-01 -.87190E-02 -.15517E-02 0.97011E-03 0.15628E-03 -.18590E-02 -.32299E-02 -.32189E-02 -.20951E-02 -.58714E-03
 -.87135E-03 -.30252E-02 -.11209E-01 -.24678E-01 -.39790E-01 -.51399E-01 -.55391E-01 -.50692E-01 -.39472E-01 -.25698E-01
 -.13261E-01 -.47454E-02 -.10619E-02 -.16004E-02 -.46535E-02 -.80673E-02 -.99921E-02 -.94639E-02 -.66727E-02 -.30054E-02
 -.20513E-02 -.46809E-02 -.12643E-01 -.23939E-01 -.35243E-01 -.42809E-01 -.43777E-01 -.37570E-01 -.26474E-01 -.14667E-01
 -.61581E-02 -.30304E-02 -.50276E-02 -.10296E-01 -.16328E-01 -.20599E-01 -.21174E-01 -.17518E-01 -.11064E-01 -.48310E-02
 -.38741E-02 -.62203E-02 -.12278E-01 -.19988E-01 -.26994E-01 -.30660E-01 -.28917E-01 -.21815E-01 -.12241E-01 -.46449E-02
 -.25402E-02 -.67619E-02 -.15534E-01 -.25657E-01 -.33649E-01 -.36607E-01 -.33221E-01 -.24681E-01 -.14480E-01 -.66917E-02
 -.41799E-02 -.54984E-02 -.95005E-02 -.14104E-01 -.17345E-01 -.17523E-01 -.13948E-01 -.78541E-02 -.23436E-02 -.10012E-02
 -.60172E-02 -.17048E-01 -.31285E-01 -.44409E-01 -.52046E-01 -.51440E-01 -.42826E-01 -.29548E-01 -.16468E-01 -.75335E-02
 -.13823E-02 -.23117E-02 -.52787E-02 -.77509E-02 -.82591E-02 -.66294E-02 -.37077E-02 -.10397E-02 -.70295E-03 -.49443E-02
 -.15193E-01 -.30706E-01 -.47911E-01 -.61396E-01 -.66347E-01 -.60975E-01 -.47374E-01 -.30348E-01 -.15104E-01 -.51575E-02
 0.19051E-02 0.46831E-03 -.18891E-02 -.28976E-02 -.22650E-02 -.10340E-02 -.30707E-03 -.89289E-03 -.40337E-02 -.11702E-01
 -.25236E-01 -.43211E-01 -.60815E-01 -.71897E-01 -.72301E-01 -.61970E-01 -.44606E-01 -.25650E-01 -.10081E-01 -.84265E-03
 0.21312E-02 0.55554E-03 -.90774E-03 -.11459E-02 -.55628E-03 -.13302E-04 -.15769E-03 -.18359E-02 -.68037E-02 -.17111E-01
 -.33027E-01 -.51390E-01 -.66353E-01 -.72394E-01 -.67317E-01 -.53143E-01 -.34708E-01 -.17327E-01 -.48808E-02 0.12247E-02
 -.49560E-03 -.16274E-02 -.24911E-02 -.25338E-02 -.16363E-02 -.19863E-03 0.55859E-03 -.14296E-02 -.83103E-02 -.20845E-01
 -.37125E-01 -.52631E-01 -.62042E-01 -.61895E-01 -.52414E-01 -.37294E-01 -.21654E-01 -.95726E-02 -.26667E-02 -.24973E-03
 -.38488E-02 -.51605E-02 -.61097E-02 -.57135E-02 -.34817E-02 -.44700E-03 0.92995E-03 -.18853E-02 -.99503E-02 -.22112E-01
 -.35259E-01 -.45292E-01 -.48636E-01 -.43962E-01 -.33154E-01 -.20498E-01 -.10278E-01 -.45149E-02 -.26037E-02 -.28064E-02
 -.78772E-02 -.99116E-02 -.10580E-01 -.89899E-02 -.54342E-02 -.17990E-02 -.55952E-03 -.32595E-02 -.97484E-02 -.18401E-01
 -.26679E-01 -.31735E-01 -.31401E-01 -.25501E-01 -.16412E-01 -.79019E-02 -.28345E-02 -.16831E-02 -.30652E-02 -.54091E-02
 -.13137E-01 -.14699E-01 -.13854E-01 -.10879E-01 -.68369E-02 -.32380E-02 -.14564E-02 -.22741E-02 -.56593E-02 -.10661E-01
 -.15463E-01 -.17915E-01 -.16602E-01 -.11849E-01 -.57572E-02 -.10448E-02 0.48159E-03 -.13072E-02 -.52226E-02 -.96413E-02
 -.17641E-01 -.17152E-01 -.14380E-01 -.10447E-01 -.61756E-02 -.22345E-02 0.46248E-03 0.95123E-03 -.98959E-03 -.43346E-02
 -.72676E-02 -.82605E-02 -.68776E-02 -.38480E-02 -.65427E-03 0.10039E-02 -.15329E-03 -.42676E-02 -.99977E-02 -.15085E-01
 -.81161E-02 -.63339E-02 -.45904E-02 -.32977E-02 -.20069E-02 -.52540E-03 0.54570E-03 0.58020E-03 -.15638E-03 -.77308E-03
 -.83466E-03 -.75132E-03 -.99157E-03 -.13340E-02 -.13079E-02 -.11994E-02 -.20444E-02 -.43489E-02 -.71281E-02 -.86471E-02
 -.71421E-02 -.56302E-02 -.37870E-02 -.19839E-02 -.56616E-03 -.34669E-04 -.64471E-03 -.18562E-02 -.25479E-02 -.20262E-02
 -.72962E-03 0.24791E-03 0.28387E-03 -.32258E-03 -.10191E-02 -.18153E-02 -.31643E-02 -.51229E-02 -.69562E-02 -.77291E-02
 -.65067E-02 -.52619E-02 -.30726E-02 -.11633E-02 -.50392E-03 -.11314E-02 -.22804E-02 -.30578E-02 -.29990E-02 -.21740E-02
 -.10021E-02 -.20794E-04 0.34762E-03 0.15669E-04 -.73796E-03 -.15605E-02 -.24014E-02 -.35118E-02 -.49703E-02 -.62611E-02
 -.50872E-02 -.35215E-02 -.15799E-02 -.60198E-03 -.79903E-03 -.13881E-02 -.17748E-02 -.21455E-02 -.28061E-02 -.33876E-02
 -.31544E-02 -.20191E-02 -.80845E-03 -.35209E-03 -.60654E-03 -.98238E-03 -.13439E-02 -.21953E-02 -.37289E-02 -.50958E-02
 -.19459E-02 -.81751E-03 -.25343E-03 -.44984E-03 -.82783E-03 -.95987E-03 -.12656E-02 -.24336E-02 -.42591E-02 -.54907E-02
 -.50541E-02 -.32305E-02 -.13697E-02 -.52612E-03 -.65204E-03 -.11183E-02 -.16165E-02 -.22248E-02 -.27939E-02 -.27868E-02
 0.53015E-03 0.28123E-03 -.39975E-03 -.11252E-02 -.17505E-02 -.24648E-02 -.35006E-02 -.47357E-02 -.56031E-02 -.54674E-02
 -.41730E-02 -.22756E-02 -.71837E-03 -.19762E-03 -.71207E-03 -.16217E-02 -.21315E-02 -.18248E-02 -.88786E-03 0.84803E-04
 0.32840E-03 -.45524E-03 -.11980E-02 -.22447E-02 -.38763E-02 -.55835E-02 -.63958E-02 -.58959E-02 -.46069E-02 -.32949E-02
 -.21730E-02 -.10423E-02 -.22450E-04 0.31774E-03 -.27511E-03 -.11498E-02 -.12944E-02 -.45576E-03 0.57024E-03 0.86104E-03
 -.53458E-03 -.56099E-03 -.10387E-02 -.27090E-02 -.51713E-02 -.69016E-02 -.67254E-02 -.50449E-02 -.33181E-02 -.24372E-02
 -.19885E-02 -.11615E-02 0.33146E-04 0.81969E-03 0.75428E-03 0.28676E-03 0.85609E-04 0.17490E-03 0.93099E-04 -.27645E-03
 0.13469E-03 0.40865E-03 -.33354E-03 -.21602E-02 -.42464E-02 -.55027E-02 -.55012E-02 -.47312E-02 -.39475E-02 -.33811E-02
 -.26731E-02 -.14919E-02 -.37928E-04 0.11106E-02 0.15267E-02 0.12195E-02 0.50391E-03 -.22859E-03 -.61206E-03 -.42943E-03
 0.65269E-03 0.14543E-03 -.61081E-03 -.14756E-02 -.25873E-02 -.39252E-02 -.49618E-02 -.50361E-02 -.40698E-02 -.26938E-02
 -.15754E-02 -.78427E-03 0.18434E-04 0.88929E-03 0.13925E-02 0.11716E-02 0.51521E-03 0.11354E-03 0.28479E-03 0.65365E-03
 -.77725E-03 -.16735E-02 -.16701E-02 -.14284E-02 -.19734E-02 -.32742E-02 -.40634E-02 -.32698E-02 -.13329E-02 0.24723E-03
 0.56092E-03 0.11837E-03 -.20324E-04 0.46068E-03 0.10285E-02 0.12481E-02 0.13029E-02 0.14388E-02 0.13432E-02 0.53075E-03
 -.18847E-02 -.23299E-02 -.19888E-02 -.16486E-02 -.18243E-02 -.20905E-02 -.15983E-02 -.19199E-03 0.12603E-02 0.17561E-02
 0.12061E-02 0.43263E-03 0.23562E-03 0.69250E-03 0.13692E-02 0.19050E-02 0.21511E-02 0.19098E-02 0.94988E-03 -.55906E-03
 -.27728E-03 -.82055E-03 -.13097E-02 -.13964E-02 -.97156E-03 -.32537E-03 0.14579E-03 0.32195E-03 0.38636E-03 0.53116E-03
 0.75984E-03 0.99958E-03 0.12777E-02 0.16578E-02 0.20327E-02 0.21261E-02 0.17767E-02 0.11489E-02 0.56323E-03 0.14062E-03
 0.18273E-02 0.47657E-03 -.70525E-03 -.74150E-03 -.23916E-04 0.20876E-03 -.56961E-03 -.15227E-02 -.14735E-02 -.25789E-03
 0.12221E-02 0.21135E-02 0.23659E-02 0.23294E-02 0.20609E-02 0.14318E-02 0.74318E-03 0.68214E-03 0.14308E-02 0.21578E-02
 0.12580E-02 -.88115E-05 -.70749E-03 -.46916E-03 -.72843E-04 -.38160E-03 -.11998E-02 -.14948E-02 -.65374E-03 0.82879E-03
 0.19951E-02 0.24387E-02 0.24196E-02 0.21863E-02 0.16490E-02 0.84556E-03 0.32881E-03 0.65519E-03 0.15430E-02 0.19595E-02
 -.89077E-03 -.11078E-02 -.12601E-02 -.11879E-02 -.82532E-03 -.25103E-03 0.36239E-03 0.84357E-03 0.11105E-02 0.12153E-02
 0.13077E-02 0.15087E-02 0.17782E-02 0.19091E-02 0.16901E-02 0.11060E-02 0.37658E-03 -.21637E-03 -.55089E-03 -.72112E-03
 -.20360E-02 -.21134E-02 -.27016E-02 -.28124E-02 -.16680E-02 0.23270E-03 0.15380E-02 0.14682E-02 0.55127E-03 -.96678E-04
 0.60035E-04 0.71376E-03 0.13697E-02 0.18353E-02 0.19952E-02 0.15217E-02 0.22048E-03 -.14204E-02 -.24541E-02 -.24537E-02
 -.29395E-02 -.39788E-02 -.49085E-02 -.45688E-02 -.28116E-02 -.85809E-03 -.19513E-04 -.33848E-03 -.77000E-03 -.53007E-03
 0.14818E-03 0.64156E-03 0.85971E-03 0.11542E-02 0.14996E-02 0.12999E-02 0.20499E-03 -.12436E-02 -.21761E-02 -.24906E-02
 -.53582E-02 -.63489E-02 -.63599E-02 -.53927E-02 -.39520E-02 -.26494E-02 -.16880E-02 -.84138E-03 0.48640E-04 0.71417E-03
 0.74438E-03 0.17035E-03 -.41749E-03 -.43051E-03 0.10957E-03 0.59983E-03 0.43698E-03 -.52737E-03 -.20481E-02 -.37781E-02
 -.78277E-02 -.71992E-02 -.59179E-02 -.47724E-02 -.37396E-02 -.23955E-02 -.73234E-03 0.67396E-03 0.12484E-02 0.93960E-03
 0.12046E-03 -.79978E-03 -.14930E-02 -.16283E-02 -.10602E-02 -.24884E-03 -.22377E-03 -.17522E-02 -.44455E-02 -.68885E-02
 0.19118E-01 0.19093E-01 0.15343E-01 0.92570E-02 0.36285E-02 0.45098E-03 -.23582E-03 0.50911E-03 0.18773E-02 0.34301E-02
 0.43670E-02 0.36162E-02 0.10741E-02 -.16678E-02 -.24338E-02 -.36641E-03 0.35745E-02 0.79656E-02 0.12232E-01 0.16256E-01
 0.18062E-01 0.15837E-01 0.11274E-01 0.61031E-02 0.20684E-02 -.61897E-04 -.40621E-03 0.73690E-03 0.30518E-02 0.56707E-02
 0.70451E-02 0.59667E-02 0.28578E-02 -.22719E-03 -.11229E-02 0.89963E-03 0.50051E-02 0.98266E-02 0.14255E-01 0.17338E-01