unknown system                          
   1.00000000000000     
     2.573869    0.000000    0.000000
     1.286934    2.229036    0.000000
     0.000000    0.000000   30.304665
   Cu   H 
     4     1
Direct
  0.999707  0.000587  0.396567
  0.333187  0.333626  0.465140
  0.665828  0.668345  0.533594
  0.000801  0.998399  0.604216
  0.500478  0.999044  0.637503
 
   20   20  240
 -.18853482850E-01 -.17558912723E-01 -.13677233936E-01 -.84055507692E-02 -.33389595372E-02
 0.22154017876E-03 0.16806689254E-02 0.11483403344E-02 -.72325592446E-03 -.28806147959E-02
 -.41313082293E-02 -.36863293518E-02 -.17267923450E-02 0.54213846141E-03 0.15495602049E-02
 0.27093106135E-03 -.32877092549E-02 -.82543510323E-02 -.13351886876E-01 -.17257591186E-01
 -.17473944791E-01 -.14740892842E-01 -.98729042942E-02 -.44686208545E-02 -.37303223829E-03
 0.11717433327E-02 0.67880597143E-04 -.26563092422E-02 -.53627930329E-02 -.65724542882E-02
 -.56616865714E-02 -.31518540028E-02 -.40400808325E-03 0.11235356764E-02 0.58210365776E-03
 -.20241787041E-02 -.60721847438E-02 -.10667894770E-01 -.14801356279E-01 -.17385000087E-01
 -.13621166543E-01 -.10244942162E-01 -.56961690274E-02 -.16252604121E-02 0.25553090910E-03
 -.10361553883E-02 -.50903391055E-02 -.10091594812E-01 -.13671730062E-01 -.14191889272E-01
 -.11600534624E-01 -.73003429653E-02 -.32273256654E-02 -.87743089563E-03 -.85916225191E-03
 -.29809654742E-02 -.65211938545E-02 -.10435467498E-01 -.13539680208E-01 -.14787721553E-01
 -.87002665964E-02 -.58707458203E-02 -.29015998546E-02 -.11632865356E-02 -.21209734241E-02
 -.65363838686E-02 -.13607516487E-01 -.20912793436E-01 -.25509019211E-01 -.25518220332E-01
 -.21078292536E-01 -.14087820575E-01 -.71217552249E-02 -.23123733059E-02 -.69216359250E-03
 -.20425776543E-02 -.51459087206E-02 -.83601998508E-02 -.10318350708E-01 -.10391444977E-01
 -.39457388273E-02 -.23576533316E-02 -.16059290709E-02 -.29578577756E-02 -.76770742151E-02
 -.16030354840E-01 -.26404795115E-01 -.35503085273E-01 -.39815863979E-01 -.37489359163E-01
 -.29335817649E-01 -.18373528567E-01 -.82936482594E-02 -.18107360415E-02 0.28131983373E-03
 -.96303014956E-03 -.35264392846E-02 -.55706611903E-02 -.61935425641E-02 -.54612628009E-02
 -.16715759250E-03 0.79822941302E-04 -.18765804589E-02 -.73896201298E-02 -.17056727081E-01
 -.29766018111E-01 -.42386966170E-01 -.50721020769E-01 -.51475001075E-01 -.44107505648E-01
 -.31267199445E-01 -.17441397768E-01 -.66867041990E-02 -.89337484781E-03 0.48794054405E-03
 -.57043794766E-03 -.20491035451E-02 -.27476178265E-02 -.23918879616E-02 -.13122168780E-02
 0.17573765243E-02 0.70563676117E-03 -.43549962782E-02 -.14441583817E-01 -.28679525115E-01
 -.43977202465E-01 -.55801844349E-01 -.60011798699E-01 -.54941353367E-01 -.42438963903E-01
 -.26995977817E-01 -.13404981109E-01 -.45099702546E-02 -.47845292119E-03 0.27639129090E-03
 -.37516987631E-03 -.11387446487E-02 -.13232343329E-02 -.63578970835E-03 0.72131663958E-03
 0.12853045243E-02 -.84755892879E-03 -.84292150676E-02 -.21530781608E-01 -.37640064372E-01
 -.52228217574E-01 -.60482536311E-01 -.59507839158E-01 -.49809294092E-01 -.35054539173E-01
 -.20145203557E-01 -.88347543780E-02 -.24302196241E-02 -.15534031819E-03 -.41692497230E-03
 -.17647916268E-02 -.30639815651E-02 -.33725991350E-02 -.21843752216E-02 -.20088358013E-04
 -.84843434800E-03 -.33858416249E-02 -.11775489408E-01 -.25068757415E-01 -.39822375694E-01
 -.51268002945E-01 -.55389551567E-01 -.50820015618E-01 -.39434738671E-01 -.25299149872E-01
 -.12687034831E-01 -.43868921138E-02 -.11018588918E-02 -.18720405915E-02 -.48867627665E-02
 -.81590040899E-02 -.99848037101E-02 -.93671762815E-02 -.64533727436E-02 -.27575420788E-02
 -.29758522710E-02 -.51651242726E-02 -.12751860728E-01 -.24049174916E-01 -.35482248849E-01
 -.42943116322E-01 -.43631670969E-01 -.37319178816E-01 -.26352497794E-01 -.14550089492E-01
 -.56730956536E-02 -.21116736231E-02 -.41464082039E-02 -.99705664927E-02 -.16511231171E-01
 -.20762860923E-01 -.21006335721E-01 -.17334446259E-01 -.11395484318E-01 -.57204545607E-02
 -.38706453140E-02 -.55312025546E-02 -.11673958856E-01 -.20015552362E-01 -.27326794558E-01
 -.30658181189E-01 -.28575660901E-01 -.21772646316E-01 -.12834635096E-01 -.53361956088E-02
 -.25491878172E-02 -.60727352739E-02 -.14912320155E-01 -.25658976062E-01 -.33965672008E-01
 -.36609737139E-01 -.32900241414E-01 -.24660081124E-01 -.15080156956E-01 -.73739654465E-02
 -.32628954910E-02 -.46389046068E-02 -.92034526498E-02 -.14309644281E-01 -.17516814403E-01
 -.17345127314E-01 -.13739919600E-01 -.81538194979E-02 -.32098895808E-02 -.19211149522E-02
 -.65125315892E-02 -.17171221867E-01 -.31402601887E-01 -.44651440188E-01 -.52183025359E-01
 -.51296482936E-01 -.42566318242E-01 -.29401932543E-01 -.16319590405E-01 -.70273510214E-02
 -.14234304172E-02 -.25800855941E-02 -.55082934597E-02 -.78412276235E-02 -.82512124074E-02
 -.65306132748E-02 -.34847268025E-02 -.78720692401E-03 -.67373313276E-03 -.52984672202E-02
 -.15759467173E-01 -.31111102279E-01 -.47967116843E-01 -.61281844194E-01 -.66339459742E-01
 -.61073576297E-01 -.47299424212E-01 -.29923906729E-01 -.14522969835E-01 -.48018038892E-02
 0.79912377856E-03 -.70693892582E-04 -.17643049776E-02 -.27180425329E-02 -.24257695137E-02
 -.11459345606E-02 0.23365112678E-03 0.20285632763E-03 -.31646839477E-02 -.11572180914E-01
 -.25484267269E-01 -.43146428882E-01 -.60354874336E-01 -.71616408877E-01 -.72569592091E-01
 -.62415754923E-01 -.44658264170E-01 -.25399249944E-01 -.10219954978E-01 -.17270981781E-02
 0.17974162825E-02 0.95429016972E-03 -.33224743780E-03 -.11339968430E-02 -.11091217667E-02
 -.39408814433E-03 0.18505189050E-03 -.10511471193E-02 -.62634735370E-02 -.17032638234E-01
 -.33001868876E-01 -.51067595943E-01 -.65963399610E-01 -.72388067742E-01 -.67696197993E-01
 -.53460978882E-01 -.34736991579E-01 -.17415066259E-01 -.54303077936E-02 0.43814857814E-03
 0.19312494678E-03 -.10399098020E-02 -.22506277900E-02 -.27495322408E-02 -.22078713898E-02
 -.87804046618E-03 0.13590514186E-04 -.17364615421E-02 -.84333363687E-02 -.20905396430E-01
 -.37199791144E-01 -.52709528795E-01 -.62070272787E-01 -.61850638523E-01 -.52332110285E-01
 -.37224599183E-01 -.21594788438E-01 -.94391588152E-02 -.23442053320E-02 0.30697772495E-03
 -.38470042397E-02 -.54513562291E-02 -.61014557822E-02 -.54111427422E-02 -.34792385555E-02
 -.11015019792E-02 0.18067204877E-04 -.23879596374E-02 -.99388028808E-02 -.22095634961E-01
 -.35603614566E-01 -.45713186309E-01 -.48627463964E-01 -.43527852965E-01 -.32803909917E-01
 -.20508349884E-01 -.10273931154E-01 -.39900946605E-02 -.16755277342E-02 -.21458022221E-02
 -.89081732737E-02 -.10429061678E-01 -.10051932881E-01 -.79561722915E-02 -.48443654869E-02
 -.19009244856E-02 -.75236955411E-03 -.30115604021E-02 -.92931288413E-02 -.18316016341E-01
 -.27018273083E-01 -.31956605650E-01 -.31160357041E-01 -.25150828686E-01 -.16492224628E-01
 -.83491210313E-02 -.30680415465E-02 -.14772349979E-02 -.29592660426E-02 -.60006068137E-02
 -.13691312537E-01 -.14684300673E-01 -.13284244711E-01 -.10131904468E-01 -.62594172923E-02
 -.28484977732E-02 -.10779865448E-02 -.18565343748E-02 -.53497729422E-02 -.10569535313E-01
 -.15492846144E-01 -.17903048806E-01 -.16560293152E-01 -.11948761980E-01 -.60783203812E-02
 -.14586990879E-02 0.11657115044E-03 -.16931290338E-02 -.58108269925E-02 -.10394038037E-01
 -.17335685502E-01 -.17411299060E-01 -.14907539264E-01 -.10697958839E-01 -.60203214740E-02
 -.20510384498E-02 0.34474048942E-03 0.68247809818E-03 -.10377156501E-02 -.41149307714E-02
 -.71173168771E-02 -.84084571763E-02 -.71129877550E-02 -.38245893688E-02 -.39498583393E-03
 0.11322251111E-02 -.32798127077E-03 -.44328340019E-02 -.97595901655E-02 -.14542978847E-01
 -.76066673591E-02 -.69080601704E-02 -.53631245997E-02 -.35423300731E-02 -.19495894054E-02
 -.83909119627E-03 -.22273544960E-03 0.49239395565E-05 -.49027732576E-04 -.30292414451E-03
 -.65411160416E-03 -.94466061606E-03 -.10181070877E-02 -.85791324622E-03 -.69269259494E-03
 -.93294342281E-03 -.19191152695E-02 -.36345180975E-02 -.56098426066E-02 -.71274966815E-02
 -.69343695556E-02 -.57276567072E-02 -.37113808753E-02 -.16577315438E-02 -.36993093403E-03
 -.22908064172E-03 -.96561411956E-03 -.18358135104E-02 -.21168483813E-02 -.15802833463E-02
 -.59389241652E-03 0.20863862421E-03 0.39433850235E-03 -.53353001753E-04 -.89470661405E-03
 -.19406210726E-02 -.31781584246E-02 -.46145950964E-02 -.60393747676E-02 -.69794412909E-02
 -.55405599080E-02 -.41848550787E-02 -.22866649035E-02 -.69918464575E-03 -.12537132322E-03
 -.66894102972E-03 -.17566752526E-02 -.25208884760E-02 -.23900613594E-02 -.14542430387E-02
 -.33391274480E-03 0.31791209858E-03 0.25600860361E-03 -.31578274861E-03 -.10648741863E-02
 -.18617728081E-02 -.28107197865E-02 -.39868818776E-02 -.51685766859E-02 -.58467699423E-02
 -.38104714433E-02 -.27642526142E-02 -.15933213820E-02 -.73485100239E-03 -.40423296748E-03
 -.55010413789E-03 -.95866023934E-03 -.14015258346E-02 -.17237572076E-02 -.18464371508E-02
 -.17343766961E-02 -.13926245998E-02 -.90568534008E-03 -.47092352335E-03 -.35947851575E-03
 -.78568072954E-03 -.17486241211E-02 -.29610536532E-02 -.39469342460E-02 -.42780889133E-02
 -.18586423054E-02 -.14326014926E-02 -.11207680193E-02 -.78800618276E-03 -.35985036000E-03
 -.27344178346E-04 -.16386943021E-03 -.97648518547E-03 -.22026259558E-02 -.31749687598E-02
 -.32640149598E-02 -.23546096629E-02 -.96104451397E-03 0.11474678591E-03 0.30966125189E-03
 -.37733568234E-03 -.14584647748E-02 -.23204602653E-02 -.26016367526E-02 -.23441911969E-02
 -.15111962938E-03 -.27801469849E-03 -.61607521348E-03 -.85622734735E-03 -.89877843237E-03
 -.96264958392E-03 -.13623690978E-02 -.21410056705E-02 -.29169308164E-02 -.31305718496E-02
 -.25039439972E-02 -.13106200338E-02 -.21121985645E-03 0.21286317913E-03 -.14865900582E-03
 -.90413751545E-03 -.14743773939E-02 -.14940531757E-02 -.10213788142E-02 -.44043556187E-03
 0.64861769852E-03 0.33924004758E-03 -.42324952079E-03 -.14458526732E-02 -.24172240497E-02
 -.30436421885E-02 -.31657822288E-02 -.28028639943E-02 -.21211192878E-02 -.13569741644E-02
 -.73033732966E-03 -.37590090459E-03 -.31203324013E-03 -.45367945282E-03 -.65677109546E-03
 -.77100885194E-03 -.68635550285E-03 -.37305862435E-03 0.88025792735E-04 0.50751204201E-03
 0.56605032986E-03 0.40295452927E-03 -.46963198300E-03 -.18854050142E-02 -.32225200617E-02
 -.37969422988E-02 -.33498935011E-02 -.22357191744E-02 -.11482347595E-02 -.60874406315E-03
 -.63233617227E-03 -.81879911166E-03 -.74679451435E-03 -.31848822499E-03 0.21224870224E-03
 0.50535802736E-03 0.44094795177E-03 0.21066900419E-03 0.12906190049E-03 0.32401421910E-03
 0.22173296192E-03 0.26073436550E-03 -.25789456011E-03 -.12423369978E-02 -.22265908227E-02
 -.27327116871E-02 -.26378457750E-02 -.22201491254E-02 -.18566273328E-02 -.16703934191E-02
 -.14546455116E-02 -.92037853805E-03 -.16232305683E-04 0.96957652267E-03 0.15985680026E-02
 0.15949734687E-02 0.10436743480E-02 0.33875106654E-03 -.82225306979E-04 -.46151958827E-04
 -.13002331088E-03 -.48245626470E-04 -.44221483968E-05 -.27516193895E-03 -.93925103985E-03
 -.18177148341E-02 -.25750699477E-02 -.28969241096E-02 -.26355402052E-02 -.18592326740E-02
 -.79814220983E-03 0.27554138376E-03 0.11622098861E-02 0.17748858141E-02 0.20928474267E-02
 0.20967202572E-02 0.17709134565E-02 0.11786161067E-02 0.51309566622E-03 0.28133194174E-04
 -.59766965355E-03 -.69331517123E-03 -.42375019752E-03 -.36583604585E-03 -.84978761706E-03
 -.16752798123E-02 -.22666933990E-02 -.21394458238E-02 -.12844226080E-02 -.15280025492E-03
 0.72740203651E-03 0.11617545074E-02 0.13826523880E-02 0.17693555267E-02 0.24538579073E-02
 0.31519448047E-02 0.33605506865E-02 0.27633629074E-02 0.15205068486E-02 0.20290575373E-03
 -.82268219011E-03 -.12555131155E-02 -.12314662816E-02 -.11158462230E-02 -.10779339046E-02
 -.99326327989E-03 -.64920602013E-03 -.32746758915E-04 0.60415104584E-03 0.97735778783E-03
 0.10682499683E-02 0.11824192238E-02 0.16974435923E-02 0.27175138478E-02 0.39251260182E-02
 0.47425233990E-02 0.46793875946E-02 0.36342708974E-02 0.19676624536E-02 0.30401649746E-03
 -.25115695289E-03 -.98378427764E-03 -.12880221082E-02 -.10974246423E-02 -.51789775081E-03
 0.16698247694E-03 0.62267923696E-03 0.67722600310E-03 0.47875218440E-03 0.44420105571E-03
 0.98357408352E-03 0.21823662421E-02 0.36950585203E-02 0.49468752219E-02 0.54855544492E-02
 0.52098380729E-02 0.43313228240E-02 0.31618043481E-02 0.19322931638E-02 0.76407314966E-03
 0.71336858227E-03 -.42124619796E-04 -.48222726021E-03 -.41116322978E-03 -.34502258323E-04
 0.19404140503E-03 -.82863499316E-05 -.43290052596E-03 -.46677126086E-03 0.44175650125E-03
 0.22989366440E-02 0.44611880786E-02 0.60129080725E-02 0.63491079139E-02 0.55318414460E-02
 0.41751760631E-02 0.29758158020E-02 0.22580377372E-02 0.18605544579E-02 0.14085185520E-02
 0.89118780313E-03 0.39158911410E-03 -.86745968801E-04 -.39693972261E-03 -.58420579349E-03
 -.76340821821E-03 -.88825122303E-03 -.67617250823E-03 0.20018398453E-03 0.18056824768E-02
 0.37825684502E-02 0.54781876267E-02 0.62808464563E-02 0.59490215970E-02 0.47366603757E-02
 0.32414463285E-02 0.20611411473E-02 0.14662686278E-02 0.13049219637E-02 0.12026318735E-02
 -.19080124073E-03 -.46310027551E-03 -.93259794141E-03 -.13175780148E-02 -.13411925704E-02
 -.91898234120E-03 -.18080811452E-03 0.65679828563E-03 0.14606447436E-02 0.22612069368E-02
 0.31658521597E-02 0.41586871772E-02 0.49681474560E-02 0.51700821371E-02 0.44975594064E-02
 0.31075185915E-02 0.15443566881E-02 0.39194861922E-03 -.10885043359E-03 -.16427096269E-03
 -.19207427291E-02 -.22382103845E-02 -.25083675276E-02 -.23445083433E-02 -.15517820416E-02
 -.36735392567E-03 0.67280111139E-03 0.11457717292E-02 0.10960739572E-02 0.10239618564E-02
 0.14852193729E-02 0.26043673773E-02 0.38985554225E-02 0.45791568059E-02 0.41148668137E-02
 0.26195852688E-02 0.76327223560E-03 -.71217750806E-03 -.14791429263E-02 -.17398391875E-02
 -.37273514938E-02 -.42054466791E-02 -.40890179957E-02 -.32907548882E-02 -.20594472696E-02
 -.87906897406E-03 -.15124846053E-03 0.83904620915E-04 0.14879883488E-03 0.44907140741E-03
 0.11472779428E-02 0.20430598171E-02 0.27240196048E-02 0.28425374393E-02 0.23126912853E-02
 0.13158138187E-02 0.14652527530E-03 -.97454824186E-03 -.19871578202E-02 -.29194784171E-02
 -.55476605357E-02 -.59408384716E-02 -.54209697150E-02 -.43551217447E-02 -.31965745939E-02
 -.21884580254E-02 -.12810624331E-02 -.32434577987E-03 0.65388877296E-03 0.13717259931E-02
 0.15207001278E-02 0.10868934885E-02 0.43497145227E-03 0.38023751813E-04 0.78746413813E-04
 0.27728232610E-03 0.97994020365E-04 -.83783413203E-03 -.24547952780E-02 -.42420891737E-02
 -.70741610284E-02 -.70087017122E-02 -.60494160384E-02 -.47328218693E-02 -.34310843200E-02
 -.21854830977E-02 -.88627899270E-03 0.40350345697E-03 0.13195026288E-02 0.14291440519E-02
 0.64481669849E-03 -.57155894088E-03 -.14546917084E-02 -.14848448167E-02 -.80589281129E-03
 -.16066133509E-03 -.37348689966E-03 -.17640357536E-02 -.39171501835E-02 -.59523826396E-02
 0.19137776712E-01 0.18061507110E-01 0.14204582748E-01 0.87798280093E-02 0.35962451875E-02
 0.16267471798E-03 -.92793278009E-03 -.19182847847E-04 0.19417871421E-02 0.37615899833E-02
 0.43677652250E-02 0.32836823880E-02 0.10049390513E-02 -.11434038173E-02 -.17411904354E-02
 -.75279836892E-04 0.36085349965E-02 0.84469150951E-02 0.13386058332E-01 0.17320235377E-01
 0.17807445984E-01 0.15337006793E-01 0.11058492061E-01 0.62756781542E-02 0.22356614028E-02
 -.21726211912E-03 -.70529200148E-03 0.68338616735E-03 0.32822054077E-02 0.58263159267E-02
 0.68888661540E-02 0.57232287685E-02 0.28918131060E-02 0.63376031299E-04 -.95881789129E-03
 0.74620028863E-03 0.48391508153E-02 0.10046840083E-01 0.14773028392E-01 0.17627783335E-01
 0.13537662338E-01 0.10334084999E-01 0.65075778059E-02 0.30749826496E-02 0.96711429595E-03
 0.95771610049E-03 0.33421860447E-02 0.75085016240E-02 0.11865229031E-01 0.14438878475E-01
 0.13905877715E-01 0.10396477194E-01 0.55092821152E-02 0.15103558602E-02 0.20434464463E-03
 0.21031875330E-02 0.62815982901E-02 0.10919850635E-01 0.14200899860E-01 0.15077737069E-01
 0.81401455695E-02 0.51483199501E-02 0.23836105023E-02 0.10676500021E-02 0.24579461477E-02
 0.71574846138E-02 0.14304721478E-01 0.21505305443E-01 0.25887162551E-01 0.25650235662E-01
 0.21004167618E-01 0.13918116082E-01 0.70343483283E-02 0.25175747259E-02 0.13461491566E-02
 0.31374487353E-02 0.64536424956E-02 0.94996301408E-02 0.10934596338E-01 0.10344724829E-01
 0.38375165838E-02 0.15946914023E-02 0.45967168235E-03 0.23290970659E-02 0.85462363730E-02
 0.18622782110E-01 0.29765965808E-01 0.37956755873E-01 0.40068051212E-01 0.35545546277E-01
 0.26495130347E-01 0.16308700554E-01 0.79574799084E-02 0.29856863369E-02 0.14332350053E-02
 0.23117299049E-02 0.42198320449E-02 0.58804099958E-02 0.64751132786E-02 0.57228327238E-02
 0.12105911510E-02 0.75326390544E-04 0.13223914949E-02 0.70135779880E-02 0.17735471296E-01
 0.31568346016E-01 0.44403614115E-01 0.51734025560E-01 0.50936042136E-01 0.42587059722E-01
 0.29985199986E-01 0.17294021409E-01 0.75987731587E-02 0.19967911470E-02 -.72705000491E-04
 0.10988659022E-03 0.13046128483E-02 0.25579673139E-02 0.31469899942E-02 0.26339790423E-02
 -.16954379779E-03 0.35725828821E-03 0.45043765579E-02 0.13631697475E-01 0.27251991922E-01
 0.42538073200E-01 0.54986046999E-01 0.60231793859E-01 0.56215912789E-01 0.44374285056E-01
 0.28942832781E-01 0.14735638513E-01 0.48831682181E-02 -.42735446037E-04 -.12984448480E-02
 -.61788799103E-03 0.64287791780E-03 0.15975259512E-02 0.16895955595E-02 0.84316519398E-03
 -.13691696670E-03 0.22518077386E-02 0.90300962018E-02 0.20530564987E-01 0.35274359148E-01
 0.49814261032E-01 0.59591448981E-01 0.60846476605E-01 0.52695454256E-01 0.37918078596E-01
 0.21651629001E-01 0.87383923169E-02 0.15372000135E-02 -.46413202941E-03 0.57485197724E-03
 0.24077749681E-02 0.35566212424E-02 0.34067023555E-02 0.20786915325E-02 0.40350881614E-03
 0.13343623041E-02 0.48146073883E-02 0.13222855551E-01 0.25748602692E-01 0.39699227898E-01
 0.50993731235E-01 0.55623517352E-01 0.51570779068E-01 0.40051584147E-01 0.25123180671E-01
 0.11741064498E-01 0.34529284819E-02 0.11105073655E-02 0.31374797940E-02 0.68205585320E-02
 0.96695497461E-02 0.10239510225E-01 0.83661928490E-02 0.50271960051E-02 0.19933319508E-02
 0.28105487972E-02 0.61591799753E-02 0.14859428532E-01 0.26667675727E-01 0.37695199830E-01
 0.43949189141E-01 0.43121446973E-01 0.35613895514E-01 0.24249068381E-01 0.12948605138E-01
 0.51668935023E-02 0.27547047841E-02 0.55207107210E-02 0.11480364609E-01 0.17678663942E-01
 0.21341965588E-01 0.20931954324E-01 0.16670143190E-01 0.10381049104E-01 0.48292404400E-02
 0.27828017852E-02 0.52326821241E-02 0.12787190979E-01 0.22049424772E-01 0.29005384450E-01
 0.30918896544E-01 0.27419565573E-01 0.20258304657E-01 0.12225937993E-01 0.61183422758E-02
 0.41111643279E-02 0.72739605342E-02 0.15026894856E-01 0.24922615313E-01 0.33314664218E-01
 0.36862286842E-01 0.34060105364E-01 0.25908588191E-01 0.15468539351E-01 0.66571476430E-02
 0.17010308789E-02 0.30214088936E-02 0.82566427459E-02 0.14104222119E-01 0.17698713769E-01
 0.17696927629E-01 0.14468824843E-01 0.96049594940E-02 0.53117005785E-02 0.39598172497E-02
 0.75216109961E-02 0.16640794983E-01 0.29724932996E-01 0.42944584935E-01 0.51614666990E-01
 0.52362978506E-01 0.44782895157E-01 0.31596534672E-01 0.17357527804E-01 0.65063182759E-02
 0.93923588219E-03 0.11746390978E-02 0.38602864858E-02 0.68400128628E-02 0.85132735540E-02
 0.80584079107E-02 0.56588250103E-02 0.27050955828E-02 0.16507722411E-02 0.52222522628E-02
 0.15060090069E-01 0.30386681297E-01 0.47581390806E-01 0.61257525626E-01 0.66572153944E-01
 0.61576665837E-01 0.48188501183E-01 0.31160348769E-01 0.15721818158E-01 0.53647180880E-02
 0.61345645847E-03 0.31412382382E-03 0.13610103838E-02 0.26045552645E-02 0.30660189091E-02
 0.20958930857E-02 0.77629484331E-04 -.10832184823E-02 0.15394150237E-02 0.10398915421E-01
 0.25776207014E-01 0.44881871901E-01 0.62427472936E-01 0.72652674707E-01 0.71972950403E-01
 0.60816524478E-01 0.43426185554E-01 0.25610941843E-01 0.11884751597E-01 0.38528157195E-02
 0.26640094182E-03 0.48880049886E-03 0.11103621460E-02 0.14102518740E-02 0.89378994971E-03
 -.47243882148E-03 -.16822670276E-02 -.56209786219E-03 0.54120475192E-02 0.17624877990E-01
 0.34977515805E-01 0.53549158446E-01 0.67735577417E-01 0.72608196930E-01 0.66381467690E-01
 0.51469543988E-01 0.33267991864E-01 0.17326371095E-01 0.67887290787E-02 0.17089512466E-02
 0.82735408614E-03 0.22108379282E-02 0.29247819003E-02 0.26533935894E-02 0.16218307803E-02
 0.44130769101E-03 0.25198753923E-03 0.27706193318E-02 0.97611870266E-02 0.21878599117E-01
 0.37512662396E-01 0.52619556922E-01 0.62110486493E-01 0.62293038373E-01 0.52915892010E-01
 0.37416755702E-01 0.21131833274E-01 0.86289085501E-02 0.18473678141E-02 -.76338858719E-05
 0.37707873666E-02 0.58487487281E-02 0.63900720961E-02 0.55940116490E-02 0.41399861008E-02
 0.27651008294E-02 0.24169761722E-02 0.45158571347E-02 0.10530189903E-01 0.20754196503E-01
 0.33229742162E-01 0.43996639729E-01 0.48885278633E-01 0.45757648156E-01 0.35686546676E-01
 0.22358443067E-01 0.10201464297E-01 0.24020120838E-02 -.19563080591E-03 0.10627547208E-02
 0.87580043108E-02 0.10601931000E-01 0.10457412017E-01 0.86791912190E-02 0.59891471066E-02
 0.32931630060E-02 0.18557718183E-02 0.32186045505E-02 0.83832737808E-02 0.16703126262E-01
 0.25576103557E-01 0.31533902641E-01 0.32100217895E-01 0.27101335419E-01 0.18610165381E-01
 0.97769437567E-02 0.34020297839E-02 0.93311718959E-03 0.21332201038E-02 0.54240307104E-02
 0.13851571988E-01 0.14976524461E-01 0.13698345328E-01 0.10297372332E-01 0.57933001551E-02
 0.17773599962E-02 -.20906772050E-04 0.15255339351E-02 0.61809052244E-02 0.12150210205E-01
 0.16825368438E-01 0.18152210453E-01 0.15723585348E-01 0.10865152698E-01 0.57616540915E-02
 0.23321690755E-02 0.15428831408E-02 0.33229984952E-02 0.68277847698E-02 0.10784960061E-01
 0.17556911835E-01 0.17763601605E-01 0.15091455541E-01 0.10158772330E-01 0.46322014965E-02
 0.52299372749E-03 -.78817685049E-03 0.79728683954E-03 0.40969080617E-02 0.72426066055E-02
 0.85732111455E-02 0.74314877803E-02 0.44721480703E-02 0.12729135331E-02 -.54682744882E-03
 -.12607044809E-03 0.24243738289E-02 0.63804278215E-02 0.10852880905E-01 0.14921066791E-01
 0.81101135918E-02 0.81423741246E-02 0.66399413589E-02 0.42761034205E-02 0.22696097958E-02
 0.13497405421E-02 0.12773160358E-02 0.13652787588E-02 0.12635015443E-02 0.10947558857E-02
 0.98474993413E-03 0.78245893419E-03 0.35910381008E-03 -.23669112942E-04 0.11619931233E-03
 0.96583815184E-03 0.22652775713E-02 0.37044048730E-02 0.52493996710E-02 0.68779270475E-02
 0.76122201633E-02 0.67643698981E-02 0.51469684061E-02 0.34558343316E-02 0.21617817252E-02
 0.12362084511E-02 0.46160794214E-03 -.73733447302E-04 0.25402786921E-04 0.90499199495E-03
 0.20446730447E-02 0.25830348789E-02 0.21112011019E-02 0.10822810850E-02 0.41517380252E-03
 0.75343886840E-03 0.21052673875E-02 0.40280217354E-02 0.59474499696E-02 0.72972985326E-02
 0.53441782335E-02 0.40292487371E-02 0.28869879580E-02 0.19875638211E-02 0.11729863450E-02
 0.42018892646E-03 -.33080734372E-04 0.11312645914E-03 0.91841119710E-03 0.20579573142E-02
 0.29432125085E-02 0.30503047661E-02 0.22893468564E-02 0.11737552518E-02 0.58807542425E-03
 0.12069604249E-02 0.29590712418E-02 0.50028436439E-02 0.62987987172E-02 0.63260384024E-02
 0.28636072618E-02 0.18326710971E-02 0.11631300018E-02 0.75092871882E-03 0.67287754285E-03
 0.11184841233E-02 0.19678986403E-02 0.27028475785E-02 0.28706193322E-02 0.25187411953E-02
 0.20326211360E-02 0.16299514710E-02 0.12313283524E-02 0.86229812310E-03 0.93382374556E-03
 0.18624381551E-02 0.34267292956E-02 0.47329672460E-02 0.49676882615E-02 0.41189958607E-02
 0.18255424042E-02 0.10320134440E-02 0.44361580512E-03 0.46817160882E-03 0.14257648447E-02
 0.30541445004E-02 0.44178409282E-02 0.45854160302E-02 0.34812930159E-02 0.19603374410E-02
 0.97567252720E-03 0.75412936467E-03 0.85081147721E-03 0.87865478977E-03 0.95882424694E-03
 0.14093179470E-02 0.21897190933E-02 0.28479806602E-02 0.29771773280E-02 0.25560958847E-02
 0.15462528459E-02 0.70585326784E-03 0.25804942775E-03 0.72842567227E-03 0.20597327405E-02
 0.36013181961E-02 0.45474666451E-02 0.44952337131E-02 0.36745794701E-02 0.26813763621E-02
 0.19755285488E-02 0.15880524836E-02 0.12522600344E-02 0.77529996255E-03 0.27830755868E-03
 0.97758961573E-04 0.46091185979E-03 0.12298891621E-02 0.19343847705E-02 0.20842661199E-02
 0.74316861058E-03 0.33754147662E-03 0.43015812795E-03 0.97126572367E-03 0.17122441670E-02
 0.25756524593E-02 0.35970621777E-02 0.45738014554E-02 0.50127236129E-02 0.45615990198E-02
 0.34061088705E-02 0.21076546362E-02 0.10755994184E-02 0.33081575497E-03 -.20808346877E-03
 -.40516781389E-03 -.58864515836E-04 0.67926258210E-03 0.12596255857E-02 0.12373172917E-02
 0.20690444785E-04 0.61891349491E-03 0.12448023655E-02 0.15617046265E-02 0.17698361535E-02
 0.24712857897E-02 0.38702194903E-02 0.52672932661E-02 0.55870118079E-02 0.44439462682E-02
 0.25496867546E-02 0.10105277376E-02 0.34198978461E-03 0.25422431867E-03 0.24646939645E-03
 0.15123480289E-03 0.61723864491E-04 -.71178157555E-05 -.12992595158E-03 -.20950837770E-03
 0.28356088642E-03 0.14546911600E-02 0.23109076850E-02 0.27743260760E-02 0.31476865537E-02
 0.37137762200E-02 0.43034995407E-02 0.43561700401E-02 0.34832587924E-02 0.19518175546E-02
 0.54438567440E-03 -.86528328765E-04 0.75088327272E-04 0.49687138893E-03 0.60527390657E-03
 0.19656260008E-03 -.52500355344E-03 -.11525653176E-02 -.12994758002E-02 -.77593938119E-03
 0.49692967244E-03 0.14294754497E-02 0.25249771918E-02 0.36057832221E-02 0.42176372755E-02
 0.40139264054E-02 0.31155242557E-02 0.20122414012E-02 0.11288928117E-02 0.55848308775E-03
 0.19477972345E-03 -.21463743927E-04 -.96070369498E-04 -.14578813401E-03 -.38895820341E-03
 -.88762111239E-03 -.13811380925E-02 -.14898455117E-02 -.10800716697E-02 -.34268846948E-03
 -.40473235637E-03 0.19526580293E-03 0.15574954255E-02 0.29603529143E-02 0.34250433662E-02
 0.27352173226E-02 0.16696377258E-02 0.11509465612E-02 0.12952140108E-02 0.14257505402E-02
 0.92624862441E-03 -.12630407297E-03 -.11844248151E-02 -.18456227774E-02 -.20719396658E-02
 -.19415100410E-02 -.14876073181E-02 -.86711800085E-03 -.43794922222E-03 -.39999247368E-03
 -.11260564722E-02 -.68496964147E-03 0.36724380970E-03 0.13843406220E-02 0.18062727110E-02
 0.17171631561E-02 0.16453580071E-02 0.18646708516E-02 0.20367055666E-02 0.15921720721E-02
 0.36859040805E-03 -.12111850795E-02 -.25206528439E-02 -.31645763493E-02 -.30746990973E-02
 -.23972184598E-02 -.14535084020E-02 -.71702867824E-03 -.56373256792E-03 -.89784737447E-03
 -.17958617349E-03 -.23584798523E-03 -.11934628100E-03 0.33736894260E-03 0.10001544544E-02
 0.15084593728E-02 0.15664321510E-02 0.11652987073E-02 0.51534943814E-03 -.20831952789E-03
 -.10010261502E-02 -.19051710549E-02 -.28095847686E-02 -.34345190119E-02 -.35286980509E-02
 -.30623212815E-02 -.22348961218E-02 -.13383360192E-02 -.62592484011E-03 -.24373848437E-03
 0.12474427212E-02 0.56403937849E-03 0.65243699488E-04 0.28390931067E-03 0.83090978912E-03
 0.86021289116E-03 0.58117965192E-04 -.99971482167E-03 -.15242497035E-02 -.13926436339E-02
 -.12166856069E-02 -.16110410570E-02 -.25704651904E-02 -.35776188380E-02 -.41186907163E-02
 -.39521927894E-02 -.30349522904E-02 -.15053044718E-02 0.16069998479E-03 0.12277246840E-02
 0.13219152416E-02 0.85191809769E-03 0.59938480914E-03 0.69761056672E-03 0.66616505030E-03
 0.86155428249E-04 -.79708922194E-03 -.13131604841E-02 -.11641354966E-02 -.80086137588E-03
 -.93495352249E-03 -.17945220337E-02 -.29629668933E-02 -.38483522150E-02 -.41225422545E-02
 -.37123138971E-02 -.26309691751E-02 -.10588512082E-02 0.48520891660E-03 0.13523945750E-02
 0.87126660264E-03 0.13681299299E-02 0.15299544301E-02 0.13724695812E-02 0.10684341290E-02
 0.82649394913E-03 0.71857231011E-03 0.59083999533E-03 0.16707777515E-03 -.70121344023E-03
 -.18451192017E-02 -.28410964875E-02 -.32998354325E-02 -.31361944528E-02 -.25867698138E-02
 -.19793980459E-02 -.14798341249E-02 -.10301070368E-02 -.48952877505E-03 0.18429390652E-03
 0.18987163502E-02 0.28626520484E-02 0.28845055962E-02 0.24582761674E-02 0.22667851121E-02
 0.23829514182E-02 0.22389929921E-02 0.13229118772E-02 -.24160953534E-03 -.18168188569E-02
 -.27967925681E-02 -.29498879929E-02 -.23800412659E-02 -.14052071219E-02 -.51646530162E-03
 -.20710388340E-03 -.56837167239E-03 -.10480984995E-02 -.83476172991E-03 0.35128282025E-03
 0.42115897535E-02 0.47794896336E-02 0.43733280192E-02 0.36163369770E-02 0.29875486073E-02
 0.23590421981E-02 0.13778398384E-02 0.84568514310E-04 -.10529295254E-02 -.16533137182E-02
 -.17457589882E-02 -.15386569620E-02 -.10880977144E-02 -.39256271521E-03 0.29648766298E-03
 0.56838636802E-03 0.38958611118E-03 0.35504183361E-03 0.11458006999E-02 0.27170623348E-02
 0.61632555460E-02 0.64181744455E-02 0.57292021216E-02 0.42875720931E-02 0.25265205005E-02
 0.95470488395E-03 0.39515050787E-05 -.16785431914E-03 0.17053091382E-03 0.44922542185E-03
 0.23375591566E-03 -.38787440277E-03 -.88470042510E-03 -.78593962483E-03 -.88567067721E-04
 0.84858331260E-03 0.17542706548E-02 0.26937120639E-02 0.38515347157E-02 0.51494505067E-02
 0.73621893409E-02 0.77100588426E-02 0.66891552558E-02 0.44588782711E-02 0.20379295154E-02
 0.57685591462E-03 0.48195800521E-03 0.12076880348E-02 0.18214271720E-02 0.17229032290E-02
 0.92304599543E-03 -.14386342624E-03 -.93342600169E-03 -.10205756784E-02 -.26906725398E-03
 0.10820187711E-02 0.25678405954E-02 0.38667183146E-02 0.50308686203E-02 0.62512389715E-02
 -.18884596021E-01 -.16535607382E-01 -.12536348094E-01 -.79192347629E-02 -.33023270001E-02
 0.50548401551E-03 0.23673332080E-02 0.16791308190E-02 -.77759731773E-03 -.32014565028E-02
 -.41246026184E-02 -.33464315106E-02 -.16475527043E-02 0.26468120392E-04 0.85847053711E-03
 -.24345006324E-04 -.33231704926E-02 -.87301317868E-02 -.14500096568E-01 -.18324363075E-01
 -.17229171925E-01 -.14247675510E-01 -.96572107647E-02 -.46381315632E-02 -.54091685269E-03