    5    5    1    1
  0.3477306E+02  0.2573869E-09  0.2573869E-09  0.3030466E-08  0.5000000E-15
  1.000000000000000E-004
  CAR 
 unknown system                          
     45     31     28
 
  0.0000000E+00  0.0000000E+00  0.0000000E+00  0.1000000E-01
    1      -11.561144   1.000000
    2      -10.664356   1.000000
    3       -9.028005   1.000000
    4       -7.578502   1.000000
    5       -6.262917   1.000000
    6       -5.684086   1.000000
    7       -5.499002   1.000000
    8       -5.452021   1.000000
    9       -5.337118   1.000000
   10       -5.329265   1.000000
   11       -5.309643   1.000000
   12       -5.297409   1.000000
   13       -5.290900   1.000000
   14       -5.038005   1.000000
   15       -5.034964   1.000000
   16       -4.878312   1.000000
   17       -4.858331   1.000000
   18       -4.700018   1.000000
   19       -4.537427   1.000000
   20       -4.532689   1.000000
   21       -4.320990   1.000000
   22       -4.305773   1.000000
   23       -4.033794   1.000000
   24       -4.029471   1.000000
   25       -2.938860   1.000000
   26        1.610919   0.000000
   27        1.915691   0.000000
   28        2.340913   0.000000
 
  0.1000000E+00  0.6938894E-17  0.0000000E+00  0.4000000E-01
    1      -11.253016   1.000000
    2      -10.368215   1.000000
    3       -8.767476   1.000000
    4       -7.360333   1.000000
    5       -6.284894   1.000000
    6       -5.731977   1.000000
    7       -5.607566   1.000000
    8       -5.458596   1.000000
    9       -5.414715   1.000000
   10       -5.366740   1.000000
   11       -5.334267   1.000000
   12       -5.227316   1.000000
   13       -5.200560   1.000000
   14       -5.138120   1.000000
   15       -5.051544   1.000000
   16       -4.947973   1.000000
   17       -4.775955   1.000000
   18       -4.715295   1.000000
   19       -4.544061   1.000000
   20       -4.507108   1.000000
   21       -4.335838   1.000000
   22       -4.303733   1.000000
   23       -4.025331   1.000000
   24       -3.790069   1.000000
   25       -2.249502   0.030441
   26        1.854943   0.000000
   27        2.219267   0.000000
   28        2.644174   0.000000
 
  0.2000000E+00 -0.1387779E-16  0.0000000E+00  0.4000000E-01
    1      -10.366142   1.000000
    2       -9.532132   1.000000
    3       -8.096148   1.000000
    4       -6.852513   1.000000
    5       -6.395255   1.000000
    6       -5.963516   1.000000
    7       -5.782067   1.000000
    8       -5.705933   1.000000
    9       -5.539819   1.000000
   10       -5.314067   1.000000
   11       -5.256756   1.000000
   12       -5.197978   1.000000
   13       -5.083804   1.000000
   14       -5.038794   1.000000
   15       -4.929805   1.000000
   16       -4.871177   1.000000
   17       -4.826176   1.000000
   18       -4.646980   1.000000
   19       -4.596947   1.000000
   20       -4.485183   1.000000
   21       -4.305112   1.000000
   22       -4.098135   1.000000
   23       -4.017826   1.000000
   24       -2.890647   1.000000
   25       -0.914788   0.000000
   26        2.579707   0.000000
   27        3.129400   0.000000
   28        3.553675   0.000000
 
  0.3000000E+00 -0.2775558E-16  0.0000000E+00  0.4000000E-01
    1       -9.061891   1.000000
    2       -8.390503   1.000000
    3       -7.452314   1.000000
    4       -6.686264   1.000000
    5       -6.413711   1.000000
    6       -6.238310   1.000000
    7       -5.923884   1.000000
    8       -5.702506   1.000000
    9       -5.584828   1.000000
   10       -5.323181   1.000000
   11       -5.185120   1.000000
   12       -5.099318   1.000000
   13       -4.916079   1.000000
   14       -4.882207   1.000000
   15       -4.767788   1.000000
   16       -4.642312   1.000000
   17       -4.573663   1.000000
   18       -4.402962   1.000000
   19       -4.370521   1.000000
   20       -4.297082   1.000000
   21       -4.181981   1.000000
   22       -4.002900   1.000000
   23       -3.591891   1.000000
   24       -1.685302   0.000000
   25        0.772749   0.000000
   26        3.764142   0.000000
   27        4.612013   0.000000
   28        5.028123   0.000000
 
  0.4000000E+00 -0.2775558E-16  0.0000000E+00  0.4000000E-01
    1       -7.987655   1.000000
    2       -7.459441   1.000000
    3       -7.143631   1.000000
    4       -6.791074   1.000000
    5       -6.547789   1.000000
    6       -6.411100   1.000000
    7       -6.058873   1.000000
    8       -5.522075   1.000000
    9       -5.380907   1.000000
   10       -5.308276   1.000000
   11       -5.241882   1.000000
   12       -4.957317   1.000000
   13       -4.834234   1.000000
   14       -4.508148   1.000000
   15       -4.411129   1.000000
   16       -4.350283   1.000000
   17       -4.152601   1.000000
   18       -4.129615   1.000000
   19       -4.093021   1.000000
   20       -4.007013   1.000000
   21       -3.865909   1.000000
   22       -3.578997   1.000000
   23       -2.525908   0.979055
   24       -0.270417   0.000000
   25        2.090509   0.000000
   26        2.904820   0.000000
   27        3.235035   0.000000
   28        4.373065   0.000000
 
  0.5000000E+00 -0.2775558E-16  0.0000000E+00  0.2000000E-01
    1       -7.776034   1.000000
    2       -7.150533   1.000000
    3       -6.956529   1.000000
    4       -6.848439   1.000000
    5       -6.618016   1.000000
    6       -6.470070   1.000000
    7       -6.087927   1.000000
    8       -5.443708   1.000000
    9       -5.390354   1.000000
   10       -5.263842   1.000000
   11       -5.168069   1.000000
   12       -4.945107   1.000000
   13       -4.598949   1.000000
   14       -4.458795   1.000000
   15       -4.289080   1.000000
   16       -4.232113   1.000000
   17       -4.085435   1.000000
   18       -3.997123   1.000000
   19       -3.937261   1.000000
   20       -3.751173   1.000000
   21       -3.646539   1.000000
   22       -2.259130   0.041088
   23       -1.392170   0.000000
   24       -0.857913   0.000000
   25        1.285375   0.000000
   26        2.210140   0.000000
   27        2.873022   0.000000
   28        3.642099   0.000000
 
  0.0000000E+00  0.1000000E+00  0.0000000E+00  0.2000000E-01
    1      -11.266079   1.000000
    2      -10.370111   1.000000
    3       -8.758562   1.000000
    4       -7.355667   1.000000
    5       -6.211559   1.000000
    6       -5.753860   1.000000
    7       -5.546140   1.000000
    8       -5.405733   1.000000
    9       -5.397858   1.000000
   10       -5.379291   1.000000
   11       -5.322433   1.000000
   12       -5.258424   1.000000
   13       -5.196581   1.000000
   14       -5.139947   1.000000
   15       -5.051120   1.000000
   16       -4.967345   1.000000
   17       -4.869993   1.000000
   18       -4.728236   1.000000
   19       -4.552952   1.000000
   20       -4.497292   1.000000
   21       -4.338098   1.000000
   22       -4.315784   1.000000
   23       -4.028559   1.000000
   24       -3.812903   1.000000
   25       -2.258935   0.040846
   26        1.855810   0.000000
   27        2.219153   0.000000
   28        2.643693   0.000000
 
  0.2000000E+00  0.1000000E+00  0.0000000E+00  0.2000000E-01
    1      -10.645311   1.000000
    2       -9.801335   1.000000
    3       -8.308435   1.000000
    4       -6.989446   1.000000
    5       -6.372167   1.000000
    6       -5.855346   1.000000
    7       -5.766137   1.000000
    8       -5.631161   1.000000
    9       -5.524462   1.000000
   10       -5.398116   1.000000
   11       -5.296884   1.000000
   12       -5.196752   1.000000
   13       -5.141084   1.000000
   14       -5.094492   1.000000
   15       -4.990730   1.000000
   16       -4.868029   1.000000
   17       -4.749952   1.000000
   18       -4.648555   1.000000
   19       -4.598789   1.000000
   20       -4.480765   1.000000
   21       -4.382956   1.000000
   22       -4.118171   1.000000
   23       -4.054942   1.000000
   24       -3.123767   1.000000
   25       -1.297090   0.000000
   26        2.339415   0.000000
   27        2.826626   0.000000
   28        3.250957   0.000000
 
  0.3000000E+00  0.1000000E+00  0.0000000E+00  0.4000000E-01
    1       -9.539156   1.000000
    2       -8.800335   1.000000
    3       -7.636637   1.000000
    4       -6.618964   1.000000
    5       -6.332585   1.000000
    6       -6.076074   1.000000
    7       -5.887405   1.000000
    8       -5.815017   1.000000
    9       -5.649364   1.000000
   10       -5.357787   1.000000
   11       -5.318897   1.000000
   12       -5.190105   1.000000
   13       -5.088104   1.000000
   14       -4.966558   1.000000
   15       -4.889894   1.000000
   16       -4.786541   1.000000
   17       -4.653861   1.000000
   18       -4.502375   1.000000
   19       -4.380892   1.000000
   20       -4.341870   1.000000
   21       -4.193576   1.000000
   22       -4.079774   1.000000
   23       -3.708452   1.000000
   24       -2.087568   0.000016
   25        0.170418   0.000000
   26        3.314187   0.000000
   27        4.036034   0.000000
   28        4.478277   0.000000
 
  0.4000000E+00  0.1000000E+00  0.0000000E+00  0.4000000E-01
    1       -8.329814   1.000000
    2       -7.732998   1.000000
    3       -7.159897   1.000000
    4       -6.646940   1.000000
    5       -6.398778   1.000000
    6       -6.242124   1.000000
    7       -5.972917   1.000000
    8       -5.671987   1.000000
    9       -5.585715   1.000000
   10       -5.320329   1.000000
   11       -5.262169   1.000000
   12       -5.112797   1.000000
   13       -4.947688   1.000000
   14       -4.786635   1.000000
   15       -4.690961   1.000000
   16       -4.538523   1.000000
   17       -4.423585   1.000000
   18       -4.312566   1.000000
   19       -4.210908   1.000000
   20       -4.028208   1.000000
   21       -3.978535   1.000000
   22       -3.670082   1.000000
   23       -2.811183   1.000000
   24       -0.661375   0.000000
   25        1.962812   0.000000
   26        3.969073   0.000000
   27        4.485523   0.000000
   28        5.091540   0.000000
 
  0.5000000E+00  0.1000000E+00  0.0000000E+00  0.4000000E-01
    1       -7.803505   1.000000
    2       -7.070298   1.000000
    3       -6.910741   1.000000
    4       -6.703242   1.000000
    5       -6.521668   1.000000
    6       -6.350407   1.000000
    7       -6.056468   1.000000
    8       -5.547636   1.000000
    9       -5.437329   1.000000
   10       -5.330465   1.000000
   11       -5.215334   1.000000
   12       -5.030006   1.000000
   13       -4.816304   1.000000
   14       -4.572017   1.000000
   15       -4.433534   1.000000
   16       -4.288166   1.000000
   17       -4.170487   1.000000
   18       -4.138345   1.000000
   19       -4.065361   1.000000
   20       -3.914893   1.000000
   21       -3.456900   1.000000
   22       -2.380333   0.490379
   23       -1.352341   0.000000
   24        0.091165   0.000000
   25        1.585677   0.000000
   26        2.577090   0.000000
   27        3.038169   0.000000
   28        4.141289   0.000000
 
 -0.4000000E+00  0.1000000E+00  0.0000000E+00  0.4000000E-01
    1       -7.720934   1.000000
    2       -7.070286   1.000000
    3       -6.900695   1.000000
    4       -6.726060   1.000000
    5       -6.521269   1.000000
    6       -6.379685   1.000000
    7       -6.077026   1.000000
    8       -5.610387   1.000000
    9       -5.423334   1.000000
   10       -5.338604   1.000000
   11       -5.256849   1.000000
   12       -5.036338   1.000000
   13       -4.840303   1.000000
   14       -4.550898   1.000000
   15       -4.442110   1.000000
   16       -4.286911   1.000000
   17       -4.177171   1.000000
   18       -4.111460   1.000000
   19       -4.065691   1.000000
   20       -3.910785   1.000000
   21       -3.374031   1.000000
   22       -2.380603   0.491898
   23       -1.376112   0.000000
   24        0.080884   0.000000
   25        1.573820   0.000000
   26        2.542623   0.000000
   27        3.087550   0.000000
   28        4.118196   0.000000
 
 -0.3000000E+00  0.1000000E+00  0.0000000E+00  0.4000000E-01
    1       -8.281663   1.000000
    2       -7.699262   1.000000
    3       -7.136338   1.000000
    4       -6.659951   1.000000
    5       -6.402343   1.000000
    6       -6.281598   1.000000
    7       -6.011632   1.000000
    8       -5.715087   1.000000
    9       -5.607788   1.000000
   10       -5.344869   1.000000
   11       -5.299966   1.000000
   12       -5.130181   1.000000
   13       -4.950358   1.000000
   14       -4.789066   1.000000
   15       -4.645287   1.000000
   16       -4.536464   1.000000
   17       -4.409915   1.000000
   18       -4.254673   1.000000
   19       -4.178631   1.000000
   20       -4.016168   1.000000
   21       -3.946420   1.000000
   22       -3.665277   1.000000
   23       -2.863864   1.000000
   24       -0.761992   0.000000
   25        1.887212   0.000000
   26        4.025566   0.000000
   27        4.556892   0.000000
   28        5.109929   0.000000
 
 -0.2000000E+00  0.1000000E+00  0.0000000E+00  0.4000000E-01
    1       -9.584263   1.000000
    2       -8.778200   1.000000
    3       -7.556656   1.000000
    4       -6.580374   1.000000
    5       -6.318317   1.000000
    6       -6.098284   1.000000
    7       -5.914350   1.000000
    8       -5.823109   1.000000
    9       -5.645530   1.000000
   10       -5.362659   1.000000
   11       -5.320913   1.000000
   12       -5.218212   1.000000
   13       -5.062395   1.000000
   14       -4.959995   1.000000
   15       -4.827625   1.000000
   16       -4.781140   1.000000
   17       -4.624662   1.000000
   18       -4.540603   1.000000
   19       -4.399750   1.000000
   20       -4.337342   1.000000
   21       -4.190734   1.000000
   22       -4.086347   1.000000
   23       -3.757989   1.000000
   24       -2.201169   0.005266
   25        0.114209   0.000000
   26        3.309956   0.000000
   27        4.036157   0.000000
   28        4.480252   0.000000
 
 -0.1000000E+00  0.1000000E+00  0.0000000E+00  0.4000000E-01
    1      -10.682338   1.000000
    2       -9.801544   1.000000
    3       -8.272048   1.000000
    4       -6.971086   1.000000
    5       -6.244948   1.000000
    6       -5.861274   1.000000
    7       -5.755819   1.000000
    8       -5.620897   1.000000
    9       -5.510159   1.000000
   10       -5.375765   1.000000
   11       -5.223233   1.000000
   12       -5.198188   1.000000
   13       -5.145823   1.000000
   14       -5.122742   1.000000
   15       -4.994177   1.000000
   16       -4.910276   1.000000
   17       -4.754321   1.000000
   18       -4.672608   1.000000
   19       -4.649900   1.000000
   20       -4.513950   1.000000
   21       -4.395529   1.000000
   22       -4.121296   1.000000
   23       -4.071382   1.000000
   24       -3.209058   1.000000
   25       -1.328285   0.000000
   26        2.340670   0.000000
   27        2.826325   0.000000
   28        3.250239   0.000000
 
  0.0000000E+00  0.2000000E+00  0.0000000E+00  0.2000000E-01
    1      -10.436061   1.000000
    2       -9.537141   1.000000
    3       -8.045370   1.000000
    4       -6.821588   1.000000
    5       -6.170948   1.000000
    6       -5.908395   1.000000
    7       -5.733170   1.000000
    8       -5.634532   1.000000
    9       -5.538171   1.000000
   10       -5.340256   1.000000
   11       -5.248230   1.000000
   12       -5.219293   1.000000
   13       -5.090068   1.000000
   14       -5.082407   1.000000
   15       -4.962327   1.000000
   16       -4.898646   1.000000
   17       -4.864131   1.000000
   18       -4.666293   1.000000
   19       -4.627075   1.000000
   20       -4.498888   1.000000
   21       -4.313188   1.000000
   22       -4.167257   1.000000
   23       -4.021496   1.000000
   24       -3.022259   1.000000
   25       -0.966083   0.000000
   26        2.577081   0.000000
   27        3.129141   0.000000
   28        3.552664   0.000000
 
  0.4000000E+00  0.2000000E+00  0.0000000E+00  0.2000000E-01
    1       -8.480023   1.000000
    2       -7.825532   1.000000
    3       -7.113571   1.000000
    4       -6.517124   1.000000
    5       -6.184712   1.000000
    6       -6.092220   1.000000
    7       -5.975236   1.000000
    8       -5.885773   1.000000
    9       -5.624913   1.000000
   10       -5.480805   1.000000
   11       -5.365543   1.000000
   12       -5.274134   1.000000
   13       -5.029882   1.000000
   14       -4.970894   1.000000
   15       -4.766309   1.000000
   16       -4.700241   1.000000
   17       -4.461212   1.000000
   18       -4.347917   1.000000
   19       -4.252677   1.000000
   20       -4.022207   1.000000
   21       -3.974742   1.000000
   22       -3.616533   1.000000
   23       -2.815001   1.000000
   24       -0.791192   0.000000
   25        1.747580   0.000000
   26        4.552357   0.000000
   27        5.203929   0.000000
   28        5.619312   0.000000
 
  0.5000000E+00  0.2000000E+00  0.0000000E+00  0.4000000E-01
    1       -7.848069   1.000000
    2       -6.916392   1.000000
    3       -6.709761   1.000000
    4       -6.491464   1.000000
    5       -6.299161   1.000000
    6       -6.158941   1.000000
    7       -5.969034   1.000000
    8       -5.809964   1.000000
    9       -5.613193   1.000000
   10       -5.510230   1.000000
   11       -5.361155   1.000000
   12       -5.103328   1.000000
   13       -5.003735   1.000000
   14       -4.862228   1.000000
   15       -4.677438   1.000000
   16       -4.570366   1.000000
   17       -4.422851   1.000000
   18       -4.234999   1.000000
   19       -4.095045   1.000000
   20       -3.931021   1.000000
   21       -3.300219   1.000000
   22       -2.398553   0.592331
   23       -1.205803   0.000000
   24        0.872895   0.000000
   25        2.724507   0.000000
   26        3.647548   0.000000
   27        3.845545   0.000000
   28        4.937269   0.000000
 
 -0.4000000E+00  0.2000000E+00  0.0000000E+00  0.4000000E-01
    1       -7.607849   1.000000
    2       -6.687544   1.000000
    3       -6.623533   1.000000
    4       -6.425366   1.000000
    5       -6.325880   1.000000
    6       -6.182833   1.000000
    7       -5.998432   1.000000
    8       -5.856237   1.000000
    9       -5.583384   1.000000
   10       -5.500304   1.000000
   11       -5.339645   1.000000
   12       -5.139079   1.000000
   13       -4.926074   1.000000
   14       -4.750514   1.000000
   15       -4.602043   1.000000
   16       -4.495553   1.000000
   17       -4.319290   1.000000
   18       -4.157574   1.000000
   19       -4.102568   1.000000
   20       -3.997529   1.000000
   21       -2.482348   0.921990
   22       -0.749953   0.000000
   23       -0.172494   0.000000
   24        0.597911   0.000000
   25        1.681819   0.000000
   26        2.840101   0.000000
   27        3.423053   0.000000
   28        4.257784   0.000000
 
 -0.3000000E+00  0.2000000E+00  0.0000000E+00  0.4000000E-01
    1       -7.704959   1.000000
    2       -6.926584   1.000000
    3       -6.718723   1.000000
    4       -6.493821   1.000000
    5       -6.303340   1.000000
    6       -6.205607   1.000000
    7       -5.987930   1.000000
    8       -5.848494   1.000000
    9       -5.618638   1.000000
   10       -5.543589   1.000000
   11       -5.426572   1.000000
   12       -5.107942   1.000000
   13       -5.008561   1.000000
   14       -4.861383   1.000000
   15       -4.694148   1.000000
   16       -4.574176   1.000000
   17       -4.418999   1.000000
   18       -4.233335   1.000000
   19       -4.063658   1.000000
   20       -3.931094   1.000000
   21       -3.127709   1.000000
   22       -2.409516   0.651210
   23       -1.304097   0.000000
   24        0.704669   0.000000
   25        2.704659   0.000000
   26        3.613587   0.000000
   27        3.866562   0.000000
   28        4.853460   0.000000
 
 -0.2000000E+00  0.2000000E+00  0.0000000E+00  0.4000000E-01
    1       -8.567851   1.000000
    2       -7.748062   1.000000
    3       -6.988837   1.000000
    4       -6.484001   1.000000
    5       -6.165196   1.000000
    6       -6.094445   1.000000
    7       -5.969641   1.000000
    8       -5.889383   1.000000
    9       -5.626651   1.000000
   10       -5.485479   1.000000
   11       -5.404259   1.000000
   12       -5.353359   1.000000
   13       -5.032878   1.000000
   14       -4.979390   1.000000
   15       -4.822468   1.000000
   16       -4.643202   1.000000
   17       -4.476233   1.000000
   18       -4.309046   1.000000
   19       -4.170871   1.000000
   20       -4.026201   1.000000
   21       -3.912525   1.000000
   22       -3.624210   1.000000
   23       -2.934430   1.000000
   24       -1.034554   0.000000
   25        1.557535   0.000000
   26        4.426434   0.000000
   27        5.415932   0.000000
   28        5.588731   0.000000
 
 -0.1000000E+00  0.2000000E+00  0.0000000E+00  0.4000000E-01
    1       -9.669882   1.000000
    2       -8.781701   1.000000
    3       -7.504754   1.000000
    4       -6.503662   1.000000
    5       -6.240663   1.000000
    6       -6.008843   1.000000
    7       -5.845720   1.000000
    8       -5.776369   1.000000
    9       -5.653940   1.000000
   10       -5.348332   1.000000
   11       -5.318349   1.000000
   12       -5.242963   1.000000
   13       -5.145327   1.000000
   14       -4.984734   1.000000
   15       -4.827500   1.000000
   16       -4.796660   1.000000
   17       -4.624689   1.000000
   18       -4.554179   1.000000
   19       -4.435832   1.000000
   20       -4.339774   1.000000
   21       -4.190857   1.000000
   22       -4.087382   1.000000
   23       -3.818712   1.000000
   24       -2.310228   0.154920
   25        0.056402   0.000000
   26        3.291413   0.000000
   27        4.037206   0.000000
   28        4.468850   0.000000
 
  0.0000000E+00  0.3000000E+00  0.0000000E+00  0.2000000E-01
    1       -9.315599   1.000000
    2       -8.371528   1.000000
    3       -7.302386   1.000000
    4       -6.507416   1.000000
    5       -6.350663   1.000000
    6       -6.042185   1.000000
    7       -5.751377   1.000000
    8       -5.662608   1.000000
    9       -5.434480   1.000000
   10       -5.328456   1.000000
   11       -5.265137   1.000000
   12       -5.132967   1.000000
   13       -4.984100   1.000000
   14       -4.893609   1.000000
   15       -4.773572   1.000000
   16       -4.729062   1.000000
   17       -4.575551   1.000000
   18       -4.422136   1.000000
   19       -4.385186   1.000000
   20       -4.301096   1.000000
   21       -4.182217   1.000000
   22       -4.006136   1.000000
   23       -3.787094   1.000000
   24       -1.993135   0.000000
   25        0.569022   0.000000
   26        3.634045   0.000000
   27        4.632169   0.000000
   28        4.867256   0.000000
 
 -0.4000000E+00  0.3000000E+00  0.0000000E+00  0.2000000E-01
    1       -7.575934   1.000000
    2       -6.447590   1.000000
    3       -6.380928   1.000000
    4       -6.311847   1.000000
    5       -6.201757   1.000000
    6       -6.079613   1.000000
    7       -6.028232   1.000000
    8       -5.931862   1.000000
    9       -5.744890   1.000000
   10       -5.552039   1.000000
   11       -5.475562   1.000000
   12       -5.094350   1.000000
   13       -5.046372   1.000000
   14       -4.847364   1.000000
   15       -4.692006   1.000000
   16       -4.542694   1.000000
   17       -4.488145   1.000000
   18       -4.200752   1.000000
   19       -4.116028   1.000000
   20       -4.021189   1.000000
   21       -2.100208   0.000034
   22       -0.424550   0.000000
   23        0.776878   0.000000
   24        2.200451   0.000000
   25        2.258203   0.000000
   26        2.526903   0.000000
   27        3.326355   0.000000
   28        3.993003   0.000000
 
 -0.3000000E+00  0.3000000E+00  0.0000000E+00  0.4000000E-01
    1       -7.530768   1.000000
    2       -6.458124   1.000000
    3       -6.403306   1.000000
    4       -6.310301   1.000000
    5       -6.202156   1.000000
    6       -6.080352   1.000000
    7       -6.030415   1.000000
    8       -5.919631   1.000000
    9       -5.703196   1.000000
   10       -5.593501   1.000000
   11       -5.480891   1.000000
   12       -5.096197   1.000000
   13       -5.045914   1.000000
   14       -4.868747   1.000000
   15       -4.699833   1.000000
   16       -4.555492   1.000000
   17       -4.486751   1.000000
   18       -4.188700   1.000000
   19       -4.112486   1.000000
   20       -4.022441   1.000000
   21       -1.946122   0.000000
   22       -0.449829   0.000000
   23        0.630588   0.000000
   24        1.787312   0.000000
   25        2.331486   0.000000
   26        2.503570   0.000000
   27        3.250490   0.000000
   28        3.804985   0.000000
 
 -0.2000000E+00  0.3000000E+00  0.0000000E+00  0.4000000E-01
    1       -7.935795   1.000000
    2       -6.886508   1.000000
    3       -6.682115   1.000000
    4       -6.421994   1.000000
    5       -6.285378   1.000000
    6       -6.047674   1.000000
    7       -5.942825   1.000000
    8       -5.775771   1.000000
    9       -5.616554   1.000000
   10       -5.528994   1.000000
   11       -5.402217   1.000000
   12       -5.112704   1.000000
   13       -5.042240   1.000000
   14       -4.898089   1.000000
   15       -4.676350   1.000000
   16       -4.610064   1.000000
   17       -4.420932   1.000000
   18       -4.243296   1.000000
   19       -4.057526   1.000000
   20       -3.931004   1.000000
   21       -3.016500   1.000000
   22       -2.428416   0.744049
   23       -1.413729   0.000000
   24        0.385051   0.000000
   25        2.150009   0.000000
   26        3.266067   0.000000
   27        4.292877   0.000000
   28        5.615184   0.000000
 
 -0.1000000E+00  0.3000000E+00  0.0000000E+00  0.4000000E-01
    1       -8.649752   1.000000
    2       -7.650529   1.000000
    3       -7.000012   1.000000
    4       -6.474044   1.000000
    5       -6.382077   1.000000
    6       -6.084669   1.000000
    7       -5.829202   1.000000
    8       -5.638629   1.000000
    9       -5.493659   1.000000
   10       -5.391034   1.000000
   11       -5.248669   1.000000
   12       -5.164798   1.000000
   13       -5.019713   1.000000
   14       -4.796346   1.000000
   15       -4.712821   1.000000
   16       -4.555834   1.000000
   17       -4.417014   1.000000
   18       -4.239403   1.000000
   19       -4.188763   1.000000
   20       -4.023762   1.000000
   21       -3.943010   1.000000
   22       -3.686326   1.000000
   23       -3.032213   1.000000
   24       -1.093263   0.000000
   25        1.487606   0.000000
   26        3.624943   0.000000
   27        4.567525   0.000000
   28        5.422865   0.000000
 
  0.0000000E+00  0.4000000E+00  0.0000000E+00  0.2000000E-01
    1       -8.508774   1.000000
    2       -7.395716   1.000000
    3       -7.030664   1.000000
    4       -6.562779   1.000000
    5       -6.519884   1.000000
    6       -6.189491   1.000000
    7       -5.787117   1.000000
    8       -5.467607   1.000000
    9       -5.352365   1.000000
   10       -5.347359   1.000000
   11       -5.101756   1.000000
   12       -5.032938   1.000000
   13       -4.675052   1.000000
   14       -4.529318   1.000000
   15       -4.398792   1.000000
   16       -4.375624   1.000000
   17       -4.153022   1.000000
   18       -4.092123   1.000000
   19       -4.031034   1.000000
   20       -4.010123   1.000000
   21       -3.866204   1.000000
   22       -3.571900   1.000000
   23       -2.845527   1.000000
   24       -0.907104   0.000000
   25        1.031318   0.000000
   26        2.617293   0.000000
   27        3.523578   0.000000
   28        4.993389   0.000000
 
 -0.2000000E+00  0.4000000E+00  0.0000000E+00  0.2000000E-01
    1       -7.796928   1.000000
    2       -6.670567   1.000000
    3       -6.627458   1.000000
    4       -6.352315   1.000000
    5       -6.272225   1.000000
    6       -6.033583   1.000000
    7       -5.957410   1.000000
    8       -5.913228   1.000000
    9       -5.527264   1.000000
   10       -5.467740   1.000000
   11       -5.265159   1.000000
   12       -5.129195   1.000000
   13       -4.996009   1.000000
   14       -4.753063   1.000000
   15       -4.633428   1.000000
   16       -4.523348   1.000000
   17       -4.322626   1.000000
   18       -4.145105   1.000000
   19       -4.100625   1.000000
   20       -3.997728   1.000000
   21       -1.917222   0.000000
   22       -0.824469   0.000000
   23       -0.457375   0.000000
   24        0.108964   0.000000
   25        0.774871   0.000000
   26        2.431104   0.000000
   27        3.761106   0.000000
   28        5.033534   0.000000
 
 -0.1000000E+00  0.4000000E+00  0.0000000E+00  0.4000000E-01
    1       -8.191946   1.000000
    2       -7.033737   1.000000
    3       -6.902142   1.000000
    4       -6.527233   1.000000
    5       -6.458666   1.000000
    6       -6.178366   1.000000
    7       -5.822174   1.000000
    8       -5.601571   1.000000
    9       -5.422638   1.000000
   10       -5.290769   1.000000
   11       -5.243644   1.000000
   12       -4.939323   1.000000
   13       -4.760631   1.000000
   14       -4.648378   1.000000
   15       -4.448848   1.000000
   16       -4.305530   1.000000
   17       -4.174457   1.000000
   18       -4.113452   1.000000
   19       -4.051965   1.000000
   20       -3.913502   1.000000
   21       -2.882732   1.000000
   22       -2.436548   0.779612
   23       -1.673467   0.000000
   24       -0.526241   0.000000
   25        0.302083   0.000000
   26        2.197479   0.000000
   27        3.350430   0.000000
   28        4.903762   0.000000
 
  0.0000000E+00  0.5000000E+00  0.0000000E+00  0.1000000E-01
    1       -8.292892   1.000000
    2       -7.104095   1.000000
    3       -7.006934   1.000000
    4       -6.620864   1.000000