unknown system                          
   1.00000000000000     
     2.573869    0.000000    0.000000
     1.286934    2.229036    0.000000
     0.000000    0.000000   30.304665
   Cu   H 
     4     1
Direct
  0.999707  0.000587  0.396567
  0.333187  0.333626  0.465140
  0.665828  0.668345  0.533594
  0.000801  0.998399  0.604216
  0.500478  0.999044  0.637503
 
   10   10  120
 0.12386E-14 0.41633E-16 0.35125E-13 0.17970E-11 0.63283E-14 0.36351E-12 0.96312E-13 0.33817E-12 0.55358E-13 0.16206E-13
 0.14063E-13 0.38539E-12 0.31191E-12 0.19871E-11 0.24925E-13 0.39503E-12 0.66308E-13 0.29896E-11 0.12872E-14 0.11553E-14
 0.35472E-13 0.97061E-13 0.19348E-12 0.63127E-12 0.10242E-13 0.24106E-13 0.86015E-13 0.26373E-11 0.72685E-13 0.58653E-13
 0.16836E-10 0.12738E-10 0.94938E-13 0.28283E-13 0.47518E-13 0.29772E-12 0.52319E-14 0.18082E-11 0.51481E-12 0.15902E-10
 0.17195E-13 0.21608E-13 0.91455E-14 0.23259E-13 0.17930E-13 0.18319E-13 0.62450E-14 0.21538E-13 0.52514E-13 0.50335E-13
 0.82069E-11 0.11705E-09 0.18539E-12 0.46643E-12 0.13947E-13 0.57453E-11 0.41245E-13 0.68320E-13 0.94091E-14 0.79987E-12
 0.39926E-13 0.55511E-16 0.59647E-13 0.13589E-12 0.43299E-14 0.60368E-14 0.25951E-14 0.18319E-14 0.39413E-14 0.81657E-13
 0.16104E-10 0.11118E-10 0.11395E-12 0.15055E-11 0.90886E-13 0.67571E-13 0.16376E-14 0.28311E-14 0.29005E-14 0.14510E-11
 0.51258E-13 0.40568E-13 0.19072E-13 0.32727E-12 0.10172E-13 0.45797E-14 0.25535E-14 0.40828E-13 0.29714E-12 0.13764E-12
 0.23002E-14 0.98116E-14 0.52094E-13 0.12882E-10 0.55289E-13 0.95425E-12 0.13961E-13 0.12649E-10 0.30240E-12 0.25594E-13
 0.12976E-14 0.63491E-15 0.29324E-13 0.12546E-12 0.24147E-14 0.67488E-13 0.11155E-12 0.17319E-13 0.13760E-13 0.93189E-14
 0.11080E-13 0.24081E-12 0.31716E-12 0.10204E-11 0.11852E-13 0.32424E-12 0.23792E-12 0.29550E-11 0.74732E-14 0.25396E-14
 0.61506E-13 0.21995E-12 0.24265E-12 0.44892E-12 0.49544E-14 0.12934E-13 0.15885E-12 0.21411E-11 0.67148E-13 0.57718E-13
 0.23081E-11 0.46813E-11 0.54248E-13 0.34417E-14 0.17070E-13 0.21499E-12 0.45131E-13 0.23240E-11 0.44226E-12 0.21734E-10
 0.48711E-14 0.14377E-13 0.55511E-14 0.68417E-14 0.60230E-14 0.94785E-14 0.73552E-14 0.14849E-13 0.35555E-13 0.27964E-13
 0.30773E-12 0.29278E-10 0.14230E-12 0.12046E-12 0.89651E-14 0.10469E-10 0.90955E-13 0.34066E-12 0.27395E-13 0.33525E-10
 0.23352E-12 0.25535E-14 0.13671E-12 0.40568E-12 0.57732E-14 0.27284E-13 0.11227E-13 0.58009E-14 0.10103E-13 0.17547E-12
 0.40662E-11 0.97254E-11 0.13997E-12 0.19531E-11 0.42424E-13 0.24787E-12 0.51070E-14 0.11616E-13 0.13725E-13 0.28787E-10
 0.16025E-13 0.43056E-13 0.26694E-13 0.45869E-12 0.12837E-13 0.11394E-13 0.66475E-14 0.95812E-13 0.39968E-12 0.77716E-13
 0.31294E-14 0.91836E-14 0.40922E-13 0.13226E-10 0.27561E-13 0.58277E-11 0.39427E-13 0.25503E-08 0.28529E-12 0.54519E-13
 0.48572E-15 0.41286E-15 0.11192E-13 0.24786E-13 0.83267E-15 0.13101E-13 0.22954E-13 0.10408E-14 0.32752E-14 0.29317E-14
 0.42050E-14 0.12326E-12 0.23712E-12 0.32369E-12 0.58009E-14 0.20772E-12 0.77396E-12 0.28721E-11 0.10859E-13 0.19915E-14
 0.17333E-13 0.50543E-12 0.19086E-12 0.16653E-12 0.25535E-14 0.14988E-14 0.16898E-12 0.14381E-11 0.51327E-13 0.52278E-13
 0.45103E-13 0.17688E-11 0.14155E-13 0.74940E-15 0.64948E-14 0.81421E-13 0.18922E-12 0.26322E-11 0.37127E-12 0.25898E-10
 0.12212E-14 0.88540E-14 0.32196E-14 0.23592E-14 0.23453E-14 0.46491E-14 0.63144E-14 0.70915E-14 0.18929E-13 0.14086E-13
 0.23856E-13 0.18918E-11 0.59050E-13 0.23273E-13 0.53846E-14 0.31506E-10 0.20350E-12 0.19800E-11 0.40273E-13 0.10546E-10
 0.55164E-13 0.37886E-14 0.19038E-12 0.12452E-11 0.53013E-14 0.10511E-12 0.60729E-13 0.28130E-13 0.22898E-13 0.36428E-12
 0.11631E-12 0.73670E-11 0.16376E-12 0.14541E-11 0.17264E-13 0.71045E-12 0.22982E-13 0.70777E-13 0.32127E-13 0.12818E-09
 0.35874E-14 0.34028E-13 0.29581E-13 0.60803E-12 0.95757E-14 0.18832E-13 0.15793E-13 0.12279E-12 0.36413E-12 0.39496E-13
 0.16445E-14 0.51903E-14 0.27547E-13 0.71637E-11 0.10394E-13 0.11276E-09 0.11394E-12 0.25763E-10 0.25170E-12 0.93599E-13
 0.41633E-15 0.61062E-15 0.48017E-14 0.97977E-14 0.49960E-15 0.34417E-14 0.54956E-14 0.24980E-15 0.97145E-15 0.13323E-14
 0.21788E-14 0.82295E-13 0.18126E-12 0.25266E-12 0.36082E-14 0.16942E-12 0.69699E-11 0.26262E-11 0.19304E-13 0.30531E-14
 0.47462E-14 0.12556E-11 0.19076E-12 0.12887E-12 0.15821E-14 0.22482E-14 0.20188E-12 0.10009E-11 0.39913E-13 0.43243E-13
 0.82573E-14 0.10798E-11 0.10991E-13 0.36082E-15 0.36082E-14 0.62533E-13 0.33638E-11 0.28758E-11 0.24609E-12 0.32575E-10
 0.48572E-15 0.72164E-14 0.22621E-14 0.13045E-14 0.11102E-14 0.26784E-14 0.58564E-14 0.56066E-14 0.10575E-13 0.85279E-14
 0.42466E-14 0.68881E-12 0.43673E-13 0.19706E-13 0.42605E-14 0.58961E-10 0.81543E-12 0.19639E-10 0.11709E-12 0.17782E-11
 0.83822E-14 0.66475E-13 0.27008E-12 0.13224E-10 0.53707E-14 0.56957E-12 0.25705E-11 0.60767E-12 0.78604E-13 0.10757E-11
 0.23731E-13 0.62507E-11 0.18831E-12 0.19903E-11 0.94091E-14 0.25244E-10 0.62036E-12 0.66163E-11 0.12419E-12 0.62446E-11
 0.83267E-15 0.33043E-13 0.32779E-13 0.65056E-12 0.84932E-14 0.44353E-13 0.57454E-13 0.25507E-12 0.34794E-12 0.13906E-13
 0.13739E-14 0.41495E-14 0.17555E-13 0.29892E-11 0.61895E-14 0.93005E-11 0.46699E-12 0.55976E-11 0.20921E-12 0.13192E-12
 0.18041E-15 0.49960E-15 0.24980E-14 0.44686E-14 0.19429E-15 0.13323E-14 0.13045E-14 0.55511E-16 0.27756E-15 0.54123E-15
 0.91593E-15 0.45644E-13 0.90095E-13 0.73219E-13 0.19984E-14 0.11088E-12 0.14530E-09 0.24622E-11 0.24633E-13 0.31364E-14
 0.18457E-14 0.51820E-11 0.15446E-12 0.53929E-13 0.80491E-15 0.11102E-15 0.90095E-13 0.58611E-12 0.30601E-13 0.42757E-13
 0.20539E-14 0.55797E-12 0.22760E-14 0.22204E-15 0.16653E-14 0.28311E-13 0.21810E-08 0.30689E-11 0.26069E-12 0.49445E-10
 0.19429E-15 0.52319E-14 0.13600E-14 0.55511E-15 0.38858E-15 0.14572E-14 0.43021E-14 0.31086E-14 0.61617E-14 0.46074E-14
 0.13600E-14 0.23097E-12 0.18874E-13 0.58703E-14 0.32335E-14 0.21795E-09 0.24337E-11 0.24538E-10 0.84446E-13 0.14628E-11
 0.17625E-14 0.17669E-12 0.19039E-12 0.45594E-07 0.41772E-14 0.93213E-12 0.51863E-10 0.16099E-11 0.12622E-12 0.14886E-11
 0.75218E-14 0.50519E-11 0.20686E-12 0.19970E-11 0.40246E-14 0.17503E-10 0.17394E-11 0.72588E-11 0.98505E-13 0.29784E-11
 0.20817E-15 0.27200E-13 0.36679E-13 0.87191E-12 0.58287E-14 0.38136E-13 0.81851E-13 0.12246E-12 0.23714E-12 0.64115E-14
 0.76328E-15 0.27478E-14 0.12226E-13 0.11986E-11 0.24980E-14 0.90341E-11 0.75120E-12 0.31789E-11 0.19891E-12 0.25274E-12
  0.0000     0.43021E-15 0.16653E-14 0.24425E-14 0.55511E-16 0.47184E-15 0.55511E-15 0.27756E-16 0.83267E-16 0.22204E-15
 0.31919E-15 0.32988E-13 0.39579E-13 0.45297E-13 0.11380E-14 0.79325E-13 0.63270E-09 0.22113E-11 0.38455E-13 0.33168E-14
 0.11241E-14 0.76692E-09 0.14172E-12 0.39885E-13 0.61062E-15 -.55511E-16 0.48600E-13 0.39020E-12 0.27534E-13 0.35985E-13
 0.65226E-15 0.37507E-12 0.16098E-14 -.27756E-16 0.10547E-14 0.20678E-13 0.45657E-10 0.30412E-11 0.19802E-12 0.66219E-10
 0.97145E-16 0.40384E-14 0.10408E-14 0.44409E-15 0.33307E-15 0.73552E-15 0.36082E-14 0.21927E-14 0.43993E-14 0.30115E-14
 0.58287E-15 0.11703E-12 0.13364E-13 0.43021E-14 0.24286E-14 0.75553E-07 0.43253E-11 0.42970E-09 0.69070E-13 0.10863E-11
 0.58287E-15 0.70115E-12 0.13245E-12 0.43725E-10 0.37609E-14 0.94569E-12 0.23619E-11 0.14819E-12 0.13069E-12 0.12273E-11
 0.33029E-14 0.43111E-11 0.28029E-12 0.16549E-11 0.21094E-14 0.74583E-11 0.69000E-13 0.35702E-12 0.97256E-13 0.15369E-11
 0.69389E-16 0.30934E-13 0.46102E-13 0.10234E-11 0.57176E-14 0.46102E-13 0.92232E-13 0.80075E-13 0.22440E-12 0.83267E-16
 0.48572E-15 0.18180E-14 0.46907E-14 0.85848E-13 0.13323E-14 0.41239E-11 0.60330E-12 0.17747E-11 0.16967E-12 0.39110E-12
 0.12490E-15 0.33307E-15 0.91593E-15 0.14988E-14 0.13878E-15 0.30531E-15 0.24980E-15 0.83267E-16 -.27756E-16 0.55511E-16
 0.12490E-15 0.12615E-13 0.16653E-14 0.54123E-14 0.58287E-15 0.52125E-13 0.69754E-10 0.19985E-11 0.35263E-13 0.37609E-14
 0.44409E-15 0.13815E-10 0.11727E-12 0.21982E-13 0.27756E-15 0.55511E-16 0.13795E-13 0.15135E-12 0.15959E-13 0.28880E-13
 0.20817E-15 0.21338E-12 0.30531E-15 0.55511E-16 0.63838E-15 0.12296E-13 0.93083E-10 0.30116E-11 0.17712E-12 0.99716E-10
 0.13878E-16 0.29698E-14 0.70777E-15 0.22204E-15 0.19429E-15 0.31919E-15 0.25119E-14 0.14780E-14 0.27478E-14 0.19845E-14
 0.29143E-15 0.51854E-13 0.71124E-14 0.20123E-14 0.18041E-14 0.37603E-08 0.64439E-12 0.77593E-12 0.25563E-13 0.15400E-11
 0.23592E-15 0.22796E-12 0.68667E-13 0.75389E-08 0.28380E-14 0.30580E-12 0.88554E-13 0.12962E-13 0.25507E-13 0.31404E-12
 0.16098E-14 0.34404E-11 0.26154E-12 0.64948E-12 0.94369E-15 0.30659E-12 0.44964E-14 0.29865E-13 0.36526E-13 0.11126E-11
  0.0000     0.20581E-13 0.43437E-13 0.12065E-11 0.39968E-14 0.25868E-13 0.24786E-13 0.23759E-13 0.12626E-12 0.24980E-14
 0.36082E-15 0.13600E-14 0.68001E-15 0.13989E-13 0.66613E-15 0.39968E-10 0.16964E-12 0.13335E-11 0.15160E-12 0.63222E-12
 -.27756E-16 0.27756E-15 0.73552E-15 0.14988E-14 0.27756E-16 0.30531E-15 0.24980E-15 0.83267E-16 0.55511E-16 0.55511E-16
 0.83267E-16 0.83406E-14 0.19429E-15 0.17486E-14 0.61062E-15 0.38497E-13 0.82137E-11 0.17895E-11 0.48170E-13 0.42744E-14
 0.31919E-15 0.27322E-11 0.10357E-12 0.16070E-13 0.27756E-15 0.11102E-15 0.43854E-14 0.85043E-13 0.13822E-13 0.27693E-13
 0.12490E-15 0.14717E-12 0.19429E-15 0.27756E-16 0.30531E-15 0.88679E-14 0.52760E-11 0.28222E-11 0.17033E-12 0.18564E-09
 0.97145E-16 0.24841E-14 0.53429E-15 0.16653E-15 0.62450E-16 0.16653E-15 0.19915E-14 0.11588E-14 0.19082E-14 0.13323E-14
 0.18735E-15 0.29681E-13 0.48780E-14 0.13635E-14 0.14988E-14 0.98381E-10 0.15078E-12 0.17063E-12 0.13697E-13 0.17183E-11
 0.10408E-15 0.11009E-12 0.37727E-13 0.97434E-11 0.25119E-14 0.15392E-12 0.22621E-13 0.34972E-14 0.77161E-14 0.97949E-13
 0.99920E-15 0.29592E-11 0.46402E-12 0.22432E-09 0.55511E-15 0.71165E-13 0.11102E-14 0.87153E-14 0.24633E-13 0.76236E-12
  0.0000     0.22982E-13 0.52194E-13 0.18423E-11 0.34972E-14 0.19845E-13 0.97700E-14 0.10325E-13 0.76078E-13 0.13045E-13
 0.26368E-15 0.97145E-15 0.27756E-16 0.20120E-12 0.36082E-15 0.11859E-08 0.70333E-13 0.92204E-12 0.13972E-12 0.14373E-11
  0.0000     0.27756E-15 0.47184E-15 0.10270E-14 0.83267E-16 0.13878E-15  0.0000     0.27756E-16 0.27756E-16 0.27756E-16
  0.0000     0.17417E-14 0.19623E-13 0.17486E-14 0.36082E-15 0.27783E-13 0.15390E-11 0.16582E-11 0.49627E-13 0.40107E-14
 0.16653E-15 0.13446E-11 0.86389E-13 0.12906E-13 0.20817E-15 0.11102E-15 0.16098E-14 0.10963E-14 0.87291E-14 0.23620E-13
 0.55511E-16 0.84408E-13 0.27756E-16 0.86736E-16 0.38858E-15 0.62138E-14 0.92654E-12 0.26381E-11 0.10421E-12 0.17979E-09
 0.11102E-15 0.20539E-14 0.40419E-15 0.11102E-15 0.22551E-16 0.90206E-16 0.15821E-14 0.82573E-15 0.12698E-14 0.79103E-15
 0.76328E-16 0.14669E-13 0.33515E-14 0.90379E-15 0.12906E-14 0.52956E-09 0.30489E-13 0.47677E-13 0.78965E-14 0.41783E-11
 -.20817E-16 0.34334E-13 0.21580E-13 0.10244E-11 0.20053E-14 0.72567E-13 0.78548E-14 0.12212E-14 0.22760E-14 0.26153E-13
 0.54123E-15 0.23382E-11 0.44634E-12 0.83769E-11 0.18041E-15 0.19179E-13 0.26368E-15 0.33307E-14 0.13975E-13 0.61876E-12
 0.13878E-16 0.17250E-13 0.51986E-13 0.20736E-11 0.29005E-14 0.12754E-13 0.37192E-14 0.43576E-14 0.37137E-13 0.66176E-13
 0.15959E-15 0.36082E-15 0.86736E-15 0.68051E-12 0.16653E-15 0.26713E-11 0.27228E-13 0.76508E-12 0.13575E-12 0.39434E-11
 -.13878E-16 0.13184E-15 0.38858E-15 0.11657E-14 0.41633E-16 0.27756E-15 -.27756E-16 0.11102E-15  0.0000     0.41633E-16
 0.13878E-16 0.12212E-14 0.32058E-13 0.16528E-13 0.29143E-15 0.24050E-13 0.60552E-12 0.20588E-11 0.64587E-13 0.47462E-14
 0.20817E-15 0.76916E-12 0.76539E-13 0.11310E-13 0.16653E-15 -.13878E-16 0.37470E-15 0.49474E-14 0.83336E-14 0.26992E-13
 0.27756E-16 0.50793E-13 -.31225E-16 0.86736E-16 0.23245E-15 0.48850E-14 0.32744E-12 0.24211E-11 0.10501E-12 0.13015E-08
 0.55511E-16 0.17313E-14 0.27669E-15 0.13878E-15 0.81532E-16 0.13878E-16 0.12421E-14 0.69389E-15 0.91593E-15 0.63838E-15
 0.18041E-15 0.10408E-13 0.23315E-14 0.68435E-15 0.11102E-14 0.64372E-10 0.11241E-13 0.20095E-13 0.41495E-14 0.72063E-11
 0.83267E-16 0.14211E-13 0.12622E-13 0.28713E-12 0.18388E-14 0.43396E-13 0.39968E-14 0.54123E-15 0.10270E-14 0.10776E-13
 0.45797E-15 0.20106E-11 0.56916E-12 0.10931E-10 0.90206E-16 0.69944E-14 0.83267E-16 0.15821E-14 0.83822E-14 0.47039E-12
 0.55511E-16 0.21233E-13 0.61937E-13 0.34626E-11 0.24702E-14 0.85071E-14 0.21094E-14 0.19360E-14 0.17431E-13 0.96666E-13
 0.15959E-15 0.30531E-15 0.12421E-14 0.72758E-12 0.55511E-16 0.10228E-11 0.15592E-13 0.57714E-12 0.17604E-12 0.48858E-09
 -.13878E-16 0.24286E-15 0.36776E-15 0.94369E-15 0.13184E-15 0.19429E-15 0.20817E-16 0.76328E-16 0.27756E-16 -.97145E-16
 -.69389E-16 0.98532E-15 0.53110E-13 0.20983E-13 0.15266E-15 0.15890E-13 0.36013E-12 0.22361E-11 0.60021E-13 0.46352E-14
 0.97145E-16 0.68313E-12 0.61659E-13 0.94647E-14 0.13878E-15 0.16653E-15  0.0000     0.63824E-13 0.40662E-14 0.17007E-13
 0.20817E-16 0.25022E-13  0.0000     0.90206E-16 0.12837E-15 0.36568E-14 0.16811E-12 0.21914E-11 0.73885E-13 0.56114E-09
 0.97145E-16 0.13184E-14 0.24286E-15 0.83267E-16 -.13878E-16 -.27756E-16 0.84655E-15 0.48572E-15 0.66613E-15 0.43021E-15
  0.0000     0.43021E-14 0.17035E-14 0.45450E-15 0.94369E-15 0.74463E-09 0.27825E-14 0.86597E-14 0.23384E-14 0.15045E-08
 0.41633E-16 0.84932E-14 0.67238E-14 0.10969E-12 0.12768E-14 0.25056E-13 0.19013E-14 0.41633E-15 0.33307E-15 0.30254E-14
 0.33307E-15 0.15908E-11 0.59731E-12 0.85967E-11 -.13878E-16 0.24147E-14  0.0000     0.80491E-15 0.54540E-14 0.40115E-12
 -.48572E-16 0.13038E-13 0.59758E-13 0.42896E-11 0.19151E-14 0.56205E-14 0.84655E-15 0.75634E-15 0.51278E-14 0.29453E-12
 0.10408E-15 0.41633E-16 0.76675E-14 0.90703E-12 0.41633E-16 0.20454E-12 0.75981E-14 0.49798E-12 0.18238E-12 0.20596E-09
 0.13878E-16 0.31919E-15 0.41633E-15 0.77022E-15 0.48572E-16 0.13878E-15 0.90206E-16 0.11102E-15  0.0000     -.34694E-16
 -.41633E-16 0.33931E-14 0.61451E-13 0.58030E-13 0.15959E-15 0.14440E-13 0.22195E-12 0.24401E-11 0.10682E-12 0.49544E-14
 0.69389E-16 0.65632E-12 0.54998E-13 0.97977E-14 0.13878E-15 -.27756E-16 -.48572E-16 0.13864E-12 0.40315E-14 0.18138E-13
 -.27756E-16 0.86944E-14 -.41633E-16 0.34694E-16 0.14572E-15 0.38095E-14 0.92759E-13 0.19619E-11 0.69680E-13 0.12602E-07
 0.62450E-16 0.12351E-14 0.22204E-15 0.62450E-16 0.69389E-17 -.20817E-16 0.73552E-15 0.47878E-15 0.59674E-15 0.26368E-15
 0.10408E-15 0.30947E-14 0.14502E-14 0.36082E-15 0.83267E-15 0.53355E-09 0.16515E-14 0.58564E-14 0.21302E-14 0.25691E-10
 0.69389E-17 0.49127E-14 0.48295E-14 0.51820E-13 0.11935E-14 0.18062E-13 0.14225E-14 0.24286E-15 0.24286E-15 0.15404E-14
 0.31225E-15 0.13483E-11 0.66608E-12 0.84368E-11 0.69389E-17 0.16653E-14 0.41633E-16 0.70777E-15 0.44270E-14 0.32238E-12
 -.27756E-16 0.14148E-13 0.72053E-13 0.62868E-11 0.18457E-14 0.44756E-14 0.83267E-15 0.72858E-15 0.25951E-14 0.55544E-12
 0.10408E-15 0.69389E-17 0.10006E-13 0.92588E-12 -.69389E-17 0.13611E-12 0.54817E-14 0.40173E-12 0.22219E-12 0.12119E-10
 -.62450E-16 0.38164E-15 0.41633E-15 0.99920E-15 0.55511E-16 0.69389E-17 -.34694E-16 0.13878E-16 -.20817E-16 0.55511E-16
 -.34694E-16 0.10048E-13 0.68931E-13 0.71242E-13 -.69389E-17 0.10485E-13 0.15928E-12 0.26965E-11 0.14300E-12 0.53221E-14
 0.41633E-16 0.62027E-12 0.57711E-13 0.80977E-14 0.48572E-16 0.13184E-15 0.41633E-16 0.24405E-12 0.23315E-14 0.16119E-13
  0.0000     0.26160E-14 -.27756E-16 0.41633E-16 0.13184E-15 0.33515E-14 0.57759E-13 0.18003E-11 0.49828E-13 0.19304E-07
 0.27756E-16 0.10408E-14 0.16653E-15 0.69389E-17 -.13878E-16 0.48572E-16 0.55511E-15 0.40939E-15 0.43021E-15 0.24980E-15
 0.13878E-16 0.15821E-14 0.93675E-15 0.30531E-15 0.65919E-15 0.29276E-08 0.51348E-15 0.30392E-14 0.11866E-14 0.28573E-11
 0.69389E-17 0.36846E-14 0.32474E-14 0.27235E-13 0.97838E-15 0.12178E-13 0.77716E-15 0.62450E-16 0.97145E-16 0.48572E-15
 0.30531E-15 0.11119E-11 0.69605E-12 0.14404E-10 0.13878E-16 0.63144E-15 -.69389E-16 0.38858E-15 0.27339E-14 0.32249E-12
 -.20817E-16 0.12379E-13 0.85432E-13 0.70277E-11 0.16098E-14 0.30392E-14 0.37470E-15 0.22898E-15 0.41633E-15 0.20742E-11
 0.13878E-16  0.0000     0.17097E-13 0.91673E-12 0.27756E-16 0.58835E-13 0.31988E-14 0.34604E-12 0.22114E-12 0.52207E-11
 0.34694E-16 0.36082E-15 0.36776E-15 0.70083E-15 -.41633E-16 0.18041E-15 0.83267E-16 0.90206E-16 -.20817E-16 0.48572E-16
 -.20817E-16 0.17819E-13 0.72296E-13 0.14520E-12 0.55511E-16 0.91038E-14 0.10961E-12 0.29957E-11 0.19408E-12 0.52597E-14
 0.55511E-16 0.61213E-12 0.65246E-13 0.77577E-14 -.69389E-17 -.34694E-16 0.48572E-16 0.34528E-12 0.13531E-14 0.17056E-13
 0.13878E-16 0.27756E-15 0.13878E-16 -.69389E-16 0.34694E-16 0.35250E-14 0.46546E-13 0.15368E-11 0.40974E-13 0.12818E-08
 -.20817E-16 0.12074E-14 0.10408E-15 -.13878E-16 0.34694E-16 0.13878E-16 0.41633E-15 0.25674E-15 0.41633E-15 0.17347E-15
 0.17347E-15 0.89512E-15 0.75634E-15 0.22204E-15 0.59674E-15 0.43453E-09 0.27756E-15 0.19915E-14 0.97838E-15 0.13173E-11
 0.55511E-16 0.22482E-14 0.24078E-14 0.15231E-13 0.79103E-15 0.91663E-14 0.54817E-15 0.27756E-16 0.27756E-16 0.20123E-15
 0.21511E-15 0.94075E-12 0.74472E-12 0.10427E-10 -.55511E-16 0.34694E-15 -.13878E-16 0.27756E-15 0.23037E-14 0.33073E-12
 -.41633E-16 0.11928E-13 0.97478E-13 0.92493E-11 0.14017E-14 0.23800E-14 0.21511E-15 0.11102E-15 0.21511E-15 0.38534E-10
 0.83267E-16 -.48572E-16 0.21011E-13 0.88401E-12 0.20817E-16 0.37838E-13 0.22135E-14 0.31445E-12 0.24590E-12 0.33747E-11
 0.13878E-16 0.44409E-15 0.50654E-15 0.88818E-15 -.27756E-16 0.83267E-16 0.90206E-16 0.69389E-16 0.90206E-16 0.69389E-17
 -.13878E-16 0.38823E-13 0.67155E-13 0.25757E-12 0.90206E-16 0.74593E-14 0.99594E-13 0.33706E-11 0.27348E-12 0.54956E-14
 0.55511E-16 0.63055E-12 0.68431E-13 0.75842E-14 0.55511E-16 0.11796E-15 0.21511E-15 0.43104E-12 0.10825E-14 0.16036E-13
 0.69389E-17 0.12282E-13 0.20817E-16 0.27756E-16 0.41633E-16 0.32335E-14 0.43347E-13 0.14042E-11 0.41904E-13 0.40430E-09
 0.13878E-16 0.14364E-14 0.19429E-15 0.41633E-16 -.41633E-16 0.20817E-16 0.38858E-15 0.18041E-15 0.26368E-15 0.15266E-15
  0.0000     0.61756E-15 0.63144E-15 0.12490E-15 0.61062E-15 0.27758E-09 0.17347E-15 0.12768E-14 0.69389E-15 0.62500E-12
 0.55511E-16 0.16584E-14 0.17347E-14 0.94300E-14 0.64532E-15 0.68417E-14 0.49787E-15 0.55511E-16 0.69389E-17 0.69389E-16
 0.22204E-15 0.78586E-12 0.11863E-11 0.14353E-10 0.48572E-16 0.27409E-15 0.64185E-16 0.19082E-15 0.17521E-14 0.34985E-12
 0.27756E-16 0.10859E-13 0.13747E-12 0.11640E-10 0.12212E-14 0.20053E-14 0.25327E-15 0.14572E-15 -.69389E-17 0.26382E-10
 0.27756E-16 0.27756E-16 0.26812E-13 0.81157E-12 0.11796E-15 0.22225E-13 0.16862E-14 0.34269E-12 0.28363E-12 0.25870E-11
 0.55511E-16 0.45103E-15 0.34694E-15 0.66613E-15 -.27756E-16 0.41633E-16 0.48572E-16 0.27756E-16 -.27756E-16 0.27756E-16
 -.41633E-16 0.93460E-13 0.64219E-13 0.30501E-12 -.11102E-15 0.54678E-14 0.76793E-13 0.38796E-11 0.30823E-12 0.63283E-14
 0.55511E-16 0.69503E-12 0.67120E-13 0.54678E-14  0.0000     0.13878E-16 0.15959E-15 0.50139E-12 0.26368E-15 0.12587E-13
 -.20817E-16 0.28429E-13 -.41633E-16 -.69389E-16 -.69389E-16 0.24911E-14 0.38983E-13 0.12132E-11 0.32377E-13 0.22139E-09
  0.0000     0.11033E-14 0.10408E-15 -.20817E-16 -.69389E-16 -.76328E-16 0.29143E-15 0.20817E-15 0.17347E-15 0.20817E-16
 0.48572E-16 0.69389E-16 0.37470E-15 0.20817E-16 0.42327E-15 0.36401E-10 0.27756E-16 0.79450E-15 0.41460E-15 0.34865E-12
 0.13878E-16 0.11588E-14 0.11449E-14 0.59813E-14 0.57593E-15 0.55685E-14 0.33046E-15 0.26021E-17 -.72858E-16 -.48572E-16
 0.15959E-15 0.69401E-12 0.14756E-11 0.12918E-10 0.27756E-16 -.32960E-16 0.78063E-17 0.18908E-15 0.12906E-14 0.38290E-12
 0.48572E-16 0.87014E-14 0.13357E-12 0.13573E-10 0.12802E-14 0.12698E-14 0.20643E-15 0.67654E-16 0.34001E-15 0.36424E-11
 0.55511E-16 0.27756E-16 0.42043E-13 0.74553E-12 -.31225E-16 0.12292E-13 0.11345E-14 0.35526E-12 0.29692E-12 0.21357E-11
 0.13878E-16 0.64532E-15 0.56899E-15 0.80491E-15 0.11102E-15 0.30531E-15 -.27756E-16 0.11102E-15  0.0000     -.69389E-17
 0.83267E-16 0.12139E-12 0.60993E-13 0.59769E-12 -.13878E-16 0.53985E-14 0.56274E-13 0.39636E-11 0.45576E-12 0.10006E-13
 0.69389E-16 0.66890E-12 0.66835E-13 0.71054E-14 0.48572E-16 0.76328E-16 0.33307E-15 0.63188E-12 0.43021E-15 0.13878E-13
 0.69389E-17 0.12262E-12 0.55511E-16 0.55511E-16 0.55511E-16 0.32752E-14 0.29428E-13 0.12061E-11 0.25736E-13 0.93460E-10
 0.27756E-16 0.16029E-14 0.18041E-15 0.69389E-16  0.0000     0.41633E-16 0.25674E-15 0.22204E-15 0.17347E-15 0.86736E-16
 0.55511E-16 0.90206E-16 0.43021E-15 0.19429E-15 0.58981E-15 0.35129E-10 0.55511E-16 0.70517E-15 0.45797E-15 0.46038E-12
 0.20817E-16 0.77022E-15 0.91593E-15 0.37331E-14 0.49266E-15 0.74107E-14 0.26541E-15 0.83267E-16 -.25153E-16 -.17347E-16
 0.19429E-15 0.55026E-12 0.11955E-11 0.17484E-10 0.83267E-16 0.72425E-16 0.83267E-16 0.14138E-15 0.11380E-14 0.45428E-12
 0.69389E-16 0.97283E-14 0.20568E-12 0.16101E-10 0.14988E-14 0.15890E-14 0.25587E-15 0.11449E-15 0.78410E-15 0.15331E-11
 0.15266E-15 0.12490E-15 0.47296E-13 0.67073E-12 0.31225E-16 0.11848E-13 0.99400E-15 0.42382E-12 0.32307E-12 0.18876E-11
 -.13878E-16 0.63144E-15 0.52736E-15 0.77022E-15 -.11102E-15 0.69389E-16 0.34694E-16 0.69389E-16 0.27756E-16 0.55511E-16
 0.20817E-16 0.34600E-12 0.55414E-13 0.72771E-12 -.15266E-15 0.38858E-14 0.62554E-13 0.43930E-11 0.63555E-12 0.10658E-13
 0.69389E-16 0.73737E-12 0.90150E-13 0.65087E-14 -.41633E-16 -.97145E-16 0.55511E-16 0.66615E-12 0.83267E-16 0.13878E-13
 0.55511E-16 0.18621E-12 -.41633E-16 -.11102E-15  0.0000     0.31086E-14 0.35381E-13 0.12306E-11 0.23009E-13 0.62764E-10
 0.13878E-16 0.15959E-14 0.13878E-15 0.27756E-16 -.55511E-16 -.41633E-16 0.21511E-15 0.22204E-15 0.15266E-15 0.83267E-16
 0.69389E-16 0.55511E-16 0.29143E-15 0.19429E-15 0.41633E-15 0.15660E-10 0.11102E-15 0.41460E-15 0.24980E-15 0.25688E-12
 -.48572E-16 0.71471E-15 0.91593E-15 0.28588E-14 0.38858E-15 0.55234E-14 0.15266E-15 0.55511E-16 -.50307E-16 0.69389E-17
 0.12490E-15 0.48045E-12 0.18030E-11 0.20281E-10 -.41633E-16 -.85001E-16  0.0000     0.18562E-15 0.97838E-15 0.45176E-12
 0.20817E-16 0.89234E-14 0.21537E-12 0.18173E-10 0.19811E-14 0.97145E-15 -.67654E-16 -.34694E-16 0.40593E-15 0.81534E-12
 0.16653E-15 0.16653E-15 0.53152E-13 0.61939E-12 -.83267E-16 0.58772E-14 0.56552E-15 0.41149E-12 0.36296E-12 0.17477E-11
 -.27756E-16 0.74940E-15 0.69389E-15 0.87430E-15 0.41633E-16 0.83267E-16 -.27756E-16 0.27756E-16 0.97145E-16 0.55511E-16
  0.0000     0.75595E-12 0.50515E-13 0.13063E-11 0.27756E-16 0.33307E-14 0.55178E-13 0.45928E-11 0.82839E-12 0.14044E-13
 0.83267E-16 0.74662E-12 0.78437E-13 0.58703E-14 0.13878E-15 0.41633E-16 0.33307E-15 0.71462E-12 0.97145E-16 0.14086E-13
 0.27756E-16 0.31175E-12 0.69389E-17 0.55511E-16 0.13878E-16 0.29837E-14 0.34424E-13 0.14254E-11 0.23204E-13 0.36398E-10
 0.27756E-16 0.17208E-14 0.11102E-15 0.69389E-16 0.13878E-16 0.13878E-16 0.16653E-15 0.16653E-15 0.76328E-16 0.55511E-16
 -.41633E-16 -.55511E-16 0.24980E-15 0.97145E-16 0.52736E-15 0.78775E-11 -.55511E-16 0.41633E-15 0.29143E-15 0.30333E-12
  0.0000     0.52042E-15 0.52736E-15 0.20123E-14 0.31919E-15 0.65364E-14 0.23592E-15 -.13878E-16 -.62450E-16 -.83267E-16
 0.16653E-15 0.39579E-12 0.22202E-11 0.32492E-10 -.13878E-16 0.20817E-16  0.0000     0.10061E-15 0.11657E-14 0.51246E-12
 0.55511E-16 0.86597E-14 0.32913E-12 0.23047E-10 0.19706E-14 0.14294E-14 0.79797E-16 0.13878E-15 0.80491E-15 0.57471E-12
 0.83267E-16 0.24980E-15 0.60660E-13 0.54602E-12 0.27756E-16 0.53915E-14 0.72164E-15 0.44415E-12 0.39682E-12 0.16801E-11
 -.13878E-16 0.99920E-15 0.55511E-15 0.66613E-15 -.13878E-16 -.97145E-16 -.12490E-15 -.41633E-16 -.55511E-16 0.41633E-16
 -.41633E-16 0.67618E-11 0.46213E-13 0.19407E-11 -.20123E-15 0.27756E-14 0.52292E-13 0.51549E-11 0.96553E-12 0.25757E-13
 0.27756E-16 0.79864E-12 0.98532E-13 0.60507E-14 -.83267E-16 -.13878E-16 0.11102E-15 0.74162E-12 0.27756E-16 0.12837E-13
 -.13878E-16 0.56824E-12 -.97145E-16 0.27756E-16 0.27756E-16 0.31919E-14 0.33959E-13 0.13830E-11 0.16612E-13 0.26460E-10
 0.13878E-16 0.18180E-14 0.83267E-16  0.0000     -.41633E-16 0.27756E-16 0.83267E-16 0.15266E-15 0.13878E-16 0.83267E-16
 -.27756E-16 0.55511E-16 0.12490E-15 0.97145E-16 0.45797E-15 0.63900E-11 0.13878E-16 0.31919E-15 0.18041E-15 0.24378E-12
 0.13878E-16 0.44409E-15 0.54123E-15 0.14710E-14 0.24980E-15 0.56621E-14 0.83267E-16 -.13878E-16 -.83267E-16 0.55511E-16
 0.16653E-15 0.34789E-12 0.29302E-11 0.32181E-10 0.13878E-16 -.13878E-16 -.27756E-16 0.83267E-16 0.88818E-15 0.55274E-12
 -.27756E-16 0.77022E-14 0.30691E-12 0.24446E-10 0.21233E-14 0.98532E-15 -.41633E-16 0.27756E-16 0.74940E-15 0.36669E-12
 0.11102E-15 0.12490E-15 0.83350E-13 0.48855E-12 -.11102E-15 0.36637E-14 0.27756E-15 0.46990E-12 0.40130E-12 0.16212E-11
 0.13878E-16 0.10408E-14 0.74940E-15 0.97145E-15 -.27756E-16  0.0000     -.55511E-16 -.13878E-16  0.0000     0.27756E-16
 -.13878E-16 0.48817E-10 0.41370E-13 0.19177E-11 -.97145E-16 0.24425E-14 0.55123E-13 0.58692E-11 0.13004E-11 0.28560E-13
 0.97145E-16 0.90053E-12 0.95840E-13 0.65087E-14  0.0000     0.15266E-15 0.24980E-15 0.74063E-12 0.55511E-16 0.12684E-13
 0.27756E-16 0.51356E-12 0.83267E-16 0.27756E-16 0.27756E-16 0.33723E-14 0.37623E-13 0.18241E-11 0.16057E-13 0.16569E-10
 0.41633E-16 0.19984E-14 0.97145E-16  0.0000     -.41633E-16 0.41633E-16 0.55511E-16 0.15266E-15 0.27756E-16 0.41633E-16
 -.55511E-16 -.55511E-16 0.13878E-15 0.12490E-15 0.61062E-15 0.24031E-11 0.55511E-16 0.19429E-15 0.26368E-15 0.25348E-12
  0.0000     0.51348E-15 0.33307E-15 0.11935E-14 0.19429E-15 0.70083E-14 0.22204E-15 0.27756E-16 -.69389E-16 -.83267E-16
 0.22204E-15 0.30596E-12 0.42375E-11 0.15017E-09 0.27756E-16 -.55511E-16  0.0000     0.97145E-16 0.10547E-14 0.61190E-12
 -.55511E-16 0.76328E-14 0.50814E-12 0.28823E-10 0.24286E-14 0.11241E-14 0.69389E-16  0.0000     0.94369E-15 0.31221E-12
 0.13878E-15 0.33307E-15 0.93189E-13 0.43653E-12  0.0000     0.32474E-14 0.36082E-15 0.50436E-12 0.46251E-12 0.15578E-11
 -.20817E-16 0.13045E-14 0.70777E-15 0.99920E-15 0.13878E-16 0.16653E-15 0.27756E-16  0.0000      0.0000     0.13878E-16
 0.34694E-16 0.19653E-11 0.37609E-13 0.12997E-10 -.41633E-16 0.21649E-14 0.50085E-13 0.58835E-11 0.16619E-11 0.42771E-13
 0.13878E-16 0.91330E-12 0.11319E-12 0.61617E-14 -.55511E-16 0.16653E-15 0.12490E-15 0.76317E-12 0.41633E-16 0.13739E-13
 -.41633E-16 0.49126E-11 0.97145E-16 0.55511E-16 0.83267E-16 0.31364E-14 0.36915E-13 0.16820E-11 0.12615E-13 0.11926E-10
 -.13878E-16 0.22066E-14 0.13878E-15 0.55511E-16 -.27756E-16 0.27756E-16 0.83267E-16 0.13878E-15 0.69389E-16  0.0000    
  0.0000     0.27756E-16 0.19429E-15 -.13878E-16 0.66613E-15 0.30165E-11 0.27756E-16 0.22204E-15 0.83267E-16 0.24364E-12
 -.13878E-16 0.34694E-15 0.30531E-15 0.86042E-15 0.16653E-15 0.68973E-14 0.16653E-15 -.55511E-16 -.69389E-16 0.55511E-16
 0.18041E-15 0.25721E-12 0.52734E-11 0.71768E-10  0.0000     0.41633E-16 -.55511E-16 0.12490E-15 0.11102E-14 0.63682E-12
 0.55511E-16 0.77161E-14 0.54728E-12 0.29197E-10 0.28033E-14 0.11519E-14 0.69389E-16 0.97145E-16 0.97145E-15 0.24809E-12
 0.83267E-16 0.24286E-15 0.10203E-12 0.38901E-12 0.27756E-16 0.24841E-14 0.33307E-15 0.53747E-12 0.47994E-12 0.15744E-11
 0.20817E-16 0.13115E-14 0.73552E-15 0.97145E-15 -.27756E-16 0.41633E-16 -.27756E-16 0.41633E-16 0.34694E-16 0.13878E-16
 -.31225E-16 0.60128E-12 0.33876E-13 0.36562E-11 -.12490E-15 0.23315E-14 0.54831E-13 0.65774E-11 0.20607E-11 0.54061E-13
 0.13878E-16 0.10020E-11 0.12786E-12 0.86042E-14 -.41633E-16 0.55511E-16 0.12490E-15 0.75993E-12 0.13878E-16 0.13350E-13
  0.0000     0.17226E-11 0.83267E-16 0.13878E-16 0.55511E-16 0.50376E-14 0.40939E-13 0.19150E-11 0.83267E-14 0.97985E-11
 -.27756E-16 0.24702E-14 0.19429E-15 -.55511E-16 0.13878E-16  0.0000     0.41633E-16 0.12490E-15 0.16653E-15 0.27756E-16
  0.0000     0.97145E-16 0.18041E-15 0.13878E-16 0.77716E-15 0.14995E-11 -.27756E-16 0.16653E-15 0.11102E-15 0.25319E-12
 0.13878E-16 0.34694E-15 0.33307E-15 0.72164E-15 0.13878E-15 0.77854E-14 0.11102E-15 -.55511E-16 -.55511E-16  0.0000    
 0.12490E-15 0.22399E-12 0.54556E-11 0.14836E-09 -.13878E-16  0.0000     -.83267E-16  0.0000     0.14155E-14 0.70748E-12
 0.27756E-16 0.73760E-14 0.58982E-12 0.29610E-10 0.33723E-14 0.15266E-14 -.27756E-16 0.13878E-16 0.74940E-15 0.19573E-12
 0.12837E-15 0.37817E-15 0.12708E-12 0.34930E-12 0.27756E-16 0.23037E-14 0.22204E-15 0.58147E-12 0.50053E-12 0.15397E-11
  0.0000     0.13271E-14 0.10443E-14 0.10408E-14 0.55511E-16 0.83267E-16 0.27756E-16 0.13878E-16 0.27756E-16 -.20817E-16
 -.41633E-16 0.34376E-12 0.29900E-13 0.13863E-11 -.55511E-16 0.30670E-14 0.57787E-13 0.77037E-11 0.28165E-11 0.72747E-13
 0.41633E-16 0.11310E-11 0.14332E-12 0.73969E-14 -.12490E-15 0.97145E-16 0.55511E-16 0.68519E-12 -.65919E-16 0.16032E-13
 0.13878E-16 0.80938E-12 0.13878E-16 0.11102E-15 0.83267E-16 0.42188E-14 0.44201E-13 0.24114E-11 0.13101E-13 0.73971E-11
 0.13878E-16 0.29976E-14 0.15266E-15 0.55511E-16 -.83267E-16 0.41633E-16 0.55511E-16 0.15266E-15 0.27756E-16  0.0000    
 0.27756E-16 0.13878E-16 0.18041E-15 0.69389E-16 0.10131E-14 0.35296E-11 0.41633E-16 0.11102E-15 0.83267E-16 0.32298E-12
 0.13878E-16 0.37470E-15 0.33307E-15 0.70777E-15 0.33307E-15 0.92981E-14 0.20817E-15  0.0000     -.13878E-16 0.27756E-16
 0.19429E-15 0.20489E-12 0.14782E-10 0.15636E-08  0.0000     -.13878E-16 -.55511E-16 0.41633E-16 0.13600E-14 0.82240E-12
 0.20817E-16 0.80283E-14 0.97329E-12 0.38631E-10 0.38858E-14 0.14155E-14 0.13878E-15 -.97145E-16 0.69389E-15 0.19616E-12
 0.65919E-16 0.35041E-15 0.13296E-12 0.29563E-12 -.69389E-16 0.21511E-14 0.20817E-15 0.66898E-12 0.61411E-12 0.16815E-11
 0.56379E-17 0.16361E-14 0.99280E-15 0.12000E-14 0.29490E-16 0.76328E-16 -.10408E-16 -.39031E-17 0.86153E-16 0.94631E-16
 -.40358E-16 0.17389E-12 0.26827E-13 0.67566E-12 0.45536E-16 0.38459E-14 0.75613E-13 0.81714E-11 0.35910E-11 0.11176E-12
 0.40766E-16 0.12365E-11 0.17928E-12 0.11057E-13 0.60498E-16 0.88905E-16 0.15049E-15 0.66345E-12 -.85435E-16 0.15104E-13
 0.23852E-16 0.52949E-12 0.74593E-16 0.93675E-16 0.12924E-15 0.63482E-14 0.62560E-13 0.26960E-11 0.10932E-13 0.67820E-11