PROCAR lm decomposed
# of k-points:   31         # of bands:   28         # of ions:    5

 k-point     1 :    0.00000000 0.00000000 0.00000000     weight = 0.01000000

band     1 # energy  -11.56114433 # occ.  2.00000000
 
ion      s     py     pz     px    dxy    dyz    dz2    dxz  x2-y2    tot
    1  0.011  0.000  0.002  0.000  0.000  0.000  0.000  0.000  0.000  0.012
    2  0.060  0.000  0.002  0.000  0.000  0.000  0.000  0.000  0.000  0.062
    3  0.144  0.000  0.002  0.000  0.000  0.000  0.000  0.000  0.000  0.145
    4  0.284  0.000  0.000  0.000  0.000  0.000  0.006  0.000  0.005  0.295
    5  0.082  0.000  0.001  0.000  0.000  0.000  0.000  0.000  0.000  0.083
tot    0.581  0.000  0.006  0.000  0.000  0.000  0.006  0.000  0.005  0.598
 
band     2 # energy  -10.66435587 # occ.  2.00000000
 
ion      s     py     pz     px    dxy    dyz    dz2    dxz  x2-y2    tot
    1  0.117  0.000  0.010  0.000  0.000  0.000  0.000  0.000  0.000  0.128
    2  0.250  0.000  0.001  0.000  0.000  0.000  0.002  0.000  0.000  0.253
    3  0.038  0.000  0.019  0.000  0.000  0.000  0.000  0.000  0.000  0.058
    4  0.089  0.000  0.008  0.000  0.000  0.000  0.010  0.000  0.004  0.112
    5  0.048  0.000  0.000  0.000  0.000  0.000  0.000  0.000  0.000  0.049
tot    0.543  0.000  0.038  0.000  0.000  0.000  0.013  0.000  0.004  0.599
 
band     3 # energy   -9.02800487 # occ.  2.00000000
 
ion      s     py     pz     px    dxy    dyz    dz2    dxz  x2-y2    tot
    1  0.191  0.000  0.002  0.000  0.000  0.000  0.021  0.000  0.000  0.214
    2  0.003  0.000  0.048  0.000  0.000  0.000  0.001  0.000  0.000  0.051
    3  0.203  0.000  0.000  0.000  0.000  0.000  0.038  0.000  0.000  0.241
    4  0.010  0.000  0.031  0.000  0.000  0.000  0.021  0.000  0.006  0.068
    5  0.034  0.000  0.000  0.000  0.000  0.000  0.000  0.000  0.000  0.034
tot    0.441  0.000  0.081  0.000  0.000  0.000  0.081  0.000  0.006  0.608
 
band     4 # energy   -7.57850239 # occ.  2.00000000
 
ion      s     py     pz     px    dxy    dyz    dz2    dxz  x2-y2    tot
    1  0.103  0.000  0.005  0.000  0.000  0.000  0.133  0.000  0.000  0.241
    2  0.098  0.000  0.002  0.000  0.000  0.000  0.235  0.000  0.000  0.335
    3  0.033  0.000  0.014  0.000  0.000  0.000  0.091  0.000  0.000  0.138
    4  0.000  0.000  0.012  0.000  0.000  0.000  0.011  0.000  0.003  0.026
    5  0.006  0.000  0.000  0.000  0.000  0.000  0.000  0.000  0.000  0.006
tot    0.240  0.000  0.034  0.000  0.000  0.000  0.469  0.000  0.003  0.747
 
band     5 # energy   -6.26291712 # occ.  2.00000000
 
ion      s     py     pz     px    dxy    dyz    dz2    dxz  x2-y2    tot
    1  0.000  0.000  0.000  0.000  0.000  0.000  0.003  0.000  0.000  0.003
    2  0.001  0.000  0.000  0.000  0.000  0.000  0.000  0.000  0.000  0.001
    3  0.000  0.000  0.004  0.000  0.000  0.001  0.086  0.000  0.000  0.092
    4  0.012  0.000  0.039  0.000  0.000  0.000  0.491  0.000  0.134  0.676
    5  0.053  0.000  0.000  0.000  0.000  0.000  0.000  0.000  0.000  0.054
tot    0.066  0.000  0.044  0.000  0.000  0.001  0.579  0.000  0.134  0.825
 
band     6 # energy   -5.68408637 # occ.  2.00000000
 
ion      s     py     pz     px    dxy    dyz    dz2    dxz  x2-y2    tot
    1  0.000  0.000  0.001  0.000  0.000  0.000  0.023  0.000  0.000  0.024
    2  0.002  0.000  0.000  0.000  0.000  0.000  0.021  0.000  0.001  0.024
    3  0.000  0.000  0.014  0.000  0.000  0.006  0.249  0.000  0.002  0.271
    4  0.007  0.000  0.006  0.000  0.000  0.000  0.323  0.000  0.274  0.611
    5  0.001  0.000  0.001  0.000  0.000  0.000  0.000  0.000  0.000  0.002
tot    0.011  0.000  0.022  0.000  0.000  0.006  0.616  0.000  0.278  0.933
 
band     7 # energy   -5.49900154 # occ.  2.00000000
 
ion      s     py     pz     px    dxy    dyz    dz2    dxz  x2-y2    tot
    1  0.000  0.000  0.000  0.000  0.000  0.000  0.000  0.001  0.000  0.001
    2  0.000  0.000  0.000  0.000  0.023  0.000  0.000  0.000  0.000  0.023
    3  0.000  0.000  0.000  0.000  0.015  0.000  0.000  0.033  0.000  0.048
    4  0.000  0.000  0.000  0.000  0.894  0.000  0.000  0.001  0.000  0.896
    5  0.000  0.000  0.000  0.000  0.000  0.000  0.000  0.000  0.000  0.000
tot    0.000  0.000  0.000  0.000  0.932  0.000  0.000  0.035  0.000  0.967
 
band     8 # energy   -5.45202147 # occ.  2.00000000
 
ion      s     py     pz     px    dxy    dyz    dz2    dxz  x2-y2    tot
    1  0.002  0.000  0.000  0.000  0.000  0.000  0.013  0.000  0.000  0.015
    2  0.000  0.000  0.009  0.000  0.000  0.000  0.127  0.000  0.014  0.150
    3  0.003  0.000  0.001  0.000  0.000  0.015  0.398  0.000  0.008  0.424
    4  0.001  0.000  0.008  0.000  0.000  0.000  0.005  0.000  0.328  0.342
    5  0.001  0.000  0.000  0.000  0.000  0.000  0.000  0.000  0.000  0.002
tot    0.007  0.000  0.018  0.000  0.000  0.015  0.543  0.000  0.350  0.933
 
band     9 # energy   -5.33711807 # occ.  2.00000000
 
ion      s     py     pz     px    dxy    dyz    dz2    dxz  x2-y2    tot
    1  0.000  0.000  0.005  0.000  0.000  0.003  0.270  0.000  0.004  0.282
    2  0.003  0.000  0.001  0.000  0.000  0.001  0.368  0.000  0.141  0.514
    3  0.001  0.000  0.006  0.000  0.000  0.011  0.011  0.000  0.064  0.094
    4  0.000  0.000  0.006  0.000  0.000  0.001  0.000  0.000  0.040  0.048
    5  0.002  0.000  0.000  0.000  0.000  0.000  0.000  0.000  0.000  0.002
tot    0.007  0.000  0.018  0.000  0.000  0.016  0.649  0.000  0.249  0.939
 
band    10 # energy   -5.32926452 # occ.  2.00000000
 
ion      s     py     pz     px    dxy    dyz    dz2    dxz  x2-y2    tot
    1  0.000  0.000  0.000  0.000  0.022  0.000  0.000  0.000  0.000  0.023
    2  0.000  0.000  0.000  0.000  0.019  0.000  0.000  0.065  0.000  0.084
    3  0.000  0.000  0.000  0.000  0.691  0.000  0.000  0.019  0.000  0.710
    4  0.000  0.000  0.000  0.000  0.007  0.000  0.000  0.142  0.000  0.150
    5  0.000  0.000  0.000  0.000  0.000  0.000  0.000  0.000  0.000  0.000
tot    0.000  0.000  0.000  0.001  0.740  0.000  0.000  0.226  0.000  0.967
 
band    11 # energy   -5.30964303 # occ.  2.00000000
 
ion      s     py     pz     px    dxy    dyz    dz2    dxz  x2-y2    tot
    1  0.000  0.000  0.001  0.000  0.000  0.001  0.072  0.000  0.029  0.103
    2  0.000  0.000  0.001  0.000  0.000  0.042  0.051  0.000  0.140  0.234
    3  0.001  0.000  0.000  0.000  0.000  0.004  0.000  0.000  0.524  0.529
    4  0.000  0.000  0.001  0.000  0.000  0.043  0.001  0.000  0.047  0.092
    5  0.000  0.000  0.000  0.000  0.000  0.000  0.000  0.000  0.000  0.000
tot    0.001  0.000  0.004  0.000  0.000  0.090  0.124  0.000  0.739  0.959
 
band    12 # energy   -5.29740937 # occ.  2.00000000
 
ion      s     py     pz     px    dxy    dyz    dz2    dxz  x2-y2    tot
    1  0.000  0.000  0.000  0.000  0.006  0.000  0.000  0.032  0.000  0.038
    2  0.000  0.000  0.000  0.000  0.811  0.000  0.000  0.013  0.000  0.825
    3  0.000  0.000  0.000  0.000  0.003  0.000  0.000  0.051  0.000  0.055
    4  0.000  0.000  0.000  0.000  0.037  0.000  0.000  0.013  0.000  0.049
    5  0.000  0.000  0.000  0.000  0.000  0.000  0.000  0.000  0.000  0.000
tot    0.000  0.000  0.000  0.000  0.857  0.000  0.000  0.109  0.000  0.967
 
band    13 # energy   -5.29089992 # occ.  2.00000000
 
ion      s     py     pz     px    dxy    dyz    dz2    dxz  x2-y2    tot
    1  0.000  0.000  0.000  0.000  0.000  0.029  0.028  0.000  0.000  0.058
    2  0.000  0.000  0.001  0.000  0.000  0.048  0.014  0.000  0.558  0.621
    3  0.000  0.000  0.000  0.000  0.000  0.060  0.001  0.000  0.172  0.233
    4  0.000  0.000  0.000  0.000  0.000  0.030  0.000  0.000  0.022  0.052
    5  0.000  0.000  0.000  0.000  0.000  0.000  0.000  0.000  0.000  0.000
tot    0.001  0.000  0.001  0.000  0.000  0.167  0.043  0.000  0.752  0.965
 
band    14 # energy   -5.03800490 # occ.  2.00000000
 
ion      s     py     pz     px    dxy    dyz    dz2    dxz  x2-y2    tot
    1  0.000  0.000  0.000  0.000  0.802  0.000  0.000  0.008  0.002  0.813
    2  0.000  0.000  0.000  0.000  0.001  0.000  0.000  0.089  0.000  0.091
    3  0.000  0.000  0.000  0.000  0.030  0.000  0.000  0.002  0.000  0.032
    4  0.000  0.000  0.000  0.000  0.001  0.000  0.000  0.032  0.000  0.033
    5  0.000  0.000  0.000  0.000  0.000  0.000  0.000  0.000  0.000  0.000
tot    0.000  0.000  0.000  0.000  0.834  0.000  0.000  0.132  0.003  0.969
 
band    15 # energy   -5.03496401 # occ.  2.00000000
 
ion      s     py     pz     px    dxy    dyz    dz2    dxz  x2-y2    tot
    1  0.000  0.000  0.000  0.000  0.002  0.007  0.001  0.000  0.810  0.820
    2  0.000  0.000  0.000  0.000  0.000  0.078  0.000  0.000  0.000  0.079
    3  0.000  0.000  0.000  0.000  0.000  0.003  0.000  0.000  0.057  0.061
    4  0.000  0.000  0.000  0.000  0.000  0.008  0.000  0.000  0.001  0.009
    5  0.000  0.000  0.000  0.000  0.000  0.000  0.000  0.000  0.000  0.000
tot    0.000  0.000  0.000  0.000  0.002  0.095  0.001  0.000  0.868  0.968
 
band    16 # energy   -4.87831228 # occ.  2.00000000
 
ion      s     py     pz     px    dxy    dyz    dz2    dxz  x2-y2    tot
    1  0.000  0.000  0.000  0.000  0.014  0.000  0.000  0.003  0.000  0.017
    2  0.000  0.000  0.000  0.000  0.013  0.000  0.000  0.009  0.000  0.022
    3  0.000  0.000  0.000  0.000  0.172  0.000  0.000  0.035  0.000  0.208
    4  0.000  0.000  0.000  0.000  0.010  0.000  0.000  0.726  0.000  0.736
    5  0.000  0.000  0.000  0.003  0.000  0.000  0.000  0.000  0.000  0.003
tot    0.000  0.000  0.000  0.003  0.209  0.000  0.000  0.773  0.000  0.985
 
band    17 # energy   -4.85833053 # occ.  2.00000000
 
ion      s     py     pz     px    dxy    dyz    dz2    dxz  x2-y2    tot
    1  0.027  0.000  0.001  0.000  0.000  0.000  0.315  0.000  0.001  0.344
    2  0.015  0.000  0.037  0.000  0.000  0.000  0.060  0.000  0.005  0.117
    3  0.000  0.000  0.077  0.000  0.000  0.015  0.000  0.000  0.002  0.093
    4  0.009  0.000  0.052  0.000  0.000  0.009  0.019  0.000  0.063  0.151
    5  0.017  0.000  0.000  0.000  0.000  0.000  0.000  0.000  0.000  0.017
tot    0.067  0.000  0.167  0.000  0.000  0.024  0.395  0.000  0.070  0.723
 
band    18 # energy   -4.70001775 # occ.  2.00000000
 
ion      s     py     pz     px    dxy    dyz    dz2    dxz  x2-y2    tot
    1  0.000  0.000  0.000  0.000  0.000  0.004  0.004  0.000  0.000  0.009
    2  0.000  0.000  0.000  0.000  0.000  0.001  0.001  0.000  0.019  0.022
    3  0.000  0.000  0.001  0.000  0.000  0.128  0.000  0.000  0.092  0.221
    4  0.000  0.000  0.001  0.000  0.000  0.708  0.000  0.000  0.016  0.726
    5  0.000  0.000  0.000  0.000  0.000  0.000  0.000  0.000  0.000  0.000
tot    0.001  0.000  0.003  0.000  0.000  0.841  0.005  0.000  0.127  0.978
 
band    19 # energy   -4.53742718 # occ.  2.00000000
 
ion      s     py     pz     px    dxy    dyz    dz2    dxz  x2-y2    tot
    1  0.000  0.000  0.000  0.000  0.103  0.000  0.000  0.044  0.000  0.147
    2  0.000  0.000  0.000  0.000  0.075  0.000  0.000  0.421  0.000  0.495
    3  0.000  0.000  0.000  0.000  0.042  0.000  0.000  0.272  0.000  0.314
    4  0.000  0.000  0.000  0.000  0.010  0.000  0.000  0.018  0.000  0.028
    5  0.000  0.000  0.000  0.000  0.000  0.000  0.000  0.000  0.000  0.000
tot    0.000  0.000  0.000  0.000  0.229  0.000  0.000  0.754  0.000  0.984
 
band    20 # energy   -4.53268924 # occ.  2.00000000
 
ion      s     py     pz     px    dxy    dyz    dz2    dxz  x2-y2    tot
    1  0.000  0.000  0.000  0.000  0.000  0.055  0.001  0.000  0.105  0.161
    2  0.000  0.000  0.000  0.000  0.000  0.449  0.000  0.000  0.064  0.513
    3  0.000  0.000  0.000  0.000  0.000  0.198  0.000  0.000  0.029  0.227
    4  0.000  0.000  0.000  0.000  0.000  0.074  0.000  0.000  0.008  0.082
    5  0.000  0.000  0.000  0.000  0.000  0.000  0.000  0.000  0.000  0.000
tot    0.000  0.000  0.001  0.000  0.000  0.776  0.001  0.000  0.205  0.983
 
band    21 # energy   -4.32099043 # occ.  2.00000000
 
ion      s     py     pz     px    dxy    dyz    dz2    dxz  x2-y2    tot
    1  0.000  0.000  0.000  0.000  0.012  0.000  0.000  0.346  0.000  0.358
    2  0.000  0.000  0.000  0.000  0.000  0.000  0.000  0.109  0.000  0.109
    3  0.000  0.000  0.000  0.000  0.008  0.000  0.000  0.459  0.000  0.467
    4  0.000  0.000  0.000  0.000  0.008  0.000  0.000  0.044  0.000  0.052
    5  0.000  0.000  0.000  0.000  0.000  0.000  0.000  0.000  0.000  0.000
tot    0.000  0.000  0.000  0.001  0.028  0.000  0.000  0.958  0.000  0.986
 
band    22 # energy   -4.30577261 # occ.  2.00000000
 
ion      s     py     pz     px    dxy    dyz    dz2    dxz  x2-y2    tot
    1  0.000  0.000  0.000  0.000  0.000  0.343  0.000  0.000  0.009  0.353
    2  0.000  0.000  0.000  0.000  0.000  0.088  0.000  0.000  0.000  0.088
    3  0.000  0.000  0.000  0.000  0.000  0.427  0.000  0.000  0.010  0.437
    4  0.000  0.000  0.000  0.000  0.000  0.100  0.000  0.000  0.008  0.107
    5  0.000  0.000  0.000  0.000  0.000  0.000  0.000  0.000  0.000  0.000
tot    0.000  0.000  0.000  0.000  0.000  0.957  0.000  0.000  0.027  0.986
 
band    23 # energy   -4.03379387 # occ.  2.00000000
 
ion      s     py     pz     px    dxy    dyz    dz2    dxz  x2-y2    tot
    1  0.000  0.000  0.000  0.000  0.008  0.000  0.000  0.550  0.000  0.559
    2  0.000  0.000  0.000  0.000  0.026  0.000  0.000  0.278  0.000  0.304
    3  0.000  0.000  0.000  0.000  0.007  0.000  0.000  0.112  0.000  0.120
    4  0.000  0.000  0.000  0.000  0.001  0.000  0.000  0.006  0.000  0.008
    5  0.000  0.000  0.000  0.000  0.000  0.000  0.000  0.000  0.000  0.000
tot    0.000  0.000  0.000  0.000  0.042  0.000  0.000  0.947  0.000  0.990
 
band    24 # energy   -4.02947115 # occ.  2.00000000
 
ion      s     py     pz     px    dxy    dyz    dz2    dxz  x2-y2    tot
    1  0.000  0.000  0.000  0.000  0.000  0.541  0.000  0.000  0.008  0.550
    2  0.000  0.000  0.000  0.000  0.000  0.278  0.000  0.000  0.025  0.303
    3  0.000  0.000  0.000  0.000  0.000  0.116  0.000  0.000  0.008  0.124
    4  0.000  0.000  0.000  0.000  0.000  0.012  0.000  0.000  0.001  0.013
    5  0.000  0.000  0.000  0.000  0.000  0.000  0.000  0.000  0.000  0.000
tot    0.000  0.000  0.000  0.000  0.000  0.947  0.000  0.000  0.043  0.990
 
band    25 # energy   -2.93886029 # occ.  2.00000000
 
ion      s     py     pz     px    dxy    dyz    dz2    dxz  x2-y2    tot
    1  0.018  0.000  0.154  0.000  0.000  0.000  0.027  0.000  0.000  0.199
    2  0.014  0.000  0.081  0.000  0.000  0.000  0.022  0.000  0.000  0.118
    3  0.012  0.000  0.036  0.000  0.000  0.000  0.019  0.000  0.000  0.068
    4  0.009  0.000  0.014  0.000  0.000  0.000  0.009  0.000  0.001  0.032
    5  0.004  0.000  0.000  0.000  0.000  0.000  0.000  0.000  0.000  0.005
tot    0.058  0.000  0.285  0.000  0.000  0.000  0.077  0.000  0.001  0.421
 
band    26 # energy    1.61091871 # occ.  0.00000000
 
ion      s     py     pz     px    dxy    dyz    dz2    dxz  x2-y2    tot
    1  0.020  0.000  0.001  0.000  0.000  0.000  0.020  0.000  0.000  0.041
    2  0.026  0.000  0.001  0.000  0.000  0.000  0.023  0.000  0.000  0.049
    3  0.032  0.000  0.001  0.000  0.000  0.000  0.029  0.000  0.000  0.062
    4  0.034  0.000  0.000  0.000  0.000  0.000  0.034  0.000  0.000  0.068
    5  0.000  0.000  0.002  0.000  0.000  0.000  0.000  0.000  0.000  0.003
tot    0.112  0.000  0.005  0.000  0.000  0.000  0.105  0.000  0.000  0.222
 
band    27 # energy    1.91569120 # occ.  0.00000000
 
ion      s     py     pz     px    dxy    dyz    dz2    dxz  x2-y2    tot
    1  0.003  0.000  0.005  0.000  0.000  0.000  0.002  0.000  0.000  0.010
    2  0.000  0.000  0.005  0.000  0.000  0.000  0.000  0.000  0.000  0.005
    3  0.002  0.000  0.005  0.000  0.000  0.000  0.002  0.000  0.000  0.008
    4  0.007  0.000  0.002  0.000  0.000  0.000  0.009  0.000  0.000  0.018
    5  0.001  0.000  0.001  0.000  0.000  0.000  0.000  0.000  0.000  0.002
tot    0.012  0.000  0.018  0.000  0.000  0.000  0.013  0.000  0.000  0.042
 
band    28 # energy    2.34091259 # occ.  0.00000000
 
ion      s     py     pz     px    dxy    dyz    dz2    dxz  x2-y2    tot
    1  0.005  0.000  0.003  0.000  0.000  0.000  0.004  0.000  0.000  0.012
    2  0.001  0.000  0.003  0.000  0.000  0.000  0.001  0.000  0.000  0.005
    3  0.000  0.000  0.004  0.000  0.000  0.000  0.000  0.000  0.000  0.004
    4  0.003  0.000  0.002  0.000  0.000  0.000  0.004  0.000  0.000  0.009
    5  0.001  0.000  0.001  0.000  0.000  0.000  0.000  0.000  0.000  0.001
tot    0.009  0.000  0.012  0.000  0.000  0.000  0.009  0.000  0.000  0.030
 

 k-point     2 :    0.10000000 0.00000000 0.00000000     weight = 0.04000000

band     1 # energy  -11.25301633 # occ.  2.00000000
 
ion      s     py     pz     px    dxy    dyz    dz2    dxz  x2-y2    tot
    1  0.010  0.000  0.001  0.000  0.000  0.000  0.000  0.000  0.000  0.012
    2  0.056  0.000  0.002  0.001  0.000  0.000  0.000  0.000  0.000  0.059
    3  0.136  0.001  0.002  0.003  0.000  0.000  0.000  0.000  0.000  0.142
    4  0.276  0.002  0.000  0.008  0.000  0.000  0.005  0.001  0.005  0.298
    5  0.086  0.000  0.001  0.000  0.000  0.000  0.000  0.000  0.000  0.088
tot    0.565  0.003  0.006  0.013  0.000  0.000  0.005  0.001  0.005  0.598
 
band     2 # energy  -10.36821541 # occ.  2.00000000
 
ion      s     py     pz     px    dxy    dyz    dz2    dxz  x2-y2    tot
    1  0.112  0.001  0.010  0.002  0.000  0.000  0.000  0.001  0.000  0.126
    2  0.244  0.002  0.000  0.005  0.000  0.000  0.002  0.000  0.000  0.254
    3  0.041  0.000  0.018  0.001  0.000  0.000  0.000  0.001  0.000  0.062
    4  0.081  0.001  0.009  0.003  0.000  0.000  0.009  0.002  0.004  0.109
    5  0.049  0.000  0.000  0.000  0.000  0.000  0.000  0.000  0.000  0.049
tot    0.526  0.003  0.038  0.012  0.000  0.001  0.012  0.004  0.004  0.600
 
band     3 # energy   -8.76747604 # occ.  2.00000000
 
ion      s     py     pz     px    dxy    dyz    dz2    dxz  x2-y2    tot
    1  0.180  0.001  0.002  0.004  0.000  0.000  0.018  0.000  0.000  0.207
    2  0.004  0.000  0.047  0.000  0.000  0.002  0.001  0.005  0.000  0.058
    3  0.194  0.002  0.000  0.005  0.000  0.000  0.035  0.000  0.000  0.236
    4  0.007  0.000  0.031  0.001  0.000  0.001  0.021  0.008  0.006  0.075
    5  0.035  0.000  0.000  0.000  0.000  0.000  0.000  0.000  0.000  0.035
tot    0.420  0.003  0.081  0.010  0.001  0.003  0.074  0.013  0.006  0.612
 
band     4 # energy   -7.36033322 # occ.  2.00000000
 
ion      s     py     pz     px    dxy    dyz    dz2    dxz  x2-y2    tot
    1  0.100  0.001  0.005  0.004  0.001  0.000  0.135  0.000  0.000  0.245
    2  0.088  0.001  0.003  0.004  0.001  0.000  0.239  0.001  0.000  0.336
    3  0.026  0.000  0.015  0.001  0.000  0.001  0.086  0.003  0.000  0.133
    4  0.000  0.000  0.011  0.000  0.000  0.001  0.010  0.005  0.004  0.032
    5  0.006  0.000  0.000  0.000  0.000  0.000  0.000  0.000  0.000  0.006
tot    0.221  0.003  0.034  0.009  0.002  0.002  0.470  0.009  0.004  0.753
 
band     5 # energy   -6.28489404 # occ.  2.00000000
 
ion      s     py     pz     px    dxy    dyz    dz2    dxz  x2-y2    tot
    1  0.000  0.000  0.000  0.000  0.000  0.000  0.002  0.000  0.000  0.003
    2  0.001  0.000  0.000  0.000  0.001  0.000  0.001  0.000  0.000  0.003
    3  0.000  0.000  0.008  0.000  0.005  0.001  0.128  0.001  0.001  0.144
    4  0.014  0.001  0.036  0.000  0.008  0.010  0.370  0.089  0.111  0.639
    5  0.048  0.000  0.000  0.000  0.000  0.000  0.000  0.000  0.000  0.048
tot    0.063  0.001  0.044  0.001  0.014  0.011  0.501  0.089  0.113  0.837
 
band     6 # energy   -5.73197678 # occ.  2.00000000
 
ion      s     py     pz     px    dxy    dyz    dz2    dxz  x2-y2    tot
    1  0.001  0.000  0.001  0.000  0.001  0.000  0.029  0.000  0.000  0.032
    2  0.002  0.000  0.000  0.000  0.029  0.001  0.065  0.003  0.010  0.112
    3  0.000  0.000  0.018  0.000  0.013  0.018  0.190  0.049  0.006  0.294
    4  0.005  0.000  0.007  0.000  0.005  0.002  0.385  0.017  0.064  0.486
    5  0.001  0.000  0.001  0.000  0.000  0.000  0.000  0.000  0.000  0.001
tot    0.009  0.000  0.027  0.001  0.048  0.022  0.668  0.069  0.080  0.924
 
band     7 # energy   -5.60756566 # occ.  2.00000000
 
ion      s     py     pz     px    dxy    dyz    dz2    dxz  x2-y2    tot
    1  0.000  0.000  0.000  0.000  0.004  0.000  0.016  0.000  0.001  0.022
    2  0.000  0.000  0.004  0.000  0.015  0.004  0.040  0.013  0.006  0.082
    3  0.001  0.000  0.002  0.000  0.011  0.013  0.105  0.034  0.003  0.169
    4  0.001  0.000  0.002  0.000  0.460  0.005  0.003  0.029  0.174  0.674
    5  0.000  0.000  0.000  0.000  0.000  0.000  0.000  0.000  0.000  0.001
tot    0.002  0.000  0.008  0.001  0.490  0.022  0.164  0.076  0.184  0.947
 
band     8 # energy   -5.45859572 # occ.  2.00000000
 
ion      s     py     pz     px    dxy    dyz    dz2    dxz  x2-y2    tot
    1  0.003  0.000  0.000  0.000  0.011  0.004  0.009  0.013  0.003  0.043
    2  0.001  0.000  0.005  0.000  0.113  0.008  0.098  0.023  0.032  0.281
    3  0.000  0.000  0.007  0.000  0.091  0.005  0.081  0.012  0.016  0.212
    4  0.003  0.000  0.000  0.000  0.215  0.003  0.002  0.008  0.178  0.410
    5  0.000  0.000  0.000  0.000  0.000  0.000  0.000  0.000  0.000  0.001
tot    0.008  0.001  0.013  0.000  0.429  0.021  0.190  0.056  0.229  0.946
 
band     9 # energy   -5.41471531 # occ.  2.00000000
 
ion      s     py     pz     px    dxy    dyz    dz2    dxz  x2-y2    tot
    1  0.001  0.000  0.001  0.000  0.022  0.001  0.092  0.003  0.007  0.127
    2  0.000  0.000  0.006  0.000  0.021  0.028  0.007  0.114  0.001  0.177
    3  0.001  0.000  0.007  0.000  0.258  0.003  0.000  0.009  0.085  0.364
    4  0.001  0.000  0.000  0.000  0.097  0.007  0.042  0.088  0.043  0.279
    5  0.000  0.000  0.000  0.000  0.000  0.000  0.000  0.000  0.000  0.000
tot    0.002  0.000  0.014  0.001  0.399  0.039  0.141  0.214  0.136  0.947
 
band    10 # energy   -5.36674010 # occ.  2.00000000
 
ion      s     py     pz     px    dxy    dyz    dz2    dxz  x2-y2    tot
    1  0.001  0.000  0.001  0.000  0.018  0.006  0.039  0.011  0.006  0.083
    2  0.001  0.000  0.001  0.001  0.119  0.003  0.161  0.005  0.105  0.395
    3  0.000  0.000  0.005  0.000  0.020  0.032  0.062  0.005  0.014  0.139
    4  0.000  0.000  0.003  0.000  0.110  0.004  0.026  0.052  0.133  0.329
    5  0.001  0.000  0.000  0.000  0.000  0.000  0.000  0.000  0.000  0.001
tot    0.004  0.000  0.011  0.001  0.268  0.044  0.288  0.073  0.259  0.947
 
band    11 # energy   -5.33426728 # occ.  2.00000000
 
ion      s     py     pz     px    dxy    dyz    dz2    dxz  x2-y2    tot
    1  0.001  0.000  0.001  0.000  0.031  0.003  0.048  0.012  0.011  0.107
    2  0.002  0.000  0.001  0.000  0.304  0.006  0.127  0.008  0.064  0.511
    3  0.000  0.000  0.004  0.000  0.032  0.001  0.088  0.010  0.021  0.157
    4  0.000  0.000  0.004  0.000  0.020  0.001  0.007  0.036  0.105  0.173
    5  0.001  0.000  0.000  0.000  0.000  0.000  0.000  0.000  0.000  0.001
tot    0.004  0.000  0.010  0.001  0.386  0.011  0.270  0.066  0.201  0.949
 
band    12 # energy   -5.22731627 # occ.  2.00000000
 
ion      s     py     pz     px    dxy    dyz    dz2    dxz  x2-y2    tot
    1  0.000  0.000  0.000  0.000  0.003  0.010  0.007  0.001  0.020  0.041
    2  0.000  0.000  0.000  0.000  0.001  0.086  0.005  0.026  0.025  0.143
    3  0.000  0.000  0.000  0.000  0.109  0.039  0.001  0.010  0.509  0.668
    4  0.000  0.000  0.000  0.000  0.001  0.093  0.000  0.017  0.003  0.114
    5  0.000  0.000  0.000  0.000  0.000  0.000  0.000  0.000  0.000  0.000
tot    0.000  0.001  0.001  0.000  0.114  0.228  0.013  0.054  0.557  0.967
 
band    13 # energy   -5.20056020 # occ.  2.00000000
 
ion      s     py     pz     px    dxy    dyz    dz2    dxz  x2-y2    tot
    1  0.000  0.000  0.000  0.000  0.005  0.022  0.016  0.009  0.006  0.057
    2  0.000  0.001  0.001  0.000  0.207  0.003  0.006  0.000  0.553  0.771
    3  0.000  0.000  0.000  0.000  0.020  0.029  0.000  0.013  0.044  0.106
    4  0.000  0.000  0.000  0.000  0.012  0.001  0.000  0.001  0.017  0.032
    5  0.000  0.000  0.000  0.000  0.000  0.000  0.000  0.000  0.000  0.000
tot    0.000  0.001  0.001  0.000  0.244  0.055  0.022  0.024  0.619  0.966
 
band    14 # energy   -5.13811979 # occ.  2.00000000
 
ion      s     py     pz     px    dxy    dyz    dz2    dxz  x2-y2    tot
    1  0.003  0.000  0.002  0.000  0.030  0.002  0.297  0.008  0.021  0.364
    2  0.001  0.000  0.016  0.000  0.017  0.017  0.056  0.013  0.033  0.153
    3  0.000  0.000  0.009  0.000  0.255  0.007  0.001  0.033  0.035  0.340
    4  0.001  0.000  0.007  0.000  0.000  0.001  0.000  0.016  0.042  0.068
    5  0.002  0.000  0.000  0.000  0.000  0.000  0.000  0.000  0.000  0.002
tot    0.007  0.000  0.034  0.000  0.302  0.028  0.354  0.071  0.131  0.926
 
band    15 # energy   -5.05154398 # occ.  2.00000000
 
ion      s     py     pz     px    dxy    dyz    dz2    dxz  x2-y2    tot
    1  0.002  0.000  0.000  0.001  0.536  0.001  0.047  0.005  0.157  0.748
    2  0.000  0.000  0.008  0.000  0.007  0.001  0.020  0.012  0.003  0.052
    3  0.001  0.000  0.004  0.000  0.009  0.013  0.041  0.043  0.007  0.119
    4  0.000  0.000  0.001  0.000  0.009  0.001  0.000  0.013  0.009  0.033
    5  0.000  0.000  0.000  0.000  0.000  0.000  0.000  0.000  0.000  0.000
tot    0.003  0.000  0.013  0.001  0.562  0.017  0.109  0.072  0.175  0.952
 
band    16 # energy   -4.94797265 # occ.  2.00000000
 
ion      s     py     pz     px    dxy    dyz    dz2    dxz  x2-y2    tot
    1  0.000  0.001  0.000  0.000  0.169  0.009  0.001  0.004  0.540  0.723
    2  0.000  0.000  0.000  0.000  0.000  0.087  0.000  0.032  0.001  0.122
    3  0.000  0.000  0.000  0.000  0.018  0.008  0.000  0.003  0.048  0.078
    4  0.000  0.000  0.000  0.000  0.001  0.035  0.000  0.007  0.004  0.047
    5  0.000  0.000  0.000  0.000  0.000  0.000  0.000  0.000  0.000  0.000
tot    0.000  0.001  0.000  0.000  0.188  0.140  0.001  0.046  0.592  0.969
 
band    17 # energy   -4.77595546 # occ.  2.00000000
 
ion      s     py     pz     px    dxy    dyz    dz2    dxz  x2-y2    tot
    1  0.001  0.000  0.000  0.000  0.001  0.001  0.005  0.016  0.046  0.070
    2  0.000  0.000  0.000  0.000  0.024  0.016  0.000  0.002  0.007  0.050
    3  0.001  0.000  0.001  0.000  0.065  0.012  0.010  0.150  0.054  0.293
    4  0.000  0.000  0.005  0.000  0.012  0.249  0.002  0.269  0.012  0.549
    5  0.002  0.000  0.000  0.001  0.000  0.000  0.000  0.000  0.000  0.003
tot    0.004  0.000  0.007  0.001  0.101  0.278  0.017  0.437  0.120  0.965
 
band    18 # energy   -4.71529533 # occ.  2.00000000
 
ion      s     py     pz     px    dxy    dyz    dz2    dxz  x2-y2    tot
    1  0.000  0.000  0.000  0.000  0.047  0.017  0.004  0.017  0.004  0.090
    2  0.000  0.000  0.000  0.000  0.021  0.001  0.004  0.058  0.023  0.106
    3  0.002  0.000  0.000  0.000  0.018  0.162  0.015  0.118  0.055  0.371
    4  0.000  0.000  0.005  0.000  0.005  0.289  0.004  0.072  0.021  0.396
    5  0.002  0.000  0.000  0.000  0.000  0.000  0.000  0.000  0.000  0.003
tot    0.005  0.000  0.006  0.000  0.091  0.469  0.027  0.265  0.103  0.966
 
band    19 # energy   -4.54406104 # occ.  2.00000000
 
ion      s     py     pz     px    dxy    dyz    dz2    dxz  x2-y2    tot
    1  0.000  0.000  0.000  0.000  0.022  0.086  0.000  0.004  0.118  0.230
    2  0.000  0.000  0.000  0.000  0.004  0.295  0.000  0.044  0.064  0.408
    3  0.000  0.000  0.000  0.000  0.006  0.142  0.002  0.025  0.054  0.230
    4  0.000  0.000  0.000  0.000  0.001  0.066  0.000  0.043  0.003  0.113
    5  0.000  0.000  0.000  0.000  0.000  0.000  0.000  0.000  0.000  0.000
tot    0.001  0.000  0.001  0.000  0.033  0.588  0.003  0.116  0.239  0.982
 
band    20 # energy   -4.50710789 # occ.  2.00000000
 
ion      s     py     pz     px    dxy    dyz    dz2    dxz  x2-y2    tot
    1  0.000  0.000  0.004  0.000  0.043  0.048  0.001  0.322  0.006  0.425
    2  0.000  0.000  0.004  0.000  0.057  0.026  0.000  0.182  0.003  0.273
    3  0.003  0.000  0.001  0.000  0.018  0.004  0.023  0.069  0.001  0.120
    4  0.000  0.000  0.003  0.000  0.003  0.082  0.000  0.049  0.003  0.140
    5  0.002  0.000  0.000  0.000  0.000  0.000  0.000  0.000  0.000  0.002
tot    0.005  0.000  0.012  0.000  0.121  0.160  0.025  0.623  0.013  0.960
 
band    21 # energy   -4.33583829 # occ.  2.00000000
 
ion      s     py     pz     px    dxy    dyz    dz2    dxz  x2-y2    tot
    1  0.011  0.000  0.013  0.000  0.017  0.157  0.077  0.167  0.002  0.444
    2  0.001  0.000  0.001  0.000  0.010  0.047  0.002  0.274  0.005  0.340
    3  0.001  0.000  0.004  0.000  0.007  0.015  0.009  0.011  0.000  0.048
    4  0.000  0.000  0.006  0.000  0.000  0.013  0.000  0.048  0.002  0.070
    5  0.002  0.000  0.000  0.000  0.000  0.000  0.000  0.000  0.000  0.003
tot    0.015  0.000  0.024  0.001  0.034  0.232  0.088  0.500  0.010  0.904
 
band    22 # energy   -4.30373316 # occ.  2.00000000
 
ion      s     py     pz     px    dxy    dyz    dz2    dxz  x2-y2    tot
    1  0.001  0.000  0.001  0.000  0.001  0.189  0.005  0.140  0.012  0.348
    2  0.000  0.000  0.000  0.000  0.006  0.091  0.000  0.004  0.013  0.114
    3  0.000  0.000  0.000  0.000  0.000  0.308  0.001  0.108  0.006  0.423
    4  0.000  0.000  0.000  0.000  0.002  0.078  0.000  0.008  0.008  0.097
    5  0.000  0.000  0.000  0.000  0.000  0.000  0.000  0.000  0.000  0.000
tot    0.001  0.000  0.001  0.000  0.009  0.666  0.006  0.261  0.038  0.982
 
band    23 # energy   -4.02533118 # occ.  2.00000000
 
ion      s     py     pz     px    dxy    dyz    dz2    dxz  x2-y2    tot
    1  0.000  0.000  0.000  0.000  0.003  0.385  0.000  0.128  0.008  0.524
    2  0.000  0.000  0.000  0.000  0.006  0.231  0.000  0.071  0.018  0.326
    3  0.000  0.000  0.000  0.000  0.002  0.089  0.000  0.030  0.007  0.128