<?xml version="1.0" encoding="ISO-8859-1"?>
<modeling>
 <generator>
  <i name="program" type="string">vasp </i>
  <i name="version" type="string">5.4.4.18Apr17-6-g9f103f2a35  </i>
  <i name="subversion" type="string">(build Jun 30 2017 11:15:00) complex            parallel </i>
  <i name="platform" type="string">STALLO_VASP_5.4.4 </i>
  <i name="date" type="string">2019 10 11 </i>
  <i name="time" type="string">09:54:57 </i>
 </generator>
 <incar>
  <i type="string" name="PREC">normal    ! low/normal/accurate</i>
  <i type="string" name="ALGO"> Fast      ! Algorithm for electronic re</i>
  <i type="int" name="ISPIN">     1</i>
  <i type="int" name="NELMIN">     4</i>
  <i name="EDIFF">      0.00000100</i>
  <i type="int" name="NSW">     0</i>
  <i name="ENCUT">    250.00000000</i>
  <i type="int" name="NEDOS">  2401</i>
  <i type="string" name="LREAL"> Auto      ! Projection in reciprocal sp</i>
  <i name="EMIN">    -17.00000000</i>
  <i name="EMAX">      7.00000000</i>
  <i type="int" name="ISMEAR">     0</i>
  <i name="SIGMA">      0.10000000</i>
  <i type="logical" name="LWAVE"> F  </i>
  <i type="int" name="LORBIT">    11</i>
  <i type="logical" name="LELF"> T  </i>
  <v type="int" name="KPOINT_BSE">    -1     0     0     0</v>
 </incar>
 <structure name="primitive_cell" >
  <crystal>
   <varray name="basis" >
    <v>       2.57386868       0.00000000       0.00000000 </v>
    <v>       1.28693434       2.22903567       0.00000000 </v>
    <v>       0.00000000       0.00000000      30.30466494 </v>
   </varray>
   <i name="volume">    173.86529028 </i>
   <varray name="rec_basis" >
    <v>       0.38852021      -0.22431225       0.00000000 </v>
    <v>       0.00000000       0.44862450       0.00000000 </v>
    <v>       0.00000000       0.00000000       0.03299822 </v>
   </varray>
  </crystal>
  <varray name="positions" >
   <v>      -0.00029344       0.00058687       0.39656714 </v>
   <v>       0.33318695       0.33362609       0.46513971 </v>
   <v>      -0.33417243      -0.33165514      -0.46640574 </v>
   <v>       0.00080073      -0.00160146      -0.39578428 </v>
   <v>      -0.49952182      -0.00095636      -0.36249726 </v>
  </varray>
 </structure>
 <varray name="primitive_index" >
  <v type="int" >        1 </v>
  <v type="int" >        2 </v>
  <v type="int" >        3 </v>
  <v type="int" >        4 </v>
  <v type="int" >        5 </v>
 </varray>
 <kpoints>
  <generation param="Gamma">
   <v type="int" name="divisions">      10       10        1 </v>
   <v name="usershift">      0.00000000       0.00000000       0.00000000 </v>
   <v name="genvec1">      0.10000000       0.00000000       0.00000000 </v>
   <v name="genvec2">      0.00000000       0.10000000       0.00000000 </v>
   <v name="genvec3">      0.00000000       0.00000000       1.00000000 </v>
   <v name="shift">      0.00000000       0.00000000       0.00000000 </v>
  </generation>
  <varray name="kpointlist" >
   <v>       0.00000000       0.00000000       0.00000000 </v>
   <v>       0.10000000       0.00000000       0.00000000 </v>
   <v>       0.20000000      -0.00000000       0.00000000 </v>
   <v>       0.30000000      -0.00000000       0.00000000 </v>
   <v>       0.40000000      -0.00000000       0.00000000 </v>
   <v>       0.50000000      -0.00000000       0.00000000 </v>
   <v>       0.00000000       0.10000000       0.00000000 </v>
   <v>       0.20000000       0.10000000       0.00000000 </v>
   <v>       0.30000000       0.10000000       0.00000000 </v>
   <v>       0.40000000       0.10000000       0.00000000 </v>
   <v>       0.50000000       0.10000000       0.00000000 </v>
   <v>      -0.40000000       0.10000000       0.00000000 </v>
   <v>      -0.30000000       0.10000000       0.00000000 </v>
   <v>      -0.20000000       0.10000000       0.00000000 </v>
   <v>      -0.10000000       0.10000000       0.00000000 </v>
   <v>       0.00000000       0.20000000       0.00000000 </v>
   <v>       0.40000000       0.20000000       0.00000000 </v>
   <v>       0.50000000       0.20000000       0.00000000 </v>
   <v>      -0.40000000       0.20000000       0.00000000 </v>
   <v>      -0.30000000       0.20000000       0.00000000 </v>
   <v>      -0.20000000       0.20000000       0.00000000 </v>
   <v>      -0.10000000       0.20000000       0.00000000 </v>
   <v>       0.00000000       0.30000000       0.00000000 </v>
   <v>      -0.40000000       0.30000000       0.00000000 </v>
   <v>      -0.30000000       0.30000000       0.00000000 </v>
   <v>      -0.20000000       0.30000000       0.00000000 </v>
   <v>      -0.10000000       0.30000000       0.00000000 </v>
   <v>       0.00000000       0.40000000       0.00000000 </v>
   <v>      -0.20000000       0.40000000       0.00000000 </v>
   <v>      -0.10000000       0.40000000       0.00000000 </v>
   <v>       0.00000000       0.50000000       0.00000000 </v>
  </varray>
  <varray name="weights" >
   <v>       0.01000000 </v>
   <v>       0.04000000 </v>
   <v>       0.04000000 </v>
   <v>       0.04000000 </v>
   <v>       0.04000000 </v>
   <v>       0.02000000 </v>
   <v>       0.02000000 </v>
   <v>       0.02000000 </v>
   <v>       0.04000000 </v>
   <v>       0.04000000 </v>
   <v>       0.04000000 </v>
   <v>       0.04000000 </v>
   <v>       0.04000000 </v>
   <v>       0.04000000 </v>
   <v>       0.04000000 </v>
   <v>       0.02000000 </v>
   <v>       0.02000000 </v>
   <v>       0.04000000 </v>
   <v>       0.04000000 </v>
   <v>       0.04000000 </v>
   <v>       0.04000000 </v>
   <v>       0.04000000 </v>
   <v>       0.02000000 </v>
   <v>       0.02000000 </v>
   <v>       0.04000000 </v>
   <v>       0.04000000 </v>
   <v>       0.04000000 </v>
   <v>       0.02000000 </v>
   <v>       0.02000000 </v>
   <v>       0.04000000 </v>
   <v>       0.01000000 </v>
  </varray>
 </kpoints>
 <parameters>
  <separator name="general" >
   <i type="string" name="SYSTEM">unknown system</i>
   <i type="logical" name="LCOMPAT"> F  </i>
  </separator>
  <separator name="electronic" >
   <i type="string" name="PREC">normal</i>
   <i name="ENMAX">    250.00000000</i>
   <i name="ENAUG">    516.45600000</i>
   <i name="EDIFF">      0.00000100</i>
   <i type="int" name="IALGO">    68</i>
   <i type="int" name="IWAVPR">    10</i>
   <i type="int" name="NBANDS">    28</i>
   <i name="NELECT">     45.00000000</i>
   <i type="int" name="TURBO">     0</i>
   <i type="int" name="IRESTART">     0</i>
   <i type="int" name="NREBOOT">     0</i>
   <i type="int" name="NMIN">     0</i>
   <i name="EREF">      0.00000000</i>
   <separator name="electronic smearing" >
    <i type="int" name="ISMEAR">     0</i>
    <i name="SIGMA">      0.10000000</i>
    <i name="KSPACING">      0.50000000</i>
    <i type="logical" name="KGAMMA"> T  </i>
   </separator>
   <separator name="electronic projectors" >
    <i type="logical" name="LREAL"> T  </i>
    <v name="ROPT">     -0.00050000     -0.00050000</v>
    <i type="int" name="LMAXPAW">  -100</i>
    <i type="int" name="LMAXMIX">     2</i>
    <i type="logical" name="NLSPLINE"> F  </i>
   </separator>
   <separator name="electronic startup" >
    <i type="int" name="ISTART">     0</i>
    <i type="int" name="ICHARG">     2</i>
    <i type="int" name="INIWAV">     1</i>
   </separator>
   <separator name="electronic spin" >
    <i type="int" name="ISPIN">     1</i>
    <i type="logical" name="LNONCOLLINEAR"> F  </i>
    <v name="MAGMOM">      1.00000000      1.00000000      1.00000000      1.00000000      1.00000000</v>
    <i name="NUPDOWN">     -1.00000000</i>
    <i type="logical" name="LSORBIT"> F  </i>
    <v name="SAXIS">      0.00000000      0.00000000      1.00000000</v>
    <i type="logical" name="LSPIRAL"> F  </i>
    <v name="QSPIRAL">      0.00000000      0.00000000      0.00000000</v>
    <i type="logical" name="LZEROZ"> F  </i>
   </separator>
   <separator name="electronic exchange-correlation" >
    <i type="logical" name="LASPH"> F  </i>
    <i type="logical" name="LMETAGGA"> F  </i>
   </separator>
   <separator name="electronic convergence" >
    <i type="int" name="NELM">    60</i>
    <i type="int" name="NELMDL">    -5</i>
    <i type="int" name="NELMIN">     4</i>
    <i name="ENINI">    250.00000000</i>
    <separator name="electronic convergence detail" >
     <i type="logical" name="LDIAG"> T  </i>
     <i type="logical" name="LSUBROT"> F  </i>
     <i name="WEIMIN">      0.00000000</i>
     <i name="EBREAK">      0.00000001</i>
     <i name="DEPER">      0.30000000</i>
     <i type="int" name="NRMM">     4</i>
     <i name="TIME">      0.40000000</i>
    </separator>
   </separator>
   <separator name="electronic mixer" >
    <i name="AMIX">      0.40000000</i>
    <i name="BMIX">      1.00000000</i>
    <i name="AMIN">      0.10000000</i>
    <i name="AMIX_MAG">      1.60000000</i>
    <i name="BMIX_MAG">      1.00000000</i>
    <separator name="electronic mixer details" >
     <i type="int" name="IMIX">     4</i>
     <i type="logical" name="MIXFIRST"> F  </i>
     <i type="int" name="MAXMIX">   -45</i>
     <i name="WC">    100.00000000</i>
     <i type="int" name="INIMIX">     1</i>
     <i type="int" name="MIXPRE">     1</i>
     <i type="int" name="MREMOVE">     5</i>
    </separator>
   </separator>
   <separator name="electronic dipolcorrection" >
    <i type="logical" name="LDIPOL"> F  </i>
    <i type="logical" name="LMONO"> F  </i>
    <i type="int" name="IDIPOL">     0</i>
    <i name="EPSILON">      1.00000000</i>
    <v name="DIPOL">   -100.00000000   -100.00000000   -100.00000000</v>
    <i name="EFIELD">      0.00000000</i>
   </separator>
  </separator>
  <separator name="grids" >
   <i type="int" name="NGX">    10</i>
   <i type="int" name="NGY">    10</i>
   <i type="int" name="NGZ">   120</i>
   <i type="int" name="NGXF">    20</i>
   <i type="int" name="NGYF">    20</i>
   <i type="int" name="NGZF">   240</i>
   <i type="logical" name="ADDGRID"> F  </i>
  </separator>
  <separator name="ionic" >
   <i type="int" name="NSW">     0</i>
   <i type="int" name="IBRION">    -1</i>
   <i type="int" name="MDALGO">     0</i>
   <i type="int" name="ISIF">     2</i>
   <i name="PSTRESS">      0.00000000</i>
   <i name="EDIFFG">      0.00001000</i>
   <i type="int" name="NFREE">     0</i>
   <i name="POTIM">      0.50000000</i>
   <i name="SMASS">     -3.00000000</i>
   <i name="SCALEE">      1.00000000</i>
  </separator>
  <separator name="ionic md" >
   <i name="TEBEG">      0.00010000</i>
   <i name="TEEND">      0.00010000</i>
   <i type="int" name="NBLOCK">     1</i>
   <i type="int" name="KBLOCK">     1</i>
   <i type="int" name="NPACO">   256</i>
   <i name="APACO">     16.00000000</i>
  </separator>
  <separator name="symmetry" >
   <i type="int" name="ISYM">     2</i>
   <i name="SYMPREC">      0.00001000</i>
  </separator>
  <separator name="dos" >
   <i type="int" name="LORBIT">    11</i>
   <v name="RWIGS">     -1.00000000     -1.00000000</v>
   <i type="int" name="NEDOS">  2401</i>
   <i name="EMIN">    -17.00000000</i>
   <i name="EMAX">      7.00000000</i>
   <i name="EFERMI">      0.00000000</i>
  </separator>
  <separator name="writing" >
   <i type="int" name="NWRITE">     2</i>
   <i type="logical" name="LWAVE"> F  </i>
   <i type="logical" name="LDOWNSAMPLE"> F  </i>
   <i type="logical" name="LCHARG"> T  </i>
   <i type="logical" name="LPARD"> F  </i>
   <i type="logical" name="LVTOT"> F  </i>
   <i type="logical" name="LVHAR"> F  </i>
   <i type="logical" name="LELF"> T  </i>
   <i type="logical" name="LOPTICS"> F  </i>
   <v name="STM">      0.00000000      0.00000000      0.00000000      0.00000000      0.00000000      0.00000000      0.00000000</v>
  </separator>
  <separator name="performance" >
   <i type="int" name="NPAR">     2</i>
   <i type="int" name="NSIM">     4</i>
   <i type="int" name="NBLK">    -1</i>
   <i type="logical" name="LPLANE"> T  </i>
   <i type="logical" name="LSCALAPACK"> T  </i>
   <i type="logical" name="LSCAAWARE"> F  </i>
   <i type="logical" name="LSCALU"> F  </i>
   <i type="logical" name="LASYNC"> F  </i>
   <i type="logical" name="LORBITALREAL"> F  </i>
  </separator>
  <separator name="miscellaneous" >
   <i type="int" name="IDIOT">     3</i>
   <i type="int" name="ISPECIAL">     0</i>
   <i type="logical" name="LMUSIC"> F  </i>
   <v name="POMASS">     63.54600000      1.00000000</v>
   <v name="DARWINR">      0.00000000      0.00000000</v>
   <v name="DARWINV">      1.00000000      1.00000000</v>
   <i type="logical" name="LCORR"> T  </i>
  </separator>
  <i type="logical" name="GGA_COMPAT"> T  </i>
  <i type="logical" name="LBERRY"> F  </i>
  <i type="int" name="ICORELEVEL">     0</i>
  <i type="logical" name="LDAU"> F  </i>
  <i type="int" name="I_CONSTRAINED_M">     0</i>
  <separator name="electronic exchange-correlation" >
   <i type="string" name="GGA">--</i>
   <i type="int" name="VOSKOWN">     0</i>
   <i type="logical" name="LHFCALC"> F  </i>
   <i type="string" name="PRECFOCK"></i>
   <i type="logical" name="LSYMGRAD"> F  </i>
   <i type="logical" name="LHFONE"> F  </i>
   <i type="logical" name="LRHFCALC"> F  </i>
   <i type="logical" name="LTHOMAS"> F  </i>
   <i type="logical" name="LMODELHF"> F  </i>
   <i name="ENCUT4O">     -1.00000000</i>
   <i type="int" name="EXXOEP">     0</i>
   <i type="int" name="FOURORBIT">     0</i>
   <i name="AEXX">      0.00000000</i>
   <i name="HFALPHA">      0.00000000</i>
   <i name="MCALPHA">      0.00000000</i>
   <i name="ALDAX">      1.00000000</i>
   <i name="AGGAX">      1.00000000</i>
   <i name="ALDAC">      1.00000000</i>
   <i name="AGGAC">      1.00000000</i>
   <i type="int" name="NKREDX">     1</i>
   <i type="int" name="NKREDY">     1</i>
   <i type="int" name="NKREDZ">     1</i>
   <i type="logical" name="SHIFTRED"> F  </i>
   <i type="logical" name="ODDONLY"> F  </i>
   <i type="logical" name="EVENONLY"> F  </i>
   <i type="int" name="LMAXFOCK">     0</i>
   <i type="int" name="NMAXFOCKAE">     0</i>
   <i type="logical" name="LFOCKAEDFT"> F  </i>
   <i name="HFSCREEN">      0.00000000</i>
   <i name="HFSCREENC">      0.00000000</i>
   <i type="int" name="NBANDSGWLOW">     0</i>
  </separator>
  <separator name="vdW DFT" >
   <i type="logical" name="LUSE_VDW"> F  </i>
   <i name="Zab_VDW">     -0.84910000</i>
   <i name="PARAM1">      0.12340000</i>
   <i name="PARAM2">      1.00000000</i>
   <i name="PARAM3">      0.00000000</i>
  </separator>
  <separator name="model GW" >
   <i type="int" name="MODEL_GW">     0</i>
   <i name="MODEL_EPS0">     20.86383483</i>
   <i name="MODEL_ALPHA">      1.00000000</i>
  </separator>
  <separator name="linear response parameters" >
   <i type="logical" name="LEPSILON"> F  </i>
   <i type="logical" name="LRPA"> F  </i>
   <i type="logical" name="LNABLA"> F  </i>
   <i type="logical" name="LVEL"> F  </i>
   <i type="int" name="KINTER">     0</i>
   <i name="CSHIFT">      0.10000000</i>
   <i name="OMEGAMAX">     -1.00000000</i>
   <i name="DEG_THRESHOLD">      0.00200000</i>
   <i name="RTIME">     -0.10000000</i>
   <i name="WPLASMAI">      0.00000000</i>
   <v name="DFIELD">      0.00000000      0.00000000      0.00000000</v>
   <v name="WPLASMA">      0.00000000      0.00000000      0.00000000      0.00000000      0.00000000      0.00000000      0.00000000      0.00000000      0.00000000</v>
  </separator>
  <separator name="orbital magnetization" >
   <i type="logical" name="NUCIND"> F  </i>
   <v name="MAGPOS">      0.00000000      0.00000000      0.00000000</v>
   <i type="logical" name="LNICSALL"> T  </i>
   <i type="logical" name="ORBITALMAG"> F  </i>
   <i type="logical" name="LMAGBLOCH"> F  </i>
   <i type="logical" name="LCHIMAG"> F  </i>
   <i type="logical" name="LGAUGE"> T  </i>
   <i type="int" name="MAGATOM">     0</i>
   <v name="MAGDIPOL">      0.00000000      0.00000000      0.00000000</v>
   <v name="AVECCONST">      0.00000000      0.00000000      0.00000000</v>
  </separator>
  <separator name="response functions" >
   <i type="logical" name="LADDER"> F  </i>
   <i type="logical" name="LRPAFORCE"> F  </i>
   <i type="logical" name="LFXC"> F  </i>
   <i type="logical" name="LHARTREE"> T  </i>
   <i type="int" name="IBSE">     0</i>
   <v type="int" name="KPOINT">    -1     0     0     0</v>
   <i type="logical" name="LTCTE"> F  </i>
   <i type="logical" name="LTETE"> F  </i>
   <i type="logical" name="LTRIPLET"> F  </i>
   <i type="logical" name="LFXCEPS"> F  </i>
   <i type="logical" name="LFXHEG"> F  </i>
   <i type="int" name="NATURALO">     2</i>
   <i type="logical" name="L2ORDER"> F  </i>
   <i type="logical" name="LMP2LT"> F  </i>
   <i type="logical" name="LUSEW"> F  </i>
   <i name="ENCUTGW">     -2.00000000</i>
   <i name="ENCUTGWSOFT">     -2.00000000</i>
   <i name="ENCUTLF">     -1.00000000</i>
   <i type="int" name="LMAXMP2">    -1</i>
   <i name="SCISSOR">      0.00000000</i>
   <i type="int" name="NOMEGA">     0</i>
   <i type="int" name="NOMEGAR">     0</i>
   <i type="int" name="NBANDSGW">    -1</i>
   <i type="int" name="NBANDSO">    -1</i>
   <i type="int" name="NBANDSV">    -1</i>
   <i type="int" name="NELM">     1</i>
   <i type="int" name="NELMHF">     1</i>
   <i type="int" name="DIM">     3</i>
   <i type="int" name="ANTIRES">     0</i>
   <i name="OMEGAMAX">    -30.00000000</i>
   <i name="OMEGAMIN">    -30.00000000</i>
   <i name="OMEGATL">   -200.00000000</i>
   <i type="int" name="OMEGAGRID">   140</i>
   <i name="CSHIFT">     -0.10000000</i>
   <i type="logical" name="SELFENERGY"> F  </i>
   <i type="logical" name="LSPECTRAL"> F  </i>
   <i type="logical" name="LSPECTRALGW"> F  </i>
   <i type="logical" name="LSINGLES"> F  </i>
   <i type="logical" name="LFERMIGW"> F  </i>
   <i type="logical" name="ODDONLYGW"> F  </i>
   <i type="logical" name="EVENONLYGW"> F  </i>
   <i type="int" name="NKREDLFX">     1</i>
   <i type="int" name="NKREDLFY">     1</i>
   <i type="int" name="NKREDLFZ">     1</i>
   <i type="int" name="MAXMEM">  2800</i>
   <i type="int" name="TELESCOPE">     0</i>
   <i type="int" name="TAUPAR">     1</i>
   <i type="int" name="OMEGAPAR">    -1</i>
   <i name="LAMBDA">      1.00000000</i>
  </separator>
  <separator name="External order field" >
   <i name="OFIELD_KAPPA">      0.00000000</i>
   <v name="OFIELD_K">      0.00000000      0.00000000      0.00000000</v>
   <i name="OFIELD_Q6_NEAR">      0.00000000</i>
   <i name="OFIELD_Q6_FAR">      0.00000000</i>
   <i name="OFIELD_A">      0.00000000</i>
  </separator>
 </parameters>
 <atominfo>
  <atoms>       5 </atoms>
  <types>       2 </types>
  <array name="atoms" >
   <dimension dim="1">ion</dimension>
   <field type="string">element</field>
   <field type="int">atomtype</field>
   <set>
    <rc><c>Cu</c><c>   1</c></rc>
    <rc><c>Cu</c><c>   1</c></rc>
    <rc><c>Cu</c><c>   1</c></rc>
    <rc><c>Cu</c><c>   1</c></rc>
    <rc><c>H </c><c>   2</c></rc>
   </set>
  </array>
  <array name="atomtypes" >
   <dimension dim="1">type</dimension>
   <field type="int">atomspertype</field>
   <field type="string">element</field>
   <field>mass</field>
   <field>valence</field>
   <field type="string">pseudopotential</field>
   <set>
    <rc><c>   4</c><c>Cu</c><c>     63.54600000</c><c>     11.00000000</c><c> PAW_PBE Cu 05Jan2001                   </c></rc>
    <rc><c>   1</c><c>H </c><c>      1.00000000</c><c>      1.00000000</c><c> PAW_PBE H 15Jun2001                    </c></rc>
   </set>
  </array>
 </atominfo>
 <structure name="initialpos" >
  <crystal>
   <varray name="basis" >
    <v>       2.57386868       0.00000000       0.00000000 </v>
    <v>       1.28693434       2.22903567       0.00000000 </v>
    <v>       0.00000000       0.00000000      30.30466494 </v>
   </varray>
   <i name="volume">    173.86529028 </i>
   <varray name="rec_basis" >
    <v>       0.38852021      -0.22431225       0.00000000 </v>
    <v>       0.00000000       0.44862450       0.00000000 </v>
    <v>       0.00000000       0.00000000       0.03299822 </v>
   </varray>
  </crystal>
  <varray name="positions" >
   <v>       0.99970656       0.00058687       0.39656714 </v>
   <v>       0.33318695       0.33362609       0.46513971 </v>
   <v>       0.66582757       0.66834486       0.53359426 </v>
   <v>       0.00080073       0.99839854       0.60421572 </v>
   <v>       0.50047818       0.99904364       0.63750274 </v>
  </varray>
 </structure>
 <calculation>
  <scstep>
   <time name="dav">    0.62    0.62</time>
   <time name="total">    0.64    0.66</time>
   <energy>
    <i name="alphaZ">    120.87645803 </i>
    <i name="ewald">  38084.41182252 </i>
    <i name="hartreedc"> -43204.95124045 </i>
    <i name="XCdc">    177.44085244 </i>
    <i name="pawpsdc">   4328.99049516 </i>
    <i name="pawaedc">  -4905.09836044 </i>
    <i name="eentropy">     -0.01094664 </i>
    <i name="bandstr">     18.87520271 </i>
    <i name="atom">   5575.94961827 </i>
    <i name="e_fr_energy">    196.48390159 </i>
    <i name="e_wo_entrp">    196.49484824 </i>
    <i name="e_0_energy">    196.48937492 </i>
   </energy>
  </scstep>
  <scstep>
   <time name="dav">    0.62    0.62</time>
   <time name="total">    0.63    0.63</time>
   <energy>
    <i name="e_fr_energy">    -10.65805322 </i>
    <i name="e_wo_entrp">    -10.63975911 </i>
    <i name="e_0_energy">    -10.64890616 </i>
   </energy>
  </scstep>
  <scstep>
   <time name="dav">    0.64    0.64</time>
   <time name="total">    0.64    0.64</time>
   <energy>
    <i name="e_fr_energy">    -20.89231046 </i>
    <i name="e_wo_entrp">    -20.88032234 </i>
    <i name="e_0_energy">    -20.88631640 </i>
   </energy>
  </scstep>
  <scstep>
   <time name="dav">    0.64    0.64</time>
   <time name="total">    0.64    0.64</time>
   <energy>
    <i name="e_fr_energy">    -21.02332641 </i>
    <i name="e_wo_entrp">    -21.01210503 </i>
    <i name="e_0_energy">    -21.01771572 </i>
   </energy>
  </scstep>
  <scstep>
   <time name="dav">    0.66    0.66</time>
   <time name="total">    0.70    0.70</time>
   <energy>
    <i name="e_fr_energy">    -21.02469551 </i>
    <i name="e_wo_entrp">    -21.01347655 </i>
    <i name="e_0_energy">    -21.01908603 </i>
   </energy>
  </scstep>
  <scstep>
   <time name="diag">    0.12    0.12</time>
   <time name="diis">    0.37    0.37</time>
   <time name="orth">    0.01    0.01</time>
   <time name="total">    0.56    0.57</time>
   <energy>
    <i name="e_fr_energy">    -18.94807005 </i>
    <i name="e_wo_entrp">    -18.94113433 </i>
    <i name="e_0_energy">    -18.94460219 </i>
   </energy>
  </scstep>
  <scstep>
   <time name="diag">    0.12    0.12</time>
   <time name="diis">    0.35    0.35</time>
   <time name="orth">    0.01    0.01</time>
   <time name="total">    0.54    0.54</time>
   <energy>
    <i name="e_fr_energy">    -17.11343313 </i>
    <i name="e_wo_entrp">    -17.09779308 </i>
    <i name="e_0_energy">    -17.10561310 </i>
   </energy>
  </scstep>
  <scstep>
   <time name="diag">    0.12    0.12</time>
   <time name="diis">    0.38    0.38</time>
   <time name="orth">    0.01    0.01</time>
   <time name="total">    0.57    0.57</time>
   <energy>
    <i name="e_fr_energy">    -17.15391205 </i>
    <i name="e_wo_entrp">    -17.14435119 </i>
    <i name="e_0_energy">    -17.14913162 </i>
   </energy>
  </scstep>
  <scstep>
   <time name="diag">    0.12    0.12</time>
   <time name="diis">    0.38    0.38</time>
   <time name="orth">    0.01    0.02</time>
   <time name="total">    0.57    0.57</time>
   <energy>
    <i name="e_fr_energy">    -17.04584480 </i>
    <i name="e_wo_entrp">    -17.03085530 </i>
    <i name="e_0_energy">    -17.03835005 </i>
   </energy>
  </scstep>
  <scstep>
   <time name="diag">    0.12    0.12</time>
   <time name="diis">    0.37    0.37</time>
   <time name="orth">    0.01    0.01</time>
   <time name="total">    0.56    0.56</time>
   <energy>
    <i name="e_fr_energy">    -17.03466746 </i>
    <i name="e_wo_entrp">    -17.01857880 </i>
    <i name="e_0_energy">    -17.02662313 </i>
   </energy>
  </scstep>
  <scstep>
   <time name="diag">    0.12    0.12</time>
   <time name="diis">    0.37    0.37</time>
   <time name="orth">    0.01    0.01</time>
   <time name="total">    0.56    0.56</time>
   <energy>
    <i name="e_fr_energy">    -17.02927625 </i>
    <i name="e_wo_entrp">    -17.01322020 </i>
    <i name="e_0_energy">    -17.02124822 </i>
   </energy>
  </scstep>
  <scstep>
   <time name="diag">    0.12    0.12</time>
   <time name="diis">    0.38    0.38</time>
   <time name="orth">    0.01    0.01</time>
   <time name="total">    0.57    0.57</time>
   <energy>
    <i name="e_fr_energy">    -17.02829164 </i>
    <i name="e_wo_entrp">    -17.01228083 </i>
    <i name="e_0_energy">    -17.02028623 </i>
   </energy>
  </scstep>
  <scstep>
   <time name="diag">    0.12    0.12</time>
   <time name="diis">    0.38    0.38</time>
   <time name="orth">    0.01    0.01</time>
   <time name="total">    0.57    0.57</time>
   <energy>
    <i name="e_fr_energy">    -17.02785582 </i>
    <i name="e_wo_entrp">    -17.01179268 </i>
    <i name="e_0_energy">    -17.01982425 </i>
   </energy>
  </scstep>
  <scstep>
   <time name="diag">    0.12    0.12</time>
   <time name="diis">    0.37    0.37</time>
   <time name="orth">    0.01    0.01</time>
   <time name="total">    0.56    0.56</time>
   <energy>
    <i name="e_fr_energy">    -17.02776088 </i>
    <i name="e_wo_entrp">    -17.01167614 </i>
    <i name="e_0_energy">    -17.01971851 </i>
   </energy>
  </scstep>
  <scstep>
   <time name="diag">    0.12    0.12</time>
   <time name="diis">    0.35    0.35</time>
   <time name="orth">    0.01    0.02</time>
   <time name="total">    0.54    0.54</time>
   <energy>
    <i name="e_fr_energy">    -17.02804285 </i>
    <i name="e_wo_entrp">    -17.01177004 </i>
    <i name="e_0_energy">    -17.01990645 </i>
   </energy>
  </scstep>
  <scstep>
   <time name="diag">    0.12    0.12</time>
   <time name="diis">    0.35    0.35</time>
   <time name="orth">    0.01    0.01</time>
   <time name="total">    0.54    0.55</time>
   <energy>
    <i name="e_fr_energy">    -17.02824378 </i>
    <i name="e_wo_entrp">    -17.01200785 </i>
    <i name="e_0_energy">    -17.02012581 </i>
   </energy>
  </scstep>
  <scstep>
   <time name="diag">    0.12    0.12</time>
   <time name="diis">    0.35    0.35</time>
   <time name="orth">    0.01    0.01</time>
   <time name="total">    0.54    0.54</time>
   <energy>
    <i name="e_fr_energy">    -17.02839472 </i>
    <i name="e_wo_entrp">    -17.01211476 </i>
    <i name="e_0_energy">    -17.02025474 </i>
   </energy>
  </scstep>
  <scstep>
   <time name="diag">    0.12    0.12</time>
   <time name="diis">    0.30    0.30</time>
   <time name="orth">    0.01    0.01</time>
   <time name="total">    0.49    0.49</time>
   <energy>
    <i name="e_fr_energy">    -17.02846381 </i>
    <i name="e_wo_entrp">    -17.01217041 </i>
    <i name="e_0_energy">    -17.02031711 </i>
   </energy>
  </scstep>
  <scstep>
   <time name="diag">    0.12    0.12</time>
   <time name="diis">    0.25    0.25</time>
   <time name="orth">    0.01    0.01</time>
   <time name="total">    0.44    0.44</time>
   <energy>
    <i name="e_fr_energy">    -17.02850519 </i>
    <i name="e_wo_entrp">    -17.01222389 </i>
    <i name="e_0_energy">    -17.02036454 </i>
   </energy>
  </scstep>
  <scstep>
   <time name="diag">    0.12    0.12</time>
   <time name="diis">    0.24    0.24</time>
   <time name="orth">    0.01    0.02</time>
   <time name="total">    0.43    0.43</time>
   <energy>
    <i name="e_fr_energy">    -17.02854082 </i>
    <i name="e_wo_entrp">    -17.01225052 </i>
    <i name="e_0_energy">    -17.02039567 </i>
   </energy>
  </scstep>
  <scstep>
   <time name="diag">    0.13    0.13</time>
   <time name="diis">    0.22    0.22</time>
   <time name="orth">    0.01    0.01</time>
   <time name="total">    0.42    0.42</time>
   <energy>
    <i name="e_fr_energy">    -17.02855178 </i>
    <i name="e_wo_entrp">    -17.01226028 </i>
    <i name="e_0_energy">    -17.02040603 </i>
   </energy>
  </scstep>
  <scstep>
   <time name="diag">    0.11    0.11</time>
   <time name="diis">    0.19    0.19</time>
   <time name="orth">    0.01    0.01</time>
   <time name="total">    0.36    0.36</time>
   <energy>
    <i name="e_fr_energy">    -17.02855649 </i>
    <i name="e_wo_entrp">    -17.01226441 </i>
    <i name="e_0_energy">    -17.02041045 </i>
   </energy>
  </scstep>
  <scstep>
   <time name="diag">    0.11    0.11</time>
   <time name="diis">    0.19    0.19</time>
   <time name="orth">    0.01    0.01</time>
   <time name="total">    0.33    0.34</time>
   <energy>
    <i name="alphaZ">    120.87645803 </i>
    <i name="ewald">  38084.41182252 </i>
    <i name="hartreedc"> -43152.63849547 </i>
    <i name="XCdc">    173.39651409 </i>
    <i name="pawpsdc">   4396.22457547 </i>
    <i name="pawaedc">  -4972.14039152 </i>
    <i name="eentropy">     -0.01629094 </i>
    <i name="bandstr">   -243.09236722 </i>
    <i name="atom">   5575.94961827 </i>
    <i name="e_fr_energy">    -17.02855677 </i>
    <i name="e_wo_entrp">    -17.01226583 </i>
    <i name="e_0_energy">    -17.02041130 </i>
   </energy>
  </scstep>
  <structure>
   <crystal>
    <varray name="basis" >
     <v>       2.57386868       0.00000000       0.00000000 </v>
     <v>       1.28693434       2.22903567       0.00000000 </v>
     <v>       0.00000000       0.00000000      30.30466494 </v>
    </varray>
    <i name="volume">    173.86529028 </i>
    <varray name="rec_basis" >
     <v>       0.38852021      -0.22431225       0.00000000 </v>
     <v>       0.00000000       0.44862450       0.00000000 </v>
     <v>       0.00000000       0.00000000       0.03299822 </v>
    </varray>
   </crystal>
   <varray name="positions" >
    <v>       0.99970656       0.00058687       0.39656714 </v>
    <v>       0.33318695       0.33362609       0.46513971 </v>
    <v>       0.66582757       0.66834486       0.53359426 </v>
    <v>       0.00080073       0.99839854       0.60421572 </v>
    <v>       0.50047818       0.99904364       0.63750274 </v>
   </varray>
  </structure>
  <varray name="forces" >
   <v>       0.00000000       0.01076163       0.07695211 </v>
   <v>       0.00000000       0.00527986      -0.03547592 </v>
   <v>       0.00000000       0.00472635      -0.03916668 </v>
   <v>      -0.00000000      -0.00922170      -0.00808555 </v>
   <v>       0.00000000      -0.01154613       0.00577604 </v>
  </varray>
  <varray name="stress" >
   <v>     -43.97372709       0.00000000       0.00000000 </v>
   <v>       0.00000000     -44.13349049      -1.12665791 </v>
   <v>       0.00000000      -1.12803490     -45.53872091 </v>
  </varray>
  <energy>
   <i name="e_fr_energy">    -17.02855677 </i>
   <i name="e_wo_entrp">    -17.02041130 </i>
   <i name="e_0_energy">     -0.01629094 </i>
  </energy>
  <time name="totalsc">   13.22   13.29</time>
  <eigenvalues>
   <array>
    <dimension dim="1">band</dimension>
    <dimension dim="2">kpoint</dimension>
    <dimension dim="3">spin</dimension>
    <field>eigene</field>
    <field>occ</field>
    <set>
     <set comment="spin 1">
      <set comment="kpoint 1">
       <r>  -11.5611    1.0000 </r>
       <r>  -10.6644    1.0000 </r>
       <r>   -9.0280    1.0000 </r>
       <r>   -7.5785    1.0000 </r>
       <r>   -6.2629    1.0000 </r>
       <r>   -5.6841    1.0000 </r>
       <r>   -5.4990    1.0000 </r>
       <r>   -5.4520    1.0000 </r>
       <r>   -5.3371    1.0000 </r>
       <r>   -5.3293    1.0000 </r>
       <r>   -5.3096    1.0000 </r>
       <r>   -5.2974    1.0000 </r>
       <r>   -5.2909    1.0000 </r>
       <r>   -5.0380    1.0000 </r>
       <r>   -5.0350    1.0000 </r>
       <r>   -4.8783    1.0000 </r>
       <r>   -4.8583    1.0000 </r>
       <r>   -4.7000    1.0000 </r>
       <r>   -4.5374    1.0000 </r>
       <r>   -4.5327    1.0000 </r>
       <r>   -4.3210    1.0000 </r>
       <r>   -4.3058    1.0000 </r>
       <r>   -4.0338    1.0000 </r>
       <r>   -4.0295    1.0000 </r>
       <r>   -2.9389    1.0000 </r>
       <r>    1.6109    0.0000 </r>
       <r>    1.9157    0.0000 </r>
       <r>    2.3409    0.0000 </r>
      </set>
      <set comment="kpoint 2">
       <r>  -11.2530    1.0000 </r>
       <r>  -10.3682    1.0000 </r>
       <r>   -8.7675    1.0000 </r>
       <r>   -7.3603    1.0000 </r>
       <r>   -6.2849    1.0000 </r>
       <r>   -5.7320    1.0000 </r>
       <r>   -5.6076    1.0000 </r>
       <r>   -5.4586    1.0000 </r>
       <r>   -5.4147    1.0000 </r>
       <r>   -5.3667    1.0000 </r>
       <r>   -5.3343    1.0000 </r>
       <r>   -5.2273    1.0000 </r>
       <r>   -5.2006    1.0000 </r>
       <r>   -5.1381    1.0000 </r>
       <r>   -5.0515    1.0000 </r>
       <r>   -4.9480    1.0000 </r>
       <r>   -4.7760    1.0000 </r>
       <r>   -4.7153    1.0000 </r>
       <r>   -4.5441    1.0000 </r>
       <r>   -4.5071    1.0000 </r>
       <r>   -4.3358    1.0000 </r>
       <r>   -4.3037    1.0000 </r>
       <r>   -4.0253    1.0000 </r>
       <r>   -3.7901    1.0000 </r>
       <r>   -2.2495    0.0304 </r>
       <r>    1.8549    0.0000 </r>
       <r>    2.2193    0.0000 </r>
       <r>    2.6442    0.0000 </r>
      </set>
      <set comment="kpoint 3">
       <r>  -10.3661    1.0000 </r>
       <r>   -9.5321    1.0000 </r>
       <r>   -8.0961    1.0000 </r>
       <r>   -6.8525    1.0000 </r>
       <r>   -6.3953    1.0000 </r>
       <r>   -5.9635    1.0000 </r>
       <r>   -5.7821    1.0000 </r>
       <r>   -5.7059    1.0000 </r>
       <r>   -5.5398    1.0000 </r>
       <r>   -5.3141    1.0000 </r>
       <r>   -5.2568    1.0000 </r>
       <r>   -5.1980    1.0000 </r>
       <r>   -5.0838    1.0000 </r>
       <r>   -5.0388    1.0000 </r>
       <r>   -4.9298    1.0000 </r>
       <r>   -4.8712    1.0000 </r>
       <r>   -4.8262    1.0000 </r>
       <r>   -4.6470    1.0000 </r>
       <r>   -4.5969    1.0000 </r>
       <r>   -4.4852    1.0000 </r>
       <r>   -4.3051    1.0000 </r>
       <r>   -4.0981    1.0000 </r>
       <r>   -4.0178    1.0000 </r>
       <r>   -2.8906    1.0000 </r>
       <r>   -0.9148    0.0000 </r>
       <r>    2.5797    0.0000 </r>
       <r>    3.1294    0.0000 </r>
       <r>    3.5537    0.0000 </r>
      </set>
      <set comment="kpoint 4">
       <r>   -9.0619    1.0000 </r>
       <r>   -8.3905    1.0000 </r>
       <r>   -7.4523    1.0000 </r>
       <r>   -6.6863    1.0000 </r>
       <r>   -6.4137    1.0000 </r>
       <r>   -6.2383    1.0000 </r>
       <r>   -5.9239    1.0000 </r>
       <r>   -5.7025    1.0000 </r>
       <r>   -5.5848    1.0000 </r>
       <r>   -5.3232    1.0000 </r>
       <r>   -5.1851    1.0000 </r>
       <r>   -5.0993    1.0000 </r>
       <r>   -4.9161    1.0000 </r>
       <r>   -4.8822    1.0000 </r>
       <r>   -4.7678    1.0000 </r>
       <r>   -4.6423    1.0000 </r>
       <r>   -4.5737    1.0000 </r>
       <r>   -4.4030    1.0000 </r>
       <r>   -4.3705    1.0000 </r>
       <r>   -4.2971    1.0000 </r>
       <r>   -4.1820    1.0000 </r>
       <r>   -4.0029    1.0000 </r>
       <r>   -3.5919    1.0000 </r>
       <r>   -1.6853    0.0000 </r>
       <r>    0.7727    0.0000 </r>
       <r>    3.7641    0.0000 </r>
       <r>    4.6120    0.0000 </r>
       <r>    5.0281    0.0000 </r>
      </set>
      <set comment="kpoint 5">
       <r>   -7.9877    1.0000 </r>
       <r>   -7.4594    1.0000 </r>
       <r>   -7.1436    1.0000 </r>
       <r>   -6.7911    1.0000 </r>
       <r>   -6.5478    1.0000 </r>
       <r>   -6.4111    1.0000 </r>
       <r>   -6.0589    1.0000 </r>
       <r>   -5.5221    1.0000 </r>
       <r>   -5.3809    1.0000 </r>
       <r>   -5.3083    1.0000 </r>
       <r>   -5.2419    1.0000 </r>
       <r>   -4.9573    1.0000 </r>
       <r>   -4.8342    1.0000 </r>
       <r>   -4.5081    1.0000 </r>
       <r>   -4.4111    1.0000 </r>
       <r>   -4.3503    1.0000 </r>
       <r>   -4.1526    1.0000 </r>
       <r>   -4.1296    1.0000 </r>
       <r>   -4.0930    1.0000 </r>
       <r>   -4.0070    1.0000 </r>
       <r>   -3.8659    1.0000 </r>
       <r>   -3.5790    1.0000 </r>
       <r>   -2.5259    0.9791 </r>
       <r>   -0.2704    0.0000 </r>
       <r>    2.0905    0.0000 </r>
       <r>    2.9048    0.0000 </r>
       <r>    3.2350    0.0000 </r>
       <r>    4.3731    0.0000 </r>
      </set>
      <set comment="kpoint 6">
       <r>   -7.7760    1.0000 </r>
       <r>   -7.1505    1.0000 </r>
       <r>   -6.9565    1.0000 </r>
       <r>   -6.8484    1.0000 </r>
       <r>   -6.6180    1.0000 </r>
       <r>   -6.4701    1.0000 </r>
       <r>   -6.0879    1.0000 </r>
       <r>   -5.4437    1.0000 </r>
       <r>   -5.3904    1.0000 </r>
       <r>   -5.2638    1.0000 </r>
       <r>   -5.1681    1.0000 </r>
       <r>   -4.9451    1.0000 </r>
       <r>   -4.5989    1.0000 </r>
       <r>   -4.4588    1.0000 </r>
       <r>   -4.2891    1.0000 </r>
       <r>   -4.2321    1.0000 </r>
       <r>   -4.0854    1.0000 </r>
       <r>   -3.9971    1.0000 </r>
       <r>   -3.9373    1.0000 </r>
       <r>   -3.7512    1.0000 </r>
       <r>   -3.6465    1.0000 </r>
       <r>   -2.2591    0.0411 </r>
       <r>   -1.3922    0.0000 </r>
       <r>   -0.8579    0.0000 </r>
       <r>    1.2854    0.0000 </r>
       <r>    2.2101    0.0000 </r>
       <r>    2.8730    0.0000 </r>
       <r>    3.6421    0.0000 </r>
      </set>
      <set comment="kpoint 7">
       <r>  -11.2661    1.0000 </r>
       <r>  -10.3701    1.0000 </r>
       <r>   -8.7586    1.0000 </r>
       <r>   -7.3557    1.0000 </r>
       <r>   -6.2116    1.0000 </r>
       <r>   -5.7539    1.0000 </r>
       <r>   -5.5461    1.0000 </r>
       <r>   -5.4057    1.0000 </r>
       <r>   -5.3979    1.0000 </r>
       <r>   -5.3793    1.0000 </r>
       <r>   -5.3224    1.0000 </r>
       <r>   -5.2584    1.0000 </r>
       <r>   -5.1966    1.0000 </r>
       <r>   -5.1399    1.0000 </r>
       <r>   -5.0511    1.0000 </r>
       <r>   -4.9673    1.0000 </r>
       <r>   -4.8700    1.0000 </r>
       <r>   -4.7282    1.0000 </r>
       <r>   -4.5530    1.0000 </r>
       <r>   -4.4973    1.0000 </r>
       <r>   -4.3381    1.0000 </r>
       <r>   -4.3158    1.0000 </r>
       <r>   -4.0286    1.0000 </r>
       <r>   -3.8129    1.0000 </r>
       <r>   -2.2589    0.0408 </r>
       <r>    1.8558    0.0000 </r>
       <r>    2.2192    0.0000 </r>
       <r>    2.6437    0.0000 </r>
      </set>
      <set comment="kpoint 8">
       <r>  -10.6453    1.0000 </r>
       <r>   -9.8013    1.0000 </r>
       <r>   -8.3084    1.0000 </r>
       <r>   -6.9894    1.0000 </r>
       <r>   -6.3722    1.0000 </r>
       <r>   -5.8553    1.0000 </r>
       <r>   -5.7661    1.0000 </r>
       <r>   -5.6312    1.0000 </r>
       <r>   -5.5245    1.0000 </r>
       <r>   -5.3981    1.0000 </r>
       <r>   -5.2969    1.0000 </r>
       <r>   -5.1968    1.0000 </r>
       <r>   -5.1411    1.0000 </r>
       <r>   -5.0945    1.0000 </r>
       <r>   -4.9907    1.0000 </r>
       <r>   -4.8680    1.0000 </r>
       <r>   -4.7500    1.0000 </r>
       <r>   -4.6486    1.0000 </r>
       <r>   -4.5988    1.0000 </r>
       <r>   -4.4808    1.0000 </r>
       <r>   -4.3830    1.0000 </r>
       <r>   -4.1182    1.0000 </r>
       <r>   -4.0549    1.0000 </r>
       <r>   -3.1238    1.0000 </r>
       <r>   -1.2971    0.0000 </r>
       <r>    2.3394    0.0000 </r>
       <r>    2.8266    0.0000 </r>
       <r>    3.2510    0.0000 </r>
      </set>
      <set comment="kpoint 9">
       <r>   -9.5392    1.0000 </r>
       <r>   -8.8003    1.0000 </r>
       <r>   -7.6366    1.0000 </r>
       <r>   -6.6190    1.0000 </r>
       <r>   -6.3326    1.0000 </r>
       <r>   -6.0761    1.0000 </r>
       <r>   -5.8874    1.0000 </r>
       <r>   -5.8150    1.0000 </r>
       <r>   -5.6494    1.0000 </r>
       <r>   -5.3578    1.0000 </r>
       <r>   -5.3189    1.0000 </r>
       <r>   -5.1901    1.0000 </r>
       <r>   -5.0881    1.0000 </r>
       <r>   -4.9666    1.0000 </r>
       <r>   -4.8899    1.0000 </r>
       <r>   -4.7865    1.0000 </r>
       <r>   -4.6539    1.0000 </r>
       <r>   -4.5024    1.0000 </r>
       <r>   -4.3809    1.0000 </r>
       <r>   -4.3419    1.0000 </r>
       <r>   -4.1936    1.0000 </r>
       <r>   -4.0798    1.0000 </r>
       <r>   -3.7085    1.0000 </r>
       <r>   -2.0876    0.0000 </r>
       <r>    0.1704    0.0000 </r>
       <r>    3.3142    0.0000 </r>
       <r>    4.0360    0.0000 </r>
       <r>    4.4783    0.0000 </r>
      </set>
      <set comment="kpoint 10">
       <r>   -8.3298    1.0000 </r>
       <r>   -7.7330    1.0000 </r>
       <r>   -7.1599    1.0000 </r>
       <r>   -6.6469    1.0000 </r>
       <r>   -6.3988    1.0000 </r>
       <r>   -6.2421    1.0000 </r>
       <r>   -5.9729    1.0000 </r>
       <r>   -5.6720    1.0000 </r>
       <r>   -5.5857    1.0000 </r>
       <r>   -5.3203    1.0000 </r>
       <r>   -5.2622    1.0000 </r>
       <r>   -5.1128    1.0000 </r>
       <r>   -4.9477    1.0000 </r>
       <r>   -4.7866    1.0000 </r>
       <r>   -4.6910    1.0000 </r>
       <r>   -4.5385    1.0000 </r>
       <r>   -4.4236    1.0000 </r>
       <r>   -4.3126    1.0000 </r>
       <r>   -4.2109    1.0000 </r>
       <r>   -4.0282    1.0000 </r>
       <r>   -3.9785    1.0000 </r>
       <r>   -3.6701    1.0000 </r>
       <r>   -2.8112    1.0000 </r>
       <r>   -0.6614    0.0000 </r>
       <r>    1.9628    0.0000 </r>
       <r>    3.9691    0.0000 </r>
       <r>    4.4855    0.0000 </r>
       <r>    5.0915    0.0000 </r>
      </set>
      <set comment="kpoint 11">
       <r>   -7.8035    1.0000 </r>
       <r>   -7.0703    1.0000 </r>
       <r>   -6.9107    1.0000 </r>
       <r>   -6.7032    1.0000 </r>
       <r>   -6.5217    1.0000 </r>
       <r>   -6.3504    1.0000 </r>
       <r>   -6.0565    1.0000 </r>
       <r>   -5.5476    1.0000 </r>
       <r>   -5.4373    1.0000 </r>
       <r>   -5.3305    1.0000 </r>
       <r>   -5.2153    1.0000 </r>
       <r>   -5.0300    1.0000 </r>
       <r>   -4.8163    1.0000 </r>
       <r>   -4.5720    1.0000 </r>
       <r>   -4.4335    1.0000 </r>
       <r>   -4.2882    1.0000 </r>
       <r>   -4.1705    1.0000 </r>
       <r>   -4.1383    1.0000 </r>
       <r>   -4.0654    1.0000 </r>
       <r>   -3.9149    1.0000 </r>
       <r>   -3.4569    1.0000 </r>
       <r>   -2.3803    0.4904 </r>
       <r>   -1.3523    0.0000 </r>
       <r>    0.0912    0.0000 </r>
       <r>    1.5857    0.0000 </r>
       <r>    2.5771    0.0000 </r>
       <r>    3.0382    0.0000 </r>
       <r>    4.1413    0.0000 </r>
      </set>
      <set comment="kpoint 12">
       <r>   -7.7209    1.0000 </r>
       <r>   -7.0703    1.0000 </r>
       <r>   -6.9007    1.0000 </r>
       <r>   -6.7261    1.0000 </r>
       <r>   -6.5213    1.0000 </r>
       <r>   -6.3797    1.0000 </r>
       <r>   -6.0770    1.0000 </r>
       <r>   -5.6104    1.0000 </r>
       <r>   -5.4233    1.0000 </r>
       <r>   -5.3386    1.0000 </r>
       <r>   -5.2568    1.0000 </r>
       <r>   -5.0363    1.0000 </r>
       <r>   -4.8403    1.0000 </r>
       <r>   -4.5509    1.0000 </r>
       <r>   -4.4421    1.0000 </r>
       <r>   -4.2869    1.0000 </r>
       <r>   -4.1772    1.0000 </r>
       <r>   -4.1115    1.0000 </r>
       <r>   -4.0657    1.0000 </r>
       <r>   -3.9108    1.0000 </r>
       <r>   -3.3740    1.0000 </r>
       <r>   -2.3806    0.4919 </r>
       <r>   -1.3761    0.0000 </r>
       <r>    0.0809    0.0000 </r>
       <r>    1.5738    0.0000 </r>
       <r>    2.5426    0.0000 </r>
       <r>    3.0876    0.0000 </r>
       <r>    4.1182    0.0000 </r>
      </set>
      <set comment="kpoint 13">
       <r>   -8.2817    1.0000 </r>
       <r>   -7.6993    1.0000 </r>
       <r>   -7.1363    1.0000 </r>
       <r>   -6.6600    1.0000 </r>
       <r>   -6.4023    1.0000 </r>
       <r>   -6.2816    1.0000 </r>
       <r>   -6.0116    1.0000 </r>
       <r>   -5.7151    1.0000 </r>
       <r>   -5.6078    1.0000 </r>
       <r>   -5.3449    1.0000 </r>
       <r>   -5.3000    1.0000 </r>
       <r>   -5.1302    1.0000 </r>
       <r>   -4.9504    1.0000 </r>
       <r>   -4.7891    1.0000 </r>
       <r>   -4.6453    1.0000 </r>
       <r>   -4.5365    1.0000 </r>
       <r>   -4.4099    1.0000 </r>
       <r>   -4.2547    1.0000 </r>
       <r>   -4.1786    1.0000 </r>
       <r>   -4.0162    1.0000 </r>
       <r>   -3.9464    1.0000 </r>
       <r>   -3.6653    1.0000 </r>
       <r>   -2.8639    1.0000 </r>
       <r>   -0.7620    0.0000 </r>
       <r>    1.8872    0.0000 </r>
       <r>    4.0256    0.0000 </r>
       <r>    4.5569    0.0000 </r>
       <r>    5.1099    0.0000 </r>
      </set>
      <set comment="kpoint 14">
       <r>   -9.5843    1.0000 </r>
       <r>   -8.7782    1.0000 </r>
       <r>   -7.5567    1.0000 </r>
       <r>   -6.5804    1.0000 </r>
       <r>   -6.3183    1.0000 </r>
       <r>   -6.0983    1.0000 </r>
       <r>   -5.9144    1.0000 </r>
       <r>   -5.8231    1.0000 </r>
       <r>   -5.6455    1.0000 </r>
       <r>   -5.3627    1.0000 </r>
       <r>   -5.3209    1.0000 </r>
       <r>   -5.2182    1.0000 </r>
       <r>   -5.0624    1.0000 </r>
       <r>   -4.9600    1.0000 </r>
       <r>   -4.8276    1.0000 </r>
       <r>   -4.7811    1.0000 </r>
       <r>   -4.6247    1.0000 </r>
       <r>   -4.5406    1.0000 </r>
       <r>   -4.3997    1.0000 </r>
       <r>   -4.3373    1.0000 </r>
       <r>   -4.1907    1.0000 </r>
       <r>   -4.0863    1.0000 </r>
       <r>   -3.7580    1.0000 </r>
       <r>   -2.2012    0.0053 </r>
       <r>    0.1142    0.0000 </r>
       <r>    3.3100    0.0000 </r>
       <r>    4.0362    0.0000 </r>
       <r>    4.4803    0.0000 </r>
      </set>
      <set comment="kpoint 15">
       <r>  -10.6823    1.0000 </r>
       <r>   -9.8015    1.0000 </r>
       <r>   -8.2720    1.0000 </r>
       <r>   -6.9711    1.0000 </r>
       <r>   -6.2449    1.0000 </r>
       <r>   -5.8613    1.0000 </r>
       <r>   -5.7558    1.0000 </r>
       <r>   -5.6209    1.0000 </r>
       <r>   -5.5102    1.0000 </r>
       <r>   -5.3758    1.0000 </r>
       <r>   -5.2232    1.0000 </r>
       <r>   -5.1982    1.0000 </r>
       <r>   -5.1458    1.0000 </r>
       <r>   -5.1227    1.0000 </r>
       <r>   -4.9942    1.0000 </r>
       <r>   -4.9103    1.0000 </r>
       <r>   -4.7543    1.0000 </r>
       <r>   -4.6726    1.0000 </r>
       <r>   -4.6499    1.0000 </r>
       <r>   -4.5139    1.0000 </r>
       <r>   -4.3955    1.0000 </r>
       <r>   -4.1213    1.0000 </r>
       <r>   -4.0714    1.0000 </r>
       <r>   -3.2091    1.0000 </r>
       <r>   -1.3283    0.0000 </r>
       <r>    2.3407    0.0000 </r>
       <r>    2.8263    0.0000 </r>
       <r>    3.2502    0.0000 </r>
      </set>
      <set comment="kpoint 16">
       <r>  -10.4361    1.0000 </r>
       <r>   -9.5371    1.0000 </r>
       <r>   -8.0454    1.0000 </r>
       <r>   -6.8216    1.0000 </r>
       <r>   -6.1709    1.0000 </r>
       <r>   -5.9084    1.0000 </r>
       <r>   -5.7332    1.0000 </r>
       <r>   -5.6345    1.0000 </r>
       <r>   -5.5382    1.0000 </r>
       <r>   -5.3403    1.0000 </r>
       <r>   -5.2482    1.0000 </r>
       <r>   -5.2193    1.0000 </r>
       <r>   -5.0901    1.0000 </r>
       <r>   -5.0824    1.0000 </r>
       <r>   -4.9623    1.0000 </r>
       <r>   -4.8986    1.0000 </r>
       <r>   -4.8641    1.0000 </r>
       <r>   -4.6663    1.0000 </r>
       <r>   -4.6271    1.0000 </r>
       <r>   -4.4989    1.0000 </r>
       <r>   -4.3132    1.0000 </r>
       <r>   -4.1673    1.0000 </r>
       <r>   -4.0215    1.0000 </r>
       <r>   -3.0223    1.0000 </r>
       <r>   -0.9661    0.0000 </r>
       <r>    2.5771    0.0000 </r>
       <r>    3.1291    0.0000 </r>
       <r>    3.5527    0.0000 </r>
      </set>
      <set comment="kpoint 17">
       <r>   -8.4800    1.0000 </r>
       <r>   -7.8255    1.0000 </r>
       <r>   -7.1136    1.0000 </r>
       <r>   -6.5171    1.0000 </r>
       <r>   -6.1847    1.0000 </r>
       <r>   -6.0922    1.0000 </r>
       <r>   -5.9752    1.0000 </r>
       <r>   -5.8858    1.0000 </r>
       <r>   -5.6249    1.0000 </r>
       <r>   -5.4808    1.0000 </r>
       <r>   -5.3655    1.0000 </r>
       <r>   -5.2741    1.0000 </r>
       <r>   -5.0299    1.0000 </r>
       <r>   -4.9709    1.0000 </r>
       <r>   -4.7663    1.0000 </r>
       <r>   -4.7002    1.0000 </r>
       <r>   -4.4612    1.0000 </r>
       <r>   -4.3479    1.0000 </r>
       <r>   -4.2527    1.0000 </r>
       <r>   -4.0222    1.0000 </r>
       <r>   -3.9747    1.0000 </r>
       <r>   -3.6165    1.0000 </r>
       <r>   -2.8150    1.0000 </r>
       <r>   -0.7912    0.0000 </r>
       <r>    1.7476    0.0000 </r>
       <r>    4.5524    0.0000 </r>
       <r>    5.2039    0.0000 </r>
       <r>    5.6193    0.0000 </r>
      </set>
      <set comment="kpoint 18">
       <r>   -7.8481    1.0000 </r>
       <r>   -6.9164    1.0000 </r>
       <r>   -6.7098    1.0000 </r>
       <r>   -6.4915    1.0000 </r>
       <r>   -6.2992    1.0000 </r>
       <r>   -6.1589    1.0000 </r>
       <r>   -5.9690    1.0000 </r>
       <r>   -5.8100    1.0000 </r>
       <r>   -5.6132    1.0000 </r>
       <r>   -5.5102    1.0000 </r>
       <r>   -5.3612    1.0000 </r>
       <r>   -5.1033    1.0000 </r>
       <r>   -5.0037    1.0000 </r>
       <r>   -4.8622    1.0000 </r>
       <r>   -4.6774    1.0000 </r>
       <r>   -4.5704    1.0000 </r>
       <r>   -4.4229    1.0000 </r>
       <r>   -4.2350    1.0000 </r>
       <r>   -4.0950    1.0000 </r>
       <r>   -3.9310    1.0000 </r>
       <r>   -3.3002    1.0000 </r>
       <r>   -2.3986    0.5923 </r>
       <r>   -1.2058    0.0000 </r>
       <r>    0.8729    0.0000 </r>
       <r>    2.7245    0.0000 </r>
       <r>    3.6475    0.0000 </r>
       <r>    3.8455    0.0000 </r>
       <r>    4.9373    0.0000 </r>
      </set>
      <set comment="kpoint 19">
       <r>   -7.6078    1.0000 </r>
       <r>   -6.6875    1.0000 </r>
       <r>   -6.6235    1.0000 </r>
       <r>   -6.4254    1.0000 </r>
       <r>   -6.3259    1.0000 </r>
       <r>   -6.1828    1.0000 </r>
       <r>   -5.9984    1.0000 </r>
       <r>   -5.8562    1.0000 </r>
       <r>   -5.5834    1.0000 </r>
       <r>   -5.5003    1.0000 </r>
       <r>   -5.3396    1.0000 </r>
       <r>   -5.1391    1.0000 </r>
       <r>   -4.9261    1.0000 </r>
       <r>   -4.7505    1.0000 </r>
       <r>   -4.6020    1.0000 </r>
       <r>   -4.4956    1.0000 </r>
       <r>   -4.3193    1.0000 </r>
       <r>   -4.1576    1.0000 </r>
       <r>   -4.1026    1.0000 </r>
       <r>   -3.9975    1.0000 </r>
       <r>   -2.4823    0.9220 </r>
       <r>   -0.7500    0.0000 </r>
       <r>   -0.1725    0.0000 </r>
       <r>    0.5979    0.0000 </r>
       <r>    1.6818    0.0000 </r>
       <r>    2.8401    0.0000 </r>
       <r>    3.4231    0.0000 </r>
       <r>    4.2578    0.0000 </r>
      </set>
      <set comment="kpoint 20">
       <r>   -7.7050    1.0000 </r>
       <r>   -6.9266    1.0000 </r>
       <r>   -6.7187    1.0000 </r>
       <r>   -6.4938    1.0000 </r>
       <r>   -6.3033    1.0000 </r>
       <r>   -6.2056    1.0000 </r>
       <r>   -5.9879    1.0000 </r>
       <r>   -5.8485    1.0000 </r>
       <r>   -5.6186    1.0000 </r>
       <r>   -5.5436    1.0000 </r>
       <r>   -5.4266    1.0000 </r>
       <r>   -5.1079    1.0000 </r>
       <r>   -5.0086    1.0000 </r>
       <r>   -4.8614    1.0000 </r>
       <r>   -4.6941    1.0000 </r>
       <r>   -4.5742    1.0000 </r>
       <r>   -4.4190    1.0000 </r>
       <r>   -4.2333    1.0000 </r>
       <r>   -4.0637    1.0000 </r>
       <r>   -3.9311    1.0000 </r>
       <r>   -3.1277    1.0000 </r>
       <r>   -2.4095    0.6512 </r>
       <r>   -1.3041    0.0000 </r>
       <r>    0.7047    0.0000 </r>
       <r>    2.7047    0.0000 </r>
       <r>    3.6136    0.0000 </r>
       <r>    3.8666    0.0000 </r>
       <r>    4.8535    0.0000 </r>
      </set>
      <set comment="kpoint 21">
       <r>   -8.5679    1.0000 </r>
       <r>   -7.7481    1.0000 </r>
       <r>   -6.9888    1.0000 </r>
       <r>   -6.4840    1.0000 </r>
       <r>   -6.1652    1.0000 </r>
       <r>   -6.0944    1.0000 </r>
       <r>   -5.9696    1.0000 </r>
       <r>   -5.8894    1.0000 </r>
       <r>   -5.6267    1.0000 </r>
       <r>   -5.4855    1.0000 </r>
       <r>   -5.4043    1.0000 </r>
       <r>   -5.3534    1.0000 </r>
       <r>   -5.0329    1.0000 </r>
       <r>   -4.9794    1.0000 </r>
       <r>   -4.8225    1.0000 </r>
       <r>   -4.6432    1.0000 </r>
       <r>   -4.4762    1.0000 </r>
       <r>   -4.3090    1.0000 </r>
       <r>   -4.1709    1.0000 </r>
       <r>   -4.0262    1.0000 </r>
       <r>   -3.9125    1.0000 </r>
       <r>   -3.6242    1.0000 </r>
       <r>   -2.9344    1.0000 </r>
       <r>   -1.0346    0.0000 </r>
       <r>    1.5575    0.0000 </r>
       <r>    4.4264    0.0000 </r>
       <r>    5.4159    0.0000 </r>
       <r>    5.5887    0.0000 </r>
      </set>
      <set comment="kpoint 22">
       <r>   -9.6699    1.0000 </r>
       <r>   -8.7817    1.0000 </r>
       <r>   -7.5048    1.0000 </r>
       <r>   -6.5037    1.0000 </r>
       <r>   -6.2407    1.0000 </r>
       <r>   -6.0088    1.0000 </r>
       <r>   -5.8457    1.0000 </r>
       <r>   -5.7764    1.0000 </r>
       <r>   -5.6539    1.0000 </r>
       <r>   -5.3483    1.0000 </r>
       <r>   -5.3183    1.0000 </r>
       <r>   -5.2430    1.0000 </r>
       <r>   -5.1453    1.0000 </r>
       <r>   -4.9847    1.0000 </r>
       <r>   -4.8275    1.0000 </r>
       <r>   -4.7967    1.0000 </r>
       <r>   -4.6247    1.0000 </r>
       <r>   -4.5542    1.0000 </r>
       <r>   -4.4358    1.0000 </r>
       <r>   -4.3398    1.0000 </r>
       <r>   -4.1909    1.0000 </r>
       <r>   -4.0874    1.0000 </r>
       <r>   -3.8187    1.0000 </r>
       <r>   -2.3102    0.1549 </r>
       <r>    0.0564    0.0000 </r>
       <r>    3.2914    0.0000 </r>
       <r>    4.0372    0.0000 </r>
       <r>    4.4688    0.0000 </r>
      </set>
      <set comment="kpoint 23">
       <r>   -9.3156    1.0000 </r>
       <r>   -8.3715    1.0000 </r>
       <r>   -7.3024    1.0000 </r>
       <r>   -6.5074    1.0000 </r>
       <r>   -6.3507    1.0000 </r>
       <r>   -6.0422    1.0000 </r>
       <r>   -5.7514    1.0000 </r>
       <r>   -5.6626    1.0000 </r>
       <r>   -5.4345    1.0000 </r>
       <r>   -5.3285    1.0000 </r>
       <r>   -5.2651    1.0000 </r>
       <r>   -5.1330    1.0000 </r>
       <r>   -4.9841    1.0000 </r>
       <r>   -4.8936    1.0000 </r>
       <r>   -4.7736    1.0000 </r>
       <r>   -4.7291    1.0000 </r>
       <r>   -4.5756    1.0000 </r>
       <r>   -4.4221    1.0000 </r>
       <r>   -4.3852    1.0000 </r>
       <r>   -4.3011    1.0000 </r>
       <r>   -4.1822    1.0000 </r>
       <r>   -4.0061    1.0000 </r>
       <r>   -3.7871    1.0000 </r>
       <r>   -1.9931    0.0000 </r>
       <r>    0.5690    0.0000 </r>
       <r>    3.6340    0.0000 </r>
       <r>    4.6322    0.0000 </r>
       <r>    4.8673    0.0000 </r>
      </set>
      <set comment="kpoint 24">
       <r>   -7.5759    1.0000 </r>
       <r>   -6.4476    1.0000 </r>
       <r>   -6.3809    1.0000 </r>
       <r>   -6.3118    1.0000 </r>
       <r>   -6.2018    1.0000 </r>
       <r>   -6.0796    1.0000 </r>
       <r>   -6.0282    1.0000 </r>
       <r>   -5.9319    1.0000 </r>
       <r>   -5.7449    1.0000 </r>
       <r>   -5.5520    1.0000 </r>
       <r>   -5.4756    1.0000 </r>
       <r>   -5.0943    1.0000 </r>
       <r>   -5.0464    1.0000 </r>
       <r>   -4.8474    1.0000 </r>
       <r>   -4.6920    1.0000 </r>
       <r>   -4.5427    1.0000 </r>
       <r>   -4.4881    1.0000 </r>
       <r>   -4.2008    1.0000 </r>
       <r>   -4.1160    1.0000 </r>
       <r>   -4.0212    1.0000 </r>
       <r>   -2.1002    0.0000 </r>
       <r>   -0.4246    0.0000 </r>
       <r>    0.7769    0.0000 </r>
       <r>    2.2005    0.0000 </r>
       <r>    2.2582    0.0000 </r>
       <r>    2.5269    0.0000 </r>
       <r>    3.3264    0.0000 </r>
       <r>    3.9930    0.0000 </r>
      </set>
      <set comment="kpoint 25">
       <r>   -7.5308    1.0000 </r>
       <r>   -6.4581    1.0000 </r>
       <r>   -6.4033    1.0000 </r>
       <r>   -6.3103    1.0000 </r>
       <r>   -6.2022    1.0000 </r>
       <r>   -6.0804    1.0000 </r>
       <r>   -6.0304    1.0000 </r>
       <r>   -5.9196    1.0000 </r>
       <r>   -5.7032    1.0000 </r>
       <r>   -5.5935    1.0000 </r>
       <r>   -5.4809    1.0000 </r>
       <r>   -5.0962    1.0000 </r>
       <r>   -5.0459    1.0000 </r>
       <r>   -4.8687    1.0000 </r>
       <r>   -4.6998    1.0000 </r>
       <r>   -4.5555    1.0000 </r>
       <r>   -4.4868    1.0000 </r>
       <r>   -4.1887    1.0000 </r>
       <r>   -4.1125    1.0000 </r>
       <r>   -4.0224    1.0000 </r>
       <r>   -1.9461    0.0000 </r>
       <r>   -0.4498    0.0000 </r>
       <r>    0.6306    0.0000 </r>
       <r>    1.7873    0.0000 </r>
       <r>    2.3315    0.0000 </r>
       <r>    2.5036    0.0000 </r>
       <r>    3.2505    0.0000 </r>
       <r>    3.8050    0.0000 </r>
      </set>
      <set comment="kpoint 26">
       <r>   -7.9358    1.0000 </r>
       <r>   -6.8865    1.0000 </r>
       <r>   -6.6821    1.0000 </r>
       <r>   -6.4220    1.0000 </r>
       <r>   -6.2854    1.0000 </r>
       <r>   -6.0477    1.0000 </r>
       <r>   -5.9428    1.0000 </r>
       <r>   -5.7758    1.0000 </r>
       <r>   -5.6166    1.0000 </r>
       <r>   -5.5290    1.0000 </r>
       <r>   -5.4022    1.0000 </r>
       <r>   -5.1127    1.0000 </r>
       <r>   -5.0422    1.0000 </r>
       <r>   -4.8981    1.0000 </r>
       <r>   -4.6764    1.0000 </r>
       <r>   -4.6101    1.0000 </r>
       <r>   -4.4209    1.0000 </r>
       <r>   -4.2433    1.0000 </r>
       <r>   -4.0575    1.0000 </r>
       <r>   -3.9310    1.0000 </r>
       <r>   -3.0165    1.0000 </r>
       <r>   -2.4284    0.7440 </r>
       <r>   -1.4137    0.0000 </r>
       <r>    0.3851    0.0000 </r>
       <r>    2.1500    0.0000 </r>
       <r>    3.2661    0.0000 </r>
       <r>    4.2929    0.0000 </r>
       <r>    5.6152    0.0000 </r>
      </set>
      <set comment="kpoint 27">
       <r>   -8.6498    1.0000 </r>
       <r>   -7.6505    1.0000 </r>
       <r>   -7.0000    1.0000 </r>
       <r>   -6.4740    1.0000 </r>
       <r>   -6.3821    1.0000 </r>
       <r>   -6.0847    1.0000 </r>
       <r>   -5.8292    1.0000 </r>
       <r>   -5.6386    1.0000 </r>
       <r>   -5.4937    1.0000 </r>
       <r>   -5.3910    1.0000 </r>
       <r>   -5.2487    1.0000 </r>
       <r>   -5.1648    1.0000 </r>
       <r>   -5.0197    1.0000 </r>
       <r>   -4.7963    1.0000 </r>
       <r>   -4.7128    1.0000 </r>
       <r>   -4.5558    1.0000 </r>
       <r>   -4.4170    1.0000 </r>
       <r>   -4.2394    1.0000 </r>
       <r>   -4.1888    1.0000 </r>
       <r>   -4.0238    1.0000 </r>
       <r>   -3.9430    1.0000 </r>
       <r>   -3.6863    1.0000 </r>
       <r>   -3.0322    1.0000 </r>
       <r>   -1.0933    0.0000 </r>
       <r>    1.4876    0.0000 </r>
       <r>    3.6249    0.0000 </r>
       <r>    4.5675    0.0000 </r>
       <r>    5.4229    0.0000 </r>
      </set>
      <set comment="kpoint 28">
       <r>   -8.5088    1.0000 </r>
       <r>   -7.3957    1.0000 </r>
       <r>   -7.0307    1.0000 </r>
       <r>   -6.5628    1.0000 </r>
       <r>   -6.5199    1.0000 </r>
       <r>   -6.1895    1.0000 </r>
       <r>   -5.7871    1.0000 </r>
       <r>   -5.4676    1.0000 </r>
       <r>   -5.3524    1.0000 </r>
       <r>   -5.3474    1.0000 </r>
       <r>   -5.1018    1.0000 </r>
       <r>   -5.0329    1.0000 </r>
       <r>   -4.6751    1.0000 </r>
       <r>   -4.5293    1.0000 </r>
       <r>   -4.3988    1.0000 </r>
       <r>   -4.3756    1.0000 </r>
       <r>   -4.1530    1.0000 </r>
       <r>   -4.0921    1.0000 </r>
       <r>   -4.0310    1.0000 </r>
       <r>   -4.0101    1.0000 </r>
       <r>   -3.8662    1.0000 </r>
       <r>   -3.5719    1.0000 </r>
       <r>   -2.8455    1.0000 </r>
       <r>   -0.9071    0.0000 </r>
       <r>    1.0313    0.0000 </r>
       <r>    2.6173    0.0000 </r>
       <r>    3.5236    0.0000 </r>
       <r>    4.9934    0.0000 </r>
      </set>
      <set comment="kpoint 29">
       <r>   -7.7969    1.0000 </r>
       <r>   -6.6706    1.0000 </r>
       <r>   -6.6275    1.0000 </r>
       <r>   -6.3523    1.0000 </r>
       <r>   -6.2722    1.0000 </r>
       <r>   -6.0336    1.0000 </r>
       <r>   -5.9574    1.0000 </r>
       <r>   -5.9132    1.0000 </r>
       <r>   -5.5273    1.0000 </r>
       <r>   -5.4677    1.0000 </r>
       <r>   -5.2652    1.0000 </r>
       <r>   -5.1292    1.0000 </r>
       <r>   -4.9960    1.0000 </r>
       <r>   -4.7531    1.0000 </r>
       <r>   -4.6334    1.0000 </r>
       <r>   -4.5233    1.0000 </r>
       <r>   -4.3226    1.0000 </r>
       <r>   -4.1451    1.0000 </r>
       <r>   -4.1006    1.0000 </r>
       <r>   -3.9977    1.0000 </r>
       <r>   -1.9172    0.0000 </r>
       <r>   -0.8245    0.0000 </r>
       <r>   -0.4574    0.0000 </r>
       <r>    0.1090    0.0000 </r>
       <r>    0.7749    0.0000 </r>
       <r>    2.4311    0.0000 </r>
       <r>    3.7611    0.0000 </r>
       <r>    5.0335    0.0000 </r>
      </set>
      <set comment="kpoint 30">
       <r>   -8.1919    1.0000 </r>
       <r>   -7.0337    1.0000 </r>
       <r>   -6.9021    1.0000 </r>
       <r>   -6.5272    1.0000 </r>
       <r>   -6.4587    1.0000 </r>
       <r>   -6.1784    1.0000 </r>
       <r>   -5.8222    1.0000 </r>
       <r>   -5.6016    1.0000 </r>
       <r>   -5.4226    1.0000 </r>
       <r>   -5.2908    1.0000 </r>
       <r>   -5.2436    1.0000 </r>
       <r>   -4.9393    1.0000 </r>
       <r>   -4.7606    1.0000 </r>
       <r>   -4.6484    1.0000 </r>
       <r>   -4.4488    1.0000 </r>
       <r>   -4.3055    1.0000 </r>
       <r>   -4.1745    1.0000 </r>
       <r>   -4.1135    1.0000 </r>
       <r>   -4.0520    1.0000 </r>
       <r>   -3.9135    1.0000 </r>
       <r>   -2.8827    1.0000 </r>
       <r>   -2.4365    0.7796 </r>
       <r>   -1.6735    0.0000 </r>
       <r>   -0.5262    0.0000 </r>
       <r>    0.3021    0.0000 </r>
       <r>    2.1975    0.0000 </r>
       <r>    3.3504    0.0000 </r>
       <r>    4.9038    0.0000 </r>
      </set>
      <set comment="kpoint 31">
       <r>   -8.2929    1.0000 </r>
       <r>   -7.1041    1.0000 </r>
       <r>   -7.0069    1.0000 </r>
       <r>   -6.6209    1.0000 </r>
       <r>   -6.5467    1.0000 </r>
       <r>   -6.2552    1.0000 </r>
       <r>   -5.7925    1.0000 </r>
       <r>   -5.4482    1.0000 </r>
       <r>   -5.3799    1.0000 </r>
       <r>   -5.3161    1.0000 </r>
       <r>   -5.0539    1.0000 </r>
       <r>   -4.9777    1.0000 </r>
       <r>   -4.5144    1.0000 </r>
       <r>   -4.4822    1.0000 </r>
       <r>   -4.2632    1.0000 </r>
       <r>   -4.1438    1.0000 </r>
       <r>   -4.0895    1.0000 </r>
       <r>   -3.9968    1.0000 </r>
       <r>   -3.9371    1.0000 </r>
       <r>   -3.7510    1.0000 </r>
       <r>   -2.7226    1.0000 </r>
       <r>   -2.3770    0.4714 </r>
       <r>   -1.7484    0.0000 </r>
       <r>   -1.2117    0.0000 </r>
       <r>   -0.8330    0.0000 </r>
       <r>    1.8961    0.0000 </r>
       <r>    3.0323    0.0000 </r>
       <r>    4.5109    0.0000 </r>
      </set>
     </set>
    </set>
   </array>
  </eigenvalues>
  <separator name="orbital magnetization" >
   <v name="MAGDIPOLOUT">      0.00000000      0.00000000      0.00000000</v>
  </separator>
  <dos>
   <i name="efermi">     -2.38203884 </i>
   <total>
    <array>
     <dimension dim="1">gridpoints</dimension>
     <dimension dim="2">spin</dimension>
     <field>energy</field>
     <field>total</field>
     <field>integrated</field>
     <set>
      <set comment="spin 1">
       <r>   -17.0000     0.0000     0.0000 </r>
       <r>   -16.9900     0.0000     0.0000 </r>
       <r>   -16.9800     0.0000     0.0000 </r>
       <r>   -16.9700     0.0000     0.0000 </r>
       <r>   -16.9600     0.0000     0.0000 </r>
       <r>   -16.9500     0.0000     0.0000 </r>
       <r>   -16.9400     0.0000     0.0000 </r>
       <r>   -16.9300     0.0000     0.0000 </r>
       <r>   -16.9200     0.0000     0.0000 </r>
       <r>   -16.9100     0.0000     0.0000 </r>
       <r>   -16.9000     0.0000     0.0000 </r>
       <r>   -16.8900     0.0000     0.0000 </r>
       <r>   -16.8800     0.0000     0.0000 </r>
       <r>   -16.8700     0.0000     0.0000 </r>
       <r>   -16.8600     0.0000     0.0000 </r>
       <r>   -16.8500     0.0000     0.0000 </r>
       <r>   -16.8400     0.0000     0.0000 </r>
       <r>   -16.8300     0.0000     0.0000 </r>
       <r>   -16.8200     0.0000     0.0000 </r>
       <r>   -16.8100     0.0000     0.0000 </r>
       <r>   -16.8000     0.0000     0.0000 </r>
       <r>   -16.7900     0.0000     0.0000 </r>
       <r>   -16.7800     0.0000     0.0000 </r>
       <r>   -16.7700     0.0000     0.0000 </r>
       <r>   -16.7600     0.0000     0.0000 </r>
       <r>   -16.7500     0.0000     0.0000 </r>
       <r>   -16.7400     0.0000     0.0000 </r>
       <r>   -16.7300     0.0000     0.0000 </r>
       <r>   -16.7200     0.0000     0.0000 </r>
       <r>   -16.7100     0.0000     0.0000 </r>
       <r>   -16.7000     0.0000     0.0000 </r>
       <r>   -16.6900     0.0000     0.0000 </r>
       <r>   -16.6800     0.0000     0.0000 </r>
       <r>   -16.6700     0.0000     0.0000 </r>
       <r>   -16.6600     0.0000     0.0000 </r>
       <r>   -16.6500     0.0000     0.0000 </r>
       <r>   -16.6400     0.0000     0.0000 </r>
       <r>   -16.6300     0.0000     0.0000 </r>
       <r>   -16.6200     0.0000     0.0000 </r>
       <r>   -16.6100     0.0000     0.0000 </r>
       <r>   -16.6000     0.0000     0.0000 </r>
       <r>   -16.5900     0.0000     0.0000 </r>
       <r>   -16.5800     0.0000     0.0000 </r>
       <r>   -16.5700     0.0000     0.0000 </r>
       <r>   -16.5600     0.0000     0.0000 </r>
       <r>   -16.5500     0.0000     0.0000 </r>
       <r>   -16.5400     0.0000     0.0000 </r>
       <r>   -16.5300     0.0000     0.0000 </r>
       <r>   -16.5200     0.0000     0.0000 </r>
       <r>   -16.5100     0.0000     0.0000 </r>
       <r>   -16.5000     0.0000     0.0000 </r>
       <r>   -16.4900     0.0000     0.0000 </r>
       <r>   -16.4800     0.0000     0.0000 </r>
       <r>   -16.4700     0.0000     0.0000 </r>
       <r>   -16.4600     0.0000     0.0000 </r>
       <r>   -16.4500     0.0000     0.0000 </r>
       <r>   -16.4400     0.0000     0.0000 </r>
       <r>   -16.4300     0.0000     0.0000 </r>
       <r>   -16.4200     0.0000     0.0000 </r>
       <r>   -16.4100     0.0000     0.0000 </r>
       <r>   -16.4000     0.0000     0.0000 </r>
       <r>   -16.3900     0.0000     0.0000 </r>
       <r>   -16.3800     0.0000     0.0000 </r>
       <r>   -16.3700     0.0000     0.0000 </r>
       <r>   -16.3600     0.0000     0.0000 </r>
       <r>   -16.3500     0.0000     0.0000 </r>
       <r>   -16.3400     0.0000     0.0000 </r>
       <r>   -16.3300     0.0000     0.0000 </r>
       <r>   -16.3200     0.0000     0.0000 </r>
       <r>   -16.3100     0.0000     0.0000 </r>
       <r>   -16.3000     0.0000     0.0000 </r>
       <r>   -16.2900     0.0000     0.0000 </r>
       <r>   -16.2800     0.0000     0.0000 </r>
       <r>   -16.2700     0.0000     0.0000 </r>
       <r>   -16.2600     0.0000     0.0000 </r>
       <r>   -16.2500     0.0000     0.0000 </r>
       <r>   -16.2400     0.0000     0.0000 </r>
       <r>   -16.2300     0.0000     0.0000 </r>
       <r>   -16.2200     0.0000     0.0000 </r>
       <r>   -16.2100     0.0000     0.0000 </r>
       <r>   -16.2000     0.0000     0.0000 </r>
       <r>   -16.1900     0.0000     0.0000 </r>
       <r>   -16.1800     0.0000     0.0000 </r>
       <r>   -16.1700     0.0000     0.0000 </r>
       <r>   -16.1600     0.0000     0.0000 </r>
       <r>   -16.1500     0.0000     0.0000 </r>
       <r>   -16.1400     0.0000     0.0000 </r>
       <r>   -16.1300     0.0000     0.0000 </r>
       <r>   -16.1200     0.0000     0.0000 </r>
       <r>   -16.1100     0.0000     0.0000 </r>
       <r>   -16.1000     0.0000     0.0000 </r>
       <r>   -16.0900     0.0000     0.0000 </r>
       <r>   -16.0800     0.0000     0.0000 </r>
       <r>   -16.0700     0.0000     0.0000 </r>
       <r>   -16.0600     0.0000     0.0000 </r>
       <r>   -16.0500     0.0000     0.0000 </r>
       <r>   -16.0400     0.0000     0.0000 </r>
       <r>   -16.0300     0.0000     0.0000 </r>
       <r>   -16.0200     0.0000     0.0000 </r>
       <r>   -16.0100     0.0000     0.0000 </r>
       <r>   -16.0000     0.0000     0.0000 </r>
       <r>   -15.9900     0.0000     0.0000 </r>
       <r>   -15.9800     0.0000     0.0000 </r>
       <r>   -15.9700     0.0000     0.0000 </r>
       <r>   -15.9600     0.0000     0.0000 </r>
       <r>   -15.9500     0.0000     0.0000 </r>
       <r>   -15.9400     0.0000     0.0000 </r>
       <r>   -15.9300     0.0000     0.0000 </r>
       <r>   -15.9200     0.0000     0.0000 </r>
       <r>   -15.9100     0.0000     0.0000 </r>
       <r>   -15.9000     0.0000     0.0000 </r>
       <r>   -15.8900     0.0000     0.0000 </r>
       <r>   -15.8800     0.0000     0.0000 </r>
       <r>   -15.8700     0.0000     0.0000 </r>
       <r>   -15.8600     0.0000     0.0000 </r>
       <r>   -15.8500     0.0000     0.0000 </r>
       <r>   -15.8400     0.0000     0.0000 </r>
       <r>   -15.8300     0.0000     0.0000 </r>
       <r>   -15.8200     0.0000     0.0000 </r>
       <r>   -15.8100     0.0000     0.0000 </r>
       <r>   -15.8000     0.0000     0.0000 </r>
       <r>   -15.7900     0.0000     0.0000 </r>
       <r>   -15.7800     0.0000     0.0000 </r>
       <r>   -15.7700     0.0000     0.0000 </r>
       <r>   -15.7600     0.0000     0.0000 </r>
       <r>   -15.7500     0.0000     0.0000 </r>
       <r>   -15.7400     0.0000     0.0000 </r>
       <r>   -15.7300     0.0000     0.0000 </r>
       <r>   -15.7200     0.0000     0.0000 </r>
       <r>   -15.7100     0.0000     0.0000 </r>
       <r>   -15.7000     0.0000     0.0000 </r>
       <r>   -15.6900     0.0000     0.0000 </r>
       <r>   -15.6800     0.0000     0.0000 </r>
       <r>   -15.6700     0.0000     0.0000 </r>
       <r>   -15.6600     0.0000     0.0000 </r>
       <r>   -15.6500     0.0000     0.0000 </r>
       <r>   -15.6400     0.0000     0.0000 </r>
       <r>   -15.6300     0.0000     0.0000 </r>
       <r>   -15.6200     0.0000     0.0000 </r>
       <r>   -15.6100     0.0000     0.0000 </r>
       <r>   -15.6000     0.0000     0.0000 </r>
       <r>   -15.5900     0.0000     0.0000 </r>
       <r>   -15.5800     0.0000     0.0000 </r>
       <r>   -15.5700     0.0000     0.0000 </r>
       <r>   -15.5600     0.0000     0.0000 </r>
       <r>   -15.5500     0.0000     0.0000 </r>
       <r>   -15.5400     0.0000     0.0000 </r>
       <r>   -15.5300     0.0000     0.0000 </r>
       <r>   -15.5200     0.0000     0.0000 </r>
       <r>   -15.5100     0.0000     0.0000 </r>
       <r>   -15.5000     0.0000     0.0000 </r>
       <r>   -15.4900     0.0000     0.0000 </r>
       <r>   -15.4800     0.0000     0.0000 </r>
       <r>   -15.4700     0.0000     0.0000 </r>
       <r>   -15.4600     0.0000     0.0000 </r>
       <r>   -15.4500     0.0000     0.0000 </r>
       <r>   -15.4400     0.0000     0.0000 </r>
       <r>   -15.4300     0.0000     0.0000 </r>
       <r>   -15.4200     0.0000     0.0000 </r>
       <r>   -15.4100     0.0000     0.0000 </r>
       <r>   -15.4000     0.0000     0.0000 </r>
       <r>   -15.3900     0.0000     0.0000 </r>
       <r>   -15.3800     0.0000     0.0000 </r>
       <r>   -15.3700     0.0000     0.0000 </r>
       <r>   -15.3600     0.0000     0.0000 </r>
       <r>   -15.3500     0.0000     0.0000 </r>
       <r>   -15.3400     0.0000     0.0000 </r>
       <r>   -15.3300     0.0000     0.0000 </r>
       <r>   -15.3200     0.0000     0.0000 </r>
       <r>   -15.3100     0.0000     0.0000 </r>
       <r>   -15.3000     0.0000     0.0000 </r>
       <r>   -15.2900     0.0000     0.0000 </r>
       <r>   -15.2800     0.0000     0.0000 </r>
       <r>   -15.2700     0.0000     0.0000 </r>
       <r>   -15.2600     0.0000     0.0000 </r>
       <r>   -15.2500     0.0000     0.0000 </r>
       <r>   -15.2400     0.0000     0.0000 </r>
       <r>   -15.2300     0.0000     0.0000 </r>
       <r>   -15.2200     0.0000     0.0000 </r>
       <r>   -15.2100     0.0000     0.0000 </r>
       <r>   -15.2000     0.0000     0.0000 </r>
       <r>   -15.1900     0.0000     0.0000 </r>
       <r>   -15.1800     0.0000     0.0000 </r>
       <r>   -15.1700     0.0000     0.0000 </r>
       <r>   -15.1600     0.0000     0.0000 </r>
       <r>   -15.1500     0.0000     0.0000 </r>
       <r>   -15.1400     0.0000     0.0000 </r>
       <r>   -15.1300     0.0000     0.0000 </r>
       <r>   -15.1200     0.0000     0.0000 </r>
       <r>   -15.1100     0.0000     0.0000 </r>
       <r>   -15.1000     0.0000     0.0000 </r>
       <r>   -15.0900     0.0000     0.0000 </r>
       <r>   -15.0800     0.0000     0.0000 </r>
       <r>   -15.0700     0.0000     0.0000 </r>
       <r>   -15.0600     0.0000     0.0000 </r>
       <r>   -15.0500     0.0000     0.0000 </r>
       <r>   -15.0400     0.0000     0.0000 </r>
       <r>   -15.0300     0.0000     0.0000 </r>
       <r>   -15.0200     0.0000     0.0000 </r>
       <r>   -15.0100     0.0000     0.0000 </r>
       <r>   -15.0000     0.0000     0.0000 </r>
       <r>   -14.9900     0.0000     0.0000 </r>
       <r>   -14.9800     0.0000     0.0000 </r>
       <r>   -14.9700     0.0000     0.0000 </r>
       <r>   -14.9600     0.0000     0.0000 </r>
       <r>   -14.9500     0.0000     0.0000 </r>
       <r>   -14.9400     0.0000     0.0000 </r>
       <r>   -14.9300     0.0000     0.0000 </r>
       <r>   -14.9200     0.0000     0.0000 </r>
       <r>   -14.9100     0.0000     0.0000 </r>
       <r>   -14.9000     0.0000     0.0000 </r>
       <r>   -14.8900     0.0000     0.0000 </r>
       <r>   -14.8800     0.0000     0.0000 </r>
       <r>   -14.8700     0.0000     0.0000 </r>
       <r>   -14.8600     0.0000     0.0000 </r>
       <r>   -14.8500     0.0000     0.0000 </r>
       <r>   -14.8400     0.0000     0.0000 </r>
       <r>   -14.8300     0.0000     0.0000 </r>
       <r>   -14.8200     0.0000     0.0000 </r>
       <r>   -14.8100     0.0000     0.0000 </r>
       <r>   -14.8000     0.0000     0.0000 </r>
       <r>   -14.7900     0.0000     0.0000 </r>
       <r>   -14.7800     0.0000     0.0000 </r>
       <r>   -14.7700     0.0000     0.0000 </r>
       <r>   -14.7600     0.0000     0.0000 </r>
       <r>   -14.7500     0.0000     0.0000 </r>
       <r>   -14.7400     0.0000     0.0000 </r>
       <r>   -14.7300     0.0000     0.0000 </r>
       <r>   -14.7200     0.0000     0.0000 </r>
       <r>   -14.7100     0.0000     0.0000 </r>
       <r>   -14.7000     0.0000     0.0000 </r>
       <r>   -14.6900     0.0000     0.0000 </r>
       <r>   -14.6800     0.0000     0.0000 </r>
       <r>   -14.6700     0.0000     0.0000 </r>
       <r>   -14.6600     0.0000     0.0000 </r>
       <r>   -14.6500     0.0000     0.0000 </r>
       <r>   -14.6400     0.0000     0.0000 </r>
       <r>   -14.6300     0.0000     0.0000 </r>
       <r>   -14.6200     0.0000     0.0000 </r>
       <r>   -14.6100     0.0000     0.0000 </r>
       <r>   -14.6000     0.0000     0.0000 </r>
       <r>   -14.5900     0.0000     0.0000 </r>
       <r>   -14.5800     0.0000     0.0000 </r>
       <r>   -14.5700     0.0000     0.0000 </r>
       <r>   -14.5600     0.0000     0.0000 </r>
       <r>   -14.5500     0.0000     0.0000 </r>
       <r>   -14.5400     0.0000     0.0000 </r>
       <r>   -14.5300     0.0000     0.0000 </r>
       <r>   -14.5200     0.0000     0.0000 </r>
       <r>   -14.5100     0.0000     0.0000 </r>
       <r>   -14.5000     0.0000     0.0000 </r>
       <r>   -14.4900     0.0000     0.0000 </r>
       <r>   -14.4800     0.0000     0.0000 </r>
       <r>   -14.4700     0.0000     0.0000 </r>
       <r>   -14.4600     0.0000     0.0000 </r>
       <r>   -14.4500     0.0000     0.0000 </r>
       <r>   -14.4400     0.0000     0.0000 </r>
       <r>   -14.4300     0.0000     0.0000 </r>
       <r>   -14.4200     0.0000     0.0000 </r>
       <r>   -14.4100     0.0000     0.0000 </r>
       <r>   -14.4000     0.0000     0.0000 </r>
       <r>   -14.3900     0.0000     0.0000 </r>
       <r>   -14.3800     0.0000     0.0000 </r>
       <r>   -14.3700     0.0000     0.0000 </r>
       <r>   -14.3600     0.0000     0.0000 </r>
       <r>   -14.3500     0.0000     0.0000 </r>
       <r>   -14.3400     0.0000     0.0000 </r>
       <r>   -14.3300     0.0000     0.0000 </r>
       <r>   -14.3200     0.0000     0.0000 </r>
       <r>   -14.3100     0.0000     0.0000 </r>
       <r>   -14.3000     0.0000     0.0000 </r>
       <r>   -14.2900     0.0000     0.0000 </r>
       <r>   -14.2800     0.0000     0.0000 </r>
       <r>   -14.2700     0.0000     0.0000 </r>
       <r>   -14.2600     0.0000     0.0000 </r>
       <r>   -14.2500     0.0000     0.0000 </r>
       <r>   -14.2400     0.0000     0.0000 </r>
       <r>   -14.2300     0.0000     0.0000 </r>
       <r>   -14.2200     0.0000     0.0000 </r>
       <r>   -14.2100     0.0000     0.0000 </r>
       <r>   -14.2000     0.0000     0.0000 </r>
       <r>   -14.1900     0.0000     0.0000 </r>
       <r>   -14.1800     0.0000     0.0000 </r>
       <r>   -14.1700     0.0000     0.0000 </r>
       <r>   -14.1600     0.0000     0.0000 </r>
       <r>   -14.1500     0.0000     0.0000 </r>
       <r>   -14.1400     0.0000     0.0000 </r>
       <r>   -14.1300     0.0000     0.0000 </r>
       <r>   -14.1200     0.0000     0.0000 </r>
       <r>   -14.1100     0.0000     0.0000 </r>
       <r>   -14.1000     0.0000     0.0000 </r>
       <r>   -14.0900     0.0000     0.0000 </r>
       <r>   -14.0800     0.0000     0.0000 </r>
       <r>   -14.0700     0.0000     0.0000 </r>
       <r>   -14.0600     0.0000     0.0000 </r>
       <r>   -14.0500     0.0000     0.0000 </r>
       <r>   -14.0400     0.0000     0.0000 </r>
       <r>   -14.0300     0.0000     0.0000 </r>
       <r>   -14.0200     0.0000     0.0000 </r>
       <r>   -14.0100     0.0000     0.0000 </r>
       <r>   -14.0000     0.0000     0.0000 </r>
       <r>   -13.9900     0.0000     0.0000 </r>
       <r>   -13.9800     0.0000     0.0000 </r>
       <r>   -13.9700     0.0000     0.0000 </r>
       <r>   -13.9600     0.0000     0.0000 </r>
       <r>   -13.9500     0.0000     0.0000 </r>
       <r>   -13.9400     0.0000     0.0000 </r>
       <r>   -13.9300     0.0000     0.0000 </r>
       <r>   -13.9200     0.0000     0.0000 </r>
       <r>   -13.9100     0.0000     0.0000 </r>
       <r>   -13.9000     0.0000     0.0000 </r>
       <r>   -13.8900     0.0000     0.0000 </r>
       <r>   -13.8800     0.0000     0.0000 </r>
       <r>   -13.8700     0.0000     0.0000 </r>
       <r>   -13.8600     0.0000     0.0000 </r>
       <r>   -13.8500     0.0000     0.0000 </r>
       <r>   -13.8400     0.0000     0.0000 </r>
       <r>   -13.8300     0.0000     0.0000 </r>
       <r>   -13.8200     0.0000     0.0000 </r>
[...]
        <r>  0.0002  0.0003  0.0006  0.0002  0.0114  0.0005  0.0987  0.0327  0.0139 </r>
        <r>  0.0001  0.0011  0.0008  0.0001  0.0457  0.0092  0.0043  0.0024  0.0020 </r>
        <r>  0.0009  0.0000  0.0000  0.0000  0.0000  0.0000  0.0000  0.0000  0.0000 </r>
       </set>
       <set comment="band 19">
        <r>  0.0012  0.0029  0.0008  0.0000  0.1133  0.0064  0.1995  0.0215  0.0240 </r>
        <r>  0.0001  0.0002  0.0001  0.0001  0.0737  0.0845  0.0405  0.0017  0.0118 </r>
        <r>  0.0003  0.0005  0.0005  0.0000  0.2181  0.0065  0.0924  0.0072  0.0141 </r>
        <r>  0.0001  0.0012  0.0001  0.0000  0.0410  0.0091  0.0013  0.0047  0.0015 </r>
        <r>  0.0001  0.0000  0.0000  0.0000  0.0000  0.0000  0.0000  0.0000  0.0000 </r>
       </set>
       <set comment="band 20">
        <r>  0.0016  0.0033  0.0003  0.0000  0.4441  0.0141  0.0512  0.0073  0.0081 </r>
        <r>  0.0000  0.0002  0.0004  0.0000  0.1209  0.0078  0.1455  0.0142  0.0334 </r>
        <r>  0.0000  0.0004  0.0001  0.0000  0.0785  0.0145  0.0096  0.0144  0.0062 </r>
        <r>  0.0000  0.0000  0.0003  0.0000  0.0022  0.0001  0.0027  0.0035  0.0007 </r>
        <r>  0.0002  0.0000  0.0000  0.0000  0.0000  0.0000  0.0000  0.0000  0.0000 </r>
       </set>
       <set comment="band 21">
        <r>  0.0013  0.0039  0.0006  0.0000  0.0094  0.0038  0.0086  0.0004  0.0033 </r>
        <r>  0.0032  0.0118  0.0012  0.0001  0.0182  0.0044  0.0077  0.0001  0.0044 </r>
        <r>  0.0071  0.0214  0.0044  0.0001  0.0323  0.0033  0.0215  0.0034  0.0150 </r>
        <r>  0.0608  0.0730  0.0106  0.0018  0.0816  0.0004  0.0589  0.0199  0.2246 </r>
        <r>  0.0718  0.0013  0.0000  0.0001  0.0000  0.0000  0.0000  0.0000  0.0000 </r>
       </set>
       <set comment="band 22">
        <r>  0.0142  0.0317  0.0040  0.0003  0.0350  0.0108  0.0323  0.0015  0.0234 </r>
        <r>  0.0332  0.0782  0.0018  0.0008  0.0619  0.0004  0.0288  0.0007  0.0422 </r>
        <r>  0.0249  0.0521  0.0025  0.0007  0.0429  0.0074  0.0382  0.0001  0.0348 </r>
        <r>  0.0126  0.0009  0.0179  0.0006  0.0008  0.0104  0.0135  0.0113  0.0595 </r>
        <r>  0.0412  0.0000  0.0000  0.0001  0.0000  0.0000  0.0000  0.0000  0.0000 </r>
       </set>
       <set comment="band 23">
        <r>  0.0323  0.0976  0.0010  0.0010  0.0440  0.0044  0.0047  0.0008  0.0235 </r>
        <r>  0.0158  0.0191  0.0213  0.0004  0.0074  0.0237  0.0187  0.0047  0.0174 </r>
        <r>  0.0218  0.0809  0.0069  0.0008  0.0307  0.0065  0.0059  0.0027  0.0138 </r>
        <r>  0.0006  0.0296  0.0339  0.0001  0.0082  0.0116  0.0012  0.0143  0.0196 </r>
        <r>  0.0501  0.0005  0.0000  0.0001  0.0000  0.0000  0.0000  0.0000  0.0000 </r>
       </set>
       <set comment="band 24">
        <r>  0.0123  0.0979  0.0061  0.0005  0.0186  0.0007  0.0076  0.0010  0.0051 </r>
        <r>  0.0045  0.0441  0.0168  0.0001  0.0072  0.0112  0.0097  0.0026  0.0035 </r>
        <r>  0.0105  0.0133  0.0274  0.0001  0.0020  0.0145  0.0109  0.0038  0.0088 </r>
        <r>  0.0060  0.1489  0.0086  0.0003  0.0215  0.0006  0.0171  0.0038  0.0378 </r>
        <r>  0.0363  0.0030  0.0000  0.0000  0.0000  0.0000  0.0000  0.0000  0.0000 </r>
       </set>
       <set comment="band 25">
        <r>  0.0127  0.0547  0.0131  0.0003  0.0066  0.0023  0.0128  0.0014  0.0116 </r>
        <r>  0.0139  0.1108  0.0144  0.0002  0.0118  0.0008  0.0300  0.0018  0.0222 </r>
        <r>  0.0148  0.0975  0.0187  0.0003  0.0102  0.0015  0.0292  0.0020  0.0227 </r>
        <r>  0.0176  0.0593  0.0102  0.0005  0.0059  0.0013  0.0138  0.0008  0.0225 </r>
        <r>  0.0041  0.0015  0.0000  0.0000  0.0000  0.0000  0.0000  0.0000  0.0000 </r>
       </set>
       <set comment="band 26">
        <r>  0.0826  0.0272  0.0100  0.0021  0.0016  0.0109  0.0089  0.0004  0.0389 </r>
        <r>  0.1410  0.0046  0.0008  0.0045  0.0002  0.0346  0.0061  0.0000  0.0632 </r>
        <r>  0.0972  0.0072  0.0040  0.0032  0.0004  0.0422  0.0051  0.0001  0.0461 </r>
        <r>  0.0249  0.0160  0.0195  0.0005  0.0009  0.0061  0.0030  0.0010  0.0099 </r>
        <r>  0.0028  0.0008  0.0002  0.0000  0.0000  0.0000  0.0000  0.0000  0.0000 </r>
       </set>
       <set comment="band 27">
        <r>  0.1750  0.0198  0.0349  0.0051  0.0008  0.0136  0.0056  0.0009  0.0664 </r>
        <r>  0.0051  0.0157  0.0288  0.0003  0.0008  0.0074  0.0006  0.0008  0.0007 </r>
        <r>  0.0774  0.0102  0.0014  0.0032  0.0005  0.0159  0.0013  0.0000  0.0309 </r>
        <r>  0.0163  0.0164  0.0109  0.0004  0.0008  0.0171  0.0007  0.0006  0.0057 </r>
        <r>  0.0029  0.0015  0.0002  0.0000  0.0000  0.0000  0.0000  0.0000  0.0000 </r>
       </set>
       <set comment="band 28">
        <r>  0.0245  0.0315  0.0667  0.0005  0.0011  0.0276  0.0013  0.0016  0.0097 </r>
        <r>  0.0517  0.0081  0.0150  0.0034  0.0003  0.0496  0.0003  0.0004  0.0212 </r>
        <r>  0.0003  0.0277  0.0532  0.0002  0.0010  0.0159  0.0013  0.0012  0.0007 </r>
        <r>  0.0485  0.0054  0.0229  0.0017  0.0002  0.0227  0.0000  0.0011  0.0137 </r>
        <r>  0.0041  0.0019  0.0009  0.0000  0.0000  0.0000  0.0000  0.0000  0.0000 </r>
       </set>
      </set>
      <set comment="kpoint 31">
       <set comment="band 1">
        <r>  0.0000  0.0000  0.0000  0.0000  0.0000  0.0000  0.0000  0.0000  0.0000 </r>
        <r>  0.0004  0.0001  0.0001  0.0000  0.0000  0.0003  0.0001  0.0000  0.0008 </r>
        <r>  0.0035  0.0025  0.0011  0.0000  0.0000  0.0175  0.0072  0.0000  0.0011 </r>
        <r>  0.1164  0.0000  0.0053  0.0000  0.0000  0.0002  0.0003  0.0000  0.5265 </r>
        <r>  0.1405  0.0000  0.0029  0.0000  0.0000  0.0000  0.0000  0.0000  0.0000 </r>
       </set>
       <set comment="band 2">
        <r>  0.0112  0.0017  0.0023  0.0000  0.0000  0.0148  0.0068  0.0000  0.0292 </r>
        <r>  0.0421  0.0017  0.0003  0.0000  0.0000  0.1005  0.0189  0.0000  0.1556 </r>
        <r>  0.0619  0.0024  0.0010  0.0000  0.0000  0.0072  0.0144  0.0000  0.2740 </r>
        <r>  0.0001  0.0039  0.0017  0.0000  0.0000  0.0692  0.0132  0.0000  0.0086 </r>
        <r>  0.0011  0.0000  0.0000  0.0000  0.0000  0.0000  0.0000  0.0000  0.0000 </r>
       </set>
       <set comment="band 3">
        <r>  0.0000  0.0065  0.0001  0.0000  0.0000  0.0685  0.0027  0.0000  0.0026 </r>
        <r>  0.0453  0.0014  0.0000  0.0000  0.0000  0.1100  0.0008  0.0000  0.2842 </r>
        <r>  0.0102  0.0046  0.0006  0.0000  0.0000  0.1729  0.0000  0.0000  0.0725 </r>
        <r>  0.0001  0.0024  0.0002  0.0000  0.0000  0.0538  0.0002  0.0000  0.0022 </r>
        <r>  0.0007  0.0000  0.0000  0.0000  0.0000  0.0000  0.0000  0.0000  0.0000 </r>
       </set>
       <set comment="band 4">
        <r>  0.0079  0.0007  0.0022  0.0000  0.0000  0.0099  0.0173  0.0000  0.0089 </r>
        <r>  0.0005  0.0005  0.0020  0.0000  0.0000  0.1354  0.0711  0.0000  0.1400 </r>
        <r>  0.0022  0.0000  0.0011  0.0000  0.0000  0.1310  0.0826  0.0000  0.2230 </r>
        <r>  0.0028  0.0003  0.0019  0.0000  0.0000  0.0126  0.0482  0.0000  0.0052 </r>
        <r>  0.0000  0.0000  0.0000  0.0000  0.0000  0.0000  0.0000  0.0000  0.0000 </r>
       </set>
       <set comment="band 5">
        <r>  0.0446  0.0003  0.0014  0.0000  0.0000  0.0074  0.0036  0.0000  0.4537 </r>
        <r>  0.0003  0.0126  0.0006  0.0000  0.0000  0.0690  0.0318  0.0000  0.0215 </r>
        <r>  0.0050  0.0013  0.0014  0.0000  0.0000  0.0427  0.0088  0.0000  0.0125 </r>
        <r>  0.0001  0.0023  0.0001  0.0000  0.0000  0.1389  0.0017  0.0000  0.0004 </r>
        <r>  0.0000  0.0002  0.0000  0.0000  0.0000  0.0000  0.0000  0.0000  0.0000 </r>
       </set>
       <set comment="band 6">
        <r>  0.0024  0.0048  0.0009  0.0000  0.0000  0.1291  0.0462  0.0000  0.1636 </r>
        <r>  0.0018  0.0004  0.0042  0.0000  0.0000  0.1307  0.0576  0.0000  0.0155 </r>
        <r>  0.0005  0.0113  0.0042  0.0000  0.0000  0.0379  0.0040  0.0000  0.0210 </r>
        <r>  0.0015  0.0008  0.0010  0.0000  0.0000  0.2148  0.0372  0.0000  0.0043 </r>
        <r>  0.0000  0.0003  0.0000  0.0000  0.0000  0.0000  0.0000  0.0000  0.0000 </r>
       </set>
       <set comment="band 7">
        <r>  0.0002  0.0020  0.0000  0.0000  0.0000  0.2253  0.0000  0.0000  0.0025 </r>
        <r>  0.0009  0.0119  0.0065  0.0000  0.0000  0.0044  0.0040  0.0000  0.0028 </r>
        <r>  0.0001  0.0007  0.0043  0.0000  0.0000  0.2180  0.0246  0.0000  0.0463 </r>
        <r>  0.0010  0.0008  0.0014  0.0000  0.0000  0.2804  0.0544  0.0000  0.0099 </r>
        <r>  0.0003  0.0007  0.0001  0.0000  0.0000  0.0000  0.0000  0.0000  0.0000 </r>
       </set>
       <set comment="band 8">
        <r>  0.0010  0.0001  0.0002  0.0000  0.0000  0.1739  0.0139  0.0000  0.0672 </r>
        <r>  0.0000  0.0064  0.0005  0.0000  0.0000  0.1283  0.1184  0.0000  0.1069 </r>
        <r>  0.0006  0.0025  0.0010  0.0000  0.0000  0.0348  0.1590  0.0000  0.0868 </r>
        <r>  0.0003  0.0000  0.0007  0.0000  0.0000  0.0003  0.0325  0.0000  0.0061 </r>
        <r>  0.0003  0.0000  0.0000  0.0000  0.0000  0.0000  0.0000  0.0000  0.0000 </r>
       </set>
       <set comment="band 9">
        <r>  0.0000  0.0000  0.0000  0.0002  0.0002  0.0000  0.0000  0.0189  0.0000 </r>
        <r>  0.0000  0.0000  0.0000  0.0002  0.0009  0.0000  0.0000  0.1371  0.0000 </r>
        <r>  0.0000  0.0000  0.0000  0.0001  0.0018  0.0000  0.0000  0.2944  0.0000 </r>
        <r>  0.0000  0.0000  0.0000  0.0001  0.0007  0.0000  0.0000  0.5108  0.0000 </r>
        <r>  0.0000  0.0000  0.0000  0.0019  0.0000  0.0000  0.0000  0.0000  0.0000 </r>
       </set>
       <set comment="band 10">
        <r>  0.0002  0.0001  0.0008  0.0000  0.0000  0.0318  0.0577  0.0000  0.0324 </r>
        <r>  0.0027  0.0097  0.0036  0.0000  0.0000  0.0116  0.1241  0.0000  0.0071 </r>
        <r>  0.0001  0.0262  0.0002  0.0000  0.0000  0.0442  0.0108  0.0000  0.0035 </r>
        <r>  0.0096  0.0001  0.0007  0.0000  0.0000  0.0016  0.5109  0.0000  0.0142 </r>
        <r>  0.0109  0.0000  0.0002  0.0000  0.0000  0.0000  0.0000  0.0000  0.0000 </r>
       </set>
       <set comment="band 11">
        <r>  0.0000  0.0000  0.0000  0.0006  0.0009  0.0000  0.0000  0.1584  0.0000 </r>
        <r>  0.0000  0.0000  0.0000  0.0000  0.0016  0.0000  0.0000  0.4475  0.0000 </r>
        <r>  0.0000  0.0000  0.0000  0.0015  0.0002  0.0000  0.0000  0.0342  0.0000 </r>
        <r>  0.0000  0.0000  0.0000  0.0001  0.0000  0.0000  0.0000  0.3251  0.0000 </r>
        <r>  0.0000  0.0000  0.0000  0.0012  0.0000  0.0000  0.0000  0.0000  0.0000 </r>
       </set>
       <set comment="band 12">
        <r>  0.0093  0.0006  0.0021  0.0000  0.0000  0.0506  0.2964  0.0000  0.0013 </r>
        <r>  0.0000  0.0379  0.0044  0.0000  0.0000  0.0082  0.0000  0.0000  0.0004 </r>
        <r>  0.0099  0.0001  0.0014  0.0000  0.0000  0.0095  0.3259  0.0000  0.0092 </r>
        <r>  0.0011  0.0093  0.0031  0.0000  0.0000  0.0629  0.0518  0.0000  0.0001 </r>
        <r>  0.0076  0.0004  0.0000  0.0000  0.0000  0.0000  0.0000  0.0000  0.0000 </r>
       </set>
       <set comment="band 13">
        <r>  0.0000  0.0000  0.0000  0.0001  0.0003  0.0000  0.0000  0.3805  0.0000 </r>
        <r>  0.0000  0.0000  0.0000  0.0021  0.0000  0.0000  0.0000  0.0117  0.0000 </r>
        <r>  0.0000  0.0000  0.0000  0.0001  0.0000  0.0000  0.0000  0.4558  0.0000 </r>
        <r>  0.0000  0.0000  0.0000  0.0006  0.0089  0.0000  0.0000  0.1188  0.0000 </r>
        <r>  0.0000  0.0000  0.0000  0.0005  0.0000  0.0000  0.0000  0.0000  0.0000 </r>
       </set>
       <set comment="band 14">
        <r>  0.0003  0.0142  0.0000  0.0000  0.0000  0.1484  0.0465  0.0000  0.0020 </r>
        <r>  0.0023  0.0006  0.0000  0.0000  0.0000  0.0460  0.3323  0.0000  0.0118 </r>
        <r>  0.0000  0.0146  0.0001  0.0000  0.0000  0.1311  0.0234  0.0000  0.0044 </r>
        <r>  0.0002  0.0092  0.0072  0.0000  0.0000  0.0259  0.0935  0.0000  0.0004 </r>
        <r>  0.0090  0.0003  0.0000  0.0000  0.0000  0.0000  0.0000  0.0000  0.0000 </r>
       </set>
       <set comment="band 15">
        <r>  0.0000  0.0000  0.0000  0.0000  0.0000  0.0000  0.0000  0.0111  0.0000 </r>
        <r>  0.0000  0.0000  0.0000  0.0000  0.0002  0.0000  0.0000  0.0027  0.0000 </r>
        <r>  0.0000  0.0000  0.0000  0.0000  0.0028  0.0000  0.0000  0.0022  0.0000 </r>
        <r>  0.0000  0.0000  0.0000  0.0000  0.9749  0.0000  0.0000  0.0000  0.0000 </r>
        <r>  0.0000  0.0000  0.0000  0.0000  0.0000  0.0000  0.0000  0.0000  0.0000 </r>
       </set>
       <set comment="band 16">
        <r>  0.0034  0.0017  0.0010  0.0000  0.0000  0.0063  0.3781  0.0000  0.0425 </r>
        <r>  0.0005  0.0033  0.0001  0.0000  0.0000  0.1037  0.0937  0.0000  0.0459 </r>
        <r>  0.0004  0.0002  0.0046  0.0000  0.0000  0.0016  0.1878  0.0000  0.0376 </r>
        <r>  0.0000  0.0134  0.0024  0.0000  0.0000  0.0165  0.0046  0.0000  0.0001 </r>
        <r>  0.0031  0.0003  0.0000  0.0000  0.0000  0.0000  0.0000  0.0000  0.0000 </r>
       </set>
       <set comment="band 17">
        <r>  0.0000  0.0000  0.0000  0.0003  0.0020  0.0000  0.0000  0.3533  0.0000 </r>
        <r>  0.0000  0.0000  0.0000  0.0001  0.0918  0.0000  0.0000  0.3346  0.0000 </r>
        <r>  0.0000  0.0000  0.0000  0.0003  0.0265  0.0000  0.0000  0.1604  0.0000 </r>
        <r>  0.0000  0.0000  0.0000  0.0002  0.0051  0.0000  0.0000  0.0145  0.0000 </r>
        <r>  0.0000  0.0000  0.0000  0.0001  0.0000  0.0000  0.0000  0.0000  0.0000 </r>
       </set>
       <set comment="band 18">
        <r>  0.0000  0.0000  0.0000  0.0000  0.0050  0.0000  0.0000  0.0095  0.0000 </r>
        <r>  0.0000  0.0000  0.0000  0.0000  0.4957  0.0000  0.0000  0.0004  0.0000 </r>
        <r>  0.0000  0.0000  0.0000  0.0000  0.4758  0.0000  0.0000  0.0059  0.0000 </r>
        <r>  0.0000  0.0000  0.0000  0.0000  0.0014  0.0000  0.0000  0.0000  0.0000 </r>
        <r>  0.0000  0.0000  0.0000  0.0000  0.0000  0.0000  0.0000  0.0000  0.0000 </r>
       </set>
       <set comment="band 19">
        <r>  0.0000  0.0000  0.0000  0.0001  0.0151  0.0000  0.0000  0.0423  0.0000 </r>
        <r>  0.0000  0.0000  0.0000  0.0000  0.3905  0.0000  0.0000  0.0339  0.0000 </r>
        <r>  0.0000  0.0000  0.0000  0.0000  0.4863  0.0000  0.0000  0.0192  0.0000 </r>
        <r>  0.0000  0.0000  0.0000  0.0000  0.0030  0.0000  0.0000  0.0037  0.0000 </r>
        <r>  0.0000  0.0000  0.0000  0.0000  0.0000  0.0000  0.0000  0.0000  0.0000 </r>
       </set>
       <set comment="band 20">
        <r>  0.0000  0.0000  0.0000  0.0000  0.9709  0.0000  0.0000  0.0013  0.0000 </r>
        <r>  0.0000  0.0000  0.0000  0.0000  0.0136  0.0000  0.0000  0.0061  0.0000 </r>
        <r>  0.0000  0.0000  0.0000  0.0000  0.0008  0.0000  0.0000  0.0016  0.0000 </r>
        <r>  0.0000  0.0000  0.0000  0.0000  0.0000  0.0000  0.0000  0.0001  0.0000 </r>
        <r>  0.0000  0.0000  0.0000  0.0000  0.0000  0.0000  0.0000  0.0000  0.0000 </r>
       </set>
       <set comment="band 21">
        <r>  0.0023  0.0495  0.0040  0.0000  0.0000  0.0215  0.0450  0.0000  0.0133 </r>
        <r>  0.0014  0.0894  0.0123  0.0000  0.0000  0.0076  0.0141  0.0000  0.0049 </r>
        <r>  0.0000  0.1363  0.0091  0.0000  0.0000  0.0002  0.0006  0.0000  0.0001 </r>
        <r>  0.0006  0.0926  0.0223  0.0000  0.0000  0.0083  0.0017  0.0000  0.0152 </r>
        <r>  0.0301  0.0019  0.0000  0.0000  0.0000  0.0000  0.0000  0.0000  0.0000 </r>
       </set>
       <set comment="band 22">
        <r>  0.0005  0.0048  0.0006  0.0000  0.0000  0.0012  0.0048  0.0000  0.0021 </r>
        <r>  0.0001  0.0125  0.0002  0.0000  0.0000  0.0001  0.0004  0.0000  0.0005 </r>
        <r>  0.0003  0.0019  0.0042  0.0000  0.0000  0.0013  0.0020  0.0000  0.0006 </r>
        <r>  0.0742  0.0153  0.0395  0.0000  0.0000  0.0004  0.0969  0.0000  0.3500 </r>
        <r>  0.1819  0.0003  0.0000  0.0000  0.0000  0.0000  0.0000  0.0000  0.0000 </r>
       </set>
       <set comment="band 23">
        <r>  0.0038  0.0837  0.0030  0.0000  0.0000  0.0057  0.0128  0.0000  0.0080 </r>
        <r>  0.0147  0.0749  0.0004  0.0000  0.0000  0.0082  0.0345  0.0000  0.0248 </r>
        <r>  0.0429  0.0072  0.0002  0.0000  0.0000  0.0211  0.1014  0.0000  0.0748 </r>
        <r>  0.0000  0.1447  0.0000  0.0000  0.0000  0.0000  0.0000  0.0000  0.0000 </r>
        <r>  0.0000  0.0030  0.0000  0.0000  0.0000  0.0000  0.0000  0.0000  0.0000 </r>
       </set>
       <set comment="band 24">
        <r>  0.0004  0.0760  0.0002  0.0000  0.0000  0.0008  0.0006  0.0000  0.0007 </r>
        <r>  0.0595  0.0003  0.0005  0.0000  0.0000  0.0101  0.0726  0.0000  0.0765 </r>
        <r>  0.0122  0.1201  0.0186  0.0000  0.0000  0.0015  0.0152  0.0000  0.0159 </r>
        <r>  0.0221  0.0979  0.0163  0.0000  0.0000  0.0021  0.0224  0.0000  0.0237 </r>
        <r>  0.0005  0.0021  0.0000  0.0000  0.0000  0.0000  0.0000  0.0000  0.0000 </r>
       </set>
       <set comment="band 25">
        <r>  0.0356  0.1547  0.0160  0.0000  0.0000  0.0000  0.0361  0.0000  0.0448 </r>
        <r>  0.0049  0.1175  0.0523  0.0000  0.0000  0.0008  0.0042  0.0000  0.0048 </r>
        <r>  0.0101  0.0524  0.0266  0.0000  0.0000  0.0015  0.0081  0.0000  0.0111 </r>
        <r>  0.0082  0.0130  0.0071  0.0000  0.0000  0.0008  0.0062  0.0000  0.0070 </r>
        <r>  0.0005  0.0003  0.0000  0.0000  0.0000  0.0000  0.0000  0.0000  0.0000 </r>
       </set>
       <set comment="band 26">
        <r>  0.1052  0.0226  0.0007  0.0000  0.0000  0.0069  0.0079  0.0000  0.0488 </r>
        <r>  0.1085  0.0001  0.0037  0.0000  0.0000  0.0590  0.0050  0.0000  0.0528 </r>
        <r>  0.1434  0.0014  0.0030  0.0000  0.0000  0.0390  0.0074  0.0000  0.0674 </r>
        <r>  0.0199  0.0134  0.0164  0.0000  0.0000  0.0093  0.0018  0.0000  0.0068 </r>
        <r>  0.0025  0.0007  0.0001  0.0000  0.0000  0.0000  0.0000  0.0000  0.0000 </r>
       </set>
       <set comment="band 27">
        <r>  0.2236  0.0026  0.0353  0.0000  0.0000  0.0015  0.0042  0.0000  0.0814 </r>
        <r>  0.0085  0.0371  0.0089  0.0000  0.0000  0.0052  0.0002  0.0000  0.0028 </r>
        <r>  0.0386  0.0008  0.0102  0.0000  0.0000  0.0376  0.0002  0.0000  0.0159 </r>
        <r>  0.0314  0.0084  0.0221  0.0000  0.0000  0.0119  0.0009  0.0000  0.0091 </r>
        <r>  0.0037  0.0008  0.0003  0.0000  0.0000  0.0000  0.0000  0.0000  0.0000 </r>
       </set>
       <set comment="band 28">
        <r>  0.0091  0.0244  0.0582  0.0000  0.0000  0.0388  0.0001  0.0000  0.0019 </r>
        <r>  0.1425  0.0021  0.0092  0.0000  0.0000  0.0081  0.0002  0.0000  0.0466 </r>
        <r>  0.0421  0.0361  0.0372  0.0000  0.0000  0.0002  0.0000  0.0000  0.0128 </r>
        <r>  0.0143  0.0112  0.0075  0.0000  0.0000  0.0543  0.0000  0.0000  0.0040 </r>
        <r>  0.0016  0.0033  0.0002  0.0000  0.0000  0.0000  0.0000  0.0000  0.0000 </r>
       </set>
      </set>
     </set>
    </set>
   </array>
  </projected>
 </calculation>
 <structure name="finalpos" >
  <crystal>
   <varray name="basis" >
    <v>       2.57386868       0.00000000       0.00000000 </v>
    <v>       1.28693434       2.22903567       0.00000000 </v>
    <v>       0.00000000       0.00000000      30.30466494 </v>
   </varray>
   <i name="volume">    173.86529028 </i>
   <varray name="rec_basis" >
    <v>       0.38852021      -0.22431225       0.00000000 </v>
    <v>       0.00000000       0.44862450       0.00000000 </v>
    <v>       0.00000000       0.00000000       0.03299822 </v>
   </varray>
  </crystal>
  <varray name="positions" >
   <v>       0.99970656       0.00058687       0.39656714 </v>
   <v>       0.33318695       0.33362609       0.46513971 </v>
   <v>       0.66582757       0.66834486       0.53359426 </v>
   <v>       0.00080073       0.99839854       0.60421572 </v>
   <v>       0.50047818       0.99904364       0.63750274 </v>
  </varray>
 </structure>
</modeling>
