unknown system                          
           1
     2.573869    0.000000    0.000000
     1.286934    2.229036    0.000000
     0.000000    0.000000   30.304665
   Cu   H 
   4   1
Direct configuration=     1
   0.99970656  0.00058687  0.39656714
   0.33318695  0.33362609  0.46513971
   0.66582757  0.66834486  0.53359426
   0.00080073  0.99839854  0.60421572
   0.50047818  0.99904364  0.63750274
