unknown system                          
   1.00000000000000     
     4.913700    0.000000    0.000000
    -2.456850    4.255389    0.000000
     0.000000    0.000000    5.405130
   Si   O 
     3     6
Direct
  0.469800  0.000000  0.666670
  0.000000  0.469800  0.333330
  0.530200  0.530200  0.000000
  0.414500  0.266200  0.785600
  0.733800  0.148300  0.452270
  0.851700  0.585500  0.118930
  0.148300  0.733800  0.547730
  0.266200  0.414500  0.214400
  0.585500  0.851700  0.881070
 
   56   56   56
  1.4666      1.4106      1.4012      1.4263      1.4781      1.5530      1.6489      1.7639      1.8951      2.0388    
  2.1906      2.3463      2.5010      2.6498      2.7886      2.9149      3.0311      3.1457      3.2741      3.4374    
  3.6602      3.9714      4.4085      5.0235      5.8875      7.0894      8.7260      10.887      13.641      17.025    
  21.038      25.616      30.601      35.705      40.496      44.436      46.988      47.751      46.587      43.661    
  39.394      34.337      29.029      23.898      19.227      15.167      11.770      9.0262      6.8823      5.2575    
  4.0559      3.1812      2.5505      2.1012      1.7900      1.5863      1.4106      1.3514      1.3440      1.3770    
  1.4434      1.5395      1.6635      1.8130      1.9848      2.1743      2.3757      2.5828      2.7886      2.9855    
  3.1658      3.3230      3.4541      3.5613      3.6545      3.7507      3.8725      4.0461      4.3016      4.6761    
  5.2185      5.9918      7.0705      8.5306      10.435      12.821      15.686      18.984      22.607      26.374    
  30.016      33.188      35.518      36.688      36.515      35.008      32.367      28.921      25.050      21.099    
  17.336      13.939      11.007      8.5754      6.6297      5.1219      3.9825      3.1361      2.5148      2.0648    
  1.7478      1.5367      1.4012      1.3440      1.3413      1.3833      1.4635      1.5791      1.7284      1.9097    
  2.1199      2.3543      2.6068      2.8698      3.1344      3.3901      3.6255      3.8295      3.9935      4.1135    
  4.1927      4.2427      4.2832      4.3394      4.4400      4.6165      4.9051      5.3499      6.0040      6.9261    
  8.1716      9.7797      11.760      14.086      16.682      19.427      22.145      24.613      26.581      27.814    
  28.146      27.518      25.999      23.767      21.064      18.143      15.228      12.493      10.055      7.9741    
  6.2677      4.9140      3.8680      3.0746      2.4816      2.0459      1.7353      1.5265      1.4263      1.3770    
  1.3833      1.4363      1.5312      1.6656      1.8389      2.0502      2.2972      2.5761      2.8813      3.2052    
  3.5372      3.8644      4.1711      4.4410      4.6589      4.8139      4.9022      4.9287      4.9086      4.8658    
  4.8298      4.8329      4.9080      5.0900      5.4169      5.9308      6.6745      7.6845      8.9802      10.553    
  12.360      14.316      16.304      18.174      19.755      20.883      21.420      21.291      20.499      19.126    
  17.314      15.235      13.061      10.940      8.9839      7.2654      5.8174      4.6400      3.7090      2.9885    
  2.4404      2.0325      1.7395      1.5426      1.4781      1.4434      1.4635      1.5312      1.6425      1.7964    
  1.9933      2.2335      2.5163      2.8394      3.1989      3.5878      3.9957      4.4074      4.8033      5.1607    
  5.4570      5.6730      5.7962      5.8245      5.7669      5.6447      5.4881      5.3328      5.2151      5.1695    
  5.2286      5.4236      5.7855      6.3424      7.1143      8.1050      9.2938      10.631      12.036      13.407    
  14.625      15.572      16.143      16.267      15.918      15.124      13.960      12.535      10.971      9.3832    
  7.8692      6.4980      5.3094      4.3169      3.5130      2.8779      2.3872      2.0184      1.7534      1.5775    
  1.5530      1.5395      1.5791      1.6656      1.7964      1.9715      2.1926      2.4614      2.7793      3.1461    
  3.5603      4.0173      4.5077      5.0155      5.5178      5.9857      6.3877      6.6944      6.8830      6.9421    
  6.8737      6.6948      6.4352      6.1340      5.8340      5.5760      5.3954      5.3215      5.3788      5.5870    
  5.9608      6.5065      7.2165      8.0641      9.0001      9.9551      10.846      11.587      12.099      12.322    
  12.221      11.798      11.085      10.146      9.0606      7.9126      6.7790      5.7202      4.7757      3.9651    
  3.2918      2.7485      2.3230      2.0023      1.7742      1.6279      1.6489      1.6635      1.7284      1.8389    
  1.9933      2.1926      2.4396      2.7377      3.0900      3.4995      3.9677      4.4934      5.0699      5.6824    
  6.3058      6.9058      7.4417      7.8720      8.1613      8.2858      8.2382      8.0296      7.6881      7.2556    
  6.7817      6.3166      5.9049      5.5818      5.3725      5.2935      5.3546      5.5589      5.9024      6.3696    
  6.9312      7.5425      8.1465      8.6814      9.0877      9.3167      9.3357      9.1329      8.7187      8.1243    
  7.3974      6.5941      5.7710      4.9768      4.2473      3.6041      3.0568      2.6069      2.2515      1.9853    
  1.8014      1.6921      1.7639      1.8130      1.9097      2.0502      2.2335      2.4614      2.7377      3.0666    
  3.4535      3.9041      4.4239      5.0163      5.6790      6.4000      7.1547      7.9048      8.6011      9.1895    
  9.6187      9.8494      9.8611      9.6560      9.2588      8.7133      8.0756      7.4066      6.7634      6.1927    
  5.7276      5.3876      5.1816      5.1100      5.1668      5.3392      5.6067      5.9398      6.3002      6.6440    
  6.9271      7.1109      7.1669      7.0795      6.8473      6.4829      6.0113      5.4660      4.8847      4.3033    
  3.7522      3.2533      2.8205      2.4608      2.1772      1.9695      1.8351      1.7688      1.8951      1.9848    
  2.1199      2.2972      2.5163      2.7793      3.0900      3.4535      3.8763      4.3667      4.9347      5.5891    
  6.3338      7.1620      8.0520      8.9642      9.8430      10.622      11.232      11.615      11.733      11.573    
  11.153      10.518      9.7309      8.8627      7.9853      7.1605      6.4349      5.8373      5.3799      5.0629    
  4.8781      4.8115      4.8450      4.9554      5.1149      5.2915      5.4519      5.5657      5.6090      5.5663    
  5.4314      5.2069      4.9039      4.5400      4.1371      3.7195      3.3106      2.9311      2.5971      2.3197    
  2.1054      1.9572      1.8752      1.8564      2.0388      2.1743      2.3543      2.5761      2.8394      3.1461    
  3.4995      3.9041      4.3667      4.8977      5.5107      6.2208      7.0395      7.9678      8.9897      10.068    
  11.143      12.139      12.970      13.555      13.831      13.768      13.370      12.678      11.761      10.701    
  9.5878      8.5002      7.5023      6.6367      5.9246      5.3688      4.9603      4.6833      4.5185      4.4443    
  4.4365      4.4693      4.5159      4.5513      4.5552      4.5130      4.4171      4.2654      4.0613      3.8127    
  3.5317      3.2330      2.9335      2.6502      2.3991      2.1932      2.0421      1.9511      1.9220      1.9527    
  2.1906      2.3757      2.6068      2.8813      3.1989      3.5603      3.9677      4.4239      4.9347      5.5107    
  6.1684      6.9287      7.8114      8.8273      9.9699      11.208      12.483      13.712      14.795      15.628    
  16.121      16.216      15.896      15.192      14.174      12.938      11.591      10.232      8.9463      7.7951    
  6.8128      6.0099      5.3786      4.9008      4.5539      4.3143      4.1586      4.0632      4.0046      3.9604    
  3.9115      3.8440      3.7490      3.6227      3.4650      3.2789      3.0708      2.8499      2.6279      2.4179    
  2.2337      2.0883      1.9928      1.9544      1.9757      2.0557      2.3463      2.5828      2.8698      3.2052    
  3.5878      4.0173      4.4934      5.0163      5.5891      6.2208      6.9287      7.7377      8.6755      9.7640    
  11.009      12.389      13.853      15.316      16.668      17.784      18.547      18.865      18.692      18.038    
  16.967      15.583      14.012      12.377      10.789      9.3319      8.0573      6.9885      6.1228      5.4406    
  4.9145      4.5163      4.2205      4.0036      3.8431      3.7177      3.6081      3.4992      3.3809      3.2481    
  3.0995      2.9361      2.7615      2.5815      2.4051      2.2431      2.1075      2.0105      1.9621      1.9698    
  2.0368      2.1632      2.5010      2.7886      3.1344      3.5372      3.9957      4.5077      5.0699      5.6790    
  6.3338      7.0395      7.8114      8.6755      9.6652      10.813      12.137      13.631      15.256      16.934    
  18.550      19.966      21.038      21.640      21.688      21.161      20.105      18.623      16.856      14.954    
  13.056      11.274      9.6824      8.3221      7.1998      6.2982      5.5861      5.0290      4.5951      4.2579    
  3.9941      3.7827      3.6041      3.4416      3.2833      3.1223      2.9562      2.7856      2.6128      2.4425    
  2.2821      2.1418      2.0335      1.9683      1.9549      1.9995      2.1052      2.2726      2.6498      2.9855    
  3.3901      3.8644      4.4074      5.0155      5.6824      6.4000      7.1620      7.9678      8.8273      9.7640    
  10.813      12.012      13.394      14.969      16.714      18.564      20.413      22.116      23.511      24.439    
  24.775      24.458      23.503      22.001      20.095      17.959      15.761      13.645      11.717      10.038    
  8.6321      7.4880      6.5747      5.8513      5.2774      4.8191      4.4492      4.1453      3.8879      3.6596    
  3.4467      3.2401      3.0358      2.8339      2.6368      2.4494      2.2789      2.1354      2.0305      1.9755    
  1.9793      2.0470      2.1810      2.3819      2.7886      3.1658      3.6255      4.1711      4.8033      5.5178    
  6.3058      7.1547      8.0520      8.9897      9.9699      11.009      12.137      13.394      14.821      16.443    
  18.257      20.221      22.243      24.188      25.884      27.148      27.819      27.787      27.027      25.600    
  23.643      21.339      18.882      16.450      14.181      12.168      10.454      9.0429      7.9081      7.0050    
  6.2846      5.7030      5.2247      4.8232      4.4772      4.1691      3.8847      3.6141      3.3518      3.0968    
  2.8520      2.6229      2.4174      2.2455      2.1189      2.0498      2.0481      2.1199      2.2672      2.4899    
  2.9149      3.3230      3.8295      4.4410      5.1607      5.9857      6.9058      7.9048      8.9642      10.068    
  11.208      12.389      13.631      14.969      16.443      18.089      19.925      21.932      24.047      26.155    
  28.091      29.664      30.679      30.984      30.502      29.255      27.354      24.981      22.346      19.652    
  17.071      14.730      12.701      11.008      9.6337      8.5363      7.6606      6.9522      6.3649      5.8630    
  5.4204      5.0178      4.6417      4.2829      3.9371      3.6040      3.2863      2.9897      2.7226      2.4954    
  2.3205      2.2111      2.1788      2.2312      2.3712      2.5989      3.0311      3.4541      3.9935      4.6589    
  5.4570      6.3877      7.4417      8.6011      9.8430      11.143      12.483      13.853      15.256      16.714    
  18.257      19.925      21.747      23.733      25.850      28.018      30.099      31.907      33.233      33.888    
  33.742      32.766      31.035      28.712      26.010      23.151      20.334      17.714      15.396      13.428    
  11.812      10.514      9.4776      8.6410      7.9457      7.3440      6.8005      6.2911      5.8012      5.3241    
  4.8595      4.4112      3.9848      3.5868      3.2259      2.9127      2.6604      2.4829      2.3927      2.3989    
  2.5063      2.7166      3.1457      3.5613      4.1135      4.8139      5.6730      6.6944      7.8720      9.1895    
  10.622      12.139      13.712      15.316      16.934      18.564      20.221      21.932      23.733      25.650    
  27.687      29.805      31.908      33.839      35.396      36.364      36.572      35.932      34.470      32.318    
  29.681      26.787      23.851      21.053      18.521      16.329      14.502      13.019      11.831      10.872    
  10.074      9.3776      8.7348      8.1118      7.4896      6.8621      6.2345      5.6187      5.0286      4.4773    
  3.9763      3.5369      3.1713      2.8929      2.7139      2.6446      2.6913      2.8574      3.2741      3.6545    
  4.1927      4.9022      5.7962      6.8830      8.1613      9.6187      11.232      12.970      14.795      16.668    
  18.550      20.413      22.243      24.047      25.850      27.687      29.588      31.558      33.546      35.434    
  37.056      38.218      38.734      38.471      37.389      35.555      33.133      30.350      27.446      24.615    
  22.000      19.693      17.734      16.123      14.819      13.761      12.879      12.101      11.368      10.633    
  9.8677      9.0624      8.2260      7.3805      6.5541      5.7738      5.0616      4.4333      3.9015      3.4775    
  3.1719      2.9937      2.9488      3.0410      3.4374      3.7507      4.2427      4.9287      5.8245      6.9421    
  8.2858      9.8494      11.615      13.555      15.628      17.784      19.966      22.116      24.188      26.155    
  28.018      29.805      31.558      33.300      34.999      36.602      38.027      39.150      39.815      39.875    
  39.238      37.901      35.952      33.550      30.897      28.214      25.692      23.433      21.484      19.855    
  18.517      17.419      16.493      15.664      14.863      14.029      13.120      12.119      11.034      9.8963    
  8.7517      7.6475      6.6246      5.7131      4.9325      4.2952      3.8089      3.4785      3.3057      3.2912    
  3.6602      3.8725      4.2832      4.9086      5.7669      6.8737      8.2382      9.8611      11.733      13.831    
  16.121      18.547      21.038      23.511      25.884      28.091      30.099      31.908      33.546      34.999    
  36.248      37.315      38.227      38.976      39.497      39.683      39.428      38.669      37.415      35.736    
  33.744      31.580      29.407      27.401      25.654      24.175      22.943      21.914      21.028      20.212    
  19.389      18.488      17.451      16.248      14.883      13.395      11.848      10.313      8.8599      7.5416    
  6.3959      5.4440      4.6946      4.1474      3.7968      3.6358      3.9714      4.0461      4.3394      4.8658    
  5.6447      6.6948      8.0296      9.6560      11.573      13.768      16.216      18.865      21.640      24.439    
  27.148      29.664      31.907      33.839      35.434      36.602      37.315      37.644      37.726      37.705    
  37.671      37.632      37.527      37.277      36.823      36.139      35.221      34.085      32.778      31.395    
  30.088      28.972      28.037      27.245      26.542      25.858      25.110      24.213      23.093      21.702    
  20.037      18.141      16.100      14.018      11.998      10.128      8.4714      7.0686      5.9371      5.0765    
  4.4742      4.1114      4.4085      4.3016      4.4400      4.8298      5.4881      6.4352      7.6881      9.2588    
  11.153      13.370      15.896      18.692      21.688      24.775      27.819      30.679      33.233      35.396    
  37.056      38.027      38.227      37.726      36.739      35.570      34.511      33.763      33.402      33.400    
  33.673      34.112      34.588      34.959      35.100      34.952      34.560      34.077      33.668      33.331    
  33.020      32.661      32.162      31.414      30.315      28.791      26.825      24.465      21.825      19.053    
  16.304      13.711      11.372      9.3511      7.6838      6.3772      5.4163      4.7713      5.0235      4.6761    
  4.6165      4.8329      5.3328      6.1340      7.2556      8.7133      10.518      12.678      15.192      18.038    
  21.161      24.458      27.787      30.984      33.888      36.364      38.218      39.150      38.976      37.705    
  35.570      32.994      30.483      28.495      27.334      27.120      27.824      29.300      31.311      33.545    
  35.660      37.373      38.546      39.230      39.637      40.000      40.339      40.579      40.603      40.259    
  39.391      37.877      35.664      32.804      29.445      25.803      22.111      18.572      15.335      12.497    
  10.110      8.1922      6.7318      5.6923      5.8875      5.2185      4.9051      4.9080      5.2151      5.8340    
  6.7817      8.0756      9.7309      11.761      14.174      16.967      20.105      23.503      27.027      30.502    
  33.742      36.572      38.734      39.815      39.497      37.671      34.511      30.483      26.267      22.590    
  20.055      19.034      19.651      21.816      25.240      29.465      33.913      38.021      41.387      43.877    
  45.636      46.995      48.257      49.420      50.336      50.784      50.512      49.297      47.016      43.692    
  39.512      34.785      29.864      25.073      20.649      16.737      13.407      10.683      8.5527      6.9750    
  7.0894      5.9918      5.3499      5.0900      5.1695      5.5760      6.3166      7.4066      8.8627      10.701    
  12.938      15.583      18.623      22.001      25.600      29.255      32.766      35.932      38.471      39.875    
  39.683      37.632      33.763      28.495      22.590      17.001      12.645      10.215      10.092      12.349    
  16.753      22.773      29.632      36.456      42.509      47.384      51.081      53.928      56.397      58.796    
  61.014      62.748      63.601      63.183      61.219      57.642      52.643      46.633      40.147      33.700    
  27.688      22.350      17.788      14.020      11.020      8.7352      8.7260      7.0705      6.0040      5.4169    
  5.2286      5.3954      5.9049      6.7634      7.9853      9.5878      11.591      14.012      16.856      20.095    
  23.643      27.354      31.035      34.470      37.389      39.238      39.428      37.527      33.402      27.334    
  20.055      12.645      6.2873      2.0091     0.51264      2.1276      6.7991      14.056      23.020      32.549    
  41.532      49.204      55.324      60.147      64.223      68.111      71.988      75.511      78.122      79.193    
  78.195      74.858      69.285      61.954      53.606      45.044      36.930      29.686      23.496      18.379    
  14.274      11.090      10.887      8.5306      6.9261      5.9308      5.4236      5.3215      5.5818      6.1927    
  7.1605      8.5002      10.232      12.377      14.954      17.959      21.339      24.981      28.712      32.318    
  35.555      37.901      38.669      37.277      33.400      27.120      19.034      10.215      2.0091     -4.2699    
 -7.5923     -7.3175     -3.2288      4.4048      14.765      26.564      38.354      48.955      57.786      64.934    
  70.964      76.596      82.330      88.017      92.970      96.296      97.125      94.848      89.326      80.979    
  70.712      59.663      48.896      39.161      30.825      23.954      18.446      14.142      13.641      10.435    
  8.1716      6.6745      5.7855      5.3788      5.3725      5.7276      6.4349      7.5023      8.9463      10.789    
  13.056      15.761      18.882      22.346      26.010      29.681      33.133      35.952      37.415      36.823    
  33.673      27.824      19.651      10.092     0.51264     -7.5923     -12.908     -14.481     -11.779     -4.7669    
  5.9655      19.176      33.211      46.501      58.048      67.652      75.805      83.333      90.969      98.928    
  106.57      112.77      116.31      116.13      111.67      103.10      91.325      77.760      63.953      51.150    
  40.075      30.949      23.664      17.978      17.025      12.821      9.7797      7.6845      6.3424      5.5870    
  5.2935      5.3876      5.8373      6.6367      7.7951      9.3319      11.274      13.645      16.450      19.652    
  23.151      26.787      30.350      33.550      35.736      36.139      34.112      29.300      21.816      12.349    
  2.1276     -7.3175     -14.481     -18.132     -17.425     -11.978     -2.0330      11.413      26.712      42.027    
  55.937      67.859      78.080      87.444      96.870      106.89      117.17      126.52      133.40      136.30    
  134.13      126.56      114.26      98.744      81.960      65.764      51.433      39.524      30.031      22.654    
  21.038      15.686      11.760      8.9802      7.1143      5.9608      5.3546      5.1816      5.3799      5.9246    
  6.8128      8.0573      9.6824      11.717      14.181      17.071      20.334      23.851      27.446      30.897    
  33.744      35.221      34.588      31.311      25.240      16.753      6.7991     -3.2288     -11.779     -17.425    
 -19.039     -15.898     -7.8378      4.5386      19.815      36.096      51.634      65.422      77.416      88.342    
  99.226      110.86      123.31      135.56      145.92      152.61      153.91      148.74      137.24      120.92    
  101.91      82.530      64.749      49.670      37.569      28.181      25.616      18.984      14.086      10.553    
  8.1050      6.5065      5.5589      5.1100      5.0629      5.3688      6.0099      6.9885      8.3221      10.038    
  12.168      14.730      17.714      21.053      24.615      28.214      31.580      34.085      34.959      33.545    
  29.465      22.773      14.056      4.4048     -4.7669     -11.978     -15.898     -15.492     -10.184     -.10494    
  13.746      29.655      45.740      60.622      73.848      85.878      97.710      110.33      124.16      138.57    
  151.96      162.47      167.96      166.53      157.44      141.74      121.77      100.15      79.300      61.034    
  46.112      34.467      30.601      22.607      16.682      12.360      9.2938      7.2165      5.9024      5.1668    
  4.8781      4.9603      5.3786      6.1228      7.1998      8.6321      10.454      12.701      15.396      18.521    
  22.000      25.692      29.407      32.778      35.100      35.660      33.913      29.632      23.020      14.765    
  5.9655     -2.0330     -7.8378     -10.184     -8.1266     -1.3009      9.8244      23.936      39.257      54.187    
  67.874      80.400      92.574      105.44      119.70      135.21      150.63      164.18      173.67      176.66    
  171.49      158.25      138.93      116.52      93.684      72.779      55.194      41.256      35.705      26.374    
  19.427      14.316      10.631      8.0641      6.3696      5.3392      4.8115      4.6833      4.9008      5.4406    
  6.2982      7.4880      9.0429      11.008      13.428      16.329      19.693      23.433      27.401      31.395    
  34.952      37.373      38.021      36.456      32.549      26.564      19.176      11.413      4.5386     -.10494    
 -1.3009      1.7642      9.1952      20.232      33.436      47.212      60.412      72.711      84.590      96.984    
  110.76      126.18      142.36      157.63      170.06      177.13      176.53      167.34      150.65      129.19    
  105.98      83.587      63.997      48.062      40.496      30.016      22.145      16.304      12.036      9.0001    
  6.9312      5.6067      4.8450      4.5185      4.5539      4.9145      5.5861      6.5747      7.9081      9.6337    
  11.812      14.502      17.734      21.484      25.654      30.088      34.560      38.546      41.387      42.509    
  41.532      38.354      33.211      26.712      19.815      13.746      9.8244      9.1952      12.490      19.565    
  29.500      40.938      52.631      63.915      74.878      86.195      98.723      112.99      128.63      144.27    
  158.12      168.05      171.60      167.11      154.61      136.01      114.21      91.894      71.426      54.183    
  44.436      33.188      24.613      18.174      13.407      9.9551      7.5425      5.9398      4.9554      4.4443    
  4.3143      4.5163      5.0290      5.8513      7.0050      8.5363      10.514      13.019      16.123      19.855    
  24.175      28.972      34.077      39.230      43.877      47.384      49.204      48.955      46.501      42.027    
  36.096      29.655      23.936      20.232      19.565      22.362      28.301      36.456      45.704      55.198    
  64.667      74.441      85.203      97.576      111.58      126.32      140.25      151.49      157.96      157.72    
  149.97      135.62      116.87      96.290      76.345      58.808      46.988      35.518      26.581      19.755    
  14.625      10.846      8.1465      6.3002      5.1149      4.4365      4.1586      4.2205      4.5951      5.2774    
  6.2846      7.6606      9.4776      11.831      14.819      18.517      22.943      28.037      33.668      39.637    
  45.636      51.081      55.324      57.786      58.048      55.937      51.634      45.740      39.257      33.436    
  29.500      28.301      30.077      34.425      40.537      47.583      55.062      62.963      71.693      81.796    
  93.492      106.32      119.19      130.50      138.44      141.27      137.83      128.13      113.48      95.962    
  77.899      61.211      47.751      36.688      27.814      20.883      15.572      11.587      8.6814      6.6440    
  5.2915      4.4693      4.0632      4.0036      4.2579      4.8191      5.7030      6.9522      8.6410      10.872    
  13.761      17.419      21.914      27.245      33.331      40.000      46.995      53.928      60.147      64.934    
  67.652      67.859      65.422      60.622      54.187      47.212      40.938      36.456      34.425      34.937    
  37.594      41.760      46.875      52.686      59.307      67.089      76.265      86.641      97.563      107.90    
  116.16      120.79      120.57      115.02      104.67      90.957      75.791      60.973      46.587      36.515    
  28.146      21.420      16.143      12.099      9.0877      6.9271      5.4519      4.5159      4.0046      3.8431    
  3.9941      4.4492      5.2247      6.3649      7.9457      10.074      12.879      16.493      21.028      26.542    
  33.020      40.339      48.257      56.397      64.223      70.964      75.805      78.080      77.416      73.848    
  67.874      60.412      52.631      45.704      40.537      37.594      36.868      38.012      40.561      44.163    
  48.707      54.313      61.097      68.971      77.576      86.193      93.759      99.023      100.83      98.484    
  91.994      82.172      70.380      58.114      43.661      35.008      27.518      21.291      16.267      12.322    
  9.3167      7.1109      5.5657      4.5513      3.9604      3.7177      3.7827      4.1453      4.8232      5.8630    
  7.3440      9.3776      12.101      15.664      20.212      25.858      32.661      40.579      49.420      58.796    
  68.111      76.596      83.333      87.444      88.342      85.878      80.400      72.711      63.915      55.198    
  47.583      41.760      38.012      36.269      36.247      37.622      40.168      43.811      48.494      54.123    
  60.486      67.150      73.424      78.403      81.146      80.917      77.445      71.048      62.566      53.093    
  39.394      32.367      25.999      20.499      15.918      12.221      9.3357      7.1669      5.6090      4.5552    
  3.9115      3.6081      3.6041      3.8879      4.4772      5.4204      6.8005      8.7348      11.368      14.863    
  19.389      25.110      32.162      40.603      50.336      61.014      71.988      82.330      90.969      96.870    
  99.226      97.710      92.574      84.590      74.878      64.667      55.062      46.875      40.561      36.247    
  33.824      33.060      33.715      35.583      38.469      42.219      46.656      51.505      56.329      60.523    
  63.393      64.308      62.887      59.143      53.497      46.655      34.337      28.921      23.767      19.126    
  15.124      11.798      9.1329      7.0795      5.5663      4.5130      3.8440      3.4992      3.4416      3.6596    
  4.1691      5.0178      6.2911      8.1118      10.633      14.029      18.488      24.213      31.414      40.259    
  50.784      62.748      75.511      88.017      98.928      106.89      110.86      110.33      105.44      96.984    
  86.195      74.441      62.963      52.686      44.163      37.622      33.060      30.332      29.222      29.462    
  30.792      32.995      35.872      39.207      42.705      45.969      48.518      49.868      49.651      47.732    
  44.257      39.619      29.029      25.050      21.064      17.314      13.960      11.085      8.7187      6.8473    
  5.4314      4.4171      3.7490      3.3809      3.2833      3.4467      3.8847      4.6417      5.8012      7.4896    
  9.8677      13.120      17.451      23.093      30.315      39.391      50.512      63.601      78.122      92.970    
  106.57      117.17      123.31      124.16      119.70      110.76      98.723      85.203      71.693      59.307    
  48.707      40.168      33.715      29.222      26.475      25.213      25.162      26.063      27.684      29.808    
  32.206      34.599      36.657      38.027      38.405      37.610      35.641      32.677      23.898      21.099    
  18.143      15.235      12.535      10.146      8.1243      6.4829      5.2069      4.2654      3.6227      3.2481    
  3.1223      3.2401      3.6141      4.2829      5.3241      6.8621      9.0624      12.119      16.248      21.702    