unknown system                          
   1.00000000000000     
     4.913700    0.000000    0.000000
    -2.456850    4.255389    0.000000
     0.000000    0.000000    5.405130
   Si   O 
     3     6
Direct
  0.469800  0.000000  0.666670
  0.000000  0.469800  0.333330
  0.530200  0.530200  0.000000
  0.414500  0.266200  0.785600
  0.733800  0.148300  0.452270
  0.851700  0.585500  0.118930
  0.148300  0.733800  0.547730
  0.266200  0.414500  0.214400
  0.585500  0.851700  0.881070
 
   56   56   56
 0.14666092714E+01 0.14105514297E+01 0.14012487649E+01 0.14262760068E+01 0.14780903146E+01
 0.15529526063E+01 0.16489029786E+01 0.17639308472E+01 0.18951290101E+01 0.20387597012E+01
 0.21906229767E+01 0.23462582399E+01 0.25009521785E+01 0.26498460143E+01 0.27885924929E+01
 0.29149448725E+01 0.30310912846E+01 0.31456667155E+01 0.32741439854E+01 0.34374192482E+01
 0.36601731512E+01 0.39714126323E+01 0.44085095755E+01 0.50234624570E+01 0.58874968001E+01
 0.70894498938E+01 0.87260261559E+01 0.10886907191E+02 0.13640768942E+02 0.17025479098E+02
 0.21038161391E+02 0.25615626281E+02 0.30600623599E+02 0.35704829194E+02 0.40495622649E+02
 0.44436093520E+02 0.46987918099E+02 0.47751339705E+02 0.46586689368E+02 0.43660677426E+02
 0.39394161729E+02 0.34337056210E+02 0.29028616434E+02 0.23897935325E+02 0.19227458584E+02
 0.15167166143E+02 0.11770265033E+02 0.90262066386E+01 0.68822792503E+01 0.52575272611E+01
 0.40559084761E+01 0.31812162119E+01 0.25505310373E+01 0.21012466475E+01 0.17899729704E+01
 0.15863289867E+01 0.14105514297E+01 0.13513508466E+01 0.13439615382E+01 0.13770073052E+01
 0.14434071492E+01 0.15395462316E+01 0.16634619849E+01 0.18130110879E+01 0.19848318438E+01
 0.21742571448E+01 0.23756852156E+01 0.25828169489E+01 0.27886408546E+01 0.29855208292E+01
 0.31657866631E+01 0.33230234493E+01 0.34540642971E+01 0.35613279084E+01 0.36545399616E+01
 0.37507379462E+01 0.38725121730E+01 0.40461013295E+01 0.43015879450E+01 0.46761029283E+01
 0.52184694596E+01 0.59918017678E+01 0.70705387678E+01 0.85306415051E+01 0.10435298782E+02
 0.12820878290E+02 0.15686287885E+02 0.18983935970E+02 0.22607303533E+02 0.26374270279E+02
 0.30015814587E+02 0.33187678452E+02 0.35518274282E+02 0.36688180671E+02 0.36515108866E+02
 0.35008262582E+02 0.32366514843E+02 0.28921158687E+02 0.25050021182E+02 0.21099084723E+02
 0.17336173758E+02 0.13939451904E+02 0.11007461647E+02 0.85753665524E+01 0.66297294372E+01
 0.51219309153E+01 0.39824874024E+01 0.31361372800E+01 0.25147550741E+01 0.20647501116E+01
 0.17477832708E+01 0.15367201841E+01 0.14012487649E+01 0.13439615382E+01 0.13413281077E+01
 0.13832508169E+01 0.14635059377E+01 0.15790768393E+01 0.17284262169E+01 0.19097416241E+01
 0.21199152363E+01 0.23542921672E+01 0.26067650754E+01 0.28698152023E+01 0.31344221225E+01
 0.33901057236E+01 0.36254762564E+01 0.38295055472E+01 0.39934922694E+01 0.41134944703E+01
 0.41926908463E+01 0.42427294724E+01 0.42832008198E+01 0.43394087122E+01 0.44400101140E+01
 0.46164794191E+01 0.49050743491E+01 0.53498734427E+01 0.60039842903E+01 0.69261313596E+01
 0.81716490964E+01 0.97796957754E+01 0.11760496962E+02 0.14085749746E+02 0.16682303039E+02
 0.19427266034E+02 0.22145088326E+02 0.24612602226E+02 0.26580517464E+02 0.27814376073E+02
 0.28146216213E+02 0.27518206134E+02 0.25999323035E+02 0.23767273455E+02 0.21063837010E+02
 0.18142694618E+02 0.15228203615E+02 0.12493438119E+02 0.10054582245E+02 0.79741056477E+01
 0.62676796472E+01 0.49140356069E+01 0.38679717522E+01 0.30746477077E+01 0.24816213824E+01
 0.20458588216E+01 0.17352833638E+01 0.15264972588E+01 0.14262760068E+01 0.13770073052E+01
 0.13832508169E+01 0.14363419447E+01 0.15311669284E+01 0.16656015496E+01 0.18389281696E+01
 0.20501853504E+01 0.22971751126E+01 0.25760954836E+01 0.28813416470E+01 0.32051637367E+01
 0.35372246457E+01 0.38643780972E+01 0.41711123134E+01 0.44409733049E+01 0.46588868949E+01
 0.48139474754E+01 0.49021729569E+01 0.49286925457E+01 0.49086024645E+01 0.48657712389E+01
 0.48298235804E+01 0.48328884853E+01 0.49080320097E+01 0.50899886226E+01 0.54169071294E+01
 0.59307842370E+01 0.66744906093E+01 0.76844888332E+01 0.89802453174E+01 0.10553302567E+02
 0.12359518136E+02 0.14316285361E+02 0.16304318149E+02 0.18173590331E+02 0.19755312915E+02
 0.20882742630E+02 0.21419940738E+02 0.21291088692E+02 0.20499239075E+02 0.19126332375E+02
 0.17314364487E+02 0.15235396542E+02 0.13061087132E+02 0.10939799917E+02 0.89838820132E+01
 0.72653772662E+01 0.58174318521E+01 0.46399636175E+01 0.37090420253E+01 0.29884533361E+01
 0.24404122349E+01 0.20324535123E+01 0.17395266734E+01 0.15426176790E+01 0.14780903146E+01
 0.14434071492E+01 0.14635059377E+01 0.15311669284E+01 0.16424896060E+01 0.17963949775E+01
 0.19932731101E+01 0.22334696028E+01 0.25162655243E+01 0.28394330757E+01 0.31988685563E+01
 0.35878097866E+01 0.39957121060E+01 0.44074062499E+01 0.48032537914E+01 0.51606862684E+01
 0.54570148530E+01 0.56729669365E+01 0.57962394576E+01 0.58244505376E+01 0.57669316802E+01
 0.56447003147E+01 0.54881329439E+01 0.53327936681E+01 0.52150716070E+01 0.51695193050E+01
 0.52285763602E+01 0.54236475702E+01 0.57855402001E+01 0.63424031225E+01 0.71142741763E+01
 0.81049599744E+01 0.92937970492E+01 0.10630615296E+02 0.12035997659E+02 0.13406706923E+02
 0.14625109663E+02 0.15572092391E+02 0.16143313360E+02 0.16266863264E+02 0.15917702145E+02
 0.15123594170E+02 0.13959930722E+02 0.12535044173E+02 0.10970705192E+02 0.93832222755E+01
 0.78692437895E+01 0.64979849301E+01 0.53094010355E+01 0.43168551398E+01 0.35130219286E+01
 0.28779119657E+01 0.23872024125E+01 0.20184229846E+01 0.17534015959E+01 0.15775377957E+01
 0.15529526063E+01 0.15395462316E+01 0.15790768393E+01 0.16656015496E+01 0.17963949775E+01
 0.19715088292E+01 0.21925674990E+01 0.24614331520E+01 0.27792817398E+01 0.31461377414E+01
 0.35603389776E+01 0.40173160378E+01 0.45076967818E+01 0.50155492877E+01 0.55178296571E+01
 0.59856958545E+01 0.63877076716E+01 0.66943643579E+01 0.68830153581E+01 0.69420719259E+01
 0.68737327696E+01 0.66947882162E+01 0.64351553622E+01 0.61339772319E+01 0.58339836567E+01
 0.55759653186E+01 0.53953552239E+01 0.53215398351E+01 0.53787894373E+01 0.55870005522E+01
 0.59608258517E+01 0.65064816384E+01 0.72164846634E+01 0.80640505161E+01 0.90000844481E+01
 0.99551282070E+01 0.10846312358E+02 0.11587339249E+02 0.12099389020E+02 0.12321757931E+02
 0.12221145027E+02 0.11797645420E+02 0.11085289359E+02 0.10146338018E+02 0.90606161351E+01
 0.79125581427E+01 0.67789823027E+01 0.57201661042E+01 0.47757061139E+01 0.39651085006E+01
 0.32917619660E+01 0.27484877543E+01 0.23230445885E+01 0.20022861632E+01 0.17741766618E+01
 0.16278532872E+01 0.16489029786E+01 0.16634619849E+01 0.17284262169E+01 0.18389281696E+01
 0.19932731101E+01 0.21925674990E+01 0.24395847798E+01 0.27376506507E+01 0.30900112176E+01
 0.34994722156E+01 0.39676654989E+01 0.44933786708E+01 0.50699367093E+01 0.56823932190E+01
 0.63058101008E+01 0.69057845315E+01 0.74416702923E+01 0.78720496707E+01 0.81613050439E+01
 0.82857923530E+01 0.82382489358E+01 0.80296249176E+01 0.76881306906E+01 0.72556141333E+01
 0.67816659171E+01 0.63165501123E+01 0.59048701831E+01 0.55818153102E+01 0.53725283645E+01
 0.52935470465E+01 0.53545547654E+01 0.55589428274E+01 0.59023847645E+01 0.63696457792E+01
 0.69312400522E+01 0.75424616775E+01 0.81465296792E+01 0.86813532275E+01 0.90876927831E+01
 0.93166599533E+01 0.93357204469E+01 0.91329196920E+01 0.87186773056E+01 0.81243451806E+01
 0.73974082722E+01 0.65941247757E+01 0.57709849856E+01 0.49767826429E+01 0.42473227321E+01
 0.36041325735E+01 0.30567959483E+01 0.26069054886E+01 0.22515248453E+01 0.19852855511E+01
 0.18013899098E+01 0.16920666754E+01 0.17639308472E+01 0.18130110879E+01 0.19097416241E+01
 0.20501853504E+01 0.22334696028E+01 0.24614331520E+01 0.27376506507E+01 0.30666179838E+01
 0.34535023123E+01 0.39040610095E+01 0.44238809726E+01 0.50162983258E+01 0.56789954910E+01
 0.64000336406E+01 0.71547121791E+01 0.79048003142E+01 0.86011245564E+01 0.91894610547E+01
 0.96186796076E+01 0.98493952229E+01 0.98610878614E+01 0.96559616772E+01 0.92588109797E+01
 0.87133024564E+01 0.80756405217E+01 0.74066256897E+01 0.67633923835E+01 0.61927046990E+01
 0.57275871047E+01 0.53876379555E+01 0.51815829175E+01 0.51099883858E+01 0.51667738828E+01
 0.53391983788E+01 0.56067187432E+01 0.59397839449E+01 0.63001645817E+01 0.66439939921E+01
 0.69271189023E+01 0.71109313779E+01 0.71669383847E+01 0.70795417963E+01 0.68473220657E+01
 0.64829282783E+01 0.60112869225E+01 0.54660355732E+01 0.48846617579E+01 0.43032738851E+01
 0.37521682736E+01 0.32533413819E+01 0.28204823895E+01 0.24607994341E+01 0.21771814460E+01
 0.19695153993E+01 0.18350966142E+01 0.17688421294E+01 0.18951290101E+01 0.19848318438E+01
 0.21199152363E+01 0.22971751126E+01 0.25162655243E+01 0.27792817398E+01 0.30900112176E+01
 0.34535023123E+01 0.38762720385E+01 0.43667235549E+01 0.49346898229E+01 0.55891169613E+01
 0.63337845395E+01 0.71620127366E+01 0.80519548938E+01 0.89641887200E+01 0.98429665669E+01
 0.10621694531E+02 0.11232095205E+02 0.11615353296E+02 0.11732692823E+02 0.11572660869E+02
 0.11153217183E+02 0.10518396090E+02 0.97309181996E+01 0.88627425810E+01 0.79852500811E+01
 0.71604740526E+01 0.64349195832E+01 0.58372593687E+01 0.53799143989E+01 0.50629428675E+01
 0.48780881491E+01 0.48115286629E+01 0.48449502024E+01 0.49553847592E+01 0.51148931105E+01
 0.52914636662E+01 0.54518571973E+01 0.55656724306E+01 0.56089649658E+01 0.55663005476E+01
 0.54313901207E+01 0.52069456052E+01 0.49039213850E+01 0.45399555806E+01 0.41371325980E+01
 0.37194990200E+01 0.33105922292E+01 0.29311049396E+01 0.25971421082E+01 0.23197032428E+01
 0.21053601144E+01 0.19572076185E+01 0.18752479747E+01 0.18564137689E+01 0.20387597012E+01
 0.21742571448E+01 0.23542921672E+01 0.25760954836E+01 0.28394330757E+01 0.31461377414E+01
 0.34994722156E+01 0.39040610095E+01 0.43667235549E+01 0.48976698382E+01 0.55106729554E+01
 0.62208218865E+01 0.70395175207E+01 0.79677671368E+01 0.89896539363E+01 0.10067937929E+02
 0.11143435061E+02 0.12139257741E+02 0.12970030373E+02 0.13554859547E+02 0.13831498456E+02
 0.13768252787E+02 0.13370254293E+02 0.12678234338E+02 0.11760528464E+02 0.10701240976E+02
 0.95878414408E+01 0.85002349787E+01 0.75022771837E+01 0.66367119277E+01 0.59245609150E+01
 0.53688043085E+01 0.49603211356E+01 0.46833127413E+01 0.45185125553E+01 0.44442513027E+01
 0.44365195280E+01 0.44692830551E+01 0.45158530061E+01 0.45513156089E+01 0.45551685356E+01
 0.45130461434E+01 0.44170796051E+01 0.42653642527E+01 0.40612506883E+01 0.38127156167E+01
 0.35316593980E+01 0.32329898435E+01 0.29334585469E+01 0.26502064337E+01 0.23990988716E+01
 0.21932354327E+01 0.20420604831E+01 0.19510926542E+01 0.19219702052E+01 0.19527460155E+01
 0.21906229767E+01 0.23756852156E+01 0.26067650754E+01 0.28813416470E+01 0.31988685563E+01
 0.35603389776E+01 0.39676654989E+01 0.44238809726E+01 0.49346898229E+01 0.55106729554E+01
 0.61684017923E+01 0.69287019173E+01 0.78113907313E+01 0.88273394668E+01 0.99698823717E+01
 0.11207989604E+02 0.12483302597E+02 0.13712438980E+02 0.14795154486E+02 0.15627925199E+02
 0.16121052999E+02 0.16215655444E+02 0.15895804294E+02 0.15191853150E+02 0.14173927456E+02
 0.12938186477E+02 0.11590518093E+02 0.10231734385E+02 0.89462880860E+01 0.77950853068E+01
 0.68127829581E+01 0.60098612658E+01 0.53786390872E+01 0.49008381716E+01 0.45538685272E+01
 0.43142623664E+01 0.41585723504E+01 0.40631947245E+01 0.40045596276E+01 0.39603638329E+01
 0.39115407562E+01 0.38439649376E+01 0.37489733859E+01 0.36226814285E+01 0.34649608530E+01
 0.32789095129E+01 0.30707992951E+01 0.28499039878E+01 0.26278775221E+01 0.24178823368E+01
 0.22336552340E+01 0.20883221743E+01 0.19928199027E+01 0.19543611918E+01 0.19757230578E+01
 0.20557317648E+01 0.23462582399E+01 0.25828169489E+01 0.28698152023E+01 0.32051637367E+01
 0.35878097866E+01 0.40173160378E+01 0.44933786708E+01 0.50162983258E+01 0.55891169613E+01
 0.62208218865E+01 0.69287019173E+01 0.77376922943E+01 0.86755139943E+01 0.97640168381E+01
 0.11008674496E+02 0.12389052061E+02 0.13852934498E+02 0.15315944687E+02 0.16667608097E+02
 0.17784154414E+02 0.18547188025E+02 0.18865154054E+02 0.18692165142E+02 0.18038202644E+02
 0.16967116713E+02 0.15583261103E+02 0.14011560043E+02 0.12377188359E+02 0.10789496680E+02
 0.93318941155E+01 0.80573056000E+01 0.69884852019E+01 0.61228148048E+01 0.54406192002E+01
 0.49144835112E+01 0.45163447856E+01 0.42205438670E+01 0.40036110546E+01 0.38431430788E+01
 0.37176998238E+01 0.36080916384E+01 0.34991648462E+01 0.33808925123E+01 0.32481462568E+01
 0.30995059703E+01 0.29361318509E+01 0.27614586385E+01 0.25815159384E+01 0.24050639757E+01
 0.22430511001E+01 0.21075498143E+01 0.20104701262E+01 0.19621181225E+01 0.19697695571E+01
 0.20368365555E+01 0.21631593101E+01 0.25009521785E+01 0.27886408546E+01 0.31344221225E+01
 0.35372246457E+01 0.39957121060E+01 0.45076967818E+01 0.50699367093E+01 0.56789954910E+01
 0.63337845395E+01 0.70395175207E+01 0.78113907313E+01 0.86755139943E+01 0.96652205890E+01
 0.10812553283E+02 0.12136557306E+02 0.13631257547E+02 0.15256454487E+02 0.16933810555E+02
 0.18549749883E+02 0.19966046709E+02 0.21038216849E+02 0.21639847126E+02 0.21687787491E+02
 0.21160740802E+02 0.20104703712E+02 0.18623239170E+02 0.16856228285E+02 0.14954338676E+02
 0.13056367047E+02 0.11273667021E+02 0.96823618716E+01 0.83220719384E+01 0.71998299263E+01
 0.62982313675E+01 0.55861494538E+01 0.50289568600E+01 0.45950887358E+01 0.42578534202E+01
 0.39941270099E+01 0.37826990935E+01 0.36040526144E+01 0.34416044901E+01 0.32832942673E+01
 0.31222767011E+01 0.29561822336E+01 0.27855592154E+01 0.26128299195E+01 0.24425223772E+01
 0.22820839372E+01 0.21418431072E+01 0.20335444356E+01 0.19682727877E+01 0.19549118286E+01
 0.19994968707E+01 0.21051812963E+01 0.22726431604E+01 0.26498460143E+01 0.29855208292E+01
 0.33901057236E+01 0.38643780972E+01 0.44074062499E+01 0.50155492877E+01 0.56823932190E+01
 0.64000336406E+01 0.71620127366E+01 0.79677671368E+01 0.88273394668E+01 0.97640168381E+01
 0.10812553283E+02 0.12011969018E+02 0.13393852954E+02 0.14968698487E+02 0.16713543604E+02
 0.18563962709E+02 0.20412656451E+02 0.22116207493E+02 0.23511090155E+02 0.24438582794E+02
 0.24774794191E+02 0.24457884947E+02 0.23503188379E+02 0.22000551807E+02 0.20095124593E+02
 0.17958709878E+02 0.15760610232E+02 0.13644815193E+02 0.11716601900E+02 0.10038286197E+02
 0.86321073224E+01 0.74880451270E+01 0.65747200805E+01 0.58512737680E+01 0.52774162476E+01
 0.48190828287E+01 0.44491668354E+01 0.41453405074E+01 0.38879380811E+01 0.36596427688E+01
 0.34466806564E+01 0.32400819645E+01 0.30358396985E+01 0.28338905807E+01 0.26368354906E+01
 0.24494287273E+01 0.22789399899E+01 0.21353764559E+01 0.20304761868E+01 0.19755375085E+01
 0.19792986585E+01 0.20470341150E+01 0.21810428997E+01 0.23819125934E+01 0.27885924929E+01
 0.31657866631E+01 0.36254762564E+01 0.41711123134E+01 0.48032537914E+01 0.55178296571E+01
 0.63058101008E+01 0.71547121791E+01 0.80519548938E+01 0.89896539363E+01 0.99698823717E+01
 0.11008674496E+02 0.12136557306E+02 0.13393852954E+02 0.14820555907E+02 0.16442518877E+02
 0.18256970463E+02 0.20220597436E+02 0.22242969674E+02 0.24187731080E+02 0.25883870931E+02
 0.27148437577E+02 0.27818790080E+02 0.27787251387E+02 0.27027104965E+02 0.25600181674E+02
 0.23643280869E+02 0.21339153371E+02 0.18882447367E+02 0.16450064964E+02 0.14181126441E+02
 0.12167542574E+02 0.10453698733E+02 0.90428750150E+01 0.79080624348E+01 0.70049650366E+01
 0.62846493562E+01 0.57029657910E+01 0.52247495641E+01 0.48232074254E+01 0.44771704710E+01
 0.41690793614E+01 0.38847479104E+01 0.36141105338E+01 0.33517646151E+01 0.30967870026E+01
 0.28519672343E+01 0.26229032676E+01 0.24174393887E+01 0.22455390554E+01 0.21189498833E+01
 0.20497861724E+01 0.20481089068E+01 0.21199325960E+01 0.22672149508E+01 0.24899149640E+01
 0.29149448725E+01 0.33230234493E+01 0.38295055472E+01 0.44409733049E+01 0.51606862684E+01
 0.59856958545E+01 0.69057845315E+01 0.79048003142E+01 0.89641887200E+01 0.10067937929E+02
 0.11207989604E+02 0.12389052061E+02 0.13631257547E+02 0.14968698487E+02 0.16442518877E+02
 0.18088989570E+02 0.19924737791E+02 0.21932049595E+02 0.24047162319E+02 0.26154629758E+02
 0.28091386728E+02 0.29663916245E+02 0.30679171068E+02 0.30984112664E+02 0.30502391153E+02
 0.29254635852E+02 0.27354282222E+02 0.24981423071E+02 0.22345831486E+02 0.19651644500E+02
 0.17071237911E+02 0.14730011931E+02 0.12700982769E+02 0.11007692878E+02 0.96337223131E+01
 0.85362633096E+01 0.76605773904E+01 0.69522444251E+01 0.63649356090E+01 0.58630227984E+01
 0.54203591615E+01 0.50178227548E+01 0.46416555712E+01 0.42829033095E+01 0.39371467124E+01
 0.36039640215E+01 0.32862560186E+01 0.29897268254E+01 0.27225845932E+01 0.24953549939E+01
 0.23204817186E+01 0.22111150077E+01 0.21788302253E+01 0.22312244368E+01 0.23712021100E+01
 0.25988814919E+01 0.30310912846E+01 0.34540642971E+01 0.39934922694E+01 0.46588868949E+01
 0.54570148530E+01 0.63877076716E+01 0.74416702923E+01 0.86011245564E+01 0.98429665669E+01
 0.11143435061E+02 0.12483302597E+02 0.13852934498E+02 0.15256454487E+02 0.16713543604E+02
 0.18256970463E+02 0.19924737791E+02 0.21747435005E+02 0.23732813459E+02 0.25850216775E+02
 0.28018049525E+02 0.30098722131E+02 0.31906624095E+02 0.33233226402E+02 0.33887581296E+02
 0.33741852420E+02 0.32765544472E+02 0.31034501695E+02 0.28711759040E+02 0.26010004434E+02
 0.23151049787E+02 0.20333805581E+02 0.17714246033E+02 0.15395752854E+02 0.13427801995E+02
 0.11811967408E+02 0.10513785224E+02 0.94776097671E+01 0.86409783512E+01 0.79456662291E+01
 0.73439806401E+01 0.68005187431E+01 0.62911312858E+01 0.58011910437E+01 0.53240915459E+01
 0.48595340038E+01 0.44112246674E+01 0.39847584634E+01 0.35868383635E+01 0.32258638531E+01
 0.29126917548E+01 0.26604093784E+01 0.24828978635E+01 0.23926858778E+01 0.23988957824E+01
 0.25063276883E+01 0.27165930116E+01 0.31456667155E+01 0.35613279084E+01 0.41134944703E+01
 0.48139474754E+01 0.56729669365E+01 0.66943643579E+01 0.78720496707E+01 0.91894610547E+01
 0.10621694531E+02 0.12139257741E+02 0.13712438980E+02 0.15315944687E+02 0.16933810555E+02
 0.18563962709E+02 0.20220597436E+02 0.21932049595E+02 0.23732813459E+02 0.25650167649E+02
 0.27687196056E+02 0.29804880148E+02 0.31907602015E+02 0.33839020769E+02 0.35395614343E+02
 0.36363892986E+02 0.36571598932E+02 0.35931982294E+02 0.34470006242E+02 0.32318468121E+02
 0.29680975647E+02 0.26786622125E+02 0.23851407112E+02 0.21053472302E+02 0.18521141652E+02
 0.16329309111E+02 0.14501710683E+02 0.13018818298E+02 0.11830614301E+02 0.10871532931E+02
 0.10073942946E+02 0.93776217615E+01 0.87347764325E+01 0.81118363869E+01 0.74895629486E+01
 0.68620906340E+01 0.62344918435E+01 0.56186504899E+01 0.50285924376E+01 0.44773225789E+01
 0.39763231258E+01 0.35368854125E+01 0.31713366019E+01 0.28928523183E+01 0.27139455805E+01
 0.26446143199E+01 0.26912790706E+01 0.28573677988E+01 0.32741439854E+01 0.36545399616E+01
 0.41926908463E+01 0.49021729569E+01 0.57962394576E+01 0.68830153581E+01 0.81613050439E+01
 0.96186796076E+01 0.11232095205E+02 0.12970030373E+02 0.14795154486E+02 0.16667608097E+02
 0.18549749883E+02 0.20412656451E+02 0.22242969674E+02 0.24047162319E+02 0.25850216775E+02
 0.27687196056E+02 0.29588073828E+02 0.31557538437E+02 0.33546435734E+02 0.35434182683E+02
 0.37055551124E+02 0.38217703919E+02 0.38734047665E+02 0.38471120747E+02 0.37388647401E+02
 0.35554888014E+02 0.33133200201E+02 0.30350171705E+02 0.27446246349E+02 0.24615261729E+02
 0.22000196435E+02 0.19692650626E+02 0.17734483487E+02 0.16122797433E+02 0.14818992676E+02
 0.13761405908E+02 0.12878739128E+02 0.12101185714E+02 0.11368119440E+02 0.10633175862E+02
 0.98677120290E+01 0.90624208832E+01 0.82260275547E+01 0.73805400875E+01 0.65540909515E+01
 0.57738369052E+01 0.50615810195E+01 0.44333119007E+01 0.39014938166E+01 0.34774538515E+01
 0.31718847672E+01 0.29936629744E+01 0.29487959710E+01 0.30410345109E+01 0.34374192482E+01
 0.37507379462E+01 0.42427294724E+01 0.49286925457E+01 0.58244505376E+01 0.69420719259E+01
 0.82857923530E+01 0.98493952229E+01 0.11615353296E+02 0.13554859547E+02 0.15627925199E+02
 0.17784154414E+02 0.19966046709E+02 0.22116207493E+02 0.24187731080E+02 0.26154629758E+02
 0.28018049525E+02 0.29804880148E+02 0.31557538437E+02 0.33300181383E+02 0.34999006781E+02
 0.36601868292E+02 0.38027107224E+02 0.39150130288E+02 0.39815428911E+02 0.39875393337E+02
 0.39238347966E+02 0.37901048396E+02 0.35951850156E+02 0.33549936862E+02 0.30897035655E+02
 0.28213760348E+02 0.25691815174E+02 0.23432592663E+02 0.21484356898E+02 0.19854700233E+02
 0.18517105585E+02 0.17419227563E+02 0.16492941238E+02 0.15664456909E+02 0.14863080476E+02
 0.14028876925E+02 0.13119983087E+02 0.12118687898E+02 0.11033670988E+02 0.98963193503E+01
 0.87517051111E+01 0.76474544203E+01 0.66245793118E+01 0.57130790277E+01 0.49325028157E+01
 0.42951542615E+01 0.38089295676E+01 0.34784684795E+01 0.33056656339E+01 0.32912199479E+01
 0.36601731512E+01 0.38725121730E+01 0.42832008198E+01 0.49086024645E+01 0.57669316802E+01
 0.68737327696E+01 0.82382489358E+01 0.98610878614E+01 0.11732692823E+02 0.13831498456E+02
 0.16121052999E+02 0.18547188025E+02 0.21038216849E+02 0.23511090155E+02 0.25883870931E+02
 0.28091386728E+02 0.30098722131E+02 0.31907602015E+02 0.33546435733E+02 0.34999006781E+02
 0.36248098156E+02 0.37315046625E+02 0.38226889306E+02 0.38975802569E+02 0.39497164455E+02
 0.39683479729E+02 0.39427712412E+02 0.38669081339E+02 0.37415330172E+02 0.35736315470E+02
 0.33744399184E+02 0.31579973551E+02 0.29406754236E+02 0.27400649359E+02 0.25654177387E+02
 0.24175004087E+02 0.22942549413E+02 0.21913707461E+02 0.21027541254E+02 0.20211519600E+02
 0.19388969986E+02 0.18487744639E+02 0.17450813131E+02 0.16247786284E+02 0.14883030184E+02
 0.13395310156E+02 0.11847897663E+02 0.10313449980E+02 0.88599338268E+01 0.75416302123E+01
 0.63958539996E+01 0.54439562778E+01 0.46945735048E+01 0.41473994955E+01 0.37968161722E+01
 0.36357796529E+01 0.39714126323E+01 0.40461013295E+01 0.43394087122E+01 0.48657712389E+01
 0.56447003147E+01 0.66947882162E+01 0.80296249176E+01 0.96559616772E+01 0.11572660869E+02
 0.13768252787E+02 0.16215655444E+02 0.18865154054E+02 0.21639847126E+02 0.24438582794E+02
 0.27148437577E+02 0.29663916245E+02 0.31906624095E+02 0.33839020769E+02 0.35434182683E+02
 0.36601868291E+02 0.37315046624E+02 0.37643879805E+02 0.37725538453E+02 0.37704516130E+02
 0.37671046607E+02 0.37631645635E+02 0.37526663428E+02 0.37276837733E+02 0.36823272030E+02
 0.36139136592E+02 0.35221226359E+02 0.34085226243E+02 0.32777687447E+02 0.31395105818E+02
 0.30087873149E+02 0.28971939043E+02 0.28037184263E+02 0.27245474921E+02 0.26542493938E+02
 0.25857962009E+02 0.25109862604E+02 0.24213130236E+02 0.23093055180E+02 0.21702381789E+02
 0.20036903044E+02 0.18141247524E+02 0.16099983292E+02 0.14017746575E+02 0.11997950314E+02
 0.10127816010E+02 0.84714407704E+01 0.70686406645E+01 0.59371084896E+01 0.50765464921E+01
 0.44741662734E+01 0.41113869258E+01 0.44085095755E+01 0.43015879451E+01 0.44400101140E+01
 0.48298235804E+01 0.54881329439E+01 0.64351553622E+01 0.76881306906E+01 0.92588109797E+01
 0.11153217183E+02 0.13370254293E+02 0.15895804294E+02 0.18692165142E+02 0.21687787491E+02
 0.24774794191E+02 0.27818790080E+02 0.30679171068E+02 0.33233226402E+02 0.35395614343E+02
 0.37055551123E+02 0.38027107222E+02 0.38226889303E+02 0.37725538451E+02 0.36739228694E+02
 0.35569757759E+02 0.34510726487E+02 0.33763110047E+02 0.33401896097E+02 0.33399578399E+02
 0.33672607809E+02 0.34111639080E+02 0.34587806621E+02 0.34959063198E+02 0.35100107516E+02
 0.34951588911E+02 0.34559755459E+02 0.34077348288E+02 0.33667564271E+02 0.33331215624E+02
 0.33019539092E+02 0.32661108603E+02 0.32161615822E+02 0.31413571203E+02 0.30314521410E+02
 0.28791353821E+02 0.26825045168E+02 0.24465224159E+02 0.21824523073E+02 0.19052893603E+02
 0.16304292495E+02 0.13710885713E+02 0.11371526142E+02 0.93510851770E+01 0.76838350244E+01
 0.63771897503E+01 0.54162750209E+01 0.47713312231E+01 0.50234624570E+01 0.46761029283E+01
 0.46164794191E+01 0.48328884853E+01 0.53327936681E+01 0.61339772319E+01 0.72556141333E+01
 0.87133024564E+01 0.10518396090E+02 0.12678234338E+02 0.15191853150E+02 0.18038202644E+02
 0.21160740802E+02 0.24457884947E+02 0.27787251387E+02 0.30984112664E+02 0.33887581296E+02
 0.36363892985E+02 0.38217703917E+02 0.39150130285E+02 0.38975802564E+02 0.37704516125E+02
 0.35569757756E+02 0.32993601934E+02 0.30483142557E+02 0.28495316437E+02 0.27333939508E+02
 0.27120498200E+02 0.27823916081E+02 0.29299998106E+02 0.31311418250E+02 0.33544960370E+02
 0.35659843499E+02 0.37372858223E+02 0.38546113277E+02 0.39230309502E+02 0.39636924777E+02
 0.40000193511E+02 0.40338649023E+02 0.40579056055E+02 0.40603071198E+02 0.40259247344E+02
 0.39391386734E+02 0.37876550261E+02 0.35664298224E+02 0.32803949396E+02 0.29444618427E+02
 0.25802807084E+02 0.22111010161E+02 0.18571837315E+02 0.15334991505E+02 0.12496786334E+02
 0.10109919143E+02 0.81922453748E+01 0.67318204486E+01 0.56923239651E+01 0.58874968001E+01
 0.52184694596E+01 0.49050743491E+01 0.49080320097E+01 0.52150716070E+01 0.58339836567E+01
 0.67816659171E+01 0.80756405217E+01 0.97309181996E+01 0.11760528464E+02 0.14173927456E+02
 0.16967116713E+02 0.20104703712E+02 0.23503188379E+02 0.27027104965E+02 0.30502391153E+02
 0.33741852420E+02 0.36571598932E+02 0.38734047663E+02 0.39815428907E+02 0.39497164448E+02
 0.37671046599E+02 0.34510726481E+02 0.30483142553E+02 0.26267058908E+02 0.22590265459E+02
 0.20055340205E+02 0.19033908111E+02 0.19651259191E+02 0.21815547149E+02 0.25240488686E+02
 0.29464790647E+02 0.33913146790E+02 0.38021191453E+02 0.41386900977E+02 0.43877030570E+02
 0.45636312873E+02 0.46995309917E+02 0.48257405004E+02 0.49419878971E+02 0.50336034749E+02
 0.50784350605E+02 0.50511843794E+02 0.49296919915E+02 0.47015671652E+02 0.43692404765E+02
 0.39512456413E+02 0.34784523876E+02 0.29864199265E+02 0.25073242454E+02 0.20649186691E+02
 0.16736808557E+02 0.13407485173E+02 0.10683458101E+02 0.85527277831E+01 0.69749618779E+01
 0.70894498938E+01 0.59918017678E+01 0.53498734427E+01 0.50899886226E+01 0.51695193050E+01
 0.55759653186E+01 0.63165501123E+01 0.74066256897E+01 0.88627425810E+01 0.10701240976E+02
 0.12938186477E+02 0.15583261103E+02 0.18623239170E+02 0.22000551807E+02 0.25600181674E+02
 0.29254635852E+02 0.32765544472E+02 0.35931982294E+02 0.38471120745E+02 0.39875393332E+02
 0.39683479720E+02 0.37631645625E+02 0.33763110038E+02 0.28495316430E+02 0.22590265456E+02
 0.17000839438E+02 0.12644861154E+02 0.10214512137E+02 0.10092235713E+02 0.12348769814E+02
 0.16752767915E+02 0.22773280722E+02 0.29631624533E+02 0.36456024198E+02 0.42508892683E+02
 0.47384313792E+02 0.51081469264E+02 0.53928361808E+02 0.56396921315E+02 0.58796183087E+02
 0.61014267373E+02 0.62747710606E+02 0.63600960837E+02 0.63183149561E+02 0.61218801680E+02
 0.57642246939E+02 0.52642688011E+02 0.46633283400E+02 0.40146645331E+02 0.33699608085E+02
 0.27688078860E+02 0.22349680603E+02 0.17787652524E+02 0.14020103467E+02 0.11020318779E+02
 0.87351571439E+01 0.87260261559E+01 0.70705387678E+01 0.60039842903E+01 0.54169071294E+01
 0.52285763602E+01 0.53953552239E+01 0.59048701831E+01 0.67633923835E+01 0.79852500811E+01
 0.95878414408E+01 0.11590518093E+02 0.14011560043E+02 0.16856228285E+02 0.20095124593E+02
 0.23643280869E+02 0.27354282222E+02 0.31034501695E+02 0.34470006242E+02 0.37388647400E+02
 0.39238347961E+02 0.39427712403E+02 0.37526663416E+02 0.33401896085E+02 0.27333939498E+02
 0.20055340198E+02 0.12644861151E+02 0.62872725586E+01 0.20090823762E+01 0.51263584887E+00
 0.21276418852E+01 0.67991456169E+01 0.14056496143E+02 0.23020335777E+02 0.32549057377E+02
 0.41531936536E+02 0.49203779309E+02 0.55323936736E+02 0.60147239609E+02 0.64222848698E+02
 0.68111415511E+02 0.71987686552E+02 0.75510851294E+02 0.78121963397E+02 0.79193125698E+02
 0.78194812762E+02 0.74858251071E+02 0.69284846850E+02 0.61953906328E+02 0.53606464730E+02
 0.45043554791E+02 0.36929740169E+02 0.29686353132E+02 0.23496399315E+02 0.18379243784E+02
 0.14273562443E+02 0.11089560519E+02 0.10886907191E+02 0.85306415051E+01 0.69261313596E+01
 0.59307842370E+01 0.54236475702E+01 0.53215398351E+01 0.55818153102E+01 0.61927046990E+01
 0.71604740526E+01 0.85002349787E+01 0.10231734385E+02 0.12377188359E+02 0.14954338676E+02
 0.17958709878E+02 0.21339153371E+02 0.24981423071E+02 0.28711759040E+02 0.32318468121E+02
 0.35554888013E+02 0.37901048392E+02 0.38669081331E+02 0.37276837721E+02 0.33399578385E+02
 0.27120498187E+02 0.19033908101E+02 0.10214512131E+02 0.20090823736E+01 -.42699357792E+01
 -.75922965414E+01 -.73175118148E+01 -.32288219230E+01 0.44048382949E+01 0.14765029557E+02
 0.26564047389E+02 0.38353654916E+02 0.48954952363E+02 0.57786364962E+02 0.64933731466E+02
 0.70964485851E+02 0.76595819629E+02 0.82330253040E+02 0.88017397307E+02 0.92969892261E+02
 0.96296167046E+02 0.97124798334E+02 0.94847981002E+02 0.89325701183E+02 0.80979098449E+02
 0.70711754386E+02 0.59663288443E+02 0.48896192956E+02 0.39160581746E+02 0.30825018843E+02
 0.23954259401E+02 0.18445756556E+02 0.14142333811E+02 0.13640768942E+02 0.10435298782E+02
 0.81716490964E+01 0.66744906093E+01 0.57855402001E+01 0.53787894373E+01 0.53725283645E+01
 0.57275871047E+01 0.64349195832E+01 0.75022771837E+01 0.89462880860E+01 0.10789496680E+02
 0.13056367047E+02 0.15760610232E+02 0.18882447367E+02 0.22345831486E+02 0.26010004434E+02
 0.29680975647E+02 0.33133200200E+02 0.35951850153E+02 0.37415330165E+02 0.36823272018E+02
 0.33672607796E+02 0.27823916067E+02 0.19651259179E+02 0.10092235705E+02 0.51263584431E+00
 -.75922965433E+01 -.12908327632E+02 -.14481171877E+02 -.11778903954E+02 -.47669250753E+01
 0.59655290411E+01 0.19175725090E+02 0.33211276776E+02 0.46501425502E+02 0.58047532996E+02
 0.67651932812E+02 0.75805138185E+02 0.83333150783E+02 0.90969382023E+02 0.98928160545E+02
 0.10656673380E+03 0.11277420907E+03 0.11631176881E+03 0.11612922803E+03 0.11167329643E+03
 0.10310428537E+03 0.91324689525E+02 0.77760182754E+02 0.63952824575E+02 0.51149553097E+02