   9   9   0   0
  0.1255774E+02  0.4913700E-09  0.4913700E-09  0.5405130E-09  0.5000000E-15
  1.000000000000000E-004
  CAR 
 unknown system                          
     13.73018481    -20.37081674  301      1.14123174      1.00000000
    -20.371  0.0000E+00  0.0000E+00
    -20.257  0.0000E+00  0.0000E+00
    -20.143  0.0000E+00  0.0000E+00
    -20.030  0.0000E+00  0.0000E+00
    -19.916  0.0000E+00  0.0000E+00
    -19.802  0.0000E+00  0.0000E+00
    -19.689  0.0000E+00  0.0000E+00
    -19.575  0.0000E+00  0.0000E+00
    -19.461  0.0000E+00  0.0000E+00
    -19.348  0.0000E+00  0.0000E+00
    -19.234  0.0000E+00  0.0000E+00
    -19.120  0.0000E+00  0.0000E+00
    -19.007  0.0000E+00  0.0000E+00
    -18.893  0.0000E+00  0.0000E+00
    -18.779  0.0000E+00  0.0000E+00
    -18.666  0.0000E+00  0.0000E+00
    -18.552  0.0000E+00  0.0000E+00
    -18.438  0.0000E+00  0.0000E+00
    -18.325  0.2797E+00  0.4294E-02
    -18.211  0.1328E+01  0.1156E+00
    -18.097  0.2262E+01  0.3186E+00
    -17.984  0.4062E+01  0.6799E+00
    -17.870  0.9155E+01  0.1296E+01
    -17.756  0.6852E+00  0.1979E+01
    -17.643  0.1095E+01  0.2064E+01
    -17.529  0.2118E+01  0.2243E+01
    -17.415  0.6401E+01  0.2657E+01
    -17.302  0.3198E+01  0.3591E+01
    -17.188  0.1330E+01  0.3832E+01
    -17.074  0.6405E+00  0.3938E+01
    -16.961  0.9515E+00  0.4012E+01
    -16.847  0.6064E+01  0.4342E+01
    -16.733  0.4238E+01  0.5279E+01
    -16.620  0.2143E+01  0.5609E+01
    -16.506  0.1333E+01  0.5798E+01
    -16.392  0.8162E+00  0.5922E+01
    -16.279  0.3033E+00  0.5992E+01
    -16.165  0.4025E+02  0.1138E+02
    -16.051  0.0000E+00  0.1200E+02
    -15.938  0.0000E+00  0.1200E+02
    -15.824  0.0000E+00  0.1200E+02
    -15.710  0.0000E+00  0.1200E+02
    -15.597  0.0000E+00  0.1200E+02
    -15.483  0.0000E+00  0.1200E+02
    -15.369  0.0000E+00  0.1200E+02
    -15.256  0.0000E+00  0.1200E+02
    -15.142  0.0000E+00  0.1200E+02
    -15.028  0.0000E+00  0.1200E+02
    -14.915  0.0000E+00  0.1200E+02
    -14.801  0.0000E+00  0.1200E+02
    -14.687  0.0000E+00  0.1200E+02
    -14.574  0.0000E+00  0.1200E+02
    -14.460  0.0000E+00  0.1200E+02
    -14.346  0.0000E+00  0.1200E+02
    -14.233  0.0000E+00  0.1200E+02
    -14.119  0.0000E+00  0.1200E+02
    -14.005  0.0000E+00  0.1200E+02
    -13.892  0.0000E+00  0.1200E+02
    -13.778  0.0000E+00  0.1200E+02
    -13.664  0.0000E+00  0.1200E+02
    -13.551  0.0000E+00  0.1200E+02
    -13.437  0.0000E+00  0.1200E+02
    -13.323  0.0000E+00  0.1200E+02
    -13.210  0.0000E+00  0.1200E+02
    -13.096  0.0000E+00  0.1200E+02
    -12.982  0.0000E+00  0.1200E+02
    -12.869  0.0000E+00  0.1200E+02
    -12.755  0.0000E+00  0.1200E+02
    -12.641  0.0000E+00  0.1200E+02
    -12.528  0.0000E+00  0.1200E+02
    -12.414  0.0000E+00  0.1200E+02
    -12.300  0.0000E+00  0.1200E+02
    -12.187  0.0000E+00  0.1200E+02
    -12.073  0.0000E+00  0.1200E+02
    -11.959  0.0000E+00  0.1200E+02
    -11.846  0.0000E+00  0.1200E+02
    -11.732  0.0000E+00  0.1200E+02
    -11.618  0.0000E+00  0.1200E+02
    -11.505  0.0000E+00  0.1200E+02
    -11.391  0.0000E+00  0.1200E+02
    -11.277  0.0000E+00  0.1200E+02
    -11.164  0.0000E+00  0.1200E+02
    -11.050  0.0000E+00  0.1200E+02
    -10.936  0.0000E+00  0.1200E+02
    -10.823  0.0000E+00  0.1200E+02
    -10.709  0.0000E+00  0.1200E+02
    -10.595  0.0000E+00  0.1200E+02
    -10.482  0.0000E+00  0.1200E+02
    -10.368  0.0000E+00  0.1200E+02
    -10.254  0.0000E+00  0.1200E+02
    -10.141  0.0000E+00  0.1200E+02
    -10.027  0.0000E+00  0.1200E+02
     -9.913  0.0000E+00  0.1200E+02
     -9.800  0.0000E+00  0.1200E+02
     -9.686  0.0000E+00  0.1200E+02
     -9.572  0.0000E+00  0.1200E+02
     -9.458  0.0000E+00  0.1200E+02
     -9.345  0.0000E+00  0.1200E+02
     -9.231  0.0000E+00  0.1200E+02
     -9.117  0.0000E+00  0.1200E+02
     -9.004  0.0000E+00  0.1200E+02
     -8.890  0.0000E+00  0.1200E+02
     -8.776  0.0000E+00  0.1200E+02
     -8.663  0.0000E+00  0.1200E+02
     -8.549  0.0000E+00  0.1200E+02
     -8.435  0.0000E+00  0.1200E+02
     -8.322  0.0000E+00  0.1200E+02
     -8.208  0.3418E-01  0.1200E+02
     -8.094  0.3072E+00  0.1202E+02
     -7.981  0.4574E+00  0.1207E+02
     -7.867  0.6628E+00  0.1213E+02
     -7.753  0.8658E+00  0.1222E+02
     -7.640  0.1170E+01  0.1233E+02
     -7.526  0.1612E+01  0.1249E+02
     -7.412  0.2711E+01  0.1272E+02
     -7.299  0.9384E+01  0.1337E+02
     -7.185  0.5082E+01  0.1384E+02
     -7.071  0.5487E+00  0.1396E+02
     -6.958  0.2927E+00  0.1400E+02
     -6.844  0.2280E+00  0.1403E+02
     -6.730  0.3625E+00  0.1406E+02
     -6.617  0.5420E+00  0.1411E+02
     -6.503  0.9027E+00  0.1419E+02
     -6.389  0.1487E+01  0.1433E+02
     -6.276  0.3718E+01  0.1458E+02
     -6.162  0.5819E+01  0.1520E+02
     -6.048  0.2214E+01  0.1554E+02
     -5.935  0.1257E+01  0.1573E+02
     -5.821  0.8509E+00  0.1585E+02
     -5.707  0.5710E+00  0.1593E+02
     -5.594  0.4380E+00  0.1599E+02
     -5.480  0.2549E+00  0.1601E+02
     -5.366  0.2299E+01  0.1616E+02
     -5.253  0.3556E+01  0.1651E+02
     -5.139  0.2897E+01  0.1686E+02
     -5.025  0.2787E+01  0.1719E+02
     -4.912  0.2019E+01  0.1747E+02
     -4.798  0.1441E+01  0.1766E+02
     -4.684  0.1062E+01  0.1780E+02
     -4.571  0.7262E+00  0.1790E+02
     -4.457  0.1469E+01  0.1800E+02
     -4.343  0.1959E+02  0.1884E+02
     -4.230  0.8757E+01  0.2026E+02
     -4.116  0.6103E+01  0.2102E+02
     -4.002  0.4786E+01  0.2173E+02
     -3.889  0.3936E+01  0.2218E+02
     -3.775  0.7681E+01  0.2307E+02
     -3.661  0.4045E+01  0.2369E+02
     -3.548  0.8372E+00  0.2398E+02
     -3.434  0.0000E+00  0.2400E+02
     -3.320  0.0000E+00  0.2400E+02
     -3.207  0.0000E+00  0.2400E+02
     -3.093  0.0000E+00  0.2400E+02
     -2.979  0.0000E+00  0.2400E+02
     -2.866  0.0000E+00  0.2400E+02
     -2.752  0.0000E+00  0.2400E+02
     -2.638  0.0000E+00  0.2400E+02
     -2.525  0.0000E+00  0.2400E+02
     -2.411  0.0000E+00  0.2400E+02
     -2.297  0.0000E+00  0.2400E+02
     -2.184  0.2556E-01  0.2400E+02
     -2.070  0.1493E+02  0.2489E+02
     -1.956  0.5868E+01  0.2600E+02
     -1.843  0.5554E+01  0.2664E+02
     -1.729  0.6743E+01  0.2752E+02
     -1.615  0.5052E+01  0.2821E+02
     -1.502  0.1068E+02  0.2919E+02
     -1.388  0.4119E+01  0.2988E+02
     -1.274  0.2044E+01  0.3008E+02
     -1.161  0.1252E+02  0.3117E+02
     -1.047  0.2391E+01  0.3189E+02
     -0.933  0.1964E+02  0.3278E+02
     -0.820  0.1410E+01  0.3388E+02
     -0.706  0.5272E+01  0.3417E+02
     -0.592  0.6684E+01  0.3488E+02
     -0.479  0.1096E+02  0.3598E+02
     -0.365  0.7467E+01  0.3724E+02
     -0.251  0.4718E+01  0.3783E+02
     -0.138  0.1208E+02  0.3870E+02
     -0.024  0.6641E+01  0.3986E+02
      0.090  0.1051E+02  0.4058E+02
      0.203  0.0000E+00  0.4200E+02
      0.317  0.7008E+01  0.4221E+02
      0.431  0.6895E+01  0.4349E+02
      0.544  0.5229E+01  0.4400E+02
      0.658  0.6374E+01  0.4453E+02
      0.772  0.1028E+02  0.4545E+02
      0.885  0.5667E+01  0.4632E+02
      0.999  0.1389E+02  0.4731E+02
      1.113  0.0000E+00  0.4800E+02
      1.226  0.0000E+00  0.4800E+02
      1.340  0.0000E+00  0.4800E+02
      1.454  0.0000E+00  0.4800E+02
      1.567  0.0000E+00  0.4800E+02
      1.681  0.0000E+00  0.4800E+02
      1.795  0.0000E+00  0.4800E+02
      1.909  0.0000E+00  0.4800E+02
      2.022  0.0000E+00  0.4800E+02
      2.136  0.0000E+00  0.4800E+02
      2.250  0.0000E+00  0.4800E+02
      2.363  0.0000E+00  0.4800E+02
      2.477  0.0000E+00  0.4800E+02
      2.591  0.0000E+00  0.4800E+02
      2.704  0.0000E+00  0.4800E+02
      2.818  0.0000E+00  0.4800E+02
      2.932  0.0000E+00  0.4800E+02
      3.045  0.0000E+00  0.4800E+02
      3.159  0.0000E+00  0.4800E+02
      3.273  0.0000E+00  0.4800E+02
      3.386  0.0000E+00  0.4800E+02
      3.500  0.0000E+00  0.4800E+02
      3.614  0.0000E+00  0.4800E+02
      3.727  0.0000E+00  0.4800E+02
      3.841  0.0000E+00  0.4800E+02
      3.955  0.0000E+00  0.4800E+02
      4.068  0.0000E+00  0.4800E+02
      4.182  0.0000E+00  0.4800E+02
      4.296  0.0000E+00  0.4800E+02
      4.409  0.0000E+00  0.4800E+02
      4.523  0.0000E+00  0.4800E+02
      4.637  0.0000E+00  0.4800E+02
      4.750  0.0000E+00  0.4800E+02
      4.864  0.0000E+00  0.4800E+02
      4.978  0.0000E+00  0.4800E+02
      5.091  0.0000E+00  0.4800E+02
      5.205  0.0000E+00  0.4800E+02
      5.319  0.0000E+00  0.4800E+02
      5.432  0.0000E+00  0.4800E+02
      5.546  0.0000E+00  0.4800E+02
      5.660  0.0000E+00  0.4800E+02
      5.773  0.0000E+00  0.4800E+02
      5.887  0.0000E+00  0.4800E+02
      6.001  0.0000E+00  0.4800E+02
      6.114  0.0000E+00  0.4800E+02
      6.228  0.0000E+00  0.4800E+02
      6.342  0.0000E+00  0.4800E+02
      6.455  0.0000E+00  0.4800E+02
      6.569  0.0000E+00  0.4800E+02
      6.683  0.0000E+00  0.4800E+02
      6.796  0.0000E+00  0.4800E+02
      6.910  0.0000E+00  0.4800E+02
      7.024  0.0000E+00  0.4800E+02
      7.137  0.2323E-03  0.4800E+02
      7.251  0.1665E-01  0.4800E+02
      7.365  0.5897E-01  0.4800E+02
      7.478  0.1272E+00  0.4802E+02
      7.592  0.2101E+00  0.4803E+02
      7.706  0.2545E+00  0.4806E+02
      7.819  0.2816E+00  0.4809E+02
      7.933  0.3069E+00  0.4812E+02
      8.047  0.3524E+00  0.4816E+02
      8.160  0.4005E+00  0.4821E+02
      8.274  0.4511E+00  0.4825E+02
      8.388  0.5039E+00  0.4831E+02
      8.501  0.5616E+00  0.4837E+02
      8.615  0.7155E+00  0.4844E+02
      8.729  0.8655E+00  0.4853E+02
      8.842  0.8329E+00  0.4863E+02
      8.956  0.8935E+00  0.4872E+02
      9.070  0.9559E+00  0.4883E+02
      9.183  0.1020E+01  0.4894E+02
      9.297  0.1266E+01  0.4906E+02
      9.411  0.1524E+01  0.4923E+02
      9.524  0.1311E+01  0.4939E+02
      9.638  0.1232E+01  0.4954E+02
      9.752  0.1450E+01  0.4969E+02
      9.865  0.1494E+01  0.4986E+02
      9.979  0.1557E+01  0.5007E+02
     10.093  0.1081E+01  0.5021E+02
     10.206  0.2254E+01  0.5038E+02
     10.320  0.6875E+01  0.5084E+02
     10.434  0.5130E+01  0.5192E+02
     10.547  0.4551E+01  0.5239E+02
     10.661  0.8376E+01  0.5314E+02
     10.775  0.6321E+01  0.5400E+02
     10.888  0.2495E+01  0.5446E+02
     11.002  0.3970E+01  0.5478E+02
     11.116  0.7853E+01  0.5548E+02
     11.229  0.4017E+01  0.5603E+02
     11.343  0.4722E+01  0.5654E+02
     11.457  0.6024E+01  0.5718E+02
     11.570  0.4085E+01  0.5786E+02
     11.684  0.7978E-01  0.5800E+02
     11.798  0.0000E+00  0.5800E+02
     11.911  0.0000E+00  0.5800E+02
     12.025  0.0000E+00  0.5800E+02
     12.139  0.0000E+00  0.5800E+02
     12.252  0.0000E+00  0.5800E+02
     12.366  0.0000E+00  0.5800E+02
     12.480  0.0000E+00  0.5800E+02
     12.593  0.0000E+00  0.5800E+02
     12.707  0.0000E+00  0.5800E+02
     12.821  0.0000E+00  0.5800E+02
     12.934  0.0000E+00  0.5800E+02
     13.048  0.0000E+00  0.5800E+02
     13.162  0.0000E+00  0.5800E+02
     13.276  0.0000E+00  0.5800E+02
     13.389  0.0000E+00  0.5800E+02
     13.503  0.0000E+00  0.5800E+02
     13.617  0.0000E+00  0.5800E+02
     13.730  0.0000E+00  0.5800E+02
