       N       E                     dE             d eps       ncg     rms          rms(c)
DAV:   1     0.289831409738E+03    0.28983E+03   -0.23937E+04  3222   0.137E+03
DAV:   2    -0.619738437321E+02   -0.35181E+03   -0.34404E+03  4188   0.327E+02
DAV:   3    -0.803831546263E+02   -0.18409E+02   -0.18357E+02  3740   0.854E+01
DAV:   4    -0.806160293257E+02   -0.23287E+00   -0.23254E+00  3780   0.104E+01
DAV:   5    -0.806205775085E+02   -0.45482E-02   -0.45465E-02  3705   0.142E+00    0.187E+01
RMM:   6    -0.710233986887E+02    0.95972E+01   -0.41679E+01  3391   0.341E+01    0.511E+00
RMM:   7    -0.710142857295E+02    0.91130E-02   -0.17298E+00  3672   0.604E+00    0.338E+00
RMM:   8    -0.710343324251E+02   -0.20047E-01   -0.27407E-01  3604   0.417E+00    0.646E-01
RMM:   9    -0.710261987426E+02    0.81337E-02   -0.54895E-02  3733   0.124E+00    0.137E-01
RMM:  10    -0.710297659232E+02   -0.35672E-02   -0.20348E-02  3672   0.744E-01    0.253E-01
RMM:  11    -0.710281658258E+02    0.16001E-02   -0.32548E-03  3728   0.330E-01    0.761E-02
RMM:  12    -0.710280889130E+02    0.76913E-04   -0.11240E-03  3720   0.176E-01    0.713E-03
RMM:  13    -0.710280928337E+02   -0.39208E-05   -0.33324E-05  2873   0.331E-02
   1 F= -.71028093E+02 E0= -.71028093E+02  d E =0.000000E+00
