 vasp.5.4.1 05Feb16 (build Mar 02 2016 14:09:44) complex                        
  
 executed on   Abel-impi-ifc-cuda date 2019.09.13  10:15:37
 running on    1 total cores
 distrk:  each k-point on    1 cores,    1 groups
 distr:  one band on NCORES_PER_BAND=   1 cores,    1 groups


--------------------------------------------------------------------------------------------------------


 INCAR:
 POTCAR:   PAW_PBE Si 05Jan2001                   
 POTCAR:   PAW_PBE O 08Apr2002                    
 POTCAR:   PAW_PBE Si 05Jan2001                   
   VRHFIN =Si: s2p2                                                             
   LEXCH  = PE                                                                  
   EATOM  =   103.0669 eV,    7.5752 Ry                                         
                                                                                
   TITEL  = PAW_PBE Si 05Jan2001                                                
   LULTRA =        F    use ultrasoft PP ?                                      
   IUNSCR =        1    unscreen: 0-lin 1-nonlin 2-no                           
   RPACOR =    1.500    partial core radius                                     
   POMASS =   28.085; ZVAL   =    4.000    mass and valenz                      
   RCORE  =    1.900    outmost cutoff radius                                   
   RWIGS  =    2.480; RWIGS  =    1.312    wigner-seitz radius (au A)           
   ENMAX  =  245.345; ENMIN  =  184.009 eV                                      
   ICORE  =        2    local potential                                         
   LCOR   =        T    correct aug charges                                     
   LPAW   =        T    paw PP                                                  
   EAUG   =  322.069                                                            
   DEXC   =    -.007                                                            
   RMAX   =    2.944    core radius for proj-oper                               
   RAUG   =    1.300    factor for augmentation sphere                          
   RDEP   =    1.993    radius for radial grids                                 
   QCUT   =   -4.246; QGAM   =    8.493    optimization parameters              
                                                                                
   Description                                                                  
     l     E      TYP  RCUT    TYP  RCUT                                        
     0   .000     23  1.900                                                     
     0   .000     23  1.900                                                     
     1   .000     23  1.900                                                     
     1   .000     23  1.900                                                     
     2   .000      7  1.900                                                     
  local pseudopotential read in
  partial core-charges read in
  atomic valenz-charges read in
  non local Contribution for L=           0  read in
    real space projection operators read in
  non local Contribution for L=           0  read in
    real space projection operators read in
  non local Contribution for L=           1  read in
    real space projection operators read in
  non local Contribution for L=           1  read in
    real space projection operators read in
    PAW grid and wavefunctions read in
 
   number of l-projection  operators is LMAX  =           4
   number of lm-projection operators is LMMAX =           8
 
 POTCAR:   PAW_PBE O 08Apr2002                    
   VRHFIN =O: s2p4                                                              
   LEXCH  = PE                                                                  
   EATOM  =   432.3788 eV,   31.7789 Ry                                         
                                                                                
   TITEL  = PAW_PBE O 08Apr2002                                                 
   LULTRA =        F    use ultrasoft PP ?                                      
   IUNSCR =        0    unscreen: 0-lin 1-nonlin 2-no                           
   RPACOR =     .000    partial core radius                                     
   POMASS =   16.000; ZVAL   =    6.000    mass and valenz                      
   RCORE  =    1.520    outmost cutoff radius                                   
   RWIGS  =    1.550; RWIGS  =     .820    wigner-seitz radius (au A)           
   ENMAX  =  400.000; ENMIN  =  300.000 eV                                      
   ICORE  =        2    local potential                                         
   LCOR   =        T    correct aug charges                                     
   LPAW   =        T    paw PP                                                  
   EAUG   =  605.392                                                            
   DEXC   =     .000                                                            
   RMAX   =    2.264    core radius for proj-oper                               
   RAUG   =    1.300    factor for augmentation sphere                          
   RDEP   =    1.550    radius for radial grids                                 
   QCUT   =   -5.520; QGAM   =   11.041    optimization parameters              
                                                                                
   Description                                                                  
     l     E      TYP  RCUT    TYP  RCUT                                        
     0   .000     23  1.200                                                     
     0  -.700     23  1.200                                                     
     1   .000     23  1.520                                                     
     1   .600     23  1.520                                                     
     2   .000      7  1.500                                                     
  local pseudopotential read in
  atomic valenz-charges read in
  non local Contribution for L=           0  read in
    real space projection operators read in
  non local Contribution for L=           0  read in
    real space projection operators read in
  non local Contribution for L=           1  read in
    real space projection operators read in
  non local Contribution for L=           1  read in
    real space projection operators read in
    PAW grid and wavefunctions read in
 
   number of l-projection  operators is LMAX  =           4
   number of lm-projection operators is LMMAX =           8
 
 Optimization of the real space projectors (new method)

 maximal supplied QI-value         = 19.84
 optimisation between [QCUT,QGAM] = [ 10.71, 21.63] = [ 32.15,130.99] Ry 
 Optimized for a Real-space Cutoff    1.19 Angstroem

   l    n(q)    QCUT    max X(q) W(low)/X(q) W(high)/X(q)  e(spline) 
   0      8    10.715     8.708    0.12E-04    0.65E-05    0.48E-08
   0      8    10.715   106.241    0.34E-03    0.53E-04    0.48E-07
   1      7    10.715     5.901    0.33E-04    0.45E-04    0.16E-07
   1      7    10.715    73.241    0.13E-03    0.44E-03    0.61E-07
 Optimization of the real space projectors (new method)

 maximal supplied QI-value         = 24.76
 optimisation between [QCUT,QGAM] = [ 10.64, 21.54] = [ 31.73,129.89] Ry 
 Optimized for a Real-space Cutoff    1.23 Angstroem

   l    n(q)    QCUT    max X(q) W(low)/X(q) W(high)/X(q)  e(spline) 
   0      8    10.645     4.192    0.69E-04    0.93E-04    0.58E-07
   0      8    10.645     8.473    0.40E-03    0.65E-03    0.17E-06
   1      7    10.645     2.474    0.80E-04    0.12E-03    0.30E-07
   1      7    10.645     3.912    0.24E-03    0.53E-03    0.16E-06
 PAW_PBE Si 05Jan2001                   :
 energy of atom  1       EATOM= -103.0669
 kinetic energy error for atom=    0.0009 (will be added to EATOM!!)
 PAW_PBE O 08Apr2002                    :
 energy of atom  2       EATOM= -432.3788
 kinetic energy error for atom=    0.0389 (will be added to EATOM!!)
 
 
 POSCAR: SiO2_P3221_icsd_34644                   
  positions in direct lattice
  No initial velocities read in
 exchange correlation table for  LEXCH =        8
   RHO(1)=    0.500       N(1)  =     2000
   RHO(2)=  100.500       N(2)  =     4000
 


--------------------------------------------------------------------------------------------------------


 ion  position               nearest neighbor table
   1  0.470  0.000  0.667-   4 1.60   7 1.60   9 1.62   5 1.62   3 3.06   3 3.06   2 3.06   2 3.06

   2  0.000  0.470  0.333-   8 1.60   5 1.60   6 1.62   7 1.62   3 3.06   3 3.06   1 3.06   1 3.06

   3  0.530  0.530  0.000-   6 1.60   9 1.60   8 1.62   4 1.62   2 3.06   2 3.06   1 3.06   1 3.06

   4  0.414  0.266  0.786-   1 1.60   3 1.62
   5  0.734  0.148  0.452-   2 1.60   1 1.62
   6  0.852  0.586  0.119-   3 1.60   2 1.62
   7  0.148  0.734  0.548-   1 1.60   2 1.62
   8  0.266  0.414  0.214-   2 1.60   3 1.62
   9  0.586  0.852  0.881-   3 1.60   1 1.62
 
  LATTYP: Found a hexagonal cell.
 ALAT       =     4.9137000030
 C/A-ratio  =     1.1000122101
  
  Lattice vectors:
  
 A1 = (   4.9137000000,   0.0000000000,   0.0000000000)
 A2 = (  -2.4568500000,   4.2553890300,   0.0000000000)
 A3 = (   0.0000000000,   0.0000000000,   5.4051300000)


Analysis of symmetry for initial positions (statically):
=====================================================================
 Subroutine PRICEL returns:
 Original cell was already a primitive cell.
 

 Routine SETGRP: Setting up the symmetry group for a 
 hexagonal supercell.


 Subroutine GETGRP returns: Found  2 space group operations
 (whereof  2 operations were pure point group operations)
 out of a pool of 24 trial point group operations.


The static configuration has the point symmetry C_2 .


Analysis of symmetry for dynamics (positions and initial velocities):
=====================================================================
 Subroutine PRICEL returns:
 Original cell was already a primitive cell.
 

 Routine SETGRP: Setting up the symmetry group for a 
 hexagonal supercell.


 Subroutine GETGRP returns: Found  2 space group operations
 (whereof  2 operations were pure point group operations)
 out of a pool of 24 trial point group operations.


The dynamic configuration has the point symmetry C_2 .


 Subroutine INISYM returns: Found  2 space group operations
 (whereof  2 operations are pure point group operations),
 and found     1 'primitive' translations

 
 
 KPOINTS: k-density: 4.0                          

Automatic generation of k-mesh.
Space group operators:
 irot       det(A)        alpha          n_x          n_y          n_z        tau_x        tau_y        tau_z
    1     1.000000     0.000001     1.000000     0.000000     0.000000     0.000000     0.000000     0.000000
    2     1.000000   180.000000    -0.500000    -0.866025     0.000000     0.000000     0.000000     0.000000
 
 Subroutine IBZKPT returns following result:
 ===========================================
 
 Found     55 irreducible k-points:
 
 Following reciprocal coordinates:
            Coordinates               Weight
  0.000000  0.000000  0.000000      1.000000
  0.166667  0.000000  0.000000      4.000000
  0.333333  0.000000  0.000000      4.000000
  0.500000  0.000000  0.000000      2.000000
  0.166667  0.166667  0.000000      2.000000
  0.333333  0.166667  0.000000      4.000000
  0.500000  0.166667  0.000000      4.000000
 -0.333333  0.166667  0.000000      4.000000
 -0.166667  0.166667  0.000000      2.000000
  0.333333  0.333333  0.000000      2.000000
  0.500000  0.333333  0.000000      4.000000
 -0.333333  0.333333  0.000000      2.000000
  0.500000  0.500000  0.000000      1.000000
  0.000000  0.000000  0.200000      2.000000
  0.166667  0.000000  0.200000      4.000000
  0.333333  0.000000  0.200000      4.000000
  0.500000  0.000000  0.200000      4.000000
 -0.333333  0.000000  0.200000      4.000000
 -0.166667  0.000000  0.200000      4.000000
  0.166667  0.166667  0.200000      4.000000
  0.333333  0.166667  0.200000      4.000000
  0.500000  0.166667  0.200000      4.000000
 -0.333333  0.166667  0.200000      4.000000
 -0.166667  0.166667  0.200000      2.000000
  0.166667  0.333333  0.200000      4.000000
  0.333333  0.333333  0.200000      4.000000
  0.500000  0.333333  0.200000      4.000000
 -0.333333  0.333333  0.200000      2.000000
  0.166667  0.500000  0.200000      4.000000
  0.333333  0.500000  0.200000      4.000000
  0.500000  0.500000  0.200000      2.000000
  0.166667 -0.333333  0.200000      4.000000
  0.333333 -0.333333  0.200000      2.000000
  0.166667 -0.166667  0.200000      2.000000
  0.000000  0.000000  0.400000      2.000000
  0.166667  0.000000  0.400000      4.000000
  0.333333  0.000000  0.400000      4.000000
  0.500000  0.000000  0.400000      4.000000
 -0.333333  0.000000  0.400000      4.000000
 -0.166667  0.000000  0.400000      4.000000
  0.166667  0.166667  0.400000      4.000000
  0.333333  0.166667  0.400000      4.000000
  0.500000  0.166667  0.400000      4.000000
 -0.333333  0.166667  0.400000      4.000000
 -0.166667  0.166667  0.400000      2.000000
  0.166667  0.333333  0.400000      4.000000
  0.333333  0.333333  0.400000      4.000000
  0.500000  0.333333  0.400000      4.000000
 -0.333333  0.333333  0.400000      2.000000
  0.166667  0.500000  0.400000      4.000000
  0.333333  0.500000  0.400000      4.000000
  0.500000  0.500000  0.400000      2.000000
  0.166667 -0.333333  0.400000      4.000000
  0.333333 -0.333333  0.400000      2.000000
  0.166667 -0.166667  0.400000      2.000000
 
 Following cartesian coordinates:
            Coordinates               Weight
  0.000000  0.000000  0.000000      1.000000
  0.033919  0.019583  0.000000      4.000000
  0.067838  0.039166  0.000000      4.000000
  0.101756  0.058749  0.000000      2.000000
  0.033919  0.058749  0.000000      2.000000
  0.067838  0.078332  0.000000      4.000000
  0.101756  0.097915  0.000000      4.000000
 -0.067838  0.000000  0.000000      4.000000
 -0.033919  0.019583  0.000000      2.000000
  0.067838  0.117498  0.000000      2.000000
  0.101756  0.137081  0.000000      4.000000
 -0.067838  0.039166  0.000000      2.000000
  0.101756  0.176247  0.000000      1.000000
  0.000000  0.000000  0.037002      2.000000
  0.033919  0.019583  0.037002      4.000000
  0.067838  0.039166  0.037002      4.000000
  0.101756  0.058749  0.037002      4.000000
 -0.067838 -0.039166  0.037002      4.000000
 -0.033919 -0.019583  0.037002      4.000000
  0.033919  0.058749  0.037002      4.000000
  0.067838  0.078332  0.037002      4.000000
  0.101756  0.097915  0.037002      4.000000
 -0.067838  0.000000  0.037002      4.000000
 -0.033919  0.019583  0.037002      2.000000
  0.033919  0.097915  0.037002      4.000000
  0.067838  0.117498  0.037002      4.000000
  0.101756  0.137081  0.037002      4.000000
 -0.067838  0.039166  0.037002      2.000000
  0.033919  0.137081  0.037002      4.000000
  0.067838  0.156664  0.037002      4.000000
  0.101756  0.176247  0.037002      2.000000
  0.033919 -0.058749  0.037002      4.000000
  0.067838 -0.039166  0.037002      2.000000
  0.033919 -0.019583  0.037002      2.000000
  0.000000  0.000000  0.074004      2.000000
  0.033919  0.019583  0.074004      4.000000
  0.067838  0.039166  0.074004      4.000000
  0.101756  0.058749  0.074004      4.000000
 -0.067838 -0.039166  0.074004      4.000000
 -0.033919 -0.019583  0.074004      4.000000
  0.033919  0.058749  0.074004      4.000000
  0.067838  0.078332  0.074004      4.000000
  0.101756  0.097915  0.074004      4.000000
 -0.067838  0.000000  0.074004      4.000000
 -0.033919  0.019583  0.074004      2.000000
  0.033919  0.097915  0.074004      4.000000
  0.067838  0.117498  0.074004      4.000000
  0.101756  0.137081  0.074004      4.000000
 -0.067838  0.039166  0.074004      2.000000
  0.033919  0.137081  0.074004      4.000000
  0.067838  0.156664  0.074004      4.000000
  0.101756  0.176247  0.074004      2.000000
  0.033919 -0.058749  0.074004      4.000000
  0.067838 -0.039166  0.074004      2.000000
  0.033919 -0.019583  0.074004      2.000000
 
 TETIRR: Found    273 inequivalent tetrahedra from     1080


--------------------------------------------------------------------------------------------------------




 Dimension of arrays:
   k-points           NKPTS =     55   k-points in BZ     NKDIM =     55   number of bands    NBANDS=     29
   number of dos      NEDOS =    301   number of ions     NIONS =      9
   non local maximal  LDIM  =      4   non local SUM 2l+1 LMDIM =      8
   total plane-waves  NPLWV =  21952
   max r-space proj   IRMAX =   1552   max aug-charges    IRDMAX=   6693
   dimension x,y,z NGX =    28 NGY =   28 NGZ =   28
   dimension x,y,z NGXF=    56 NGYF=   56 NGZF=   56
   support grid    NGXF=    56 NGYF=   56 NGZF=   56
   ions per type =               3   6
 NGX,Y,Z   is equivalent  to a cutoff of   9.47,  9.47,  8.61 a.u.
 NGXF,Y,Z  is equivalent  to a cutoff of  18.95, 18.95, 17.22 a.u.


 I would recommend the setting:
   dimension x,y,z NGX =    25 NGY =   25 NGZ =   28
 SYSTEM =  unknown system                          
 POSCAR =  SiO2_P3221_icsd_34644                   

 Startparameter for this run:
   NWRITE =      2    write-flag & timer
   PREC   = normal    normal or accurate (medium, high low for compatibility)
   ISTART =      0    job   : 0-new  1-cont  2-samecut
   ICHARG =      2    charge: 1-file 2-atom 10-const
   ISPIN  =      1    spin polarized calculation?
   LNONCOLLINEAR =      F non collinear calculations
   LSORBIT =      F    spin-orbit coupling
   INIWAV =      1    electr: 0-lowe 1-rand  2-diag
   LASPH  =      F    aspherical Exc in radial PAW
   METAGGA=      F    non-selfconsistent MetaGGA calc.

 Electronic Relaxation 1
   ENCUT  =  450.0 eV  33.07 Ry    5.75 a.u.   8.50  8.50  9.35*2*pi/ulx,y,z
   ENINI  =  450.0     initial cutoff
   ENAUG  =  605.4 eV  augmentation charge cutoff
   NELM   =     60;   NELMIN=  4; NELMDL= -5     # of ELM steps 
   EDIFF  = 0.1E-04   stopping-criterion for ELM
   LREAL  =      T    real-space projection
   NLSPLINE    = F    spline interpolate recip. space projectors
   LCOMPAT=      F    compatible to vasp.4.4
   GGA_COMPAT  = T    GGA compatible to vasp.4.4-vasp.4.6
   LMAXPAW     = -100 max onsite density
   LMAXMIX     =    2 max onsite mixed and CHGCAR
   VOSKOWN=      0    Vosko Wilk Nusair interpolation
   ROPT   =   -0.00050  -0.00050
 Ionic relaxation
   EDIFFG = 0.1E-03   stopping-criterion for IOM
   NSW    =      0    number of steps for IOM
   NBLOCK =      1;   KBLOCK =      1    inner block; outer block 
   IBRION =     -1    ionic relax: 0-MD 1-quasi-New 2-CG
   NFREE  =      0    steps in history (QN), initial steepest desc. (CG)
   ISIF   =      2    stress and relaxation
   IWAVPR =     10    prediction:  0-non 1-charg 2-wave 3-comb
   ISYM   =      2    0-nonsym 1-usesym 2-fastsym
   LCORR  =      T    Harris-Foulkes like correction to forces

   POTIM  = 0.5000    time-step for ionic-motion
   TEIN   =    0.0    initial temperature
   TEBEG  =    0.0;   TEEND  =   0.0 temperature during run
   SMASS  =  -3.00    Nose mass-parameter (am)
   estimated Nose-frequenzy (Omega)   =  0.10E-29 period in steps =****** mass=  -0.552E-27a.u.
   SCALEE = 1.0000    scale energy and forces
   NPACO  =    256;   APACO  = 16.0  distance and # of slots for P.C.
   PSTRESS=    0.0 pullay stress

  Mass of Ions in am
   POMASS =  28.09 16.00
  Ionic Valenz
   ZVAL   =   4.00  6.00
  Atomic Wigner-Seitz radii
   RWIGS  =  -1.00 -1.00
  virtual crystal weights 
   VCA    =   1.00  1.00
   NELECT =      48.0000    total number of electrons
   NUPDOWN=      -1.0000    fix difference up-down

 DOS related values:
   EMIN   =  10.00;   EMAX   =-10.00  energy-range for DOS
   EFERMI =   0.00
   ISMEAR =    -5;   SIGMA  =   0.20  broadening in eV -4-tet -1-fermi 0-gaus

 Electronic relaxation 2 (details)
   IALGO  =     68    algorithm
   LDIAG  =      T    sub-space diagonalisation (order eigenvalues)
   LSUBROT=      F    optimize rotation matrix (better conditioning)
   TURBO    =      0    0=normal 1=particle mesh
   IRESTART =      0    0=no restart 2=restart with 2 vectors
   NREBOOT  =      0    no. of reboots
   NMIN     =      0    reboot dimension
   EREF     =   0.00    reference energy to select bands
   IMIX   =      4    mixing-type and parameters
     AMIX     =   0.40;   BMIX     =  1.00
     AMIX_MAG =   1.60;   BMIX_MAG =  1.00
     AMIN     =   0.10
     WC   =   100.;   INIMIX=   1;  MIXPRE=   1;  MAXMIX= -45

 Intra band minimization:
   WEIMIN = 0.0000     energy-eigenvalue tresh-hold
   EBREAK =  0.86E-07  absolut break condition
   DEPER  =   0.30     relativ break condition  

   TIME   =   0.40     timestep for ELM

  volume/ion in A,a.u.               =      12.56        84.74
  Fermi-wavevector in a.u.,A,eV,Ry     =   1.230563  2.325427 20.603106  1.514286
  Thomas-Fermi vector in A             =   2.365407
 
 Write flags
   LWAVE  =      F    write WAVECAR
   LCHARG =      T    write CHGCAR
   LVTOT  =      F    write LOCPOT, total local potential
   LVHAR  =      F    write LOCPOT, Hartree potential only
   LELF   =      F    write electronic localiz. function (ELF)
   LORBIT =      0    0 simple, 1 ext, 2 COOP (PROOUT)


 Dipole corrections
   LMONO  =      F    monopole corrections only (constant potential shift)
   LDIPOL =      F    correct potential (dipole corrections)
   IDIPOL =      0    1-x, 2-y, 3-z, 4-all directions 
   EPSILON=  1.0000000 bulk dielectric constant

 Exchange correlation treatment:
   GGA     =    --    GGA type
   LEXCH   =     8    internal setting for exchange type
   VOSKOWN=      0    Vosko Wilk Nusair interpolation
   LHFCALC =     F    Hartree Fock is set to
   LHFONE  =     F    Hartree Fock one center treatment
   AEXX    =    0.0000 exact exchange contribution

 Linear response parameters
   LEPSILON=     F    determine dielectric tensor
   LRPA    =     F    only Hartree local field effects (RPA)
   LNABLA  =     F    use nabla operator in PAW spheres
   LVEL    =     F    velocity operator in full k-point grid
   LINTERFAST=   F  fast interpolation
   KINTER  =     0    interpolate to denser k-point grid
   CSHIFT  =0.1000    complex shift for real part using Kramers Kronig
   OMEGAMAX=  -1.0    maximum frequency
   DEG_THRESHOLD= 0.2000000E-02 threshold for treating states as degnerate
   RTIME   =    0.100 relaxation time in fs

 Orbital magnetization related:
   ORBITALMAG=     F  switch on orbital magnetization
   LCHIMAG   =     F  perturbation theory with respect to B field
   DQ        =  0.001000  dq finite difference perturbation B field



--------------------------------------------------------------------------------------------------------


 Static calculation
 charge density and potential will be updated during run
 non-spin polarized calculation
 RMM-DIIS sequential band-by-band and
  variant of blocked Davidson during initial phase
 perform sub-space diagonalisation
    before iterative eigenvector-optimisation
 modified Broyden-mixing scheme, WC =      100.0
 initial mixing is a Kerker type mixing with AMIX =  0.4000 and BMIX =      1.0000
 Hartree-type preconditioning will be used
 using additional bands            5
 real space projection scheme for non local part
 use partial core corrections
 calculate Harris-corrections to forces 
   (improved forces if not selfconsistent)
 use gradient corrections 
 use of overlap-Matrix (Vanderbilt PP)
 Fermi weights with tetrahedron method with Bloechl corrections


--------------------------------------------------------------------------------------------------------


  energy-cutoff  :      450.00
  volume of cell :      113.02
      direct lattice vectors                 reciprocal lattice vectors
     4.913700000  0.000000000  0.000000000     0.203512628  0.117498070  0.000000000
    -2.456850000  4.255389030  0.000000000     0.000000000  0.234996141  0.000000000
     0.000000000  0.000000000  5.405130000     0.000000000  0.000000000  0.185009426

  length of vectors
     4.913700000  4.913700003  5.405130000     0.234996141  0.234996141  0.185009426


 
 k-points in units of 2pi/SCALE and weight: k-density: 4.0                          
   0.00000000  0.00000000  0.00000000       0.006
   0.03391877  0.01958301  0.00000000       0.022
   0.06783754  0.03916602  0.00000000       0.022
   0.10175631  0.05874904  0.00000000       0.011
   0.03391877  0.05874904  0.00000000       0.011
   0.06783754  0.07833205  0.00000000       0.022
   0.10175631  0.09791506  0.00000000       0.022
  -0.06783754  0.00000000  0.00000000       0.022
  -0.03391877  0.01958301  0.00000000       0.011
   0.06783754  0.11749807  0.00000000       0.011
   0.10175631  0.13708108  0.00000000       0.022
  -0.06783754  0.03916602  0.00000000       0.011
   0.10175631  0.17624711  0.00000000       0.006
   0.00000000  0.00000000  0.03700189       0.011
   0.03391877  0.01958301  0.03700189       0.022
   0.06783754  0.03916602  0.03700189       0.022
   0.10175631  0.05874904  0.03700189       0.022
  -0.06783754 -0.03916602  0.03700189       0.022
  -0.03391877 -0.01958301  0.03700189       0.022
   0.03391877  0.05874904  0.03700189       0.022
   0.06783754  0.07833205  0.03700189       0.022
   0.10175631  0.09791506  0.03700189       0.022
  -0.06783754  0.00000000  0.03700189       0.022
  -0.03391877  0.01958301  0.03700189       0.011
   0.03391877  0.09791506  0.03700189       0.022
   0.06783754  0.11749807  0.03700189       0.022
   0.10175631  0.13708108  0.03700189       0.022
  -0.06783754  0.03916602  0.03700189       0.011
   0.03391877  0.13708108  0.03700189       0.022
   0.06783754  0.15666409  0.03700189       0.022
   0.10175631  0.17624711  0.03700189       0.011
   0.03391877 -0.05874904  0.03700189       0.022
   0.06783754 -0.03916602  0.03700189       0.011
   0.03391877 -0.01958301  0.03700189       0.011
   0.00000000  0.00000000  0.07400377       0.011
   0.03391877  0.01958301  0.07400377       0.022
   0.06783754  0.03916602  0.07400377       0.022
   0.10175631  0.05874904  0.07400377       0.022
  -0.06783754 -0.03916602  0.07400377       0.022
  -0.03391877 -0.01958301  0.07400377       0.022
   0.03391877  0.05874904  0.07400377       0.022
   0.06783754  0.07833205  0.07400377       0.022
   0.10175631  0.09791506  0.07400377       0.022
  -0.06783754  0.00000000  0.07400377       0.022
  -0.03391877  0.01958301  0.07400377       0.011
   0.03391877  0.09791506  0.07400377       0.022
   0.06783754  0.11749807  0.07400377       0.022
   0.10175631  0.13708108  0.07400377       0.022
  -0.06783754  0.03916602  0.07400377       0.011
   0.03391877  0.13708108  0.07400377       0.022
   0.06783754  0.15666409  0.07400377       0.022
   0.10175631  0.17624711  0.07400377       0.011
   0.03391877 -0.05874904  0.07400377       0.022
   0.06783754 -0.03916602  0.07400377       0.011
   0.03391877 -0.01958301  0.07400377       0.011
 
 k-points in reciprocal lattice and weights: k-density: 4.0                          
   0.00000000  0.00000000  0.00000000       0.006
   0.16666667  0.00000000  0.00000000       0.022
   0.33333333  0.00000000  0.00000000       0.022
   0.50000000  0.00000000  0.00000000       0.011
   0.16666667  0.16666667  0.00000000       0.011
   0.33333333  0.16666667  0.00000000       0.022
   0.50000000  0.16666667  0.00000000       0.022
  -0.33333333  0.16666667  0.00000000       0.022
  -0.16666667  0.16666667  0.00000000       0.011
   0.33333333  0.33333333  0.00000000       0.011
   0.50000000  0.33333333  0.00000000       0.022
  -0.33333333  0.33333333  0.00000000       0.011
   0.50000000  0.50000000  0.00000000       0.006
   0.00000000  0.00000000  0.20000000       0.011
   0.16666667  0.00000000  0.20000000       0.022
   0.33333333  0.00000000  0.20000000       0.022
   0.50000000  0.00000000  0.20000000       0.022
  -0.33333333  0.00000000  0.20000000       0.022
  -0.16666667  0.00000000  0.20000000       0.022
   0.16666667  0.16666667  0.20000000       0.022
   0.33333333  0.16666667  0.20000000       0.022
   0.50000000  0.16666667  0.20000000       0.022
  -0.33333333  0.16666667  0.20000000       0.022
  -0.16666667  0.16666667  0.20000000       0.011
   0.16666667  0.33333333  0.20000000       0.022
   0.33333333  0.33333333  0.20000000       0.022
   0.50000000  0.33333333  0.20000000       0.022
  -0.33333333  0.33333333  0.20000000       0.011
   0.16666667  0.50000000  0.20000000       0.022
   0.33333333  0.50000000  0.20000000       0.022
   0.50000000  0.50000000  0.20000000       0.011
   0.16666667 -0.33333333  0.20000000       0.022
   0.33333333 -0.33333333  0.20000000       0.011
   0.16666667 -0.16666667  0.20000000       0.011
   0.00000000  0.00000000  0.40000000       0.011
   0.16666667  0.00000000  0.40000000       0.022
   0.33333333  0.00000000  0.40000000       0.022
   0.50000000  0.00000000  0.40000000       0.022
  -0.33333333  0.00000000  0.40000000       0.022
  -0.16666667  0.00000000  0.40000000       0.022
   0.16666667  0.16666667  0.40000000       0.022
   0.33333333  0.16666667  0.40000000       0.022
   0.50000000  0.16666667  0.40000000       0.022
  -0.33333333  0.16666667  0.40000000       0.022
  -0.16666667  0.16666667  0.40000000       0.011
   0.16666667  0.33333333  0.40000000       0.022
   0.33333333  0.33333333  0.40000000       0.022
   0.50000000  0.33333333  0.40000000       0.022
  -0.33333333  0.33333333  0.40000000       0.011
   0.16666667  0.50000000  0.40000000       0.022
   0.33333333  0.50000000  0.40000000       0.022
   0.50000000  0.50000000  0.40000000       0.011
   0.16666667 -0.33333333  0.40000000       0.022
   0.33333333 -0.33333333  0.40000000       0.011
   0.16666667 -0.16666667  0.40000000       0.011
 
 position of ions in fractional coordinates (direct lattice) 
   0.46980000  0.00000000  0.66667000
   0.00000000  0.46980000  0.33333000
   0.53020000  0.53020000  0.00000000
   0.41450000  0.26620000  0.78560000
   0.73380000  0.14830000  0.45227000
   0.85170000  0.58550000  0.11893000
   0.14830000  0.73380000  0.54773000
   0.26620000  0.41450000  0.21440000
   0.58550000  0.85170000  0.88107000
 
 position of ions in cartesian coordinates  (Angst):
   2.30845626  0.00000000  3.60343802
  -1.15422813  1.99918177  1.80169198
   1.30262187  2.25620726  0.00000000
   1.38271518  1.13278456  4.24627013
   3.24132221  0.63107419  2.44457815
   2.74651261  2.49153028  0.64283211
  -1.07413482  3.12260447  2.96055185
   0.28966261  1.76385875  1.15885987
   0.78447221  3.62431484  4.76229789
 


--------------------------------------------------------------------------------------------------------


 k-point  1 :   0.0000 0.0000 0.0000  plane waves:    2461
 k-point  2 :   0.1667 0.0000 0.0000  plane waves:    2469
 k-point  3 :   0.3333 0.0000 0.0000  plane waves:    2451
 k-point  4 :   0.5000 0.0000 0.0000  plane waves:    2438
 k-point  5 :   0.1667 0.1667 0.0000  plane waves:    2461
 k-point  6 :   0.3333 0.1667 0.0000  plane waves:    2444
 k-point  7 :   0.5000 0.1667 0.0000  plane waves:    2444
 k-point  8 :  -0.3333 0.1667 0.0000  plane waves:    2461
 k-point  9 :  -0.1667 0.1667 0.0000  plane waves:    2469
 k-point 10 :   0.3333 0.3333 0.0000  plane waves:    2418
 k-point 11 :   0.5000 0.3333 0.0000  plane waves:    2444
 k-point 12 :  -0.3333 0.3333 0.0000  plane waves:    2451
 k-point 13 :   0.5000 0.5000 0.0000  plane waves:    2438
 k-point 14 :   0.0000 0.0000 0.2000  plane waves:    2485
 k-point 15 :   0.1667 0.0000 0.2000  plane waves:    2453
 k-point 16 :   0.3333 0.0000 0.2000  plane waves:    2452
 k-point 17 :   0.5000 0.0000 0.2000  plane waves:    2432
 k-point 18 :  -0.3333 0.0000 0.2000  plane waves:    2452
 k-point 19 :  -0.1667 0.0000 0.2000  plane waves:    2453
 k-point 20 :   0.1667 0.1667 0.2000  plane waves:    2459
 k-point 21 :   0.3333 0.1667 0.2000  plane waves:    2442
 k-point 22 :   0.5000 0.1667 0.2000  plane waves:    2442
 k-point 23 :  -0.3333 0.1667 0.2000  plane waves:    2459
 k-point 24 :  -0.1667 0.1667 0.2000  plane waves:    2453
 k-point 25 :   0.1667 0.3333 0.2000  plane waves:    2442
 k-point 26 :   0.3333 0.3333 0.2000  plane waves:    2448
 k-point 27 :   0.5000 0.3333 0.2000  plane waves:    2442
 k-point 28 :  -0.3333 0.3333 0.2000  plane waves:    2452
 k-point 29 :   0.1667 0.5000 0.2000  plane waves:    2442
 k-point 30 :   0.3333 0.5000 0.2000  plane waves:    2442
 k-point 31 :   0.5000 0.5000 0.2000  plane waves:    2432
 k-point 32 :   0.1667-0.3333 0.2000  plane waves:    2459
 k-point 33 :   0.3333-0.3333 0.2000  plane waves:    2452
 k-point 34 :   0.1667-0.1667 0.2000  plane waves:    2453
 k-point 35 :   0.0000 0.0000 0.4000  plane waves:    2454
 k-point 36 :   0.1667 0.0000 0.4000  plane waves:    2452
 k-point 37 :   0.3333 0.0000 0.4000  plane waves:    2454
 k-point 38 :   0.5000 0.0000 0.4000  plane waves:    2426
 k-point 39 :  -0.3333 0.0000 0.4000  plane waves:    2454
 k-point 40 :  -0.1667 0.0000 0.4000  plane waves:    2452
 k-point 41 :   0.1667 0.1667 0.4000  plane waves:    2457
 k-point 42 :   0.3333 0.1667 0.4000  plane waves:    2443
 k-point 43 :   0.5000 0.1667 0.4000  plane waves:    2443
 k-point 44 :  -0.3333 0.1667 0.4000  plane waves:    2457
 k-point 45 :  -0.1667 0.1667 0.4000  plane waves:    2452
 k-point 46 :   0.1667 0.3333 0.4000  plane waves:    2443
 k-point 47 :   0.3333 0.3333 0.4000  plane waves:    2442
 k-point 48 :   0.5000 0.3333 0.4000  plane waves:    2443
 k-point 49 :  -0.3333 0.3333 0.4000  plane waves:    2454
 k-point 50 :   0.1667 0.5000 0.4000  plane waves:    2443
 k-point 51 :   0.3333 0.5000 0.4000  plane waves:    2443
 k-point 52 :   0.5000 0.5000 0.4000  plane waves:    2426
 k-point 53 :   0.1667-0.3333 0.4000  plane waves:    2457
 k-point 54 :   0.3333-0.3333 0.4000  plane waves:    2454
 k-point 55 :   0.1667-0.1667 0.4000  plane waves:    2452

 maximum and minimum number of plane-waves per node :      2485     2418

 maximum number of plane-waves:      2485
 maximum index in each direction: 
   IXMAX=    8   IYMAX=    8   IZMAX=    9
   IXMIN=   -8   IYMIN=   -8   IZMIN=   -9

 WARNING: aliasing errors must be expected set NGX to  34 to avoid them
 WARNING: aliasing errors must be expected set NGY to  34 to avoid them
 WARNING: aliasing errors must be expected set NGZ to  38 to avoid them
 aliasing errors are usually negligible using standard VASP settings
 and one can safely disregard these warnings

 serial   3D FFT for wavefunctions
 parallel 3D FFT for charge:
    minimum data exchange during FFTs selected (reduces bandwidth)


 total amount of memory used by VASP on root node   113578. kBytes
========================================================================

   base      :      30000. kBytes
   nonlr-proj:       1129. kBytes
   fftplans  :       6192. kBytes
   grid      :      10976. kBytes
   one-center:         27. kBytes
   wavefun   :      65254. kBytes
 
     INWAV:  cpu time    0.0010: real time    0.0003
 Broyden mixing: mesh for mixing (old mesh)
   NGX = 17   NGY = 17   NGZ = 19
  (NGX  = 56   NGY  = 56   NGZ  = 56)
  gives a total of   5491 points

 initial charge density was supplied:
 charge density of overlapping atoms calculated
 number of electron      48.0000000 magnetization 
 keeping initial charge density in first step


--------------------------------------------------------------------------------------------------------


 Maximum index for non-local projection operator         1469
 Maximum index for augmentation-charges         6296 (set IRDMAX)


--------------------------------------------------------------------------------------------------------


 First call to EWALD:  gamma=   0.367
 Maximum number of real-space cells 3x 3x 3
 Maximum number of reciprocal cells 3x 3x 3

 FEWALD executed in parallel
    FEWALD:  cpu time    0.0010: real time    0.0017


----------------------------------------- Iteration    1(   1)  ---------------------------------------


    POTLOK:  cpu time    0.0870: real time    0.0879
    SETDIJ:  cpu time    0.0120: real time    0.0137
     EDDAV:  cpu time    5.0362: real time    5.0350
 BZINTS: Fermi energy: 16.523637; 48.000000 electrons
         Band energy: -42.477453;  BLOECHL correction: -0.178359
       DOS:  cpu time    0.0160: real time    0.0169
    --------------------------------------------
      LOOP:  cpu time    5.1542: real time    5.1940

 eigenvalue-minimisations  :  3222
 total energy-change (2. order) : 0.2898314E+03  (-0.2393738E+04)
 number of electron      48.0000000 magnetization 
 augmentation part       48.0000000 magnetization 

 Free energy of the ion-electron system (eV)
  ---------------------------------------------------
  alpha Z        PSCENC =        69.72802778
  Ewald energy   TEWEN  =     -1887.20590689
  -Hartree energ DENC   =      -937.14514243
  -exchange      EXHF   =         0.00000000
  -V(xc)+E(xc)   XCENC  =       142.01294014
  PAW double counting   =      1574.92322788    -1533.24131965
  entropy T*S    EENTRO =         0.00000000
  eigenvalues    EBANDS =       -42.47745319
  atomic energy  EATOM  =      2903.23703609
  Solvation  Ediel_sol  =         0.00000000
  ---------------------------------------------------
  free energy    TOTEN  =       289.83140974 eV

  energy without entropy =      289.83140974  energy(sigma->0) =      289.83140974


--------------------------------------------------------------------------------------------------------




----------------------------------------- Iteration    1(   2)  ---------------------------------------


     EDDAV:  cpu time    6.2131: real time    6.2112
 BZINTS: Fermi energy: -0.379390; 48.000000 electrons
         Band energy:-394.282707;  BLOECHL correction:  0.000000
       DOS:  cpu time    0.0040: real time    0.0037
    --------------------------------------------
      LOOP:  cpu time    6.2181: real time    6.2340

 eigenvalue-minimisations  :  4188
 total energy-change (2. order) :-0.3518053E+03  (-0.3440408E+03)
 number of electron      48.0000000 magnetization 
 augmentation part       48.0000000 magnetization 

 Free energy of the ion-electron system (eV)
  ---------------------------------------------------
  alpha Z        PSCENC =        69.72802778
  Ewald energy   TEWEN  =     -1887.20590689
  -Hartree energ DENC   =      -937.14514243
  -exchange      EXHF   =         0.00000000
  -V(xc)+E(xc)   XCENC  =       142.01294014
  PAW double counting   =      1574.92322788    -1533.24131965
  entropy T*S    EENTRO =         0.00000000
  eigenvalues    EBANDS =      -394.28270666
  atomic energy  EATOM  =      2903.23703609
  Solvation  Ediel_sol  =         0.00000000
  ---------------------------------------------------
  free energy    TOTEN  =       -61.97384373 eV

  energy without entropy =      -61.97384373  energy(sigma->0) =      -61.97384373


--------------------------------------------------------------------------------------------------------




----------------------------------------- Iteration    1(   3)  ---------------------------------------


     EDDAV:  cpu time    5.6681: real time    5.6674
 BZINTS: Fermi energy: -2.104384; 48.000000 electrons
         Band energy:-412.692018;  BLOECHL correction:  0.000000
       DOS:  cpu time    0.0030: real time    0.0027
    --------------------------------------------
      LOOP:  cpu time    5.6721: real time    5.6800

 eigenvalue-minimisations  :  3740
 total energy-change (2. order) :-0.1840931E+02  (-0.1835687E+02)
 number of electron      48.0000000 magnetization 
 augmentation part       48.0000000 magnetization 

 Free energy of the ion-electron system (eV)
  ---------------------------------------------------
  alpha Z        PSCENC =        69.72802778
  Ewald energy   TEWEN  =     -1887.20590689
  -Hartree energ DENC   =      -937.14514243
  -exchange      EXHF   =         0.00000000
  -V(xc)+E(xc)   XCENC  =       142.01294014
  PAW double counting   =      1574.92322788    -1533.24131965
  entropy T*S    EENTRO =         0.00000000
  eigenvalues    EBANDS =      -412.69201755
  atomic energy  EATOM  =      2903.23703609
  Solvation  Ediel_sol  =         0.00000000
  ---------------------------------------------------
  free energy    TOTEN  =       -80.38315463 eV

  energy without entropy =      -80.38315463  energy(sigma->0) =      -80.38315463


--------------------------------------------------------------------------------------------------------




----------------------------------------- Iteration    1(   4)  ---------------------------------------


     EDDAV:  cpu time    5.7001: real time    5.6992
 BZINTS: Fermi energy: -2.157544; 48.000000 electrons
         Band energy:-412.924892;  BLOECHL correction:  0.000000
       DOS:  cpu time    0.0020: real time    0.0022
    --------------------------------------------
      LOOP:  cpu time    5.7031: real time    5.7077

 eigenvalue-minimisations  :  3780
 total energy-change (2. order) :-0.2328747E+00  (-0.2325414E+00)
 number of electron      48.0000000 magnetization 
 augmentation part       48.0000000 magnetization 

 Free energy of the ion-electron system (eV)
  ---------------------------------------------------
  alpha Z        PSCENC =        69.72802778
  Ewald energy   TEWEN  =     -1887.20590689
  -Hartree energ DENC   =      -937.14514243
  -exchange      EXHF   =         0.00000000
  -V(xc)+E(xc)   XCENC  =       142.01294014
  PAW double counting   =      1574.92322788    -1533.24131965
  entropy T*S    EENTRO =         0.00000000
  eigenvalues    EBANDS =      -412.92489225
  atomic energy  EATOM  =      2903.23703609
  Solvation  Ediel_sol  =         0.00000000
  ---------------------------------------------------
  free energy    TOTEN  =       -80.61602933 eV

  energy without entropy =      -80.61602933  energy(sigma->0) =      -80.61602933


--------------------------------------------------------------------------------------------------------




----------------------------------------- Iteration    1(   5)  ---------------------------------------


     EDDAV:  cpu time    5.6251: real time    5.6250
 BZINTS: Fermi energy: -2.163041; 48.000000 electrons
         Band energy:-412.929440;  BLOECHL correction:  0.000000
       DOS:  cpu time    0.0030: real time    0.0022
    CHARGE:  cpu time    0.3789: real time    0.3788
    MIXING:  cpu time    0.0020: real time    0.0027
    --------------------------------------------
      LOOP:  cpu time    6.0111: real time    6.0318

 eigenvalue-minimisations  :  3705
 total energy-change (2. order) :-0.4548183E-02  (-0.4546507E-02)
 number of electron      48.0000003 magnetization 
 augmentation part        4.4697466 magnetization 

 Broyden mixing:
  rms(total) = 0.18708E+01    rms(broyden)= 0.18698E+01
  rms(prec ) = 0.34893E+01
  weight for this iteration     100.00

 Free energy of the ion-electron system (eV)
  ---------------------------------------------------
  alpha Z        PSCENC =        69.72802778
  Ewald energy   TEWEN  =     -1887.20590689
  -Hartree energ DENC   =      -937.14514243
  -exchange      EXHF   =         0.00000000
  -V(xc)+E(xc)   XCENC  =       142.01294014
  PAW double counting   =      1574.92322788    -1533.24131965
  entropy T*S    EENTRO =         0.00000000
  eigenvalues    EBANDS =      -412.92944044
  atomic energy  EATOM  =      2903.23703609
  Solvation  Ediel_sol  =         0.00000000
  ---------------------------------------------------
  free energy    TOTEN  =       -80.62057751 eV

  energy without entropy =      -80.62057751  energy(sigma->0) =      -80.62057751


--------------------------------------------------------------------------------------------------------




----------------------------------------- Iteration    1(   6)  ---------------------------------------


    POTLOK:  cpu time    0.0870: real time    0.0877
    SETDIJ:  cpu time    0.0130: real time    0.0129
    EDDIAG:  cpu time    0.9349: real time    0.9357
  RMM-DIIS:  cpu time    3.6005: real time    3.6005
    ORTHCH:  cpu time    0.0950: real time    0.0950
 BZINTS: Fermi energy:  0.680566; 48.000000 electrons
         Band energy:-299.814175;  BLOECHL correction:  0.000000
       DOS:  cpu time    0.0030: real time    0.0028
    CHARGE:  cpu time    0.3869: real time    0.3875
    MIXING:  cpu time    0.0030: real time    0.0026
    --------------------------------------------
      LOOP:  cpu time    5.1262: real time    5.1311

 eigenvalue-minimisations  :  3391
 total energy-change (2. order) : 0.9597179E+01  (-0.4167878E+01)
 number of electron      48.0000003 magnetization 
 augmentation part        3.6633271 magnetization 

 Broyden mixing:
  rms(total) = 0.51098E+00    rms(broyden)= 0.51017E+00
  rms(prec ) = 0.82034E+00
  weight for this iteration     100.00

 eigenvalues of (default mixing * dielectric matrix)
  average eigenvalue GAMMA=   1.0031
  1.0031

 Free energy of the ion-electron system (eV)
  ---------------------------------------------------
  alpha Z        PSCENC =        69.72802778
  Ewald energy   TEWEN  =     -1887.20590689
  -Hartree energ DENC   =     -1045.73971318
  -exchange      EXHF   =         0.00000000
  -V(xc)+E(xc)   XCENC  =       149.30142883
  PAW double counting   =      1887.26821550    -1847.79831201
  entropy T*S    EENTRO =         0.00000000
  eigenvalues    EBANDS =      -299.81417481
  atomic energy  EATOM  =      2903.23703609
  Solvation  Ediel_sol  =         0.00000000
  ---------------------------------------------------
  free energy    TOTEN  =       -71.02339869 eV

  energy without entropy =      -71.02339869  energy(sigma->0) =      -71.02339869


--------------------------------------------------------------------------------------------------------




----------------------------------------- Iteration    1(   7)  ---------------------------------------


    POTLOK:  cpu time    0.0910: real time    0.0910
    SETDIJ:  cpu time    0.0140: real time    0.0133
    EDDIAG:  cpu time    0.9879: real time    0.9887
  RMM-DIIS:  cpu time    3.9024: real time    3.9009
    ORTHCH:  cpu time    0.0900: real time    0.0896
 BZINTS: Fermi energy:  1.047111; 48.000000 electrons
         Band energy:-283.181280;  BLOECHL correction:  0.000000
       DOS:  cpu time    0.0030: real time    0.0027
    CHARGE:  cpu time    0.3669: real time    0.3674
    MIXING:  cpu time    0.0030: real time    0.0026
    --------------------------------------------
      LOOP:  cpu time    5.4592: real time    5.4746

 eigenvalue-minimisations  :  3672
 total energy-change (2. order) : 0.9112959E-02  (-0.1729807E+00)
 number of electron      48.0000003 magnetization 
 augmentation part        3.5493470 magnetization 

 Broyden mixing:
  rms(total) = 0.33816E+00    rms(broyden)= 0.33803E+00
  rms(prec ) = 0.48031E+00
  weight for this iteration     100.00

 eigenvalues of (default mixing * dielectric matrix)
  average eigenvalue GAMMA=   1.7490
  1.1606  2.3373

 Free energy of the ion-electron system (eV)
  ---------------------------------------------------
  alpha Z        PSCENC =        69.72802778
  Ewald energy   TEWEN  =     -1887.20590689
  -Hartree energ DENC   =     -1063.34111080
  -exchange      EXHF   =         0.00000000
  -V(xc)+E(xc)   XCENC  =       150.49658998
  PAW double counting   =      1982.15755381    -1942.90519565
  entropy T*S    EENTRO =         0.00000000
  eigenvalues    EBANDS =      -283.18128005
  atomic energy  EATOM  =      2903.23703609
  Solvation  Ediel_sol  =         0.00000000
  ---------------------------------------------------
  free energy    TOTEN  =       -71.01428573 eV

  energy without entropy =      -71.01428573  energy(sigma->0) =      -71.01428573


--------------------------------------------------------------------------------------------------------




----------------------------------------- Iteration    1(   8)  ---------------------------------------


    POTLOK:  cpu time    0.0850: real time    0.0860
    SETDIJ:  cpu time    0.0130: real time    0.0125
    EDDIAG:  cpu time    0.9349: real time    0.9345
  RMM-DIIS:  cpu time    3.8694: real time    3.8719
    ORTHCH:  cpu time    0.0910: real time    0.0921
 BZINTS: Fermi energy:  0.992380; 48.000000 electrons
         Band energy:-280.696284;  BLOECHL correction:  0.000000
       DOS:  cpu time    0.0040: real time    0.0026
    CHARGE:  cpu time    0.3789: real time    0.3800
    MIXING:  cpu time    0.0020: real time    0.0031
    --------------------------------------------
      LOOP:  cpu time    5.3792: real time    5.3897

 eigenvalue-minimisations  :  3604
 total energy-change (2. order) :-0.2004670E-01  (-0.2740704E-01)
 number of electron      48.0000003 magnetization 
 augmentation part        3.5904603 magnetization 

 Broyden mixing:
  rms(total) = 0.64581E-01    rms(broyden)= 0.64575E-01
  rms(prec ) = 0.12078E+00
  weight for this iteration     100.00

 eigenvalues of (default mixing * dielectric matrix)
  average eigenvalue GAMMA=   1.5776
  2.5621  1.0854  1.0854

 Free energy of the ion-electron system (eV)
  ---------------------------------------------------
  alpha Z        PSCENC =        69.72802778
  Ewald energy   TEWEN  =     -1887.20590689
  -Hartree energ DENC   =     -1066.21141201
  -exchange      EXHF   =         0.00000000
  -V(xc)+E(xc)   XCENC  =       150.77547825
  PAW double counting   =      2054.91220873    -2015.57348004
  entropy T*S    EENTRO =         0.00000000
  eigenvalues    EBANDS =      -280.69628432
  atomic energy  EATOM  =      2903.23703609
  Solvation  Ediel_sol  =         0.00000000
  ---------------------------------------------------
  free energy    TOTEN  =       -71.03433243 eV

  energy without entropy =      -71.03433243  energy(sigma->0) =      -71.03433243


--------------------------------------------------------------------------------------------------------




----------------------------------------- Iteration    1(   9)  ---------------------------------------


    POTLOK:  cpu time    0.0910: real time    0.0918
    SETDIJ:  cpu time    0.0140: real time    0.0144
    EDDIAG:  cpu time    0.9968: real time    0.9968
  RMM-DIIS:  cpu time    4.1354: real time    4.1357
    ORTHCH:  cpu time    0.0920: real time    0.0921
 BZINTS: Fermi energy:  1.145576; 48.000000 electrons
         Band energy:-275.852717;  BLOECHL correction:  0.000000
       DOS:  cpu time    0.0030: real time    0.0028
    CHARGE:  cpu time    0.3789: real time    0.3782
    MIXING:  cpu time    0.0030: real time    0.0029
    --------------------------------------------
      LOOP:  cpu time    5.7161: real time    5.7325

 eigenvalue-minimisations  :  3733
 total energy-change (2. order) : 0.8133682E-02  (-0.5489467E-02)
 number of electron      48.0000003 magnetization 
 augmentation part        3.5663080 magnetization 

 Broyden mixing:
  rms(total) = 0.13717E-01    rms(broyden)= 0.13682E-01
  rms(prec ) = 0.20893E-01
  weight for this iteration     100.00

 eigenvalues of (default mixing * dielectric matrix)
  average eigenvalue GAMMA=   1.8880
  2.9811  2.4910  1.0399  1.0399

 Free energy of the ion-electron system (eV)
  ---------------------------------------------------
  alpha Z        PSCENC =        69.72802778
  Ewald energy   TEWEN  =     -1887.20590689
  -Hartree energ DENC   =     -1071.31474235
  -exchange      EXHF   =         0.00000000
  -V(xc)+E(xc)   XCENC  =       151.12665696
  PAW double counting   =      2067.77416879    -2028.51872176
  entropy T*S    EENTRO =         0.00000000
  eigenvalues    EBANDS =      -275.85271737
  atomic energy  EATOM  =      2903.23703609
  Solvation  Ediel_sol  =         0.00000000
  ---------------------------------------------------
  free energy    TOTEN  =       -71.02619874 eV

  energy without entropy =      -71.02619874  energy(sigma->0) =      -71.02619874


--------------------------------------------------------------------------------------------------------




----------------------------------------- Iteration    1(  10)  ---------------------------------------


    POTLOK:  cpu time    0.0880: real time    0.0891
    SETDIJ:  cpu time    0.0130: real time    0.0129
    EDDIAG:  cpu time    0.9659: real time    0.9648
  RMM-DIIS:  cpu time    4.0464: real time    4.0464
    ORTHCH:  cpu time    0.0920: real time    0.0921
 BZINTS: Fermi energy:  1.168793; 48.000000 electrons
         Band energy:-274.418947;  BLOECHL correction:  0.000000
       DOS:  cpu time    0.0030: real time    0.0027
    CHARGE:  cpu time    0.3789: real time    0.3782
    MIXING:  cpu time    0.0030: real time    0.0030
    --------------------------------------------
      LOOP:  cpu time    5.5911: real time    5.5953

 eigenvalue-minimisations  :  3672
 total energy-change (2. order) :-0.3567181E-02  (-0.2034793E-02)
 number of electron      48.0000003 magnetization 
 augmentation part        3.5522916 magnetization 

 Broyden mixing:
  rms(total) = 0.25346E-01    rms(broyden)= 0.25335E-01
  rms(prec ) = 0.43198E-01
  weight for this iteration     100.00

 eigenvalues of (default mixing * dielectric matrix)
  average eigenvalue GAMMA=   1.6711
  2.7850  2.4691  1.0608  1.0608  0.9798

 Free energy of the ion-electron system (eV)
  ---------------------------------------------------
  alpha Z        PSCENC =        69.72802778
  Ewald energy   TEWEN  =     -1887.20590689
  -Hartree energ DENC   =     -1072.82929082
  -exchange      EXHF   =         0.00000000
  -V(xc)+E(xc)   XCENC  =       151.22502217
  PAW double counting   =      2062.69951476    -2023.46522156
  entropy T*S    EENTRO =         0.00000000
  eigenvalues    EBANDS =      -274.41894746
  atomic energy  EATOM  =      2903.23703609
  Solvation  Ediel_sol  =         0.00000000
  ---------------------------------------------------
  free energy    TOTEN  =       -71.02976592 eV

  energy without entropy =      -71.02976592  energy(sigma->0) =      -71.02976592


--------------------------------------------------------------------------------------------------------




----------------------------------------- Iteration    1(  11)  ---------------------------------------


    POTLOK:  cpu time    0.0890: real time    0.0895
    SETDIJ:  cpu time    0.0130: real time    0.0129
    EDDIAG:  cpu time    0.9659: real time    0.9650
  RMM-DIIS:  cpu time    4.0994: real time    4.0993
    ORTHCH:  cpu time    0.0920: real time    0.0921
 BZINTS: Fermi energy:  1.151578; 48.000000 electrons
         Band energy:-275.487305;  BLOECHL correction:  0.000000
       DOS:  cpu time    0.0030: real time    0.0028
    CHARGE:  cpu time    0.3789: real time    0.3780
    MIXING:  cpu time    0.0030: real time    0.0031
    --------------------------------------------
      LOOP:  cpu time    5.6451: real time    5.6599

 eigenvalue-minimisations  :  3728
 total energy-change (2. order) : 0.1600097E-02  (-0.3254828E-03)
 number of electron      48.0000003 magnetization 
 augmentation part        3.5584320 magnetization 

 Broyden mixing:
  rms(total) = 0.76110E-02    rms(broyden)= 0.76094E-02
  rms(prec ) = 0.13323E-01
  weight for this iteration     100.00

 eigenvalues of (default mixing * dielectric matrix)
  average eigenvalue GAMMA=   1.7131
  2.9575  2.4735  1.5187  0.9504  1.1891  1.1891

 Free energy of the ion-electron system (eV)
  ---------------------------------------------------
  alpha Z        PSCENC =        69.72802778
  Ewald energy   TEWEN  =     -1887.20590689
  -Hartree energ DENC   =     -1071.70493227
  -exchange      EXHF   =         0.00000000
  -V(xc)+E(xc)   XCENC  =       151.14891570
  PAW double counting   =      2060.43181607    -2021.17581733
  entropy T*S    EENTRO =         0.00000000
  eigenvalues    EBANDS =      -275.48730498
  atomic energy  EATOM  =      2903.23703609
  Solvation  Ediel_sol  =         0.00000000
  ---------------------------------------------------
  free energy    TOTEN  =       -71.02816583 eV

  energy without entropy =      -71.02816583  energy(sigma->0) =      -71.02816583


--------------------------------------------------------------------------------------------------------




----------------------------------------- Iteration    1(  12)  ---------------------------------------


    POTLOK:  cpu time    0.0880: real time    0.0892
    SETDIJ:  cpu time    0.0130: real time    0.0129
    EDDIAG:  cpu time    0.9659: real time    0.9647
  RMM-DIIS:  cpu time    4.0754: real time    4.0750
    ORTHCH:  cpu time    0.0920: real time    0.0920
 BZINTS: Fermi energy:  1.144331; 48.000000 electrons
         Band energy:-275.855034;  BLOECHL correction:  0.000000
       DOS:  cpu time    0.0030: real time    0.0027
    CHARGE:  cpu time    0.3779: real time    0.3779
    MIXING:  cpu time    0.0030: real time    0.0033
    --------------------------------------------
      LOOP:  cpu time    5.6191: real time    5.6240

 eigenvalue-minimisations  :  3720
 total energy-change (2. order) : 0.7691284E-04  (-0.1123959E-03)
 number of electron      48.0000003 magnetization 
 augmentation part        3.5622381 magnetization 

 Broyden mixing:
  rms(total) = 0.71279E-03    rms(broyden)= 0.68765E-03
  rms(prec ) = 0.10731E-02
  weight for this iteration     100.00

 eigenvalues of (default mixing * dielectric matrix)
  average eigenvalue GAMMA=   1.6877
  2.8818  2.2557  2.2557  1.0303  1.0527  1.1687  1.1687

 Free energy of the ion-electron system (eV)
  ---------------------------------------------------
  alpha Z        PSCENC =        69.72802778
  Ewald energy   TEWEN  =     -1887.20590689
  -Hartree energ DENC   =     -1071.31614423
  -exchange      EXHF   =         0.00000000
  -V(xc)+E(xc)   XCENC  =       151.12082556
  PAW double counting   =      2059.57049513    -2020.30738871
  entropy T*S    EENTRO =         0.00000000
  eigenvalues    EBANDS =      -275.85503364
  atomic energy  EATOM  =      2903.23703609
  Solvation  Ediel_sol  =         0.00000000
  ---------------------------------------------------
  free energy    TOTEN  =       -71.02808891 eV

  energy without entropy =      -71.02808891  energy(sigma->0) =      -71.02808891


--------------------------------------------------------------------------------------------------------




----------------------------------------- Iteration    1(  13)  ---------------------------------------


    POTLOK:  cpu time    0.0890: real time    0.0892
    SETDIJ:  cpu time    0.0130: real time    0.0129
    EDDIAG:  cpu time    0.9639: real time    0.9646
  RMM-DIIS:  cpu time    3.3165: real time    3.3147
    ORTHCH:  cpu time    0.0930: real time    0.0927
 BZINTS: Fermi energy:  1.141232; 48.000000 electrons
         Band energy:-275.816840;  BLOECHL correction:  0.000000
       DOS:  cpu time    0.0030: real time    0.0028
    --------------------------------------------
      LOOP:  cpu time    4.4803: real time    4.4974

 eigenvalue-minimisations  :  2873
 total energy-change (2. order) :-0.3920792E-05  (-0.3332351E-05)
 number of electron      48.0000003 magnetization 
 augmentation part        3.5622381 magnetization 

 Free energy of the ion-electron system (eV)
  ---------------------------------------------------
  alpha Z        PSCENC =        69.72802778
  Ewald energy   TEWEN  =     -1887.20590689
  -Hartree energ DENC   =     -1071.35599654
  -exchange      EXHF   =         0.00000000
  -V(xc)+E(xc)   XCENC  =       151.12329046
  PAW double counting   =      2059.76230609    -2020.50000934
  entropy T*S    EENTRO =         0.00000000
  eigenvalues    EBANDS =      -275.81684049
  atomic energy  EATOM  =      2903.23703609
  Solvation  Ediel_sol  =         0.00000000
  ---------------------------------------------------
  free energy    TOTEN  =       -71.02809283 eV

  energy without entropy =      -71.02809283  energy(sigma->0) =      -71.02809283


--------------------------------------------------------------------------------------------------------




 average (electrostatic) potential at core
  the test charge radii are     0.9892  0.7215
  (the norm of the test charge is              1.0000)
       1 -86.3825       2 -86.3825       3 -86.3825       4 -72.3985       5 -72.3983
       6 -72.3986       7 -72.3983       8 -72.3985       9 -72.3986
 
 
 
 E-fermi :   1.1412     XC(G=0):  -9.2018     alpha+bet :-10.3421


 k-point     1 :       0.0000    0.0000    0.0000
  band No.  band energies     occupation 
      1     -18.3708      2.00000
      2     -16.8342      2.00000
      3     -16.8340      2.00000
      4     -16.1985      2.00000
      5     -16.1511      2.00000
      6     -16.1509      2.00000
      7      -7.1742      2.00000
      8      -7.1740      2.00000
      9      -4.3335      2.00000
     10      -4.3275      2.00000
     11      -4.1756      2.00000
     12      -4.1754      2.00000
     13      -1.8574      2.00000
     14      -1.8573      2.00000
     15      -1.6198      2.00000
     16      -1.3597      2.00000
     17      -0.4081      2.00000
     18      -0.4080      2.00000
     19      -0.3902      2.00000
     20       0.1131      2.00000
     21       0.1132      2.00000
     22       0.4223      2.00000
     23       0.7626      2.00000
     24       0.7627      2.00000
     25       7.1221      0.00000
     26      10.3998      0.00000
     27      10.3999      0.00000
     28      10.9024      0.00000
     29      10.9025      0.00000

 k-point     2 :       0.1667    0.0000    0.0000
  band No.  band energies     occupation 
      1     -18.2894      2.00000
      2     -16.9284      2.00000
      3     -16.8221      2.00000
      4     -16.2185      2.00000
      5     -16.1681      2.00000
      6     -16.1575      2.00000
      7      -7.2117      2.00000
      8      -6.9925      2.00000
      9      -4.3737      2.00000
     10      -4.3477      2.00000
     11      -4.2763      2.00000
     12      -4.0148      2.00000
     13      -1.9825      2.00000
     14      -1.7976      2.00000
     15      -1.5896      2.00000
     16      -1.1931      2.00000
     17      -0.6818      2.00000
     18      -0.4471      2.00000
     19      -0.4018      2.00000
     20       0.0500      2.00000
     21       0.1027      2.00000
     22       0.3200      2.00000
     23       0.8258      2.00000
     24       0.8596      2.00000
     25       7.5446      0.00000
     26      10.3864      0.00000
     27      10.4465      0.00000
     28      10.9372      0.00000
     29      11.0465      0.00000

 k-point     3 :       0.3333    0.0000    0.0000
  band No.  band energies     occupation 
      1     -18.0704      2.00000
      2     -17.1873      2.00000
      3     -16.7963      2.00000
      4     -16.2415      2.00000
      5     -16.1963      2.00000
      6     -16.1764      2.00000
      7      -7.2834      2.00000
      8      -6.5729      2.00000
      9      -4.6296      2.00000
     10      -4.3814      2.00000
     11      -4.2995      2.00000
     12      -3.7123      2.00000
     13      -2.0648      2.00000
     14      -1.6890      2.00000
     15      -1.5643      2.00000
     16      -1.1969      2.00000
     17      -0.9978      2.00000
     18      -0.5784      2.00000
     19      -0.4866      2.00000
     20      -0.0011      2.00000
     21       0.0681      2.00000
     22       0.2711      2.00000
     23       0.8540      2.00000
     24       1.0035      2.00000
     25       8.5440      0.00000
     26      10.4307      0.00000
     27      10.5573      0.00000
     28      11.0613      0.00000
     29      11.4306      0.00000

 k-point     4 :       0.5000    0.0000    0.0000
  band No.  band energies     occupation 
      1     -17.8809      2.00000
      2     -17.4016      2.00000
      3     -16.7827      2.00000
      4     -16.2474      2.00000
      5     -16.2086      2.00000
      6     -16.1876      2.00000
      7      -7.3177      2.00000
      8      -6.3107      2.00000
      9      -4.8178      2.00000
     10      -4.3588      2.00000
     11      -4.3276      2.00000
     12      -3.5465      2.00000
     13      -1.9927      2.00000
     14      -1.8260      2.00000
     15      -1.5955      2.00000
     16      -1.2142      2.00000
     17      -1.0058      2.00000
     18      -0.6614      2.00000
     19      -0.5940      2.00000
     20      -0.0039      2.00000
     21       0.0612      2.00000
     22       0.3015      2.00000
     23       0.8373      2.00000
     24       1.0612      2.00000
     25       9.3820      0.00000
     26      10.1210      0.00000
     27      10.8459      0.00000
     28      10.8473      0.00000
     29      11.6399      0.00000

 k-point     5 :       0.1667    0.1667    0.0000
  band No.  band energies     occupation 
      1     -18.1367      2.00000
      2     -17.1041      2.00000
      3     -16.8104      2.00000
      4     -16.2363      2.00000
      5     -16.1933      2.00000
      6     -16.1672      2.00000
      7      -7.2758      2.00000
      8      -6.6666      2.00000
      9      -4.6376      2.00000
     10      -4.3665      2.00000
     11      -4.2243      2.00000
     12      -3.8019      2.00000
     13      -2.0319      2.00000
     14      -1.7844      2.00000
     15      -1.4847      2.00000
     16      -1.0845      2.00000
     17      -1.0766      2.00000
     18      -0.5572      2.00000
     19      -0.3591      2.00000
     20      -0.1275      2.00000
     21       0.1858      2.00000
     22       0.2308      2.00000
     23       0.8449      2.00000
     24       0.9807      2.00000
     25       8.2527      0.00000
     26      10.4293      0.00000
     27      10.5709      0.00000
     28      11.0637      0.00000
     29      11.2255      0.00000

 k-point     6 :       0.3333    0.1667    0.0000
  band No.  band energies     occupation 
      1     -17.8877      2.00000
      2     -17.3824      2.00000
      3     -16.8025      2.00000
      4     -16.2447      2.00000
      5     -16.2070      2.00000
      6     -16.1851      2.00000
      7      -7.3410      2.00000
      8      -6.2106      2.00000
      9      -5.0370      2.00000
     10      -4.3185      2.00000
     11      -4.2267      2.00000
     12      -3.5543      2.00000
     13      -1.9810      2.00000
     14      -1.7819      2.00000
     15      -1.6556      2.00000
     16      -1.1615      2.00000
     17      -0.9989      2.00000
     18      -0.6925      2.00000
     19      -0.5041      2.00000
     20      -0.1858      2.00000
     21       0.0338      2.00000
     22       0.4261      2.00000
     23       0.8034      2.00000
     24       1.0726      2.00000
     25       9.2700      0.00000
     26      10.3699      0.00000
     27      10.6867      0.00000
     28      11.0940      0.00000
     29      11.5777      0.00000

 k-point     7 :       0.5000    0.1667    0.0000
  band No.  band energies     occupation 
      1     -17.8876      2.00000
      2     -17.3824      2.00000
      3     -16.8025      2.00000
      4     -16.2448      2.00000
      5     -16.2070      2.00000
      6     -16.1850      2.00000
      7      -7.3409      2.00000
      8      -6.2106      2.00000
      9      -5.0370      2.00000
     10      -4.3185      2.00000
     11      -4.2268      2.00000
     12      -3.5543      2.00000
     13      -1.9810      2.00000
     14      -1.7820      2.00000
     15      -1.6555      2.00000
     16      -1.1615      2.00000
     17      -0.9989      2.00000
     18      -0.6925      2.00000
     19      -0.5041      2.00000
     20      -0.1857      2.00000
     21       0.0338      2.00000
     22       0.4261      2.00000
     23       0.8034      2.00000
     24       1.0726      2.00000
     25       9.2700      0.00000
     26      10.3698      0.00000
     27      10.6860      0.00000
     28      11.0896      0.00000
     29      11.5199      0.00000

 k-point     8 :      -0.3333    0.1667    0.0000
  band No.  band energies     occupation 
      1     -18.1366      2.00000
      2     -17.1041      2.00000
      3     -16.8105      2.00000
      4     -16.2364      2.00000
      5     -16.1932      2.00000
      6     -16.1671      2.00000
      7      -7.2758      2.00000
      8      -6.6667      2.00000
      9      -4.6375      2.00000
     10      -4.3664      2.00000
     11      -4.2244      2.00000
     12      -3.8019      2.00000
     13      -2.0319      2.00000
     14      -1.7844      2.00000
     15      -1.4846      2.00000
     16      -1.0845      2.00000
     17      -1.0767      2.00000
     18      -0.5571      2.00000
     19      -0.3592      2.00000
     20      -0.1275      2.00000
     21       0.1858      2.00000
     22       0.2309      2.00000
     23       0.8449      2.00000
     24       0.9808      2.00000
     25       8.2527      0.00000
     26      10.4293      0.00000
     27      10.5711      0.00000
     28      11.0559      0.00000
     29      11.2368      0.00000

 k-point     9 :      -0.1667    0.1667    0.0000
  band No.  band energies     occupation 
      1     -18.2894      2.00000
      2     -16.9283      2.00000
      3     -16.8223      2.00000
      4     -16.2186      2.00000
      5     -16.1680      2.00000
      6     -16.1575      2.00000
      7      -7.2116      2.00000
      8      -6.9926      2.00000
      9      -4.3736      2.00000
     10      -4.3478      2.00000
     11      -4.2763      2.00000
     12      -4.0148      2.00000
     13      -1.9826      2.00000
     14      -1.7975      2.00000
     15      -1.5896      2.00000
     16      -1.1932      2.00000
     17      -0.6818      2.00000
     18      -0.4471      2.00000
     19      -0.4018      2.00000
     20       0.0500      2.00000
     21       0.1028      2.00000
     22       0.3200      2.00000
     23       0.8258      2.00000
     24       0.8596      2.00000
     25       7.5446      0.00000
     26      10.3864      0.00000
     27      10.4465      0.00000
     28      10.9375      0.00000
     29      11.0463      0.00000

 k-point    10 :       0.3333    0.3333    0.0000
  band No.  band energies     occupation 
      1     -17.6353      2.00000
      2     -17.6352      2.00000
      3     -16.8162      2.00000
      4     -16.2437      2.00000
      5     -16.1990      2.00000
      6     -16.1988      2.00000
      7      -7.3786      2.00000
      8      -5.6399      2.00000
      9      -5.6399      2.00000
     10      -4.2358      2.00000
     11      -4.2357      2.00000
     12      -3.4598      2.00000
     13      -1.8511      2.00000
     14      -1.8510      2.00000
     15      -1.8006      2.00000
     16      -0.9741      2.00000
     17      -0.9741      2.00000
     18      -0.8179      2.00000
     19      -0.6214      2.00000
     20      -0.1430      2.00000
     21      -0.1429      2.00000
     22       0.6621      2.00000
     23       0.6622      2.00000
     24       1.1042      2.00000
     25      10.0544      0.00000
     26      10.0545      0.00000
     27      10.5432      0.00000
     28      11.4843      0.00000
     29      11.6428      0.00000

 k-point    11 :       0.5000    0.3333    0.0000
  band No.  band energies     occupation 
      1     -17.8876      2.00000
      2     -17.3825      2.00000
      3     -16.8025      2.00000
      4     -16.2448      2.00000
      5     -16.2070      2.00000
      6     -16.1849      2.00000
      7      -7.3409      2.00000
      8      -6.2107      2.00000
      9      -5.0370      2.00000
     10      -4.3185      2.00000
     11      -4.2267      2.00000
     12      -3.5543      2.00000
     13      -1.9810      2.00000
     14      -1.7820      2.00000
     15      -1.6556      2.00000
     16      -1.1615      2.00000
     17      -0.9989      2.00000
     18      -0.6925      2.00000
     19      -0.5041      2.00000
     20      -0.1858      2.00000
     21       0.0338      2.00000
     22       0.4261      2.00000
     23       0.8035      2.00000
     24       1.0727      2.00000
     25       9.2700      0.00000
     26      10.3698      0.00000
     27      10.6861      0.00000
     28      11.0903      0.00000
     29      11.5446      0.00000

 k-point    12 :      -0.3333    0.3333    0.0000
  band No.  band energies     occupation 
      1     -18.0703      2.00000
      2     -17.1873      2.00000
      3     -16.7964      2.00000
      4     -16.2416      2.00000
      5     -16.1963      2.00000
      6     -16.1763      2.00000
      7      -7.2833      2.00000
      8      -6.5730      2.00000
      9      -4.6297      2.00000
     10      -4.3813      2.00000
     11      -4.2994      2.00000
     12      -3.7123      2.00000
     13      -2.0648      2.00000
     14      -1.6890      2.00000
     15      -1.5643      2.00000
     16      -1.1970      2.00000
     17      -0.9978      2.00000
     18      -0.5785      2.00000
     19      -0.4866      2.00000
     20      -0.0011      2.00000
     21       0.0682      2.00000
     22       0.2711      2.00000
     23       0.8540      2.00000
     24       1.0036      2.00000
     25       8.5440      0.00000
     26      10.4306      0.00000
     27      10.5576      0.00000
     28      11.0631      0.00000
     29      11.4097      0.00000

 k-point    13 :       0.5000    0.5000    0.0000
  band No.  band energies     occupation 
      1     -17.8808      2.00000
      2     -17.4017      2.00000
      3     -16.7828      2.00000
      4     -16.2475      2.00000
      5     -16.2087      2.00000
      6     -16.1874      2.00000
      7      -7.3176      2.00000
      8      -6.3108      2.00000
      9      -4.8179      2.00000
     10      -4.3586      2.00000
     11      -4.3275      2.00000
     12      -3.5466      2.00000
     13      -1.9927      2.00000
     14      -1.8261      2.00000
     15      -1.5956      2.00000
     16      -1.2141      2.00000
     17      -1.0058      2.00000
     18      -0.6614      2.00000
     19      -0.5940      2.00000
     20      -0.0039      2.00000
     21       0.0613      2.00000
     22       0.3015      2.00000
     23       0.8373      2.00000
     24       1.0612      2.00000
     25       9.3820      0.00000
     26      10.1210      0.00000
     27      10.8455      0.00000
     28      10.8472      0.00000
     29      11.6668      0.00000

 k-point    14 :       0.0000    0.0000    0.2000
  band No.  band energies     occupation 
      1     -18.2927      2.00000
      2     -17.2835      2.00000
      3     -16.4494      2.00000
      4     -16.1967      2.00000
      5     -16.1670      2.00000
      6     -16.1363      2.00000
      7      -7.8471      2.00000
      8      -6.3468      2.00000
      9      -4.4933      2.00000
     10      -4.4170      2.00000
     11      -4.3681      2.00000
     12      -3.8701      2.00000
     13      -1.9413      2.00000
     14      -1.6627      2.00000
     15      -1.5618      2.00000
     16      -1.2298      2.00000
     17      -0.6017      2.00000
     18      -0.4807      2.00000
     19      -0.4206      2.00000
     20      -0.2808      2.00000
     21       0.0808      2.00000
     22       0.5227      2.00000
     23       0.8132      2.00000
     24       0.9725      2.00000
     25       7.5163      0.00000
     26      10.2559      0.00000
     27      10.4214      0.00000
     28      10.5246      0.00000
     29      11.2261      0.00000

 k-point    15 :       0.1667    0.0000    0.2000
  band No.  band energies     occupation 
      1     -18.2151      2.00000
      2     -17.2822      2.00000
      3     -16.5323      2.00000
      4     -16.2114      2.00000
      5     -16.1857      2.00000
      6     -16.1471      2.00000
      7      -7.7022      2.00000
      8      -6.3550      2.00000
      9      -4.6717      2.00000
     10      -4.3751      2.00000
     11      -4.1786      2.00000
     12      -3.9196      2.00000
     13      -2.0415      2.00000
     14      -1.6466      2.00000
     15      -1.5256      2.00000
     16      -1.1519      2.00000
     17      -0.8311      2.00000
     18      -0.4945      2.00000
     19      -0.3913      2.00000
     20      -0.2365      2.00000
     21       0.1641      2.00000
     22       0.4190      2.00000
     23       0.7546      2.00000
     24       1.0145      2.00000
     25       7.8927      0.00000
     26      10.2703      0.00000
     27      10.5135      0.00000
     28      10.6083      0.00000
     29      11.3107      0.00000

 k-point    16 :       0.3333    0.0000    0.2000
  band No.  band energies     occupation 
      1     -18.0135      2.00000
      2     -17.3222      2.00000
      3     -16.7187      2.00000
      4     -16.2390      2.00000
      5     -16.2118      2.00000
      6     -16.1666      2.00000
      7      -7.4090      2.00000
      8      -6.3268      2.00000
      9      -4.9067      2.00000
     10      -4.3338      2.00000
     11      -4.0976      2.00000
     12      -3.8234      2.00000
     13      -2.1366      2.00000
     14      -1.7090      2.00000
     15      -1.4719      2.00000
     16      -1.2090      2.00000
     17      -0.8930      2.00000
     18      -0.5996      2.00000
     19      -0.4887      2.00000
     20      -0.0515      2.00000
     21       0.1635      2.00000
     22       0.2833      2.00000
     23       0.7973      2.00000
     24       0.9697      2.00000
     25       8.8092      0.00000
     26      10.3227      0.00000
     27      10.5752      0.00000
     28      11.0409      0.00000
     29      11.4418      0.00000

 k-point    17 :       0.5000    0.0000    0.2000
  band No.  band energies     occupation 
      1     -17.8585      2.00000
      2     -17.3906      2.00000
      3     -16.8292      2.00000
      4     -16.2474      2.00000
      5     -16.2133      2.00000
      6     -16.1787      2.00000
      7      -7.2700      2.00000
      8      -6.2714      2.00000
      9      -5.0422      2.00000
     10      -4.3553      2.00000
     11      -4.1030      2.00000
     12      -3.6698      2.00000
     13      -2.0448      2.00000
     14      -1.9437      2.00000
     15      -1.4683      2.00000
     16      -1.2591      2.00000
     17      -0.8425      2.00000
     18      -0.7226      2.00000
     19      -0.4181      2.00000
     20      -0.0700      2.00000
     21       0.1430      2.00000
     22       0.3355      2.00000
     23       0.7244      2.00000
     24       1.0007      2.00000
     25       9.5751      0.00000
     26      10.1864      0.00000
     27      10.6895      0.00000
     28      11.1610      0.00000
     29      11.6308      0.00000

 k-point    18 :      -0.3333    0.0000    0.2000
  band No.  band energies     occupation 
      1     -18.0171      2.00000
      2     -17.3022      2.00000
      3     -16.7521      2.00000
      4     -16.2311      2.00000
      5     -16.1909      2.00000
      6     -16.1779      2.00000
      7      -7.4126      2.00000
      8      -6.3282      2.00000
      9      -4.9084      2.00000
     10      -4.3730      2.00000
     11      -4.0745      2.00000
     12      -3.7739      2.00000
     13      -2.0722      2.00000
     14      -1.7006      2.00000
     15      -1.5251      2.00000
     16      -1.3875      2.00000
     17      -0.9226      2.00000
     18      -0.4980      2.00000
     19      -0.3446      2.00000
     20      -0.0872      2.00000
     21       0.0655      2.00000
     22       0.3971      2.00000
     23       0.6393      2.00000
     24       1.0634      2.00000
     25       8.7755      0.00000
     26      10.3832      0.00000
     27      10.7685      0.00000
[...]
      8      -5.6329      2.00000
      9      -5.0469      2.00000
     10      -4.4317      2.00000
     11      -4.3342      2.00000
     12      -3.6871      2.00000
     13      -1.9234      2.00000
     14      -1.6414      2.00000
     15      -1.4921      2.00000
     16      -1.1183      2.00000
     17      -0.9410      2.00000
     18      -0.5679      2.00000
     19      -0.5209      2.00000
     20      -0.3193      2.00000
     21      -0.0157      2.00000
     22       0.6559      2.00000
     23       0.9087      2.00000
     24       0.9384      2.00000
     25       8.7772      0.00000
     26       9.7868      0.00000
     27      10.3736      0.00000
     28      10.5692      0.00000
     29      11.3154      0.00000

 k-point    46 :       0.1667    0.3333    0.4000
  band No.  band energies     occupation 
      1     -17.8146      2.00000
      2     -17.3905      2.00000
      3     -16.8805      2.00000
      4     -16.2639      2.00000
      5     -16.2038      2.00000
      6     -16.1810      2.00000
      7      -7.1814      2.00000
      8      -6.1617      2.00000
      9      -5.3689      2.00000
     10      -4.2390      2.00000
     11      -3.9664      2.00000
     12      -3.8647      2.00000
     13      -2.1456      2.00000
     14      -1.9599      2.00000
     15      -1.4666      2.00000
     16      -1.0912      2.00000
     17      -0.9249      2.00000
     18      -0.5866      2.00000
     19      -0.1574      2.00000
     20       0.0259      2.00000
     21       0.1890      2.00000
     22       0.2983      2.00000
     23       0.5392      2.00000
     24       0.8336      2.00000
     25       9.8675      0.00000
     26      10.5332      0.00000
     27      10.8017      0.00000
     28      11.1336      0.00000
     29      11.3287      0.00000

 k-point    47 :       0.3333    0.3333    0.4000
  band No.  band energies     occupation 
      1     -17.7789      2.00000
      2     -17.2615      2.00000
      3     -17.0419      2.00000
      4     -16.2748      2.00000
      5     -16.2171      2.00000
      6     -16.1894      2.00000
      7      -6.8663      2.00000
      8      -6.3817      2.00000
      9      -5.4795      2.00000
     10      -4.1802      2.00000
     11      -3.9234      2.00000
     12      -3.9226      2.00000
     13      -2.1838      2.00000
     14      -1.7433      2.00000
     15      -1.7279      2.00000
     16      -0.8849      2.00000
     17      -0.8613      2.00000
     18      -0.8546      2.00000
     19       0.0177      2.00000
     20       0.0341      2.00000
     21       0.1999      2.00000
     22       0.4229      2.00000
     23       0.4448      2.00000
     24       0.6517      2.00000
     25      10.1497      0.00000
     26      10.7041      0.00000
     27      10.9342      0.00000
     28      11.2869      0.00000
     29      11.3630      0.00000

 k-point    48 :       0.5000    0.3333    0.4000
  band No.  band energies     occupation 
      1     -17.8123      2.00000
      2     -17.3976      2.00000
      3     -16.8728      2.00000
      4     -16.2668      2.00000
      5     -16.2048      2.00000
      6     -16.1801      2.00000
      7      -7.1805      2.00000
      8      -6.1603      2.00000
      9      -5.3711      2.00000
     10      -4.2300      2.00000
     11      -3.9636      2.00000
     12      -3.8820      2.00000
     13      -2.1516      2.00000
     14      -1.9543      2.00000
     15      -1.4594      2.00000
     16      -1.0932      2.00000
     17      -0.8776      2.00000
     18      -0.6353      2.00000
     19      -0.1518      2.00000
     20      -0.0330      2.00000
     21       0.1945      2.00000
     22       0.3708      2.00000
     23       0.5604      2.00000
     24       0.7898      2.00000
     25       9.9245      0.00000
     26      10.4323      0.00000
     27      10.7302      0.00000
     28      11.1393      0.00000
     29      11.5768      0.00000

 k-point    49 :      -0.3333    0.3333    0.4000
  band No.  band energies     occupation 
      1     -17.8750      2.00000
      2     -17.5365      2.00000
      3     -16.6563      2.00000
      4     -16.2519      2.00000
      5     -16.1945      2.00000
      6     -16.1630      2.00000
      7      -7.5415      2.00000
      8      -5.9326      2.00000
      9      -5.2303      2.00000
     10      -4.3123      2.00000
     11      -4.0587      2.00000
     12      -3.8228      2.00000
     13      -2.1036      2.00000
     14      -1.9205      2.00000
     15      -1.3479      2.00000
     16      -1.1823      2.00000
     17      -0.9414      2.00000
     18      -0.4826      2.00000
     19      -0.3497      2.00000
     20      -0.1401      2.00000
     21       0.1239      2.00000
     22       0.4596      2.00000
     23       0.6850      2.00000
     24       0.8833      2.00000
     25       9.5028      0.00000
     26      10.0840      0.00000
     27      10.6276      0.00000
     28      10.8016      0.00000
     29      11.5902      0.00000

 k-point    50 :       0.1667    0.5000    0.4000
  band No.  band energies     occupation 
      1     -17.8123      2.00000
      2     -17.3975      2.00000
      3     -16.8727      2.00000
      4     -16.2668      2.00000
      5     -16.2048      2.00000
      6     -16.1802      2.00000
      7      -7.1806      2.00000
      8      -6.1602      2.00000
      9      -5.3711      2.00000
     10      -4.2301      2.00000
     11      -3.9635      2.00000
     12      -3.8820      2.00000
     13      -2.1516      2.00000
     14      -1.9543      2.00000
     15      -1.4593      2.00000
     16      -1.0932      2.00000
     17      -0.8777      2.00000
     18      -0.6353      2.00000
     19      -0.1519      2.00000
     20      -0.0329      2.00000
     21       0.1946      2.00000
     22       0.3707      2.00000
     23       0.5604      2.00000
     24       0.7897      2.00000
     25       9.9246      0.00000
     26      10.4320      0.00000
     27      10.7301      0.00000
     28      11.1415      0.00000
     29      11.6482      0.00000

 k-point    51 :       0.3333    0.5000    0.4000
  band No.  band energies     occupation 
      1     -17.8145      2.00000
      2     -17.3906      2.00000
      3     -16.8806      2.00000
      4     -16.2639      2.00000
      5     -16.2038      2.00000
      6     -16.1809      2.00000
      7      -7.1813      2.00000
      8      -6.1618      2.00000
      9      -5.3690      2.00000
     10      -4.2389      2.00000
     11      -3.9663      2.00000
     12      -3.8648      2.00000
     13      -2.1456      2.00000
     14      -1.9599      2.00000
     15      -1.4666      2.00000
     16      -1.0911      2.00000
     17      -0.9250      2.00000
     18      -0.5867      2.00000
     19      -0.1574      2.00000
     20       0.0259      2.00000
     21       0.1890      2.00000
     22       0.2983      2.00000
     23       0.5392      2.00000
     24       0.8337      2.00000
     25       9.8676      0.00000
     26      10.5330      0.00000
     27      10.8011      0.00000
     28      11.1283      0.00000
     29      11.3218      0.00000

 k-point    52 :       0.5000    0.5000    0.4000
  band No.  band energies     occupation 
      1     -17.8187      2.00000
      2     -17.3720      2.00000
      3     -16.9042      2.00000
      4     -16.2689      2.00000
      5     -16.1961      2.00000
      6     -16.1725      2.00000
      7      -7.1869      2.00000
      8      -6.2058      2.00000
      9      -5.2815      2.00000
     10      -4.2836      2.00000
     11      -3.9192      2.00000
     12      -3.8861      2.00000
     13      -2.1131      2.00000
     14      -2.0841      2.00000
     15      -1.3589      2.00000
     16      -1.1031      2.00000
     17      -0.9496      2.00000
     18      -0.5108      2.00000
     19      -0.2079      2.00000
     20      -0.0622      2.00000
     21       0.1318      2.00000
     22       0.4147      2.00000
     23       0.4712      2.00000
     24       0.9119      2.00000
     25      10.0006      0.00000
     26      10.3888      0.00000
     27      10.7527      0.00000
     28      11.0676      0.00000
     29      11.5082      0.00000

 k-point    53 :       0.1667   -0.3333    0.4000
  band No.  band energies     occupation 
      1     -17.9080      2.00000
      2     -17.5801      2.00000
      3     -16.5698      2.00000
      4     -16.2363      2.00000
      5     -16.1900      2.00000
      6     -16.1641      2.00000
      7      -7.6791      2.00000
      8      -5.8241      2.00000
      9      -5.2267      2.00000
     10      -4.3111      2.00000
     11      -4.1505      2.00000
     12      -3.7684      2.00000
     13      -2.0595      2.00000
     14      -1.8388      2.00000
     15      -1.3859      2.00000
     16      -1.2429      2.00000
     17      -0.9340      2.00000
     18      -0.4954      2.00000
     19      -0.3537      2.00000
     20      -0.1445      2.00000
     21       0.0899      2.00000
     22       0.4589      2.00000
     23       0.7451      2.00000
     24       0.9103      2.00000
     25       9.2339      0.00000
     26      10.0962      0.00000
     27      10.5323      0.00000
     28      10.9197      0.00000
     29      11.3062      0.00000

 k-point    54 :       0.3333   -0.3333    0.4000
  band No.  band energies     occupation 
      1     -17.8807      2.00000
      2     -17.5244      2.00000
      3     -16.6738      2.00000
      4     -16.2447      2.00000
      5     -16.1862      2.00000
      6     -16.1671      2.00000
      7      -7.5434      2.00000
      8      -5.9371      2.00000
      9      -5.2245      2.00000
     10      -4.3332      2.00000
     11      -4.0594      2.00000
     12      -3.7838      2.00000
     13      -2.0805      2.00000
     14      -1.9437      2.00000
     15      -1.3176      2.00000
     16      -1.2535      2.00000
     17      -1.0023      2.00000
     18      -0.4092      2.00000
     19      -0.2985      2.00000
     20      -0.1089      2.00000
     21       0.1352      2.00000
     22       0.3297      2.00000
     23       0.6339      2.00000
     24       0.9827      2.00000
     25       9.3847      0.00000
     26      10.3602      0.00000
     27      10.5596      0.00000
     28      11.0751      0.00000
     29      11.2539      0.00000

 k-point    55 :       0.1667   -0.1667    0.4000
  band No.  band energies     occupation 
      1     -18.0046      2.00000
      2     -17.6704      2.00000
      3     -16.3534      2.00000
      4     -16.2085      2.00000
      5     -16.1797      2.00000
      6     -16.1422      2.00000
      7      -8.0282      2.00000
      8      -5.6342      2.00000
      9      -5.0463      2.00000
     10      -4.4280      2.00000
     11      -4.3427      2.00000
     12      -3.6757      2.00000
     13      -1.9166      2.00000
     14      -1.6385      2.00000
     15      -1.4897      2.00000
     16      -1.1472      2.00000
     17      -0.9732      2.00000
     18      -0.5656      2.00000
     19      -0.4487      2.00000
     20      -0.3439      2.00000
     21      -0.0156      2.00000
     22       0.6540      2.00000
     23       0.8184      2.00000
     24       1.0243      2.00000
     25       8.7512      0.00000
     26       9.8424      0.00000
     27      10.3331      0.00000
     28      10.6892      0.00000
     29      11.2070      0.00000


--------------------------------------------------------------------------------------------------------


 soft charge-density along one line, spin component           1
         0         1         2         3         4         5         6         7         8         9
 total charge-density along one line
 
 pseudopotential strength for first ion, spin component:           1
 18.756   0.002   0.000  -0.000  -0.000  -0.000   0.000   0.000
  0.002   0.006  -0.000   0.000   0.000   0.000  -0.000  -0.000
  0.000  -0.000   4.218   0.001  -0.000  -0.003  -0.000   0.000
 -0.000   0.000   0.001   4.218  -0.000  -0.000  -0.003   0.000
 -0.000   0.000  -0.000  -0.000   4.218   0.000   0.000  -0.003
 -0.000   0.000  -0.003  -0.000   0.000   0.005   0.000   0.000
  0.000  -0.000  -0.000  -0.003   0.000   0.000   0.005  -0.000
  0.000  -0.000   0.000   0.000  -0.003   0.000  -0.000   0.005
 total augmentation occupancy for first ion, spin component:           1
  1.167  -1.629   0.000  -0.000  -0.005  -0.000   0.001   0.026
 -1.629   3.558  -0.000   0.001   0.041   0.001  -0.002  -0.082
  0.000  -0.000   1.030   0.016  -0.000  -1.183  -0.026  -0.000
 -0.000   0.001   0.016   1.001  -0.000  -0.025  -1.173   0.001
 -0.005   0.041  -0.000  -0.000   0.973  -0.000   0.001  -1.171
 -0.000   0.001  -1.183  -0.025  -0.000   1.683   0.053   0.000
  0.001  -0.002  -0.026  -1.173   0.001   0.053   1.672  -0.002
  0.026  -0.082  -0.000   0.001  -1.171   0.000  -0.002   1.676


------------------------ aborting loop because EDIFF is reached ----------------------------------------


    CHARGE:  cpu time    0.3789: real time    0.3790
    FORLOC:  cpu time    0.0120: real time    0.0119
    FORNL :  cpu time    1.7587: real time    1.7585
    STRESS:  cpu time    5.2722: real time    5.2693
    FORCOR:  cpu time    0.0900: real time    0.0900
    FORHAR:  cpu time    0.0230: real time    0.0233
    MIXING:  cpu time    0.0040: real time    0.0035
    OFIELD:  cpu time    0.0000: real time    0.0000

  FORCE on cell =-STRESS in cart. coord.  units (eV):
  Direction    XX          YY          ZZ          XY          YZ          ZX
  --------------------------------------------------------------------------------------
  Alpha Z    69.72803    69.72803    69.72803
  Ewald    -646.24789  -646.25516  -594.70673    -0.00630     0.00069    -0.00119
  Hartree   347.14496   347.14460   377.11295    -0.00032     0.00069    -0.00119
  E(xc)    -225.64807  -225.64803  -225.58648     0.00003     0.00001    -0.00002
  Local    -418.29984  -418.29465  -499.10450     0.00450    -0.00127     0.00220
  n-local   -51.34537   -51.46010   -51.22094     0.02212    -0.04677    -0.01721
  augment    27.19862    27.19800    27.10298    -0.00053     0.00014    -0.00024
  Kinetic   902.66458   903.20680   901.14028    -0.15613     0.03050     0.01706
  Fock        0.00000     0.00000     0.00000     0.00000     0.00000     0.00000
  -------------------------------------------------------------------------------------
  Total       5.41323     5.40126     4.46560    -0.01036    -0.00398     0.00690
  in kB      76.73840    76.56879    63.30471    -0.14689    -0.05645     0.09777
  external pressure =       72.20 kB  Pullay stress =        0.00 kB


 VOLUME and BASIS-vectors are now :
 -----------------------------------------------------------------------------
  energy-cutoff  :      450.00
  volume of cell :      113.02
      direct lattice vectors                 reciprocal lattice vectors
     4.913700000  0.000000000  0.000000000     0.203512628  0.117498070  0.000000000
    -2.456850000  4.255389030  0.000000000     0.000000000  0.234996141  0.000000000
     0.000000000  0.000000000  5.405130000     0.000000000  0.000000000  0.185009426

  length of vectors
     4.913700000  4.913700003  5.405130000     0.234996141  0.234996141  0.185009426


 FORCES acting on ions
    electron-ion (+dipol)            ewald-force                    non-local-force                 convergence-correction
 -----------------------------------------------------------------------------------------------
   -.119E+01 0.425E-02 0.966E-04   0.812E+00 -.379E-02 0.176E-03   0.797E+00 -.456E-05 0.869E-02   0.221E-03 0.139E-04 -.425E-05
   0.601E+00 -.103E+01 -.956E-04   -.410E+00 0.702E+00 -.176E-03   -.398E+00 0.690E+00 -.869E-02   -.987E-04 0.199E-03 0.425E-05
   0.599E+00 0.104E+01 0.126E-05   -.408E+00 -.706E+00 -.197E-06   -.391E+00 -.678E+00 0.000E+00   -.132E-03 -.229E-03 0.171E-11
   0.723E+02 0.724E+01 0.302E+02   -.907E+02 -.616E+01 -.401E+02   0.179E+02 -.800E+00 0.995E+01   0.305E-02 0.772E-03 0.129E-02
   -.424E+02 0.590E+02 0.302E+02   0.507E+02 -.755E+02 -.401E+02   -.827E+01 0.159E+02 0.995E+01   -.220E-02 0.231E-02 0.130E-02
   -.299E+02 -.662E+02 0.302E+02   0.400E+02 0.816E+02 -.401E+02   -.964E+01 -.151E+02 0.995E+01   -.910E-03 -.306E-02 0.129E-02
   0.723E+02 -.724E+01 -.302E+02   -.907E+02 0.616E+01 0.401E+02   0.179E+02 0.793E+00 -.995E+01   0.310E-02 -.756E-03 -.130E-02
   -.299E+02 0.662E+02 -.302E+02   0.400E+02 -.816E+02 0.401E+02   -.965E+01 0.151E+02 -.995E+01   -.856E-03 0.303E-02 -.129E-02
   -.424E+02 -.590E+02 -.302E+02   0.507E+02 0.755E+02 0.401E+02   -.827E+01 -.159E+02 -.995E+01   -.219E-02 -.232E-02 -.129E-02
 -----------------------------------------------------------------------------------------------
   0.276E-02 0.477E-02 0.382E-05   -.711E-14 -.142E-13 0.000E+00   0.538E-02 0.932E-02 -.355E-14   -.246E-04 -.426E-04 -.939E-13
 
 
 POSITION                                       TOTAL-FORCE (eV/Angst)
 -----------------------------------------------------------------------------------
      2.30846      0.00000      3.60344         0.413763     -0.001093      0.008960
     -1.15423      1.99918      1.80169        -0.207828      0.357783     -0.008960
      1.30262      2.25621      0.00000        -0.200971     -0.348092      0.000000
      1.38272      1.13278      4.24627        -0.518053      0.279916      0.067569
      3.24132      0.63107      2.44458         0.012932     -0.598234      0.063740
      2.74651      2.49153      0.64283         0.510861      0.309272      0.071147
     -1.07413      3.12260      2.96055        -0.524551     -0.287918     -0.063740
      0.28966      1.76386      1.15886         0.501441     -0.308689     -0.067569
      0.78447      3.62431      4.76230         0.012407      0.597055     -0.071147
 -----------------------------------------------------------------------------------
    total drift:                                0.008111      0.014050      0.000004


--------------------------------------------------------------------------------------------------------



  FREE ENERGIE OF THE ION-ELECTRON SYSTEM (eV)
  ---------------------------------------------------
  free  energy   TOTEN  =       -71.02809283 eV

  energy  without entropy=      -71.02809283  energy(sigma->0) =      -71.02809283
 


--------------------------------------------------------------------------------------------------------


    POTLOK:  cpu time    0.1010: real time    0.1013


--------------------------------------------------------------------------------------------------------


     LOOP+:  cpu time   79.5979: real time   79.8242
    4ORBIT:  cpu time    0.0010: real time    0.0003
 BZINTS: Fermi energy:  1.141232; 48.000000 electrons
         Band energy:-275.816840;  BLOECHL correction:  0.000000

 total amount of memory used by VASP on root node   113578. kBytes
========================================================================

   base      :      30000. kBytes
   nonlr-proj:       1129. kBytes
   fftplans  :       6192. kBytes
   grid      :      10976. kBytes
   one-center:         27. kBytes
   wavefun   :      65254. kBytes
 
  
  
 General timing and accounting informations for this job:
 ========================================================
  
                  Total CPU time used (sec):       81.226
                            User time (sec):       81.096
                          System time (sec):        0.130
                         Elapsed time (sec):       82.447
  
                   Maximum memory used (kb):      119256.
                   Average memory used (kb):           0.
  
                          Minor page faults:        51665
                          Major page faults:          153
                 Voluntary context switches:         1826
