  20  20   0   0
  0.3101029E+02  0.3946846E-09  0.3946846E-09  0.3981396E-08  0.5000000E-15
  1.000000000000000E-004
  CAR 
 unknown system                          
      8.20587121    -37.65814424  301     -0.77583182      1.00000000
    -37.658  0.0000E+00  0.0000E+00
    -37.505  0.0000E+00  0.0000E+00
    -37.352  0.0000E+00  0.0000E+00
    -37.200  0.0000E+00  0.0000E+00
    -37.047  0.0000E+00  0.0000E+00
    -36.894  0.0000E+00  0.0000E+00
    -36.741  0.0000E+00  0.0000E+00
    -36.588  0.0000E+00  0.0000E+00
    -36.435  0.0000E+00  0.0000E+00
    -36.282  0.0000E+00  0.0000E+00
    -36.129  0.0000E+00  0.0000E+00
    -35.976  0.0000E+00  0.0000E+00
    -35.824  0.0000E+00  0.0000E+00
    -35.671  0.0000E+00  0.0000E+00
    -35.518  0.0000E+00  0.2000E+01
    -35.365  0.0000E+00  0.2000E+01
    -35.212  0.0000E+00  0.2000E+01
    -35.059  0.0000E+00  0.2000E+01
    -34.906  0.0000E+00  0.2000E+01
    -34.753  0.0000E+00  0.2000E+01
    -34.601  0.0000E+00  0.2000E+01
    -34.448  0.0000E+00  0.2000E+01
    -34.295  0.0000E+00  0.6000E+01
    -34.142  0.0000E+00  0.8000E+01
    -33.989  0.0000E+00  0.8000E+01
    -33.836  0.0000E+00  0.8000E+01
    -33.683  0.0000E+00  0.8000E+01
    -33.530  0.0000E+00  0.8000E+01
    -33.378  0.0000E+00  0.8000E+01
    -33.225  0.0000E+00  0.8000E+01
    -33.072  0.0000E+00  0.8000E+01
    -32.919  0.0000E+00  0.8000E+01
    -32.766  0.0000E+00  0.8000E+01
    -32.613  0.0000E+00  0.8000E+01
    -32.460  0.0000E+00  0.8000E+01
    -32.307  0.0000E+00  0.8000E+01
    -32.154  0.0000E+00  0.8000E+01
    -32.002  0.0000E+00  0.8000E+01
    -31.849  0.0000E+00  0.8000E+01
    -31.696  0.0000E+00  0.8000E+01
    -31.543  0.0000E+00  0.8000E+01
    -31.390  0.0000E+00  0.8000E+01
    -31.237  0.0000E+00  0.8000E+01
    -31.084  0.0000E+00  0.8000E+01
    -30.931  0.0000E+00  0.8000E+01
    -30.779  0.0000E+00  0.8000E+01
    -30.626  0.0000E+00  0.8000E+01
    -30.473  0.0000E+00  0.8000E+01
    -30.320  0.0000E+00  0.8000E+01
    -30.167  0.0000E+00  0.8000E+01
    -30.014  0.0000E+00  0.8000E+01
    -29.861  0.0000E+00  0.8000E+01
    -29.708  0.0000E+00  0.8000E+01
    -29.556  0.0000E+00  0.8000E+01
    -29.403  0.0000E+00  0.8000E+01
    -29.250  0.0000E+00  0.8000E+01
    -29.097  0.0000E+00  0.8000E+01
    -28.944  0.0000E+00  0.8000E+01
    -28.791  0.0000E+00  0.8000E+01
    -28.638  0.0000E+00  0.8000E+01
    -28.485  0.0000E+00  0.8000E+01
    -28.332  0.0000E+00  0.8000E+01
    -28.180  0.0000E+00  0.8000E+01
    -28.027  0.0000E+00  0.8000E+01
    -27.874  0.0000E+00  0.8000E+01
    -27.721  0.0000E+00  0.8000E+01
    -27.568  0.0000E+00  0.8000E+01
    -27.415  0.0000E+00  0.8000E+01
    -27.262  0.0000E+00  0.8000E+01
    -27.109  0.0000E+00  0.8000E+01
    -26.957  0.0000E+00  0.8000E+01
    -26.804  0.0000E+00  0.8000E+01
    -26.651  0.0000E+00  0.8000E+01
    -26.498  0.0000E+00  0.8000E+01
    -26.345  0.0000E+00  0.8000E+01
    -26.192  0.0000E+00  0.8000E+01
    -26.039  0.0000E+00  0.8000E+01
    -25.886  0.0000E+00  0.8000E+01
    -25.734  0.0000E+00  0.8000E+01
    -25.581  0.0000E+00  0.8000E+01
    -25.428  0.0000E+00  0.8000E+01
    -25.275  0.0000E+00  0.8000E+01
    -25.122  0.0000E+00  0.8000E+01
    -24.969  0.0000E+00  0.8000E+01
    -24.816  0.0000E+00  0.8000E+01
    -24.663  0.0000E+00  0.8000E+01
    -24.510  0.0000E+00  0.8000E+01
    -24.358  0.0000E+00  0.8000E+01
    -24.205  0.0000E+00  0.8000E+01
    -24.052  0.0000E+00  0.8000E+01
    -23.899  0.0000E+00  0.8000E+01
    -23.746  0.0000E+00  0.8000E+01
    -23.593  0.0000E+00  0.8000E+01
    -23.440  0.0000E+00  0.8000E+01
    -23.287  0.0000E+00  0.8000E+01
    -23.135  0.0000E+00  0.8000E+01
    -22.982  0.0000E+00  0.8000E+01
    -22.829  0.0000E+00  0.8000E+01
    -22.676  0.0000E+00  0.8000E+01
    -22.523  0.0000E+00  0.8000E+01
    -22.370  0.0000E+00  0.8000E+01
    -22.217  0.0000E+00  0.8000E+01
    -22.064  0.0000E+00  0.8000E+01
    -21.911  0.0000E+00  0.8000E+01
    -21.759  0.0000E+00  0.8000E+01
    -21.606  0.0000E+00  0.8000E+01
    -21.453  0.0000E+00  0.8000E+01
    -21.300  0.0000E+00  0.8000E+01
    -21.147  0.0000E+00  0.8000E+01
    -20.994  0.0000E+00  0.8000E+01
    -20.841  0.0000E+00  0.8000E+01
    -20.688  0.0000E+00  0.8000E+01
    -20.536  0.0000E+00  0.8000E+01
    -20.383  0.0000E+00  0.8000E+01
    -20.230  0.0000E+00  0.8000E+01
    -20.077  0.0000E+00  0.8000E+01
    -19.924  0.0000E+00  0.8000E+01
    -19.771  0.0000E+00  0.8000E+01
    -19.618  0.0000E+00  0.8000E+01
    -19.465  0.0000E+00  0.8000E+01
    -19.313  0.0000E+00  0.8000E+01
    -19.160  0.0000E+00  0.8000E+01
    -19.007  0.1071E+02  0.8514E+01
    -18.854  0.1239E+02  0.1060E+02
    -18.701  0.6942E+01  0.1194E+02
    -18.548  0.4647E+01  0.1299E+02
    -18.395  0.2756E+01  0.1360E+02
    -18.242  0.1370E+02  0.1589E+02
    -18.089  0.1565E+02  0.1831E+02
    -17.937  0.2710E+02  0.2337E+02
    -17.784  0.1432E+02  0.2773E+02
    -17.631  0.5284E+01  0.2862E+02
    -17.478  0.3986E+02  0.3081E+02
    -17.325  0.3743E+01  0.3385E+02
    -17.172  0.1709E+00  0.3601E+02
    -17.019  0.1380E+01  0.3614E+02
    -16.866  0.2566E+01  0.3646E+02
    -16.714  0.5962E+01  0.3714E+02
    -16.561  0.8976E+01  0.3794E+02
    -16.408  0.6092E+02  0.4153E+02
    -16.255  0.2649E+02  0.4578E+02
    -16.102  0.1624E+02  0.5113E+02
    -15.949  0.1722E+02  0.5476E+02
    -15.796  0.0000E+00  0.5600E+02
    -15.643  0.0000E+00  0.5600E+02
    -15.491  0.0000E+00  0.5600E+02
    -15.338  0.0000E+00  0.5600E+02
    -15.185  0.0000E+00  0.5600E+02
    -15.032  0.0000E+00  0.5600E+02
    -14.879  0.0000E+00  0.5600E+02
    -14.726  0.0000E+00  0.5600E+02
    -14.573  0.0000E+00  0.5600E+02
    -14.420  0.0000E+00  0.5600E+02
    -14.267  0.0000E+00  0.5600E+02
    -14.115  0.0000E+00  0.5600E+02
    -13.962  0.0000E+00  0.5600E+02
    -13.809  0.0000E+00  0.5600E+02
    -13.656  0.0000E+00  0.5600E+02
    -13.503  0.0000E+00  0.5600E+02
    -13.350  0.0000E+00  0.5600E+02
    -13.197  0.0000E+00  0.5600E+02
    -13.044  0.0000E+00  0.5600E+02
    -12.892  0.0000E+00  0.5600E+02
    -12.739  0.0000E+00  0.5600E+02
    -12.586  0.0000E+00  0.5600E+02
    -12.433  0.0000E+00  0.5600E+02
    -12.280  0.0000E+00  0.5600E+02
    -12.127  0.0000E+00  0.5600E+02
    -11.974  0.0000E+00  0.5600E+02
    -11.821  0.0000E+00  0.5600E+02
    -11.669  0.0000E+00  0.5600E+02
    -11.516  0.0000E+00  0.5600E+02
    -11.363  0.0000E+00  0.5600E+02
    -11.210  0.0000E+00  0.5600E+02
    -11.057  0.0000E+00  0.5600E+02
    -10.904  0.0000E+00  0.5600E+02
    -10.751  0.0000E+00  0.5600E+02
    -10.598  0.0000E+00  0.5600E+02
    -10.445  0.0000E+00  0.5600E+02
    -10.293  0.0000E+00  0.5600E+02
    -10.140  0.0000E+00  0.5600E+02
     -9.987  0.0000E+00  0.5600E+02
     -9.834  0.0000E+00  0.5600E+02
     -9.681  0.0000E+00  0.5600E+02
     -9.528  0.0000E+00  0.5600E+02
     -9.375  0.0000E+00  0.5600E+02
     -9.222  0.0000E+00  0.5600E+02
     -9.070  0.0000E+00  0.5600E+02
     -8.917  0.0000E+00  0.5600E+02
     -8.764  0.0000E+00  0.5600E+02
     -8.611  0.0000E+00  0.5600E+02
     -8.458  0.0000E+00  0.5600E+02
     -8.305  0.0000E+00  0.5600E+02
     -8.152  0.0000E+00  0.5600E+02
     -7.999  0.0000E+00  0.5600E+02
     -7.847  0.0000E+00  0.5600E+02
     -7.694  0.0000E+00  0.5600E+02
     -7.541  0.0000E+00  0.5600E+02
     -7.388  0.0000E+00  0.5600E+02
     -7.235  0.0000E+00  0.5600E+02
     -7.082  0.0000E+00  0.5600E+02
     -6.929  0.0000E+00  0.5600E+02
     -6.776  0.0000E+00  0.5600E+02
     -6.623  0.0000E+00  0.5600E+02
     -6.471  0.0000E+00  0.5600E+02
     -6.318  0.0000E+00  0.5600E+02
     -6.165  0.0000E+00  0.5600E+02
     -6.012  0.0000E+00  0.5600E+02
     -5.859  0.1247E+02  0.5737E+02
     -5.706  0.1737E+02  0.5989E+02
     -5.553  0.1575E+02  0.6213E+02
     -5.400  0.1219E+02  0.6445E+02
     -5.248  0.1517E+02  0.6682E+02
     -5.095  0.1710E+02  0.6944E+02
     -4.942  0.1777E+02  0.7227E+02
     -4.789  0.1901E+02  0.7529E+02
     -4.636  0.2248E+02  0.7841E+02
     -4.483  0.2804E+02  0.8269E+02
     -4.330  0.1470E+02  0.8609E+02
     -4.177  0.1194E+02  0.8808E+02
     -4.025  0.1187E+02  0.9014E+02
     -3.872  0.1224E+02  0.9236E+02
     -3.719  0.1319E+02  0.9445E+02
     -3.566  0.1076E+02  0.9631E+02
     -3.413  0.8686E+01  0.9793E+02
     -3.260  0.9764E+01  0.9938E+02
     -3.107  0.1985E+02  0.1018E+03
     -2.954  0.1788E+02  0.1040E+03
     -2.801  0.2171E+02  0.1071E+03
     -2.649  0.2023E+02  0.1101E+03
     -2.496  0.2801E+02  0.1138E+03
     -2.343  0.3156E+02  0.1172E+03
     -2.190  0.1786E+02  0.1202E+03
     -2.037  0.1826E+02  0.1229E+03
     -1.884  0.9422E+01  0.1249E+03
     -1.731  0.1049E+02  0.1266E+03
     -1.578  0.1927E+01  0.1272E+03
     -1.426  0.1109E+01  0.1275E+03
     -1.273  0.1037E+01  0.1276E+03
     -1.120  0.9579E+00  0.1278E+03
     -0.967  0.6890E+00  0.1279E+03
     -0.814  0.0000E+00  0.1280E+03
     -0.661  0.0000E+00  0.1280E+03
     -0.508  0.0000E+00  0.1280E+03
     -0.355  0.0000E+00  0.1280E+03
     -0.203  0.0000E+00  0.1280E+03
     -0.050  0.0000E+00  0.1280E+03
      0.103  0.3626E+00  0.1280E+03
      0.256  0.2748E+01  0.1282E+03
      0.409  0.4177E+01  0.1288E+03
      0.562  0.6467E+01  0.1296E+03
      0.715  0.6201E+01  0.1305E+03
      0.868  0.9730E+01  0.1317E+03
      1.021  0.7291E+01  0.1329E+03
      1.173  0.8689E+01  0.1341E+03
      1.326  0.1404E+02  0.1358E+03
      1.479  0.1229E+02  0.1377E+03
      1.632  0.1334E+02  0.1396E+03
      1.785  0.3269E+02  0.1423E+03
      1.938  0.1474E+02  0.1454E+03
      2.091  0.1180E+02  0.1475E+03
      2.244  0.4325E+01  0.1487E+03
      2.396  0.5077E+00  0.1491E+03
      2.549  0.4981E+00  0.1492E+03
      2.702  0.4885E+00  0.1492E+03
      2.855  0.4789E+00  0.1493E+03
      3.008  0.4693E+00  0.1494E+03
      3.161  0.4598E+00  0.1495E+03
      3.314  0.4502E+00  0.1495E+03
      3.467  0.4406E+00  0.1496E+03
      3.619  0.4310E+00  0.1497E+03
      3.772  0.4214E+00  0.1497E+03
      3.925  0.4119E+00  0.1498E+03
      4.078  0.4829E+00  0.1499E+03
      4.231  0.9632E+00  0.1500E+03
      4.384  0.7845E+00  0.1501E+03
      4.537  0.7206E+00  0.1502E+03
      4.690  0.6955E+00  0.1503E+03
      4.843  0.7133E+00  0.1504E+03
      4.995  0.7311E+00  0.1505E+03
      5.148  0.7489E+00  0.1507E+03
      5.301  0.8090E+00  0.1508E+03
      5.454  0.7861E+00  0.1509E+03
      5.607  0.7662E+00  0.1511E+03
      5.760  0.7480E+00  0.1512E+03
      5.913  0.1814E+01  0.1515E+03
      6.066  0.1663E+01  0.1518E+03
      6.218  0.0000E+00  0.1520E+03
      6.371  0.0000E+00  0.1520E+03
      6.524  0.0000E+00  0.1520E+03
      6.677  0.0000E+00  0.1520E+03
      6.830  0.0000E+00  0.1520E+03
      6.983  0.0000E+00  0.1520E+03
      7.136  0.0000E+00  0.1520E+03
      7.289  0.0000E+00  0.1520E+03
      7.441  0.0000E+00  0.1520E+03
      7.594  0.0000E+00  0.1520E+03
      7.747  0.0000E+00  0.1520E+03
      7.900  0.0000E+00  0.1520E+03
      8.053  0.0000E+00  0.1520E+03
      8.206  0.0000E+00  0.1520E+03
