       N       E                     dE             d eps       ncg     rms          rms(c)
DAV:   1     0.157965850897E+04    0.15797E+04   -0.54227E+04  1560   0.141E+03
DAV:   2     0.183537257041E+03   -0.13961E+04   -0.13417E+04  1900   0.365E+02
DAV:   3    -0.176483213605E+03   -0.36002E+03   -0.35238E+03  2016   0.184E+02
DAV:   4    -0.200929361486E+03   -0.24446E+02   -0.24364E+02  1960   0.575E+01
DAV:   5    -0.202309817036E+03   -0.13805E+01   -0.13798E+01  2608   0.122E+01    0.371E+01
RMM:   6    -0.161851861842E+03    0.40458E+02   -0.29688E+02  1688   0.505E+01    0.146E+01
RMM:   7    -0.157735860883E+03    0.41160E+01   -0.14706E+01  1765   0.146E+01    0.727E+00
RMM:   8    -0.156978251154E+03    0.75761E+00   -0.31477E+00  2050   0.617E+00    0.361E+00
RMM:   9    -0.156726525458E+03    0.25173E+00   -0.15437E+00  2011   0.440E+00    0.105E+00
RMM:  10    -0.156678105397E+03    0.48420E-01   -0.25346E-01  2316   0.153E+00    0.679E-01
RMM:  11    -0.156656117031E+03    0.21988E-01   -0.16359E-01  2222   0.109E+00    0.388E-01
RMM:  12    -0.156647830080E+03    0.82870E-02   -0.47715E-02  2357   0.568E-01    0.327E-01
RMM:  13    -0.156642479262E+03    0.53508E-02   -0.17482E-02  2532   0.342E-01    0.209E-01
RMM:  14    -0.156639968968E+03    0.25103E-02   -0.22224E-02  2208   0.394E-01    0.161E-01
RMM:  15    -0.156639798927E+03    0.17004E-03   -0.84513E-03  2334   0.248E-01    0.704E-02
RMM:  16    -0.156640984762E+03   -0.11858E-02   -0.39068E-03  2366   0.159E-01    0.570E-02
RMM:  17    -0.156641921214E+03   -0.93645E-03   -0.16596E-03  2344   0.867E-02    0.363E-02
RMM:  18    -0.156642333227E+03   -0.41201E-03   -0.73800E-04  2270   0.670E-02    0.228E-02
RMM:  19    -0.156642977982E+03   -0.64475E-03   -0.35216E-04  2031   0.499E-02    0.160E-02
RMM:  20    -0.156643463212E+03   -0.48523E-03   -0.16072E-04  1800   0.277E-02    0.635E-03
RMM:  21    -0.156643794910E+03   -0.33170E-03   -0.88026E-05  1596   0.191E-02    0.502E-03
RMM:  22    -0.156643952952E+03   -0.15804E-03   -0.37728E-05  1388   0.144E-02    0.310E-03
RMM:  23    -0.156644061156E+03   -0.10820E-03   -0.25519E-05  1286   0.119E-02    0.201E-03
RMM:  24    -0.156644127492E+03   -0.66336E-04   -0.18368E-05  1182   0.114E-02    0.269E-03
RMM:  25    -0.156644172020E+03   -0.44529E-04   -0.12129E-05  1082   0.100E-02    0.944E-04
RMM:  26    -0.156644189778E+03   -0.17757E-04   -0.67488E-06  1006   0.713E-03    0.804E-04
RMM:  27    -0.156644196460E+03   -0.66826E-05   -0.38387E-06   926   0.626E-03
   1 F= -.15664420E+03 E0= -.15664420E+03  d E =0.000000E+00
