 vasp.5.4.4.18Apr17-6-g9f103f2a35 (build Jun 30 2017 11:15:00) complex          
  
 executed on    STALLO_VASP_5.4.4 date 2019.11.08  10:26:06
 running on    4 total cores
 distrk:  each k-point on    4 cores,    1 groups
 distr:  one band on NCORES_PER_BAND=   2 cores,    2 groups


--------------------------------------------------------------------------------------------------------


 INCAR:
 POTCAR:   PAW_PBE O 08Apr2002                    
 POTCAR:   PAW_PBE Sr_sv 07Sep2000                
 POTCAR:   PAW_PBE Ti 08Apr2002                   
 POTCAR:   PAW_PBE O 08Apr2002                    
   VRHFIN =O: s2p4                                                              
   LEXCH  = PE                                                                  
   EATOM  =   432.3788 eV,   31.7789 Ry                                         
                                                                                
   TITEL  = PAW_PBE O 08Apr2002                                                 
   LULTRA =        F    use ultrasoft PP ?                                      
   IUNSCR =        0    unscreen: 0-lin 1-nonlin 2-no                           
   RPACOR =     .000    partial core radius                                     
   POMASS =   16.000; ZVAL   =    6.000    mass and valenz                      
   RCORE  =    1.520    outmost cutoff radius                                   
   RWIGS  =    1.550; RWIGS  =     .820    wigner-seitz radius (au A)           
   ENMAX  =  400.000; ENMIN  =  300.000 eV                                      
   ICORE  =        2    local potential                                         
   LCOR   =        T    correct aug charges                                     
   LPAW   =        T    paw PP                                                  
   EAUG   =  605.392                                                            
   DEXC   =     .000                                                            
   RMAX   =    2.264    core radius for proj-oper                               
   RAUG   =    1.300    factor for augmentation sphere                          
   RDEP   =    1.550    radius for radial grids                                 
   QCUT   =   -5.520; QGAM   =   11.041    optimization parameters              
                                                                                
   Description                                                                  
     l     E      TYP  RCUT    TYP  RCUT                                        
     0   .000     23  1.200                                                     
     0  -.700     23  1.200                                                     
     1   .000     23  1.520                                                     
     1   .600     23  1.520                                                     
     2   .000      7  1.500                                                     
  local pseudopotential read in
  atomic valenz-charges read in
  non local Contribution for L=           0  read in
    real space projection operators read in
  non local Contribution for L=           0  read in
    real space projection operators read in
  non local Contribution for L=           1  read in
    real space projection operators read in
  non local Contribution for L=           1  read in
    real space projection operators read in
    PAW grid and wavefunctions read in
 
   number of l-projection  operators is LMAX  =           4
   number of lm-projection operators is LMMAX =           8
 
 POTCAR:   PAW_PBE Sr_sv 07Sep2000                
   VRHFIN =Sr: 4s4p5s                                                           
   LEXCH  = PE                                                                  
   EATOM  =   842.4562 eV,   61.9188 Ry                                         
                                                                                
   TITEL  = PAW_PBE Sr_sv 07Sep2000                                             
   LULTRA =        F    use ultrasoft PP ?                                      
   IUNSCR =        1    unscreen: 0-lin 1-nonlin 2-no                           
   RPACOR =    2.200    partial core radius                                     
   POMASS =   87.620; ZVAL   =   10.000    mass and valenz                      
   RCORE  =    2.500    outmost cutoff radius                                   
   RWIGS  =    4.040; RWIGS  =    2.138    wigner-seitz radius (au A)           
   ENMAX  =  229.282; ENMIN  =  171.961 eV                                      
   RCLOC  =    2.201    cutoff for local pot                                    
   LCOR   =        T    correct aug charges                                     
   LPAW   =        T    paw PP                                                  
   EAUG   =  366.804                                                            
   DEXC   =     .000                                                            
   RMAX   =    3.045    core radius for proj-oper                               
   RAUG   =    1.300    factor for augmentation sphere                          
   RDEP   =    2.562    radius for radial grids                                 
   QCUT   =   -4.105; QGAM   =    8.210    optimization parameters              
                                                                                
   Description                                                                  
     l     E      TYP  RCUT    TYP  RCUT                                        
     0   .000     23  2.480                                                     
     0   .000     23  2.480                                                     
     1   .000     23  2.500                                                     
     1   .000     23  2.500                                                     
     2   .000     23  2.500                                                     
     2   .000     23  2.500                                                     
  local pseudopotential read in
  partial core-charges read in
  atomic valenz-charges read in
  non local Contribution for L=           0  read in
    real space projection operators read in
  non local Contribution for L=           0  read in
    real space projection operators read in
  non local Contribution for L=           1  read in
    real space projection operators read in
  non local Contribution for L=           1  read in
    real space projection operators read in
  non local Contribution for L=           2  read in
    real space projection operators read in
  non local Contribution for L=           2  read in
    real space projection operators read in
    PAW grid and wavefunctions read in
 
   number of l-projection  operators is LMAX  =           6
   number of lm-projection operators is LMMAX =          18
 
 POTCAR:   PAW_PBE Ti 08Apr2002                   
   VRHFIN =Ti: d3 s1                                                            
   LEXCH  = PE                                                                  
   EATOM  =    94.7929 eV,    6.9671 Ry                                         
                                                                                
   TITEL  = PAW_PBE Ti 08Apr2002                                                
   LULTRA =        F    use ultrasoft PP ?                                      
   IUNSCR =        1    unscreen: 0-lin 1-nonlin 2-no                           
   RPACOR =    2.200    partial core radius                                     
   POMASS =   47.880; ZVAL   =    4.000    mass and valenz                      
   RCORE  =    2.800    outmost cutoff radius                                   
   RWIGS  =    2.500; RWIGS  =    1.323    wigner-seitz radius (au A)           
   ENMAX  =  178.330; ENMIN  =  133.747 eV                                      
   RCLOC  =    2.215    cutoff for local pot                                    
   LCOR   =        T    correct aug charges                                     
   LPAW   =        T    paw PP                                                  
   EAUG   =  328.883                                                            
   DEXC   =    -.043                                                            
   RMAX   =    3.453    core radius for proj-oper                               
   RAUG   =    1.300    factor for augmentation sphere                          
   RDEP   =    2.885    radius for radial grids                                 
   QCUT   =   -3.620; QGAM   =    7.241    optimization parameters              
                                                                                
   Description                                                                  
     l     E      TYP  RCUT    TYP  RCUT                                        
     2   .000     23  2.800                                                     
     2   .000     23  2.800                                                     
     0   .000     23  2.800                                                     
     0  1.500     23  2.800                                                     
     1  -.400     23  2.800                                                     
     3   .000      7   .000                                                     
  local pseudopotential read in
  partial core-charges read in
  atomic valenz-charges read in
  non local Contribution for L=           2  read in
    real space projection operators read in
  non local Contribution for L=           2  read in
    real space projection operators read in
  non local Contribution for L=           0  read in
    real space projection operators read in
  non local Contribution for L=           0  read in
    real space projection operators read in
  non local Contribution for L=           1  read in
    real space projection operators read in
    PAW grid and wavefunctions read in
 
   number of l-projection  operators is LMAX  =           5
   number of lm-projection operators is LMMAX =          15
 

 ----------------------------------------------------------------------------- 
|                                                                             |
|  ADVICE TO THIS USER RUNNING 'VASP/VAMP'   (HEAR YOUR MASTER'S VOICE ...):  |
|                                                                             |
|      You have a (more or less) 'large supercell' and for larger cells       |
|      it might be more efficient to use real space projection operators      |
|      So try LREAL= Auto  in the INCAR   file.                               |
|      Mind: If you want to do a very accurate calculations keep the          |
|      reciprocal projection scheme          (i.e. LREAL=.FALSE.)             |
|                                                                             |
 ----------------------------------------------------------------------------- 

 PAW_PBE O 08Apr2002                    :
 energy of atom  1       EATOM= -432.3788
 kinetic energy error for atom=    0.0224 (will be added to EATOM!!)
 PAW_PBE Sr_sv 07Sep2000                :
 energy of atom  2       EATOM= -842.4562
 kinetic energy error for atom=    0.0012 (will be added to EATOM!!)
 PAW_PBE Ti 08Apr2002                   :
 energy of atom  3       EATOM=  -94.7929
 kinetic energy error for atom=    0.0002 (will be added to EATOM!!)
 
 
 POSCAR:  O Sr Ti                                
  positions in direct lattice
  No initial velocities read in
 exchange correlation table for  LEXCH =        8
   RHO(1)=    0.500       N(1)  =     2000
   RHO(2)=  100.500       N(2)  =     4000
 


--------------------------------------------------------------------------------------------------------


 ion  position               nearest neighbor table
   1  0.500  0.500  0.327-  17 1.97  13 2.79  13 2.79  13 2.79  13 2.79
   2  0.500  0.000  0.376-  17 1.97  17 1.97  13 2.79  14 2.79  13 2.79  14 2.79
   3  0.000  0.500  0.376-  17 1.97  17 1.97  13 2.79  13 2.79  14 2.79  14 2.79
   4  0.500  0.500  0.426-  17 1.97  18 1.97  14 2.79  14 2.79  14 2.79  14 2.79
   5  0.500  0.000  0.475-  18 1.97  18 1.97  15 2.79  15 2.79  14 2.79  14 2.79
   6  0.000  0.500  0.475-  18 1.97  18 1.97  15 2.79  15 2.79  14 2.79  14 2.79
   7  0.500  0.500  0.525-  18 1.97  19 1.97  15 2.79  15 2.79  15 2.79  15 2.79
   8  0.500  0.000  0.574-  19 1.97  19 1.97  15 2.79  16 2.79  15 2.79  16 2.79
   9  0.000  0.500  0.574-  19 1.97  19 1.97  15 2.79  15 2.79  16 2.79  16 2.79
  10  0.500  0.500  0.624-  19 1.97  20 1.97  16 2.79  16 2.79  16 2.79  16 2.79
  11  0.500  0.000  0.673-  20 1.97  20 1.97  16 2.79  16 2.79
  12  0.000  0.500  0.673-  20 1.97  20 1.97  16 2.79  16 2.79
  13  0.000  0.000  0.327-   1 2.79   1 2.79   1 2.79   1 2.79   3 2.79   3 2.79   2 2.79   2 2.79
                            17 3.42  17 3.42  17 3.42  17 3.42  14 3.95
  14  0.000  0.000  0.426-   4 2.79   4 2.79   4 2.79   4 2.79   6 2.79   3 2.79   3 2.79   6 2.79
                             2 2.79   2 2.79   5 2.79   5 2.79  18 3.42  17 3.42  17 3.42  17 3.42
  15  0.000  0.000  0.525-   5 2.79   6 2.79   6 2.79   5 2.79   7 2.79   7 2.79   7 2.79   7 2.79
                             8 2.79   9 2.79   8 2.79   9 2.79  18 3.42  18 3.42  18 3.42  18 3.42
  16  0.000  0.000  0.624-  10 2.79  10 2.79  10 2.79  10 2.79  12 2.79   9 2.79   9 2.79  12 2.79
                             8 2.79   8 2.79  11 2.79  11 2.79  20 3.42  19 3.42  19 3.42  19 3.42
  17  0.500  0.500  0.376-   2 1.97   3 1.97   2 1.97   3 1.97   1 1.97   4 1.97  13 3.42  13 3.42
                            14 3.42  14 3.42  13 3.42  14 3.42  13 3.42  14 3.42
  18  0.500  0.500  0.475-   7 1.97   6 1.97   5 1.97   5 1.97   6 1.97   4 1.97  15 3.42  15 3.42
                            15 3.42  15 3.42  14 3.42  14 3.42  14 3.42  14 3.42
  19  0.500  0.500  0.574-   8 1.97   9 1.97   8 1.97   9 1.97   7 1.97  10 1.97  15 3.42  15 3.42
                            16 3.42  16 3.42  15 3.42  16 3.42  15 3.42  16 3.42
  20  0.500  0.500  0.673-  11 1.97  12 1.97  11 1.97  12 1.97  10 1.97  16 3.42  16 3.42  16 3.42
                            16 3.42
 
  LATTYP: Found a simple tetragonal cell.
 ALAT       =     3.9468463416
 C/A-ratio  =    10.0875379352
  
  Lattice vectors:
  
 A1 = (   3.9468463416,   0.0000000000,   0.0000000000)
 A2 = (   0.0000000000,   3.9468463416,   0.0000000000)
 A3 = (   0.0000000000,   0.0000000000,  39.8139621957)


Analysis of symmetry for initial positions (statically):
=====================================================================
 Subroutine PRICEL returns:
 Original cell was already a primitive cell.
 

 Routine SETGRP: Setting up the symmetry group for a 
 simple tetragonal supercell.


 Subroutine GETGRP returns: Found  8 space group operations
 (whereof  8 operations were pure point group operations)
 out of a pool of 16 trial point group operations.


The static configuration has the point symmetry C_4v.


Analysis of symmetry for dynamics (positions and initial velocities):
=====================================================================
 Subroutine PRICEL returns:
 Original cell was already a primitive cell.
 

 Routine SETGRP: Setting up the symmetry group for a 
 simple tetragonal supercell.


 Subroutine GETGRP returns: Found  8 space group operations
 (whereof  8 operations were pure point group operations)
 out of a pool of 16 trial point group operations.


The dynamic configuration has the point symmetry C_4v.


 Subroutine INISYM returns: Found  8 space group operations
 (whereof  8 operations are pure point group operations),
 and found     1 'primitive' translations

 
 
 KPOINTS: k-density: 4.0                          

Automatic generation of k-mesh.
Space group operators:
 irot       det(A)        alpha          n_x          n_y          n_z        tau_x        tau_y        tau_z
    1     1.000000     0.000000     1.000000     0.000000     0.000000     0.000000     0.000000     0.000000
    2     1.000000    90.000000     0.000000     0.000000    -1.000000     0.000000     0.000000     0.000000
    3     1.000000   180.000000     0.000000     0.000000     1.000000     0.000000     0.000000     0.000000
    4     1.000000    90.000000     0.000000     0.000000     1.000000     0.000000     0.000000     0.000000
    5    -1.000000   180.000000     0.000000     1.000000     0.000000     0.000000     0.000000     0.000000
    6    -1.000000   180.000000     0.707107     0.707107     0.000000     0.000000     0.000000     0.000000
    7    -1.000000   180.000000     1.000000     0.000000     0.000000     0.000000     0.000000     0.000000
    8    -1.000000   180.000000     0.707107    -0.707107     0.000000     0.000000     0.000000     0.000000
 
 Subroutine IBZKPT returns following result:
 ===========================================
 
 Found     10 irreducible k-points:
 
 Following reciprocal coordinates:
            Coordinates               Weight
  0.000000  0.000000  0.000000      1.000000
  0.142857  0.000000  0.000000      4.000000
  0.285714  0.000000  0.000000      4.000000
  0.428571  0.000000  0.000000      4.000000
  0.142857  0.142857  0.000000      4.000000
  0.285714  0.142857  0.000000      8.000000
  0.428571  0.142857  0.000000      8.000000
  0.285714  0.285714  0.000000      4.000000
  0.428571  0.285714  0.000000      8.000000
  0.428571  0.428571  0.000000      4.000000
 
 Following cartesian coordinates:
            Coordinates               Weight
  0.000000  0.000000  0.000000      1.000000
  0.036195  0.000000  0.000000      4.000000
  0.072391  0.000000  0.000000      4.000000
  0.108586  0.000000  0.000000      4.000000
  0.036195  0.036195  0.000000      4.000000
  0.072391  0.036195  0.000000      8.000000
  0.108586  0.036195  0.000000      8.000000
  0.072391  0.072391  0.000000      4.000000
  0.108586  0.072391  0.000000      8.000000
  0.108586  0.108586  0.000000      4.000000
 
 TETIRR: Found     65 inequivalent tetrahedra from      294


--------------------------------------------------------------------------------------------------------




 Dimension of arrays:
   k-points           NKPTS =     10   k-points in BZ     NKDIM =     10   number of bands    NBANDS=     76
   number of dos      NEDOS =    301   number of ions     NIONS =     20
   non local maximal  LDIM  =      6   non local SUM 2l+1 LMDIM =     18
   total plane-waves  NPLWV = 129024
   max r-space proj   IRMAX =      1   max aug-charges    IRDMAX=  14566
   dimension x,y,z NGX =    24 NGY =   24 NGZ =  224
   dimension x,y,z NGXF=    48 NGYF=   48 NGZF=  448
   support grid    NGXF=    48 NGYF=   48 NGZF=  448
   ions per type =              12   4   4
   NGX,Y,Z   is equivalent  to a cutoff of  10.11, 10.11,  9.35 a.u.
   NGXF,Y,Z  is equivalent  to a cutoff of  20.22, 20.22, 18.71 a.u.

 SYSTEM =  unknown system                          
 POSCAR =   O Sr Ti                                

 Startparameter for this run:
   NWRITE =      2    write-flag & timer
   PREC   = normal    normal or accurate (medium, high low for compatibility)
   ISTART =      0    job   : 0-new  1-cont  2-samecut
   ICHARG =      2    charge: 1-file 2-atom 10-const
   ISPIN  =      1    spin polarized calculation?
   LNONCOLLINEAR =      F non collinear calculations
   LSORBIT =      F    spin-orbit coupling
   INIWAV =      1    electr: 0-lowe 1-rand  2-diag
   LASPH  =      F    aspherical Exc in radial PAW
   METAGGA=      F    non-selfconsistent MetaGGA calc.

 Electronic Relaxation 1
   ENCUT  =  500.0 eV  36.75 Ry    6.06 a.u.   7.20  7.20 72.59*2*pi/ulx,y,z
   ENINI  =  500.0     initial cutoff
   ENAUG  =  605.4 eV  augmentation charge cutoff
   NELM   =     60;   NELMIN=  4; NELMDL= -5     # of ELM steps 
   EDIFF  = 0.1E-04   stopping-criterion for ELM
   LREAL  =      F    real-space projection
   NLSPLINE    = F    spline interpolate recip. space projectors
   LCOMPAT=      F    compatible to vasp.4.4
   GGA_COMPAT  = T    GGA compatible to vasp.4.4-vasp.4.6
   LMAXPAW     = -100 max onsite density
   LMAXMIX     =    2 max onsite mixed and CHGCAR
   VOSKOWN=      0    Vosko Wilk Nusair interpolation
   ROPT   =    0.00000   0.00000   0.00000
 Ionic relaxation
   EDIFFG = 0.1E-03   stopping-criterion for IOM
   NSW    =      0    number of steps for IOM
   NBLOCK =      1;   KBLOCK =      1    inner block; outer block 
   IBRION =     -1    ionic relax: 0-MD 1-quasi-New 2-CG
   NFREE  =      0    steps in history (QN), initial steepest desc. (CG)
   ISIF   =      2    stress and relaxation
   IWAVPR =     10    prediction:  0-non 1-charg 2-wave 3-comb
   ISYM   =      2    0-nonsym 1-usesym 2-fastsym
   LCORR  =      T    Harris-Foulkes like correction to forces

   POTIM  = 0.5000    time-step for ionic-motion
   TEIN   =    0.0    initial temperature
   TEBEG  =    0.0;   TEEND  =   0.0 temperature during run
   SMASS  =  -3.00    Nose mass-parameter (am)
   estimated Nose-frequenzy (Omega)   =  0.10E-29 period in steps =****** mass=  -0.356E-27a.u.
   SCALEE = 1.0000    scale energy and forces
   NPACO  =    256;   APACO  = 16.0  distance and # of slots for P.C.
   PSTRESS=    0.0 pullay stress

  Mass of Ions in am
   POMASS =  16.00 87.62 47.88
  Ionic Valenz
   ZVAL   =   6.00 10.00  4.00
  Atomic Wigner-Seitz radii
   RWIGS  =  -1.00 -1.00 -1.00
  virtual crystal weights 
   VCA    =   1.00  1.00  1.00
   NELECT =     128.0000    total number of electrons
   NUPDOWN=      -1.0000    fix difference up-down

 DOS related values:
   EMIN   =  10.00;   EMAX   =-10.00  energy-range for DOS
   EFERMI =   0.00
   ISMEAR =    -5;   SIGMA  =   0.20  broadening in eV -4-tet -1-fermi 0-gaus

 Electronic relaxation 2 (details)
   IALGO  =     68    algorithm
   LDIAG  =      T    sub-space diagonalisation (order eigenvalues)
   LSUBROT=      F    optimize rotation matrix (better conditioning)
   TURBO    =      0    0=normal 1=particle mesh
   IRESTART =      0    0=no restart 2=restart with 2 vectors
   NREBOOT  =      0    no. of reboots
   NMIN     =      0    reboot dimension
   EREF     =   0.00    reference energy to select bands
   IMIX   =      4    mixing-type and parameters
     AMIX     =   0.40;   BMIX     =  1.00
     AMIX_MAG =   1.60;   BMIX_MAG =  1.00
     AMIN     =   0.10
     WC   =   100.;   INIMIX=   1;  MIXPRE=   1;  MAXMIX= -45

 Intra band minimization:
   WEIMIN = 0.0000     energy-eigenvalue tresh-hold
   EBREAK =  0.33E-07  absolut break condition
   DEPER  =   0.30     relativ break condition  

   TIME   =   0.40     timestep for ELM

  volume/ion in A,a.u.               =      31.01       209.27
  Fermi-wavevector in a.u.,A,eV,Ry     =   0.967460  1.828234 12.734757  0.935978
  Thomas-Fermi vector in A             =   2.097347
 
 Write flags
   LWAVE        =      F    write WAVECAR
   LDOWNSAMPLE  =      F    k-point downsampling of WAVECAR
   LCHARG       =      T    write CHGCAR
   LVTOT        =      F    write LOCPOT, total local potential
   LVHAR        =      F    write LOCPOT, Hartree potential only
   LELF         =      F    write electronic localiz. function (ELF)
   LORBIT       =      0    0 simple, 1 ext, 2 COOP (PROOUT), +10 PAW based schemes


 Dipole corrections
   LMONO  =      F    monopole corrections only (constant potential shift)
   LDIPOL =      F    correct potential (dipole corrections)
   IDIPOL =      0    1-x, 2-y, 3-z, 4-all directions 
   EPSILON=  1.0000000 bulk dielectric constant

 Exchange correlation treatment:
   GGA     =    --    GGA type
   LEXCH   =     8    internal setting for exchange type
   VOSKOWN=      0    Vosko Wilk Nusair interpolation
   LHFCALC =     F    Hartree Fock is set to
   LHFONE  =     F    Hartree Fock one center treatment
   AEXX    =    0.0000 exact exchange contribution

 Linear response parameters
   LEPSILON=     F    determine dielectric tensor
   LRPA    =     F    only Hartree local field effects (RPA)
   LNABLA  =     F    use nabla operator in PAW spheres
   LVEL    =     F    velocity operator in full k-point grid
   LINTERFAST=   F  fast interpolation
   KINTER  =     0    interpolate to denser k-point grid
   CSHIFT  =0.1000    complex shift for real part using Kramers Kronig
   OMEGAMAX=  -1.0    maximum frequency
   DEG_THRESHOLD= 0.2000000E-02 threshold for treating states as degnerate
   RTIME   =   -0.100 relaxation time in fs
  (WPLASMAI=    0.000 imaginary part of plasma frequency in eV, 0.658/RTIME)
   DFIELD  = 0.0000000 0.0000000 0.0000000 field for delta impulse in time
 
 Orbital magnetization related:
   ORBITALMAG=     F  switch on orbital magnetization
   LCHIMAG   =     F  perturbation theory with respect to B field
   DQ        =  0.001000  dq finite difference perturbation B field
   LLRAUG    =     F  two centre corrections for induced B field



--------------------------------------------------------------------------------------------------------


 Static calculation
 charge density and potential will be updated during run
 non-spin polarized calculation
 RMM-DIIS sequential band-by-band and
  variant of blocked Davidson during initial phase
 perform sub-space diagonalisation
    before iterative eigenvector-optimisation
 modified Broyden-mixing scheme, WC =      100.0
 initial mixing is a Kerker type mixing with AMIX =  0.4000 and BMIX =      1.0000
 Hartree-type preconditioning will be used
 using additional bands           12
 reciprocal scheme for non local part
 use partial core corrections
 calculate Harris-corrections to forces 
   (improved forces if not selfconsistent)
 use gradient corrections 
 use of overlap-Matrix (Vanderbilt PP)
 Fermi weights with tetrahedron method with Bloechl corrections


--------------------------------------------------------------------------------------------------------


  energy-cutoff  :      500.00
  volume of cell :      620.21
      direct lattice vectors                 reciprocal lattice vectors
     3.946846342  0.000000000  0.000000000     0.253366844  0.000000000  0.000000000
     0.000000000  3.946846342  0.000000000     0.000000000  0.253366844  0.000000000
     0.000000000  0.000000000 39.813962196     0.000000000  0.000000000  0.025116817

  length of vectors
     3.946846342  3.946846342 39.813962196     0.253366844  0.253366844  0.025116817


 
 k-points in units of 2pi/SCALE and weight: k-density: 4.0                          
   0.00000000  0.00000000  0.00000000       0.020
   0.03619526  0.00000000  0.00000000       0.082
   0.07239053  0.00000000  0.00000000       0.082
   0.10858579  0.00000000  0.00000000       0.082
   0.03619526  0.03619526  0.00000000       0.082
   0.07239053  0.03619526  0.00000000       0.163
   0.10858579  0.03619526  0.00000000       0.163
   0.07239053  0.07239053  0.00000000       0.082
   0.10858579  0.07239053  0.00000000       0.163
   0.10858579  0.10858579  0.00000000       0.082
 
 k-points in reciprocal lattice and weights: k-density: 4.0                          
   0.00000000  0.00000000  0.00000000       0.020
   0.14285714  0.00000000  0.00000000       0.082
   0.28571429  0.00000000  0.00000000       0.082
   0.42857143  0.00000000  0.00000000       0.082
   0.14285714  0.14285714  0.00000000       0.082
   0.28571429  0.14285714  0.00000000       0.163
   0.42857143  0.14285714  0.00000000       0.163
   0.28571429  0.28571429  0.00000000       0.082
   0.42857143  0.28571429  0.00000000       0.163
   0.42857143  0.42857143  0.00000000       0.082
 
 position of ions in fractional coordinates (direct lattice) 
   0.50000000  0.50000000  0.32651862
   0.50000000  0.00000000  0.37608473
   0.00000000  0.50000000  0.37608473
   0.50000000  0.50000000  0.42565084
   0.50000000  0.00000000  0.47521695
   0.00000000  0.50000000  0.47521695
   0.50000000  0.50000000  0.52478305
   0.50000000  0.00000000  0.57434916
   0.00000000  0.50000000  0.57434916
   0.50000000  0.50000000  0.62391527
   0.50000000  0.00000000  0.67348138
   0.00000000  0.50000000  0.67348138
   0.00000000  0.00000000  0.32651862
   0.00000000  0.00000000  0.42565084
   0.00000000  0.00000000  0.52478305
   0.00000000  0.00000000  0.62391527
   0.50000000  0.50000000  0.37608473
   0.50000000  0.50000000  0.47521695
   0.50000000  0.50000000  0.57434916
   0.50000000  0.50000000  0.67348138
 
 position of ions in cartesian coordinates  (Angst):
   1.97342317  1.97342317 13.00000000
   1.97342317  0.00000000 14.97342317
   0.00000000  1.97342317 14.97342317
   1.97342317  1.97342317 16.94684634
   1.97342317  0.00000000 18.92026951
   0.00000000  1.97342317 18.92026951
   1.97342317  1.97342317 20.89369268
   1.97342317  0.00000000 22.86711585
   0.00000000  1.97342317 22.86711585
   1.97342317  1.97342317 24.84053902
   1.97342317  0.00000000 26.81396220
   0.00000000  1.97342317 26.81396220
   0.00000000  0.00000000 13.00000000
   0.00000000  0.00000000 16.94684634
   0.00000000  0.00000000 20.89369268
   0.00000000  0.00000000 24.84053902
   1.97342317  1.97342317 14.97342317
   1.97342317  1.97342317 18.92026951
   1.97342317  1.97342317 22.86711585
   1.97342317  1.97342317 26.81396220
 


--------------------------------------------------------------------------------------------------------


 k-point  1 :   0.0000 0.0000 0.0000  plane waves:   15657
 k-point  2 :   0.1429 0.0000 0.0000  plane waves:   15723
 k-point  3 :   0.2857 0.0000 0.0000  plane waves:   15746
 k-point  4 :   0.4286 0.0000 0.0000  plane waves:   15796
 k-point  5 :   0.1429 0.1429 0.0000  plane waves:   15722
 k-point  6 :   0.2857 0.1429 0.0000  plane waves:   15745
 k-point  7 :   0.4286 0.1429 0.0000  plane waves:   15775
 k-point  8 :   0.2857 0.2857 0.0000  plane waves:   15750
 k-point  9 :   0.4286 0.2857 0.0000  plane waves:   15734
 k-point 10 :   0.4286 0.4286 0.0000  plane waves:   15764

 maximum and minimum number of plane-waves per node :      7915     7785

 maximum number of plane-waves:     15796
 maximum index in each direction: 
   IXMAX=    7   IYMAX=    7   IZMAX=   72
   IXMIN=   -7   IYMIN=   -7   IZMIN=  -72


 parallel 3D FFT for wavefunctions:
    minimum data exchange during FFTs selected (reduces bandwidth)
 parallel 3D FFT for charge:
    minimum data exchange during FFTs selected (reduces bandwidth)


 total amount of memory used by VASP MPI-rank0   145511. kBytes
=======================================================================

   base      :      30000. kBytes
   nonl-proj :      36730. kBytes
   fftplans  :      10649. kBytes
   grid      :      19155. kBytes
   one-center:        155. kBytes
   wavefun   :      48822. kBytes
 
     INWAV:  cpu time    0.0000: real time    0.0000
 Broyden mixing: mesh for mixing (old mesh)
   NGX = 15   NGY = 15   NGZ =145
  (NGX  = 48   NGY  = 48   NGZ  =448)
  gives a total of  32625 points

 initial charge density was supplied:
 charge density of overlapping atoms calculated
 number of electron     128.0000000 magnetization 
 keeping initial charge density in first step


--------------------------------------------------------------------------------------------------------


 Maximum index for augmentation-charges         3498 (set IRDMAX)


--------------------------------------------------------------------------------------------------------


 First call to EWALD:  gamma=   0.208
 Maximum number of real-space cells 5x 5x 1
 Maximum number of reciprocal cells 2x 2x11

    FEWALD:  cpu time    0.0020: real time    0.0019


--------------------------------------- Iteration      1(   1)  ---------------------------------------


    POTLOK:  cpu time    0.1630: real time    0.1688
    SETDIJ:  cpu time    0.0120: real time    0.0122
     EDDAV:  cpu time    7.8888: real time    7.8924
 BZINTS: Fermi energy: 11.313990;128.000000 electrons
         Band energy:-222.100877;  BLOECHL correction: -0.084893
       DOS:  cpu time    0.0070: real time    0.0071
    --------------------------------------------
      LOOP:  cpu time    8.0708: real time    8.0805

 eigenvalue-minimisations  :  1560
 total energy-change (2. order) : 0.1579659E+04  (-0.5422735E+04)
 number of electron     128.0000000 magnetization 
 augmentation part      128.0000000 magnetization 

 Free energy of the ion-electron system (eV)
  ---------------------------------------------------
  alpha Z        PSCENC =       284.86957638
  Ewald energy   TEWEN  =    108526.67003485
  -Hartree energ DENC   =   -116467.88900152
  -exchange      EXHF   =         0.00000000
  -V(xc)+E(xc)   XCENC  =       325.52647893
  PAW double counting   =      5334.45189010    -5139.13784255
  entropy T*S    EENTRO =         0.00000000
  eigenvalues    EBANDS =      -222.10087740
  atomic energy  EATOM  =      8937.26825017
  Solvation  Ediel_sol  =         0.00000000
  ---------------------------------------------------
  free energy    TOTEN  =      1579.65850897 eV

  energy without entropy =     1579.65850897  energy(sigma->0) =     1579.65850897


--------------------------------------------------------------------------------------------------------




--------------------------------------- Iteration      1(   2)  ---------------------------------------


     EDDAV:  cpu time    9.1816: real time    9.1827
 BZINTS: Fermi energy:  1.710098;128.000000 electrons
         Band energy:***********;  BLOECHL correction: -0.080676
       DOS:  cpu time    0.0070: real time    0.0066
    --------------------------------------------
      LOOP:  cpu time    9.1886: real time    9.1893

 eigenvalue-minimisations  :  1900
 total energy-change (2. order) :-0.1396121E+04  (-0.1341701E+04)
 number of electron     128.0000000 magnetization 
 augmentation part      128.0000000 magnetization 

 Free energy of the ion-electron system (eV)
  ---------------------------------------------------
  alpha Z        PSCENC =       284.86957638
  Ewald energy   TEWEN  =    108526.67003485
  -Hartree energ DENC   =   -116467.88900152
  -exchange      EXHF   =         0.00000000
  -V(xc)+E(xc)   XCENC  =       325.52647893
  PAW double counting   =      5334.45189010    -5139.13784255
  entropy T*S    EENTRO =         0.00000000
  eigenvalues    EBANDS =     -1618.22212932
  atomic energy  EATOM  =      8937.26825017
  Solvation  Ediel_sol  =         0.00000000
  ---------------------------------------------------
  free energy    TOTEN  =       183.53725704 eV

  energy without entropy =      183.53725704  energy(sigma->0) =      183.53725704


--------------------------------------------------------------------------------------------------------




--------------------------------------- Iteration      1(   3)  ---------------------------------------


     EDDAV:  cpu time    9.6435: real time    9.6441
 BZINTS: Fermi energy: -5.015593;128.000000 electrons
         Band energy:***********;  BLOECHL correction:  0.000000
       DOS:  cpu time    0.0010: real time    0.0015
    --------------------------------------------
      LOOP:  cpu time    9.6445: real time    9.6456

 eigenvalue-minimisations  :  2016
 total energy-change (2. order) :-0.3600205E+03  (-0.3523778E+03)
 number of electron     128.0000000 magnetization 
 augmentation part      128.0000000 magnetization 

 Free energy of the ion-electron system (eV)
  ---------------------------------------------------
  alpha Z        PSCENC =       284.86957638
  Ewald energy   TEWEN  =    108526.67003485
  -Hartree energ DENC   =   -116467.88900152
  -exchange      EXHF   =         0.00000000
  -V(xc)+E(xc)   XCENC  =       325.52647893
  PAW double counting   =      5334.45189010    -5139.13784255
  entropy T*S    EENTRO =         0.00000000
  eigenvalues    EBANDS =     -1978.24259997
  atomic energy  EATOM  =      8937.26825017
  Solvation  Ediel_sol  =         0.00000000
  ---------------------------------------------------
  free energy    TOTEN  =      -176.48321360 eV

  energy without entropy =     -176.48321360  energy(sigma->0) =     -176.48321360


--------------------------------------------------------------------------------------------------------




--------------------------------------- Iteration      1(   4)  ---------------------------------------


     EDDAV:  cpu time    9.4326: real time    9.4337
 BZINTS: Fermi energy: -6.938785;128.000000 electrons
         Band energy:***********;  BLOECHL correction:  0.000000
       DOS:  cpu time    0.0010: real time    0.0013
    --------------------------------------------
      LOOP:  cpu time    9.4336: real time    9.4350

 eigenvalue-minimisations  :  1960
 total energy-change (2. order) :-0.2444615E+02  (-0.2436388E+02)
 number of electron     128.0000000 magnetization 
 augmentation part      128.0000000 magnetization 

 Free energy of the ion-electron system (eV)
  ---------------------------------------------------
  alpha Z        PSCENC =       284.86957638
  Ewald energy   TEWEN  =    108526.67003485
  -Hartree energ DENC   =   -116467.88900152
  -exchange      EXHF   =         0.00000000
  -V(xc)+E(xc)   XCENC  =       325.52647893
  PAW double counting   =      5334.45189010    -5139.13784255
  entropy T*S    EENTRO =         0.00000000
  eigenvalues    EBANDS =     -2002.68874785
  atomic energy  EATOM  =      8937.26825017
  Solvation  Ediel_sol  =         0.00000000
  ---------------------------------------------------
  free energy    TOTEN  =      -200.92936149 eV

  energy without entropy =     -200.92936149  energy(sigma->0) =     -200.92936149


--------------------------------------------------------------------------------------------------------




--------------------------------------- Iteration      1(   5)  ---------------------------------------


     EDDAV:  cpu time   11.8872: real time   11.8849
 BZINTS: Fermi energy: -6.942209;128.000000 electrons
         Band energy:***********;  BLOECHL correction:  0.000000
       DOS:  cpu time    0.0020: real time    0.0013
    CHARGE:  cpu time    0.3160: real time    0.3160
    MIXING:  cpu time    0.0050: real time    0.0056
    --------------------------------------------
      LOOP:  cpu time   12.2101: real time   12.2077

 eigenvalue-minimisations  :  2608
 total energy-change (2. order) :-0.1380456E+01  (-0.1379757E+01)
 number of electron     127.9999689 magnetization 
 augmentation part       13.5933353 magnetization 

 Broyden mixing:
  rms(total) = 0.37067E+01    rms(broyden)= 0.37062E+01
  rms(prec ) = 0.38142E+01
  weight for this iteration     100.00

 Free energy of the ion-electron system (eV)
  ---------------------------------------------------
  alpha Z        PSCENC =       284.86957638
  Ewald energy   TEWEN  =    108526.67003485
  -Hartree energ DENC   =   -116467.88900152
  -exchange      EXHF   =         0.00000000
  -V(xc)+E(xc)   XCENC  =       325.52647893
  PAW double counting   =      5334.45189010    -5139.13784255
  entropy T*S    EENTRO =         0.00000000
  eigenvalues    EBANDS =     -2004.06920340
  atomic energy  EATOM  =      8937.26825017
  Solvation  Ediel_sol  =         0.00000000
  ---------------------------------------------------
  free energy    TOTEN  =      -202.30981704 eV

  energy without entropy =     -202.30981704  energy(sigma->0) =     -202.30981704


--------------------------------------------------------------------------------------------------------




--------------------------------------- Iteration      1(   6)  ---------------------------------------


    POTLOK:  cpu time    0.1470: real time    0.1487
    SETDIJ:  cpu time    0.0110: real time    0.0115
    EDDIAG:  cpu time    0.8759: real time    0.8759
  RMM-DIIS:  cpu time    6.1701: real time    6.1682
    ORTHCH:  cpu time    0.1660: real time    0.1663
 BZINTS: Fermi energy: -2.612365;128.000000 electrons
         Band energy:***********;  BLOECHL correction: -0.056790
       DOS:  cpu time    0.0050: real time    0.0057
    CHARGE:  cpu time    0.3250: real time    0.3245
    MIXING:  cpu time    0.0040: real time    0.0044
    --------------------------------------------
      LOOP:  cpu time    7.7038: real time    7.7051

 eigenvalue-minimisations  :  1688
 total energy-change (2. order) : 0.4045796E+02  (-0.2968764E+02)
 number of electron     127.9999790 magnetization 
 augmentation part       14.2893926 magnetization 

 Broyden mixing:
  rms(total) = 0.14632E+01    rms(broyden)= 0.14620E+01
  rms(prec ) = 0.14955E+01
  weight for this iteration     100.00

 eigenvalues of (default mixing * dielectric matrix)
  average eigenvalue GAMMA=   0.7510
  0.7510

 Free energy of the ion-electron system (eV)
  ---------------------------------------------------
  alpha Z        PSCENC =       284.86957638
  Ewald energy   TEWEN  =    108526.67003485
  -Hartree energ DENC   =   -116780.99337006
  -exchange      EXHF   =         0.00000000
  -V(xc)+E(xc)   XCENC  =       345.41523645
  PAW double counting   =      5936.88318107    -5754.41675060
  entropy T*S    EENTRO =         0.00000000
  eigenvalues    EBANDS =     -1657.54802010
  atomic energy  EATOM  =      8937.26825017
  Solvation  Ediel_sol  =         0.00000000
  ---------------------------------------------------
  free energy    TOTEN  =      -161.85186184 eV

  energy without entropy =     -161.85186184  energy(sigma->0) =     -161.85186184


--------------------------------------------------------------------------------------------------------




--------------------------------------- Iteration      1(   7)  ---------------------------------------


    POTLOK:  cpu time    0.1480: real time    0.1510
    SETDIJ:  cpu time    0.0120: real time    0.0114
    EDDIAG:  cpu time    0.8799: real time    0.8800
  RMM-DIIS:  cpu time    6.5260: real time    6.5241
    ORTHCH:  cpu time    0.1660: real time    0.1662
 BZINTS: Fermi energy: -3.155046;128.000000 electrons
         Band energy:***********;  BLOECHL correction:  0.000000
       DOS:  cpu time    0.0010: real time    0.0013
    CHARGE:  cpu time    0.3160: real time    0.3153
    MIXING:  cpu time    0.0050: real time    0.0046
    --------------------------------------------
      LOOP:  cpu time    8.0538: real time    8.0540

 eigenvalue-minimisations  :  1765
 total energy-change (2. order) : 0.4116001E+01  (-0.1470559E+01)
 number of electron     127.9999774 magnetization 
 augmentation part       13.4622316 magnetization 

 Broyden mixing:
  rms(total) = 0.72671E+00    rms(broyden)= 0.72664E+00
  rms(prec ) = 0.74023E+00
  weight for this iteration     100.00

 eigenvalues of (default mixing * dielectric matrix)
  average eigenvalue GAMMA=   0.9540
  0.9959  0.9121

 Free energy of the ion-electron system (eV)
  ---------------------------------------------------
  alpha Z        PSCENC =       284.86957638
  Ewald energy   TEWEN  =    108526.67003485
  -Hartree energ DENC   =   -116818.81419010
  -exchange      EXHF   =         0.00000000
  -V(xc)+E(xc)   XCENC  =       341.32005859
  PAW double counting   =      5939.81690109    -5762.06551723
  entropy T*S    EENTRO =         0.00000000
  eigenvalues    EBANDS =     -1606.80097464
  atomic energy  EATOM  =      8937.26825017
  Solvation  Ediel_sol  =         0.00000000
  ---------------------------------------------------
  free energy    TOTEN  =      -157.73586088 eV

  energy without entropy =     -157.73586088  energy(sigma->0) =     -157.73586088


--------------------------------------------------------------------------------------------------------




--------------------------------------- Iteration      1(   8)  ---------------------------------------


    POTLOK:  cpu time    0.1470: real time    0.1493
    SETDIJ:  cpu time    0.0120: real time    0.0115
    EDDIAG:  cpu time    0.8779: real time    0.8781
  RMM-DIIS:  cpu time    7.5978: real time    7.5946
    ORTHCH:  cpu time    0.1660: real time    0.1664
 BZINTS: Fermi energy: -2.731029;128.000000 electrons
         Band energy:***********;  BLOECHL correction:  0.000000
       DOS:  cpu time    0.0010: real time    0.0013
    CHARGE:  cpu time    0.3160: real time    0.3160
    MIXING:  cpu time    0.0050: real time    0.0048
    --------------------------------------------
      LOOP:  cpu time    9.1226: real time    9.1222

 eigenvalue-minimisations  :  2050
 total energy-change (2. order) : 0.7576097E+00  (-0.3147682E+00)
 number of electron     127.9999776 magnetization 
 augmentation part       13.6990808 magnetization 

 Broyden mixing:
  rms(total) = 0.36136E+00    rms(broyden)= 0.36133E+00
  rms(prec ) = 0.37015E+00
  weight for this iteration     100.00

 eigenvalues of (default mixing * dielectric matrix)
  average eigenvalue GAMMA=   1.2555
  2.1485  0.9324  0.6856

 Free energy of the ion-electron system (eV)
  ---------------------------------------------------
  alpha Z        PSCENC =       284.86957638
  Ewald energy   TEWEN  =    108526.67003485
  -Hartree energ DENC   =   -116849.50982567
  -exchange      EXHF   =         0.00000000
  -V(xc)+E(xc)   XCENC  =       341.20419713
  PAW double counting   =      6016.68989303    -5842.59026874
  entropy T*S    EENTRO =         0.00000000
  eigenvalues    EBANDS =     -1571.58010831
  atomic energy  EATOM  =      8937.26825017
  Solvation  Ediel_sol  =         0.00000000
  ---------------------------------------------------
  free energy    TOTEN  =      -156.97825115 eV

  energy without entropy =     -156.97825115  energy(sigma->0) =     -156.97825115


--------------------------------------------------------------------------------------------------------




--------------------------------------- Iteration      1(   9)  ---------------------------------------


    POTLOK:  cpu time    0.1480: real time    0.1504
    SETDIJ:  cpu time    0.0120: real time    0.0114
    EDDIAG:  cpu time    0.8789: real time    0.8788
  RMM-DIIS:  cpu time    7.3909: real time    7.3889
    ORTHCH:  cpu time    0.1660: real time    0.1660
 BZINTS: Fermi energy: -1.820881;128.000000 electrons
         Band energy:***********;  BLOECHL correction:  0.000000
       DOS:  cpu time    0.0010: real time    0.0013
    CHARGE:  cpu time    0.3160: real time    0.3159
    MIXING:  cpu time    0.0050: real time    0.0055
    --------------------------------------------
      LOOP:  cpu time    8.9176: real time    8.9182

 eigenvalue-minimisations  :  2011
 total energy-change (2. order) : 0.2517257E+00  (-0.1543682E+00)
 number of electron     127.9999772 magnetization 
 augmentation part       13.7547887 magnetization 

 Broyden mixing:
  rms(total) = 0.10471E+00    rms(broyden)= 0.10462E+00
  rms(prec ) = 0.11340E+00
  weight for this iteration     100.00

 eigenvalues of (default mixing * dielectric matrix)
  average eigenvalue GAMMA=   1.1902
  2.2796  0.8798  0.8798  0.7217

 Free energy of the ion-electron system (eV)
  ---------------------------------------------------
  alpha Z        PSCENC =       284.86957638
  Ewald energy   TEWEN  =    108526.67003485
  -Hartree energ DENC   =   -116896.26522466
  -exchange      EXHF   =         0.00000000
  -V(xc)+E(xc)   XCENC  =       340.78327963
  PAW double counting   =      6110.84867913    -5940.81810757
  entropy T*S    EENTRO =         0.00000000
  eigenvalues    EBANDS =     -1520.08301339
  atomic energy  EATOM  =      8937.26825017
  Solvation  Ediel_sol  =         0.00000000
  ---------------------------------------------------
  free energy    TOTEN  =      -156.72652546 eV

  energy without entropy =     -156.72652546  energy(sigma->0) =     -156.72652546


--------------------------------------------------------------------------------------------------------




--------------------------------------- Iteration      1(  10)  ---------------------------------------


    POTLOK:  cpu time    0.1480: real time    0.1509
    SETDIJ:  cpu time    0.0120: real time    0.0114
    EDDIAG:  cpu time    0.8769: real time    0.8774
  RMM-DIIS:  cpu time    8.4587: real time    8.4560
    ORTHCH:  cpu time    0.1690: real time    0.1694
 BZINTS: Fermi energy: -1.650066;128.000000 electrons
         Band energy:***********;  BLOECHL correction:  0.000000
       DOS:  cpu time    0.0010: real time    0.0013
    CHARGE:  cpu time    0.3180: real time    0.3169
    MIXING:  cpu time    0.0050: real time    0.0054
    --------------------------------------------
      LOOP:  cpu time    9.9885: real time    9.9887

 eigenvalue-minimisations  :  2316
 total energy-change (2. order) : 0.4842006E-01  (-0.2534572E-01)
 number of electron     127.9999773 magnetization 
 augmentation part       13.7050386 magnetization 

 Broyden mixing:
  rms(total) = 0.67856E-01    rms(broyden)= 0.67847E-01
  rms(prec ) = 0.74337E-01
  weight for this iteration     100.00

 eigenvalues of (default mixing * dielectric matrix)
  average eigenvalue GAMMA=   1.2107
  2.1954  1.3288  1.1399  0.6947  0.6947

 Free energy of the ion-electron system (eV)
  ---------------------------------------------------
  alpha Z        PSCENC =       284.86957638
  Ewald energy   TEWEN  =    108526.67003485
  -Hartree energ DENC   =   -116926.05660301
  -exchange      EXHF   =         0.00000000
  -V(xc)+E(xc)   XCENC  =       341.10852956
  PAW double counting   =      6134.18223444    -5964.75948320
  entropy T*S    EENTRO =         0.00000000
  eigenvalues    EBANDS =     -1489.96064458
  atomic energy  EATOM  =      8937.26825017
  Solvation  Ediel_sol  =         0.00000000
  ---------------------------------------------------
  free energy    TOTEN  =      -156.67810540 eV

  energy without entropy =     -156.67810540  energy(sigma->0) =     -156.67810540


--------------------------------------------------------------------------------------------------------




--------------------------------------- Iteration      1(  11)  ---------------------------------------


    POTLOK:  cpu time    0.1520: real time    0.1537
    SETDIJ:  cpu time    0.0110: real time    0.0115
    EDDIAG:  cpu time    0.8909: real time    0.8903
  RMM-DIIS:  cpu time    8.2567: real time    8.2550
    ORTHCH:  cpu time    0.1680: real time    0.1689
 BZINTS: Fermi energy: -1.507431;128.000000 electrons
         Band energy:***********;  BLOECHL correction:  0.000000
       DOS:  cpu time    0.0020: real time    0.0013
    CHARGE:  cpu time    0.3150: real time    0.3151
    MIXING:  cpu time    0.0060: real time    0.0056
    --------------------------------------------
      LOOP:  cpu time    9.8015: real time    9.8013

 eigenvalue-minimisations  :  2222
 total energy-change (2. order) : 0.2198837E-01  (-0.1635887E-01)
 number of electron     127.9999774 magnetization 
 augmentation part       13.6279914 magnetization 

 Broyden mixing:
  rms(total) = 0.38816E-01    rms(broyden)= 0.38800E-01
  rms(prec ) = 0.44338E-01
  weight for this iteration     100.00

 eigenvalues of (default mixing * dielectric matrix)
  average eigenvalue GAMMA=   1.2864
  2.2530  2.2530  0.9099  0.9099  0.7569  0.6359

 Free energy of the ion-electron system (eV)
  ---------------------------------------------------
  alpha Z        PSCENC =       284.86957638
  Ewald energy   TEWEN  =    108526.67003485
  -Hartree energ DENC   =   -116954.91784281
  -exchange      EXHF   =         0.00000000
  -V(xc)+E(xc)   XCENC  =       341.44179594
  PAW double counting   =      6146.96628157    -5977.57994929
  entropy T*S    EENTRO =         0.00000000
  eigenvalues    EBANDS =     -1461.37426384
  atomic energy  EATOM  =      8937.26825017
  Solvation  Ediel_sol  =         0.00000000
  ---------------------------------------------------
  free energy    TOTEN  =      -156.65611703 eV

  energy without entropy =     -156.65611703  energy(sigma->0) =     -156.65611703


--------------------------------------------------------------------------------------------------------




--------------------------------------- Iteration      1(  12)  ---------------------------------------


    POTLOK:  cpu time    0.1520: real time    0.1557
    SETDIJ:  cpu time    0.0120: real time    0.0116
    EDDIAG:  cpu time    0.8889: real time    0.8892
  RMM-DIIS:  cpu time    8.8057: real time    8.8034
    ORTHCH:  cpu time    0.1690: real time    0.1685
 BZINTS: Fermi energy: -1.309937;128.000000 electrons
         Band energy:***********;  BLOECHL correction:  0.000000
       DOS:  cpu time    0.0010: real time    0.0013
    CHARGE:  cpu time    0.3160: real time    0.3155
    MIXING:  cpu time    0.0050: real time    0.0058
    --------------------------------------------
      LOOP:  cpu time   10.3494: real time   10.3511

 eigenvalue-minimisations  :  2357
 total energy-change (2. order) : 0.8286951E-02  (-0.4771537E-02)
 number of electron     127.9999774 magnetization 
 augmentation part       13.5897171 magnetization 

 Broyden mixing:
  rms(total) = 0.32739E-01    rms(broyden)= 0.32734E-01
  rms(prec ) = 0.36572E-01
  weight for this iteration     100.00

 eigenvalues of (default mixing * dielectric matrix)
  average eigenvalue GAMMA=   1.2335
  2.3149  2.3149  0.9486  0.9486  0.7998  0.6538  0.6538

 Free energy of the ion-electron system (eV)
  ---------------------------------------------------
  alpha Z        PSCENC =       284.86957638
  Ewald energy   TEWEN  =    108526.67003485
  -Hartree energ DENC   =   -116973.91508891
  -exchange      EXHF   =         0.00000000
  -V(xc)+E(xc)   XCENC  =       341.53407278
  PAW double counting   =      6148.37151275    -5978.71674086
  entropy T*S    EENTRO =         0.00000000
  eigenvalues    EBANDS =     -1442.72944724
  atomic energy  EATOM  =      8937.26825017
  Solvation  Ediel_sol  =         0.00000000
  ---------------------------------------------------
  free energy    TOTEN  =      -156.64783008 eV

  energy without entropy =     -156.64783008  energy(sigma->0) =     -156.64783008


--------------------------------------------------------------------------------------------------------




--------------------------------------- Iteration      1(  13)  ---------------------------------------


    POTLOK:  cpu time    0.1520: real time    0.1540
    SETDIJ:  cpu time    0.0120: real time    0.0115
    EDDIAG:  cpu time    0.8879: real time    0.8882
  RMM-DIIS:  cpu time    9.3176: real time    9.3140
    ORTHCH:  cpu time    0.1680: real time    0.1688
 BZINTS: Fermi energy: -1.193686;128.000000 electrons
         Band energy:***********;  BLOECHL correction:  0.000000
       DOS:  cpu time    0.0010: real time    0.0013
    CHARGE:  cpu time    0.3160: real time    0.3162
    MIXING:  cpu time    0.0070: real time    0.0060
    --------------------------------------------
      LOOP:  cpu time   10.8613: real time   10.8601

 eigenvalue-minimisations  :  2532
 total energy-change (2. order) : 0.5350818E-02  (-0.1748173E-02)
 number of electron     127.9999774 magnetization 
 augmentation part       13.6012165 magnetization 

 Broyden mixing:
  rms(total) = 0.20900E-01    rms(broyden)= 0.20898E-01
  rms(prec ) = 0.24441E-01
  weight for this iteration     100.00

 eigenvalues of (default mixing * dielectric matrix)
  average eigenvalue GAMMA=   1.4054
  2.8370  2.8370  1.2270  1.2270  0.8945  0.8945  0.6891  0.6370

 Free energy of the ion-electron system (eV)
  ---------------------------------------------------
  alpha Z        PSCENC =       284.86957638
  Ewald energy   TEWEN  =    108526.67003485
  -Hartree energ DENC   =   -116983.44572230
  -exchange      EXHF   =         0.00000000
  -V(xc)+E(xc)   XCENC  =       341.55117749
  PAW double counting   =      6150.13115354    -5980.43620630
  entropy T*S    EENTRO =         0.00000000
  eigenvalues    EBANDS =     -1433.25074309
  atomic energy  EATOM  =      8937.26825017
  Solvation  Ediel_sol  =         0.00000000
  ---------------------------------------------------
  free energy    TOTEN  =      -156.64247926 eV

  energy without entropy =     -156.64247926  energy(sigma->0) =     -156.64247926


--------------------------------------------------------------------------------------------------------




--------------------------------------- Iteration      1(  14)  ---------------------------------------


    POTLOK:  cpu time    0.1510: real time    0.1538
    SETDIJ:  cpu time    0.0130: real time    0.0115
    EDDIAG:  cpu time    0.8889: real time    0.8891
  RMM-DIIS:  cpu time    8.1508: real time    8.1485
    ORTHCH:  cpu time    0.1680: real time    0.1688
 BZINTS: Fermi energy: -0.998362;128.000000 electrons
         Band energy:***********;  BLOECHL correction:  0.000000
       DOS:  cpu time    0.0010: real time    0.0013
    CHARGE:  cpu time    0.3160: real time    0.3160
    MIXING:  cpu time    0.0070: real time    0.0063
    --------------------------------------------
      LOOP:  cpu time    9.6955: real time    9.6953

 eigenvalue-minimisations  :  2208
 total energy-change (2. order) : 0.2510294E-02  (-0.2222357E-02)
 number of electron     127.9999774 magnetization 
 augmentation part       13.6045308 magnetization 

 Broyden mixing:
  rms(total) = 0.16056E-01    rms(broyden)= 0.16049E-01
  rms(prec ) = 0.17970E-01
  weight for this iteration     100.00

 eigenvalues of (default mixing * dielectric matrix)
  average eigenvalue GAMMA=   1.4200
  3.4027  2.5663  1.6028  1.0861  1.0861  0.8814  0.8814  0.6555  0.6173

 Free energy of the ion-electron system (eV)
  ---------------------------------------------------
  alpha Z        PSCENC =       284.86957638
  Ewald energy   TEWEN  =    108526.67003485
  -Hartree energ DENC   =   -117002.17304163
  -exchange      EXHF   =         0.00000000
  -V(xc)+E(xc)   XCENC  =       341.47377734
  PAW double counting   =      6144.10062240    -5974.01379847
  entropy T*S    EENTRO =         0.00000000
  eigenvalues    EBANDS =     -1414.83539001
  atomic energy  EATOM  =      8937.26825017
  Solvation  Ediel_sol  =         0.00000000
  ---------------------------------------------------
  free energy    TOTEN  =      -156.63996897 eV

  energy without entropy =     -156.63996897  energy(sigma->0) =     -156.63996897


--------------------------------------------------------------------------------------------------------




--------------------------------------- Iteration      1(  15)  ---------------------------------------


    POTLOK:  cpu time    0.1530: real time    0.1550
    SETDIJ:  cpu time    0.0110: real time    0.0114
    EDDIAG:  cpu time    0.8889: real time    0.8885
  RMM-DIIS:  cpu time    8.5717: real time    8.5694
    ORTHCH:  cpu time    0.1680: real time    0.1684
 BZINTS: Fermi energy: -1.003911;128.000000 electrons
         Band energy:***********;  BLOECHL correction:  0.000000
       DOS:  cpu time    0.0020: real time    0.0012
    CHARGE:  cpu time    0.3150: real time    0.3155
    MIXING:  cpu time    0.0070: real time    0.0066
    --------------------------------------------
      LOOP:  cpu time   10.1165: real time   10.1160

 eigenvalue-minimisations  :  2334
 total energy-change (2. order) : 0.1700416E-03  (-0.8451339E-03)
 number of electron     127.9999774 magnetization 
 augmentation part       13.6129535 magnetization 

 Broyden mixing:
  rms(total) = 0.70381E-02    rms(broyden)= 0.70334E-02
  rms(prec ) = 0.87602E-02
  weight for this iteration     100.00

 eigenvalues of (default mixing * dielectric matrix)
  average eigenvalue GAMMA=   1.4093
  3.7043  2.3969  1.4246  1.4246  0.9902  0.9902  0.9895  0.9200  0.6266  0.6266

 Free energy of the ion-electron system (eV)
  ---------------------------------------------------
  alpha Z        PSCENC =       284.86957638
  Ewald energy   TEWEN  =    108526.67003485
  -Hartree energ DENC   =   -117013.71000352
  -exchange      EXHF   =         0.00000000
  -V(xc)+E(xc)   XCENC  =       341.55054172
  PAW double counting   =      6146.07779133    -5976.01159803
  entropy T*S    EENTRO =         0.00000000
  eigenvalues    EBANDS =     -1403.35439182
  atomic energy  EATOM  =      8937.26825017
  Solvation  Ediel_sol  =         0.00000000
  ---------------------------------------------------
  free energy    TOTEN  =      -156.63979893 eV

  energy without entropy =     -156.63979893  energy(sigma->0) =     -156.63979893


--------------------------------------------------------------------------------------------------------




--------------------------------------- Iteration      1(  16)  ---------------------------------------


    POTLOK:  cpu time    0.1530: real time    0.1551
    SETDIJ:  cpu time    0.0120: real time    0.0115
    EDDIAG:  cpu time    0.8899: real time    0.8905
  RMM-DIIS:  cpu time    8.7917: real time    8.7892
    ORTHCH:  cpu time    0.1690: real time    0.1689
 BZINTS: Fermi energy: -0.921896;128.000000 electrons
         Band energy:***********;  BLOECHL correction:  0.000000
       DOS:  cpu time    0.0010: real time    0.0012
    CHARGE:  cpu time    0.3170: real time    0.3165
    MIXING:  cpu time    0.0060: real time    0.0067
    --------------------------------------------
      LOOP:  cpu time   10.3394: real time   10.3395

 eigenvalue-minimisations  :  2366
 total energy-change (2. order) :-0.1185836E-02  (-0.3906815E-03)
 number of electron     127.9999774 magnetization 
 augmentation part       13.6005124 magnetization 

 Broyden mixing:
  rms(total) = 0.56952E-02    rms(broyden)= 0.56933E-02
  rms(prec ) = 0.66758E-02
  weight for this iteration     100.00

 eigenvalues of (default mixing * dielectric matrix)
  average eigenvalue GAMMA=   1.5754
  4.9996  2.4967  2.4967  1.0777  1.0777  1.1539  1.1539  0.8025  0.8025  0.6341
  0.6341

 Free energy of the ion-electron system (eV)
  ---------------------------------------------------
  alpha Z        PSCENC =       284.86957638
  Ewald energy   TEWEN  =    108526.67003485
  -Hartree energ DENC   =   -117022.24876184
  -exchange      EXHF   =         0.00000000
  -V(xc)+E(xc)   XCENC  =       341.56032974
  PAW double counting   =      6146.48283738    -5976.48178694
  entropy T*S    EENTRO =         0.00000000
  eigenvalues    EBANDS =     -1394.76146450
  atomic energy  EATOM  =      8937.26825017
  Solvation  Ediel_sol  =         0.00000000
  ---------------------------------------------------
  free energy    TOTEN  =      -156.64098476 eV

  energy without entropy =     -156.64098476  energy(sigma->0) =     -156.64098476


--------------------------------------------------------------------------------------------------------




--------------------------------------- Iteration      1(  17)  ---------------------------------------


    POTLOK:  cpu time    0.1520: real time    0.1535
    SETDIJ:  cpu time    0.0110: real time    0.0114
    EDDIAG:  cpu time    0.8909: real time    0.8903
  RMM-DIIS:  cpu time    8.7107: real time    8.7084
    ORTHCH:  cpu time    0.1690: real time    0.1687
 BZINTS: Fermi energy: -0.841009;128.000000 electrons
         Band energy:***********;  BLOECHL correction:  0.000000
       DOS:  cpu time    0.0000: real time    0.0012
    CHARGE:  cpu time    0.3170: real time    0.3163
    MIXING:  cpu time    0.0070: real time    0.0071
    --------------------------------------------
      LOOP:  cpu time   10.2574: real time   10.2569

 eigenvalue-minimisations  :  2344
 total energy-change (2. order) :-0.9364521E-03  (-0.1659609E-03)
 number of electron     127.9999774 magnetization 
 augmentation part       13.6017029 magnetization 

 Broyden mixing:
  rms(total) = 0.36323E-02    rms(broyden)= 0.36306E-02
  rms(prec ) = 0.41467E-02
  weight for this iteration     100.00

 eigenvalues of (default mixing * dielectric matrix)
  average eigenvalue GAMMA=   1.5865
  5.6749  2.8156  2.2583  1.4098  1.1689  1.1689  0.8922  0.8922  0.7415  0.7415
  0.6367  0.6367

 Free energy of the ion-electron system (eV)
  ---------------------------------------------------
  alpha Z        PSCENC =       284.86957638
  Ewald energy   TEWEN  =    108526.67003485
  -Hartree energ DENC   =   -117030.33217439
  -exchange      EXHF   =         0.00000000
  -V(xc)+E(xc)   XCENC  =       341.55671436
  PAW double counting   =      6145.50795110    -5975.49002981
  entropy T*S    EENTRO =         0.00000000
  eigenvalues    EBANDS =     -1386.69224388
  atomic energy  EATOM  =      8937.26825017
  Solvation  Ediel_sol  =         0.00000000
  ---------------------------------------------------
  free energy    TOTEN  =      -156.64192121 eV

  energy without entropy =     -156.64192121  energy(sigma->0) =     -156.64192121


--------------------------------------------------------------------------------------------------------




--------------------------------------- Iteration      1(  18)  ---------------------------------------


    POTLOK:  cpu time    0.1520: real time    0.1557
    SETDIJ:  cpu time    0.0120: real time    0.0115
    EDDIAG:  cpu time    0.8899: real time    0.8908
  RMM-DIIS:  cpu time    8.3687: real time    8.3656
    ORTHCH:  cpu time    0.1690: real time    0.1689
 BZINTS: Fermi energy: -0.814281;128.000000 electrons
         Band energy:***********;  BLOECHL correction:  0.000000
       DOS:  cpu time    0.0000: real time    0.0012
    CHARGE:  cpu time    0.3170: real time    0.3164
    MIXING:  cpu time    0.0080: real time    0.0074
    --------------------------------------------
      LOOP:  cpu time    9.9165: real time    9.9175

 eigenvalue-minimisations  :  2270
 total energy-change (2. order) :-0.4120127E-03  (-0.7379977E-04)
 number of electron     127.9999774 magnetization 
 augmentation part       13.5992755 magnetization 

 Broyden mixing:
  rms(total) = 0.22752E-02    rms(broyden)= 0.22739E-02
  rms(prec ) = 0.26840E-02
  weight for this iteration     100.00

 eigenvalues of (default mixing * dielectric matrix)
  average eigenvalue GAMMA=   1.6393
  6.2444  2.8803  2.0314  2.0314  1.2205  1.2205  1.2453  0.8796  0.8796  0.7890
  0.6375  0.6375  0.6141

 Free energy of the ion-electron system (eV)
  ---------------------------------------------------
  alpha Z        PSCENC =       284.86957638
  Ewald energy   TEWEN  =    108526.67003485
  -Hartree energ DENC   =   -117031.87894593
  -exchange      EXHF   =         0.00000000
  -V(xc)+E(xc)   XCENC  =       341.54024821
  PAW double counting   =      6144.59715987    -5974.54992864
  entropy T*S    EENTRO =         0.00000000
  eigenvalues    EBANDS =     -1385.15872814
  atomic energy  EATOM  =      8937.26825017
  Solvation  Ediel_sol  =         0.00000000
  ---------------------------------------------------
  free energy    TOTEN  =      -156.64233323 eV

  energy without entropy =     -156.64233323  energy(sigma->0) =     -156.64233323


--------------------------------------------------------------------------------------------------------




--------------------------------------- Iteration      1(  19)  ---------------------------------------


    POTLOK:  cpu time    0.1520: real time    0.1546
    SETDIJ:  cpu time    0.0120: real time    0.0116
    EDDIAG:  cpu time    0.8909: real time    0.8913
  RMM-DIIS:  cpu time    7.6108: real time    7.6076
    ORTHCH:  cpu time    0.1690: real time    0.1692
 BZINTS: Fermi energy: -0.826728;128.000000 electrons
         Band energy:***********;  BLOECHL correction:  0.000000
       DOS:  cpu time    0.0000: real time    0.0013
    CHARGE:  cpu time    0.3170: real time    0.3167
    MIXING:  cpu time    0.0090: real time    0.0077
    --------------------------------------------
      LOOP:  cpu time    9.1606: real time    9.1599

 eigenvalue-minimisations  :  2031
 total energy-change (2. order) :-0.6447546E-03  (-0.3521597E-04)
 number of electron     127.9999774 magnetization 
 augmentation part       13.6015048 magnetization 

 Broyden mixing:
  rms(total) = 0.15958E-02    rms(broyden)= 0.15954E-02
  rms(prec ) = 0.18347E-02
  weight for this iteration     100.00

 eigenvalues of (default mixing * dielectric matrix)
  average eigenvalue GAMMA=   1.6805
  6.4143  3.4559  2.1692  2.1692  1.4370  1.1888  1.1888  0.9691  0.9691  0.8520
  0.8520  0.6386  0.6386  0.5847

 Free energy of the ion-electron system (eV)
  ---------------------------------------------------
  alpha Z        PSCENC =       284.86957638
  Ewald energy   TEWEN  =    108526.67003485
  -Hartree energ DENC   =   -117033.85074626
  -exchange      EXHF   =         0.00000000
  -V(xc)+E(xc)   XCENC  =       341.54932866
  PAW double counting   =      6144.83185621    -5974.76285172
  entropy T*S    EENTRO =         0.00000000
  eigenvalues    EBANDS =     -1383.21842628
  atomic energy  EATOM  =      8937.26825017
  Solvation  Ediel_sol  =         0.00000000
  ---------------------------------------------------
  free energy    TOTEN  =      -156.64297798 eV

  energy without entropy =     -156.64297798  energy(sigma->0) =     -156.64297798


--------------------------------------------------------------------------------------------------------




--------------------------------------- Iteration      1(  20)  ---------------------------------------


    POTLOK:  cpu time    0.1530: real time    0.1560
    SETDIJ:  cpu time    0.0110: real time    0.0115
    EDDIAG:  cpu time    0.8909: real time    0.8906
  RMM-DIIS:  cpu time    6.8020: real time    6.7998
    ORTHCH:  cpu time    0.1680: real time    0.1684
 BZINTS: Fermi energy: -0.812456;128.000000 electrons
         Band energy:***********;  BLOECHL correction:  0.000000
       DOS:  cpu time    0.0010: real time    0.0013
    CHARGE:  cpu time    0.3170: real time    0.3168
    MIXING:  cpu time    0.0080: real time    0.0080
    --------------------------------------------
      LOOP:  cpu time    8.3507: real time    8.3525

 eigenvalue-minimisations  :  1800
 total energy-change (2. order) :-0.4852300E-03  (-0.1607240E-04)
 number of electron     127.9999774 magnetization 
 augmentation part       13.6002514 magnetization 

 Broyden mixing:
  rms(total) = 0.63455E-03    rms(broyden)= 0.63443E-03
  rms(prec ) = 0.82367E-03
  weight for this iteration     100.00

 eigenvalues of (default mixing * dielectric matrix)
  average eigenvalue GAMMA=   1.7735
  6.8596  4.1560  2.4336  2.1221  2.1221  1.1894  1.1894  1.2300  0.8977  0.8977
  0.8214  0.8214  0.6387  0.6387  0.5844

 Free energy of the ion-electron system (eV)
  ---------------------------------------------------
  alpha Z        PSCENC =       284.86957638
  Ewald energy   TEWEN  =    108526.67003485
  -Hartree energ DENC   =   -117034.65165822
  -exchange      EXHF   =         0.00000000
  -V(xc)+E(xc)   XCENC  =       341.54470762
  PAW double counting   =      6144.99218105    -5974.93048985
  entropy T*S    EENTRO =         0.00000000
  eigenvalues    EBANDS =     -1382.40606521
  atomic energy  EATOM  =      8937.26825017
  Solvation  Ediel_sol  =         0.00000000
  ---------------------------------------------------
  free energy    TOTEN  =      -156.64346321 eV

  energy without entropy =     -156.64346321  energy(sigma->0) =     -156.64346321


--------------------------------------------------------------------------------------------------------




--------------------------------------- Iteration      1(  21)  ---------------------------------------


    POTLOK:  cpu time    0.1530: real time    0.1556
    SETDIJ:  cpu time    0.0120: real time    0.0116
    EDDIAG:  cpu time    0.8909: real time    0.8905
  RMM-DIIS:  cpu time    6.0631: real time    6.0618
    ORTHCH:  cpu time    0.1700: real time    0.1695
 BZINTS: Fermi energy: -0.800849;128.000000 electrons
         Band energy:***********;  BLOECHL correction:  0.000000
       DOS:  cpu time    0.0010: real time    0.0013
    CHARGE:  cpu time    0.3150: real time    0.3158
    MIXING:  cpu time    0.0090: real time    0.0088
    --------------------------------------------
      LOOP:  cpu time    7.6138: real time    7.6151

 eigenvalue-minimisations  :  1596
 total energy-change (2. order) :-0.3316979E-03  (-0.8802591E-05)
 number of electron     127.9999774 magnetization 
 augmentation part       13.5994975 magnetization 

 Broyden mixing:
  rms(total) = 0.50236E-03    rms(broyden)= 0.50223E-03
  rms(prec ) = 0.59651E-03
  weight for this iteration     100.00

 eigenvalues of (default mixing * dielectric matrix)
  average eigenvalue GAMMA=   1.7979
  7.2095  4.5599  2.4816  2.4816  2.0301  1.3868  1.1863  1.1863  0.9552  0.9552
  0.8358  0.8358  0.7919  0.6383  0.6383  0.5943

 Free energy of the ion-electron system (eV)
  ---------------------------------------------------
  alpha Z        PSCENC =       284.86957638
  Ewald energy   TEWEN  =    108526.67003485
  -Hartree energ DENC   =   -117035.35913347
  -exchange      EXHF   =         0.00000000
  -V(xc)+E(xc)   XCENC  =       341.54430067
  PAW double counting   =      6145.07848886    -5975.01305749
  entropy T*S    EENTRO =         0.00000000
  eigenvalues    EBANDS =     -1381.70225489
  atomic energy  EATOM  =      8937.26825017
  Solvation  Ediel_sol  =         0.00000000
  ---------------------------------------------------
  free energy    TOTEN  =      -156.64379491 eV

  energy without entropy =     -156.64379491  energy(sigma->0) =     -156.64379491


--------------------------------------------------------------------------------------------------------




--------------------------------------- Iteration      1(  22)  ---------------------------------------


    POTLOK:  cpu time    0.1530: real time    0.1553
    SETDIJ:  cpu time    0.0130: real time    0.0116
    EDDIAG:  cpu time    0.8889: real time    0.8897
  RMM-DIIS:  cpu time    5.3382: real time    5.3367
    ORTHCH:  cpu time    0.1690: real time    0.1688
 BZINTS: Fermi energy: -0.792826;128.000000 electrons
         Band energy:***********;  BLOECHL correction:  0.000000
       DOS:  cpu time    0.0020: real time    0.0013
    CHARGE:  cpu time    0.3160: real time    0.3163
    MIXING:  cpu time    0.0090: real time    0.0091
    --------------------------------------------
      LOOP:  cpu time    6.8890: real time    6.8888

 eigenvalue-minimisations  :  1388
 total energy-change (2. order) :-0.1580423E-03  (-0.3772753E-05)
 number of electron     127.9999774 magnetization 
 augmentation part       13.5995157 magnetization 

 Broyden mixing:
  rms(total) = 0.30989E-03    rms(broyden)= 0.30986E-03
  rms(prec ) = 0.37702E-03
  weight for this iteration     100.00

 eigenvalues of (default mixing * dielectric matrix)
  average eigenvalue GAMMA=   1.8268
  7.4541  5.0707  2.7039  2.7039  1.7667  1.7667  1.1965  1.1965  1.0441  1.0441
  0.8594  0.8594  0.8224  0.7070  0.6371  0.6371  0.5866

 Free energy of the ion-electron system (eV)
  ---------------------------------------------------
  alpha Z        PSCENC =       284.86957638
  Ewald energy   TEWEN  =    108526.67003485
  -Hartree energ DENC   =   -117035.72894596
  -exchange      EXHF   =         0.00000000
  -V(xc)+E(xc)   XCENC  =       341.54490631
  PAW double counting   =      6145.05872492    -5974.98708990
  entropy T*S    EENTRO =         0.00000000
  eigenvalues    EBANDS =     -1381.33940973
  atomic energy  EATOM  =      8937.26825017
  Solvation  Ediel_sol  =         0.00000000
  ---------------------------------------------------
  free energy    TOTEN  =      -156.64395295 eV

  energy without entropy =     -156.64395295  energy(sigma->0) =     -156.64395295


--------------------------------------------------------------------------------------------------------




--------------------------------------- Iteration      1(  23)  ---------------------------------------


    POTLOK:  cpu time    0.1530: real time    0.1556
    SETDIJ:  cpu time    0.0110: real time    0.0116
    EDDIAG:  cpu time    0.8949: real time    0.8950
  RMM-DIIS:  cpu time    4.9932: real time    4.9913
    ORTHCH:  cpu time    0.1700: real time    0.1696
 BZINTS: Fermi energy: -0.786985;128.000000 electrons
         Band energy:***********;  BLOECHL correction:  0.000000
       DOS:  cpu time    0.0000: real time    0.0013
    CHARGE:  cpu time    0.3170: real time    0.3162
    MIXING:  cpu time    0.0090: real time    0.0095
    --------------------------------------------
      LOOP:  cpu time    6.5480: real time    6.5501

 eigenvalue-minimisations  :  1286
 total energy-change (2. order) :-0.1082037E-03  (-0.2551863E-05)
 number of electron     127.9999774 magnetization 
 augmentation part       13.5994893 magnetization 

 Broyden mixing:
  rms(total) = 0.20089E-03    rms(broyden)= 0.20085E-03
  rms(prec ) = 0.24353E-03
  weight for this iteration     100.00

 eigenvalues of (default mixing * dielectric matrix)
  average eigenvalue GAMMA=   1.8474
  7.7361  5.6103  3.1375  2.5195  1.8237  1.8237  1.4606  1.1820  1.1820  0.9478
  0.9478  0.8490  0.8490  0.7643  0.6397  0.6397  0.5975  0.5420

 Free energy of the ion-electron system (eV)
  ---------------------------------------------------
  alpha Z        PSCENC =       284.86957638
  Ewald energy   TEWEN  =    108526.67003485
  -Hartree energ DENC   =   -117035.94447998
  -exchange      EXHF   =         0.00000000
  -V(xc)+E(xc)   XCENC  =       341.54510523
  PAW double counting   =      6145.02816341    -5974.95343771
  entropy T*S    EENTRO =         0.00000000
  eigenvalues    EBANDS =     -1381.12727352
  atomic energy  EATOM  =      8937.26825017
  Solvation  Ediel_sol  =         0.00000000
  ---------------------------------------------------
  free energy    TOTEN  =      -156.64406116 eV

  energy without entropy =     -156.64406116  energy(sigma->0) =     -156.64406116


--------------------------------------------------------------------------------------------------------




--------------------------------------- Iteration      1(  24)  ---------------------------------------


    POTLOK:  cpu time    0.1530: real time    0.1571
    SETDIJ:  cpu time    0.0120: real time    0.0116
    EDDIAG:  cpu time    0.8889: real time    0.8894
  RMM-DIIS:  cpu time    4.6403: real time    4.6378
    ORTHCH:  cpu time    0.1690: real time    0.1694
 BZINTS: Fermi energy: -0.782603;128.000000 electrons
         Band energy:***********;  BLOECHL correction:  0.000000
       DOS:  cpu time    0.0010: real time    0.0013
    CHARGE:  cpu time    0.3160: real time    0.3160
    MIXING:  cpu time    0.0100: real time    0.0099
    --------------------------------------------
      LOOP:  cpu time    6.1901: real time    6.1926

 eigenvalue-minimisations  :  1182
 total energy-change (2. order) :-0.6633612E-04  (-0.1836754E-05)
 number of electron     127.9999774 magnetization 
 augmentation part       13.5998388 magnetization 

 Broyden mixing:
  rms(total) = 0.26853E-03    rms(broyden)= 0.26850E-03
  rms(prec ) = 0.28900E-03
  weight for this iteration     100.00

 eigenvalues of (default mixing * dielectric matrix)
  average eigenvalue GAMMA=   1.8917
  8.1749  5.8175  3.5454  2.4534  2.4534  1.6204  1.6204  1.1907  1.1907  1.0595
  1.0595  0.8687  0.8687  0.8312  0.8312  0.6382  0.6382  0.5882  0.4930

 Free energy of the ion-electron system (eV)
  ---------------------------------------------------
  alpha Z        PSCENC =       284.86957638
  Ewald energy   TEWEN  =    108526.67003485
  -Hartree energ DENC   =   -117036.08279844
  -exchange      EXHF   =         0.00000000
  -V(xc)+E(xc)   XCENC  =       341.54556452
  PAW double counting   =      6145.02534027    -5974.94986365
  entropy T*S    EENTRO =         0.00000000
  eigenvalues    EBANDS =     -1380.99023159
  atomic energy  EATOM  =      8937.26825017
  Solvation  Ediel_sol  =         0.00000000
  ---------------------------------------------------
  free energy    TOTEN  =      -156.64412749 eV

  energy without entropy =     -156.64412749  energy(sigma->0) =     -156.64412749


--------------------------------------------------------------------------------------------------------




[...]
     43      -4.5152      2.00000
     44      -4.4247      2.00000
     45      -4.2297      2.00000
     46      -3.9934      2.00000
     47      -3.9061      2.00000
     48      -3.8061      2.00000
     49      -3.6786      2.00000
     50      -3.3790      2.00000
     51      -3.2182      2.00000
     52      -3.1354      2.00000
     53      -2.9012      2.00000
     54      -2.8374      2.00000
     55      -2.7858      2.00000
     56      -2.7604      2.00000
     57      -2.7277      2.00000
     58      -2.6478      2.00000
     59      -2.5172      2.00000
     60      -2.4436      2.00000
     61      -2.3590      2.00000
     62      -2.0425      2.00000
     63      -1.8526      2.00000
     64      -1.7557      2.00000
     65       0.6050      0.00000
     66       0.9637      0.00000
     67       1.4068      0.00000
     68       1.7748      0.00000
     69       1.7857      0.00000
     70       1.7929      0.00000
     71       1.8320      0.00000
     72       1.8540      0.00000
     73       1.9057      0.00000
     74       2.0223      0.00000
     75       2.1550      0.00000
     76       6.1211      0.00000

 k-point     8 :       0.2857    0.2857    0.0000
  band No.  band energies     occupation 
      1     -35.5549      2.00000
      2     -34.3888      2.00000
      3     -34.3769      2.00000
      4     -34.1755      2.00000
      5     -18.7936      2.00000
      6     -18.7023      2.00000
      7     -18.5384      2.00000
      8     -18.2161      2.00000
      9     -18.1712      2.00000
     10     -18.0571      2.00000
     11     -18.0109      2.00000
     12     -17.9454      2.00000
     13     -17.9280      2.00000
     14     -17.9101      2.00000
     15     -17.5027      2.00000
     16     -17.4851      2.00000
     17     -17.4002      2.00000
     18     -17.2707      2.00000
     19     -16.7464      2.00000
     20     -16.4972      2.00000
     21     -16.4148      2.00000
     22     -16.3577      2.00000
     23     -16.3169      2.00000
     24     -16.2200      2.00000
     25     -16.1414      2.00000
     26     -16.1358      2.00000
     27     -16.0314      2.00000
     28     -15.9968      2.00000
     29      -5.7452      2.00000
     30      -5.5936      2.00000
     31      -5.5417      2.00000
     32      -5.3840      2.00000
     33      -5.2434      2.00000
     34      -5.0880      2.00000
     35      -5.0637      2.00000
     36      -5.0320      2.00000
     37      -5.0259      2.00000
     38      -4.9302      2.00000
     39      -4.9087      2.00000
     40      -4.8838      2.00000
     41      -4.7841      2.00000
     42      -4.6858      2.00000
     43      -4.6407      2.00000
     44      -4.5992      2.00000
     45      -4.5570      2.00000
     46      -4.5071      2.00000
     47      -4.2153      2.00000
     48      -4.1792      2.00000
     49      -3.9213      2.00000
     50      -3.6323      2.00000
     51      -3.5916      2.00000
     52      -3.2099      2.00000
     53      -2.9230      2.00000
     54      -2.7553      2.00000
     55      -2.4760      2.00000
     56      -2.4412      2.00000
     57      -2.3761      2.00000
     58      -2.3034      2.00000
     59      -2.2869      2.00000
     60      -2.1948      2.00000
     61      -2.1747      2.00000
     62      -2.0245      2.00000
     63      -1.9645      2.00000
     64      -1.3443      2.00000
     65       1.1576      0.00000
     66       1.3617      0.00000
     67       1.3734      0.00000
     68       1.5211      0.00000
     69       1.5953      0.00000
     70       1.6268      0.00000
     71       1.6828      0.00000
     72       1.7517      0.00000
     73       1.7643      0.00000
     74       1.8217      0.00000
     75       2.0098      0.00000
     76       2.0445      0.00000

 k-point     9 :       0.4286    0.2857    0.0000
  band No.  band energies     occupation 
      1     -35.5498      2.00000
      2     -34.3829      2.00000
      3     -34.3712      2.00000
      4     -34.1697      2.00000
      5     -18.7246      2.00000
      6     -18.5905      2.00000
      7     -18.3743      2.00000
      8     -18.2323      2.00000
      9     -18.1048      2.00000
     10     -18.0581      2.00000
     11     -17.9924      2.00000
     12     -17.9182      2.00000
     13     -17.8858      2.00000
     14     -17.7824      2.00000
     15     -17.5880      2.00000
     16     -17.3802      2.00000
     17     -17.3580      2.00000
     18     -17.2755      2.00000
     19     -16.8084      2.00000
     20     -16.5354      2.00000
     21     -16.4654      2.00000
     22     -16.3925      2.00000
     23     -16.3071      2.00000
     24     -16.2656      2.00000
     25     -16.1629      2.00000
     26     -16.1141      2.00000
     27     -16.0799      2.00000
     28     -15.9951      2.00000
     29      -5.8964      2.00000
     30      -5.8373      2.00000
     31      -5.8208      2.00000
     32      -5.5708      2.00000
     33      -5.5104      2.00000
     34      -5.4921      2.00000
     35      -5.3672      2.00000
     36      -5.2782      2.00000
     37      -5.2144      2.00000
     38      -5.1507      2.00000
     39      -5.1166      2.00000
     40      -5.0568      2.00000
     41      -5.0034      2.00000
     42      -4.9402      2.00000
     43      -4.9014      2.00000
     44      -4.7278      2.00000
     45      -4.6134      2.00000
     46      -4.4973      2.00000
     47      -4.4614      2.00000
     48      -4.3469      2.00000
     49      -4.0789      2.00000
     50      -3.9360      2.00000
     51      -3.5920      2.00000
     52      -3.1035      2.00000
     53      -3.0031      2.00000
     54      -2.8388      2.00000
     55      -2.5120      2.00000
     56      -2.4553      2.00000
     57      -2.2357      2.00000
     58      -2.1773      2.00000
     59      -2.1719      2.00000
     60      -2.1208      2.00000
     61      -2.0753      2.00000
     62      -1.9589      2.00000
     63      -1.7623      2.00000
     64      -1.1865      2.00000
     65       1.2706      0.00000
     66       1.4922      0.00000
     67       1.7646      0.00000
     68       1.8055      0.00000
     69       1.9335      0.00000
     70       1.9693      0.00000
     71       2.0266      0.00000
     72       2.0426      0.00000
     73       2.0870      0.00000
     74       2.1152      0.00000
     75       2.3572      0.00000
     76       6.1128      0.00000

 k-point    10 :       0.4286    0.4286    0.0000
  band No.  band energies     occupation 
      1     -35.5450      2.00000
      2     -34.3772      2.00000
      3     -34.3657      2.00000
      4     -34.1640      2.00000
      5     -18.4502      2.00000
      6     -18.3469      2.00000
      7     -18.2558      2.00000
      8     -18.1626      2.00000
      9     -18.1098      2.00000
     10     -18.0208      2.00000
     11     -17.9236      2.00000
     12     -17.9061      2.00000
     13     -17.8827      2.00000
     14     -17.7755      2.00000
     15     -17.4825      2.00000
     16     -17.3760      2.00000
     17     -17.2887      2.00000
     18     -17.2601      2.00000
     19     -17.0725      2.00000
     20     -16.5788      2.00000
     21     -16.5241      2.00000
     22     -16.5234      2.00000
     23     -16.4153      2.00000
     24     -16.2655      2.00000
     25     -16.2532      2.00000
     26     -16.1804      2.00000
     27     -16.0559      2.00000
     28     -16.0374      2.00000
     29      -6.0096      2.00000
     30      -5.9667      2.00000
     31      -5.9459      2.00000
     32      -5.8769      2.00000
     33      -5.6612      2.00000
     34      -5.6324      2.00000
     35      -5.6026      2.00000
     36      -5.5922      2.00000
     37      -5.5595      2.00000
     38      -5.3824      2.00000
     39      -5.3466      2.00000
     40      -5.2145      2.00000
     41      -5.1666      2.00000
     42      -5.1352      2.00000
     43      -4.9841      2.00000
     44      -4.9261      2.00000
     45      -4.9063      2.00000
     46      -4.6767      2.00000
     47      -4.6100      2.00000
     48      -4.5731      2.00000
     49      -4.1444      2.00000
     50      -4.0010      2.00000
     51      -3.8699      2.00000
     52      -2.9916      2.00000
     53      -2.9402      2.00000
     54      -2.8760      2.00000
     55      -2.4680      2.00000
     56      -2.4287      2.00000
     57      -2.0583      2.00000
     58      -2.0207      2.00000
     59      -1.8169      2.00000
     60      -1.7928      2.00000
     61      -1.7630      2.00000
     62      -1.7229      2.00000
     63      -1.7191      2.00000
     64      -0.8560      2.00000
     65       1.7883      0.00000
     66       1.8315      0.00000
     67       1.9553      0.00000
     68       1.9986      0.00000
     69       2.1404      0.00000
     70       2.2084      0.00000
     71       2.2460      0.00000
     72       2.2864      0.00000
     73       2.3378      0.00000
     74       5.5885      0.00000
     75       5.7468      0.00000
     76       5.7675      0.00000


--------------------------------------------------------------------------------------------------------


 soft charge-density along one line, spin component           1
         0         1         2         3         4         5         6         7         8         9
 total charge-density along one line
 
 pseudopotential strength for first ion, spin component:           1
 12.922  -0.386  -0.000  -0.021   0.000   0.000   0.001  -0.000
 -0.386   0.091   0.000   0.002  -0.000  -0.000  -0.000   0.000
 -0.000   0.000  -9.295  -0.000   0.000  -0.005   0.000  -0.000
 -0.021   0.002  -0.000  -9.316   0.000   0.000  -0.002  -0.000
  0.000  -0.000   0.000   0.000  -9.295  -0.000  -0.000  -0.005
  0.000  -0.000  -0.005   0.000  -0.000   0.219  -0.000   0.000
  0.001  -0.000   0.000  -0.002  -0.000  -0.000   0.219   0.000
 -0.000   0.000  -0.000  -0.000  -0.005   0.000   0.000   0.219
 total augmentation occupancy for first ion, spin component:           1
  1.866   0.123   0.000  -0.007   0.000   0.000   0.012  -0.000
  0.123   0.012   0.000   0.026   0.000  -0.000   0.004   0.000
  0.000  -0.000   1.517  -0.000   0.000   0.121   0.000   0.000
 -0.007   0.026   0.000   1.511   0.000  -0.000   0.131   0.000
  0.000   0.000   0.000   0.000   1.517   0.000   0.000   0.121
  0.000   0.000   0.121   0.000   0.000   0.011   0.000   0.000
  0.012   0.004   0.000   0.131   0.000   0.000   0.012   0.000
  0.000   0.000   0.000   0.000   0.121   0.000   0.000   0.011


------------------------ aborting loop because EDIFF is reached ----------------------------------------


    CHARGE:  cpu time    0.3180: real time    0.3186
    FORLOC:  cpu time    0.0350: real time    0.0337
    FORNL :  cpu time    3.1135: real time    3.1129
    STRESS:  cpu time    6.7520: real time    6.7501
    FORCOR:  cpu time    0.1700: real time    0.1705
    FORHAR:  cpu time    0.0620: real time    0.0619
    MIXING:  cpu time    0.0110: real time    0.0114
    OFIELD:  cpu time    0.0000: real time    0.0000

  FORCE on cell =-STRESS in cart. coord.  units (eV):
  Direction    XX          YY          ZZ          XY          YZ          ZX
  --------------------------------------------------------------------------------------
  Alpha Z   284.86958   284.86958   284.86958
  Ewald  113584.43383113584.43383************     0.00000    -0.00000     0.00000
  Hartree115812.00080115812.00080************    -0.00000    -0.00000    -0.00000
  E(xc)    -577.79627  -577.79627  -577.32025     0.00000     0.00000     0.00000
  Local  ************************231661.18973    -0.00000     0.00000    -0.00000
  n-local  -488.73150  -466.99371  -479.81260    -1.62316     0.00001     0.00000
  augment   116.02496   116.02496   114.99889    -0.00000     0.00000    -0.00000
  Kinetic  2204.16523  2248.42228  2222.64689    -9.23360    -0.00004     0.00001
  Fock        0.00000     0.00000     0.00000     0.00000     0.00000     0.00000
  -------------------------------------------------------------------------------------
  Total      -5.76055    -5.76055    -3.41917     0.00000     0.00000     0.00000
  in kB     -14.88123   -14.88123    -8.83274     0.00000     0.00000     0.00000
  external pressure =      -12.87 kB  Pullay stress =        0.00 kB


 VOLUME and BASIS-vectors are now :
 -----------------------------------------------------------------------------
  energy-cutoff  :      500.00
  volume of cell :      620.21
      direct lattice vectors                 reciprocal lattice vectors
     3.946846342  0.000000000  0.000000000     0.253366844  0.000000000  0.000000000
     0.000000000  3.946846342  0.000000000     0.000000000  0.253366844  0.000000000
     0.000000000  0.000000000 39.813962196     0.000000000  0.000000000  0.025116817

  length of vectors
     3.946846342  3.946846342 39.813962196     0.253366844  0.253366844  0.025116817


 FORCES acting on ions
    electron-ion (+dipol)            ewald-force                    non-local-force                 convergence-correction
 -----------------------------------------------------------------------------------------------
   0.165E-12 0.493E-12 0.236E+04   -.160E-14 -.899E-14 -.237E+04   0.000E+00 0.000E+00 0.768E+01   0.224E-14 0.656E-14 0.195E-02
   0.176E-12 0.729E-13 0.168E+04   -.316E-13 0.256E-14 -.168E+04   0.000E+00 0.000E+00 -.381E+00   -.155E-13 -.438E-14 0.209E-03
   -.520E-14 0.331E-12 0.168E+04   0.264E-14 -.732E-14 -.168E+04   0.000E+00 0.000E+00 -.381E+00   -.629E-14 0.117E-13 0.209E-03
   0.163E-12 0.666E-13 0.101E+04   0.140E-15 -.661E-14 -.101E+04   0.847E-21 0.000E+00 0.465E+00   -.245E-13 0.829E-14 -.422E-03
   0.167E-12 0.720E-14 0.336E+03   -.329E-13 0.195E-14 -.336E+03   0.000E+00 0.212E-21 0.680E-01   -.334E-13 0.248E-13 -.276E-03
   -.111E-14 -.162E-12 0.336E+03   0.666E-15 -.749E-14 -.336E+03   0.000E+00 0.147E-21 0.680E-01   -.132E-13 0.275E-13 -.276E-03
   0.165E-12 0.486E-12 -.337E+03   -.254E-14 -.578E-14 0.336E+03   0.000E+00 -.212E-21 0.338E+00   0.109E-13 -.140E-13 -.824E-03
   0.160E-12 -.900E-14 -.101E+04   -.279E-13 0.249E-14 0.101E+04   0.000E+00 -.582E-21 -.931E-01   0.140E-13 0.523E-14 0.109E-05
   0.123E-14 0.418E-12 -.101E+04   0.119E-14 -.606E-14 0.101E+04   0.000E+00 0.635E-21 -.931E-01   0.188E-13 0.395E-14 0.109E-05
   0.176E-12 0.212E-12 -.168E+04   -.599E-14 -.762E-14 0.168E+04   0.000E+00 0.212E-21 0.240E+01   0.876E-14 0.936E-14 0.696E-03
   0.162E-12 0.194E-12 -.233E+04   -.208E-13 0.353E-14 0.233E+04   0.000E+00 -.127E-20 -.236E+01   -.739E-14 0.412E-14 0.260E-03
   0.971E-15 0.778E-12 -.233E+04   0.598E-15 -.330E-14 0.233E+04   -.847E-21 -.424E-21 -.236E+01   -.147E-14 0.233E-14 0.260E-03
   -.553E-14 0.390E-12 0.388E+04   -.621E-14 0.146E-13 -.387E+04   -.212E-21 -.318E-21 -.505E+01   0.119E-13 0.203E-13 0.114E-02
   -.411E-14 -.126E-12 0.168E+04   0.155E-14 0.185E-13 -.168E+04   0.000E+00 -.529E-22 -.693E-01   -.777E-14 0.235E-13 -.673E-03
   -.500E-14 0.126E-12 -.561E+03   -.489E-14 0.170E-13 0.561E+03   0.000E+00 0.212E-21 0.171E-01   0.336E-13 -.539E-14 -.527E-03
   -.272E-14 0.844E-16 -.280E+04   -.711E-15 0.179E-13 0.281E+04   0.000E+00 0.265E-22 -.869E+00   0.177E-13 -.187E-15 0.873E-04
   0.794E-14 -.185E-12 0.112E+04   0.131E-13 -.733E-14 -.112E+04   0.000E+00 0.000E+00 -.297E+00   0.102E-14 0.780E-15 0.138E-03
   0.774E-14 -.192E-12 0.224E+03   0.160E-13 -.485E-14 -.224E+03   0.000E+00 0.529E-22 -.339E-01   0.440E-15 -.489E-14 -.179E-03
   0.579E-14 -.126E-13 -.673E+03   0.153E-13 -.444E-14 0.673E+03   0.000E+00 0.529E-22 0.368E-01   -.495E-14 0.696E-15 -.336E-04
   0.459E-14 0.630E-14 -.158E+04   0.116E-13 -.450E-14 0.157E+04   0.000E+00 0.529E-22 0.136E+01   -.585E-15 0.507E-14 0.213E-03
 -----------------------------------------------------------------------------------------------
   0.134E-11 0.290E-11 -.454E+00   -.724E-13 0.430E-14 -.387E-11   -.212E-21 -.126E-20 0.456E+00   0.424E-14 0.125E-12 0.196E-02
 
 
 POSITION                                       TOTAL-FORCE (eV/Angst)
 -----------------------------------------------------------------------------------
      1.97342      1.97342     13.00000         0.000000     -0.000000     -0.776330
      1.97342      0.00000     14.97342         0.000000      0.000000     -0.047233
      0.00000      1.97342     14.97342         0.000000      0.000000     -0.047233
      1.97342      1.97342     16.94685         0.000000      0.000000      0.243992
      1.97342      0.00000     18.92027         0.000000      0.000000      0.025363
      0.00000      1.97342     18.92027         0.000000      0.000000      0.025363
      1.97342      1.97342     20.89369         0.000000      0.000000      0.171343
      1.97342      0.00000     22.86712         0.000000      0.000000     -0.018468
      0.00000      1.97342     22.86712        -0.000000      0.000000     -0.018468
      1.97342      1.97342     24.84054         0.000000      0.000000      0.882384
      1.97342      0.00000     26.81396         0.000000      0.000000      0.334205
      0.00000      1.97342     26.81396         0.000000     -0.000000      0.334205
      0.00000      0.00000     13.00000         0.000000      0.000000      1.414825
      0.00000      0.00000     16.94685         0.000000      0.000000      0.045185
      0.00000      0.00000     20.89369         0.000000     -0.000000     -0.006612
      0.00000      0.00000     24.84054         0.000000      0.000000      0.686571
      1.97342      1.97342     14.97342         0.000000     -0.000000     -0.834428
      1.97342      1.97342     18.92027         0.000000      0.000000     -0.147984
      1.97342      1.97342     22.86712        -0.000000      0.000000     -0.205259
      1.97342      1.97342     26.81396         0.000000      0.000000     -2.061423
 -----------------------------------------------------------------------------------
    total drift:                                0.000000      0.000000      0.003744


--------------------------------------------------------------------------------------------------------



  FREE ENERGIE OF THE ION-ELECTRON SYSTEM (eV)
  ---------------------------------------------------
  free  energy   TOTEN  =      -156.64419646 eV

  energy  without entropy=     -156.64419646  energy(sigma->0) =     -156.64419646
 


--------------------------------------------------------------------------------------------------------


    POTLOK:  cpu time    0.1650: real time    0.1647


--------------------------------------------------------------------------------------------------------


     LOOP+:  cpu time  247.1594: real time  247.2248
    4ORBIT:  cpu time    0.0000: real time    0.0000
 BZINTS: Fermi energy: -0.775832;128.000000 electrons
         Band energy:***********;  BLOECHL correction:  0.000000

 total amount of memory used by VASP MPI-rank0   145511. kBytes
=======================================================================

   base      :      30000. kBytes
   nonl-proj :      36730. kBytes
   fftplans  :      10649. kBytes
   grid      :      19155. kBytes
   one-center:        155. kBytes
   wavefun   :      48822. kBytes
 
  
  
 General timing and accounting informations for this job:
 ========================================================
  
                  Total CPU time used (sec):      250.523
                            User time (sec):      246.919
                          System time (sec):        3.603
                         Elapsed time (sec):      251.157
  
                   Maximum memory used (kb):      159148.
                   Average memory used (kb):           0.
  
                          Minor page faults:       115754
                          Major page faults:          168
                 Voluntary context switches:         4075
