<?xml version="1.0" encoding="ISO-8859-1"?>
<modeling>
 <generator>
  <i name="program" type="string">vasp </i>
  <i name="version" type="string">5.4.4.18Apr17-6-g9f103f2a35  </i>
  <i name="subversion" type="string">(build Jun 30 2017 11:15:00) complex            parallel </i>
  <i name="platform" type="string">STALLO_VASP_5.4.4 </i>
  <i name="date" type="string">2019 11 08 </i>
  <i name="time" type="string">10:26:06 </i>
 </generator>
 <incar>
  <i type="string" name="PREC">normal    ! low/normal/accurate</i>
  <i type="string" name="ALGO"> Fast      ! Algorithm for electronic re</i>
  <i type="int" name="ISPIN">     1</i>
  <i type="int" name="NELMIN">     4</i>
  <i name="EDIFF">      0.00001000</i>
  <i type="int" name="NSW">     0</i>
  <i name="ENCUT">    500.00000000</i>
  <i type="logical" name="LREAL"> F  </i>
  <i type="int" name="ISMEAR">    -5</i>
  <i name="SIGMA">      0.20000000</i>
  <i type="logical" name="LWAVE"> F  </i>
  <v type="int" name="KPOINT_BSE">    -1     0     0     0</v>
 </incar>
 <structure name="primitive_cell" >
  <crystal>
   <varray name="basis" >
    <v>       3.94684634       0.00000000       0.00000000 </v>
    <v>       0.00000000       3.94684634       0.00000000 </v>
    <v>       0.00000000       0.00000000      39.81396220 </v>
   </varray>
   <i name="volume">    620.20582001 </i>
   <varray name="rec_basis" >
    <v>       0.25336684       0.00000000       0.00000000 </v>
    <v>       0.00000000       0.25336684       0.00000000 </v>
    <v>       0.00000000       0.00000000       0.02511682 </v>
   </varray>
  </crystal>
  <varray name="positions" >
   <v>      -0.50000000      -0.50000000       0.32651862 </v>
   <v>      -0.50000000      -0.50000000       0.37608473 </v>
   <v>       0.00000000       0.00000000       0.32651862 </v>
   <v>      -0.50000000       0.00000000       0.37608473 </v>
   <v>       0.00000000      -0.50000000       0.37608473 </v>
   <v>      -0.50000000      -0.50000000       0.42565084 </v>
   <v>       0.00000000       0.00000000       0.42565084 </v>
   <v>      -0.50000000      -0.50000000       0.47521695 </v>
   <v>      -0.50000000       0.00000000       0.47521695 </v>
   <v>       0.00000000      -0.50000000       0.47521695 </v>
   <v>      -0.50000000      -0.50000000      -0.47521695 </v>
   <v>       0.00000000       0.00000000      -0.47521695 </v>
   <v>      -0.50000000      -0.50000000      -0.42565084 </v>
   <v>      -0.50000000       0.00000000      -0.42565084 </v>
   <v>       0.00000000      -0.50000000      -0.42565084 </v>
   <v>      -0.50000000      -0.50000000      -0.37608473 </v>
   <v>       0.00000000       0.00000000      -0.37608473 </v>
   <v>      -0.50000000      -0.50000000      -0.32651862 </v>
   <v>      -0.50000000       0.00000000      -0.32651862 </v>
   <v>       0.00000000      -0.50000000      -0.32651862 </v>
  </varray>
 </structure>
 <varray name="primitive_index" >
  <v type="int" >        1 </v>
  <v type="int" >       17 </v>
  <v type="int" >       13 </v>
  <v type="int" >        2 </v>
  <v type="int" >        3 </v>
  <v type="int" >        4 </v>
  <v type="int" >       14 </v>
  <v type="int" >       18 </v>
  <v type="int" >        5 </v>
  <v type="int" >        6 </v>
  <v type="int" >        7 </v>
  <v type="int" >       15 </v>
  <v type="int" >       19 </v>
  <v type="int" >        8 </v>
  <v type="int" >        9 </v>
  <v type="int" >       10 </v>
  <v type="int" >       16 </v>
  <v type="int" >       20 </v>
  <v type="int" >       11 </v>
  <v type="int" >       12 </v>
 </varray>
 <kpoints>
  <generation param="Gamma">
   <v type="int" name="divisions">       7        7        1 </v>
   <v name="usershift">      0.00000000       0.00000000       0.00000000 </v>
   <v name="genvec1">      0.14285714       0.00000000       0.00000000 </v>
   <v name="genvec2">      0.00000000       0.14285714       0.00000000 </v>
   <v name="genvec3">      0.00000000       0.00000000       1.00000000 </v>
   <v name="shift">      0.00000000       0.00000000       0.00000000 </v>
  </generation>
  <varray name="kpointlist" >
   <v>       0.00000000       0.00000000       0.00000000 </v>
   <v>       0.14285714       0.00000000       0.00000000 </v>
   <v>       0.28571429       0.00000000       0.00000000 </v>
   <v>       0.42857143       0.00000000       0.00000000 </v>
   <v>       0.14285714       0.14285714       0.00000000 </v>
   <v>       0.28571429       0.14285714       0.00000000 </v>
   <v>       0.42857143       0.14285714       0.00000000 </v>
   <v>       0.28571429       0.28571429       0.00000000 </v>
   <v>       0.42857143       0.28571429       0.00000000 </v>
   <v>       0.42857143       0.42857143       0.00000000 </v>
  </varray>
  <varray name="weights" >
   <v>       0.02040816 </v>
   <v>       0.08163265 </v>
   <v>       0.08163265 </v>
   <v>       0.08163265 </v>
   <v>       0.08163265 </v>
   <v>       0.16326531 </v>
   <v>       0.16326531 </v>
   <v>       0.08163265 </v>
   <v>       0.16326531 </v>
   <v>       0.08163265 </v>
  </varray>
  <varray name="tetrahedronlist"  type="int" >
   <v type="int" >        4        1        1        2        5 </v>
   <v type="int" >        4        1        2        2        5 </v>
   <v type="int" >        4        1        2        5        5 </v>
   <v type="int" >        4        2        2        3        6 </v>
   <v type="int" >        4        2        2        5        6 </v>
   <v type="int" >        4        2        5        5        6 </v>
   <v type="int" >        4        2        3        3        6 </v>
   <v type="int" >        4        2        3        6        6 </v>
   <v type="int" >        4        2        5        6        6 </v>
   <v type="int" >        4        3        3        4        7 </v>
   <v type="int" >        4        3        3        6        7 </v>
   <v type="int" >        4        3        6        6        7 </v>
   <v type="int" >        4        3        4        4        7 </v>
   <v type="int" >        4        3        4        7        7 </v>
   <v type="int" >        4        3        6        7        7 </v>
   <v type="int" >        8        4        4        4        7 </v>
   <v type="int" >        8        4        4        7        7 </v>
   <v type="int" >        8        4        7        7        7 </v>
   <v type="int" >        4        3        4        4        6 </v>
   <v type="int" >        4        4        4        6        7 </v>
   <v type="int" >        4        4        6        7        7 </v>
   <v type="int" >        4        3        3        4        6 </v>
   <v type="int" >        4        3        4        6        6 </v>
   <v type="int" >        4        4        6        6        7 </v>
   <v type="int" >        4        2        3        3        5 </v>
   <v type="int" >        4        3        3        5        6 </v>
   <v type="int" >        4        3        5        6        6 </v>
   <v type="int" >        4        2        2        3        5 </v>
   <v type="int" >        4        2        3        5        5 </v>
   <v type="int" >        4        3        5        5        6 </v>
   <v type="int" >        4        1        2        2        2 </v>
   <v type="int" >        4        2        2        2        5 </v>
   <v type="int" >        2        2        2        5        5 </v>
   <v type="int" >        2        1        1        2        2 </v>
   <v type="int" >        4        5        5        6        8 </v>
   <v type="int" >        4        5        6        6        8 </v>
   <v type="int" >        4        5        6        8        8 </v>
   <v type="int" >        4        6        6        7        9 </v>
   <v type="int" >        4        6        6        8        9 </v>
   <v type="int" >        4        6        8        8        9 </v>
   <v type="int" >        4        6        7        7        9 </v>
   <v type="int" >        4        6        7        9        9 </v>
   <v type="int" >        4        6        8        9        9 </v>
   <v type="int" >        8        7        7        7        9 </v>
   <v type="int" >        8        7        7        9        9 </v>
   <v type="int" >        8        7        9        9        9 </v>
   <v type="int" >        4        6        7        7        8 </v>
   <v type="int" >        4        7        7        8        9 </v>
   <v type="int" >        4        7        8        9        9 </v>
   <v type="int" >        4        6        6        7        8 </v>
   <v type="int" >        4        6        7        8        8 </v>
   <v type="int" >        4        7        8        8        9 </v>
   <v type="int" >        4        5        6        6        6 </v>
   <v type="int" >        4        6        6        6        8 </v>
   <v type="int" >        2        6        6        8        8 </v>
   <v type="int" >        2        5        5        6        6 </v>
   <v type="int" >        4        8        8        9       10 </v>
   <v type="int" >        4        8        9        9       10 </v>
   <v type="int" >        4        8        9       10       10 </v>
   <v type="int" >       12        9        9        9       10 </v>
   <v type="int" >       10        9        9       10       10 </v>
   <v type="int" >        8        9       10       10       10 </v>
   <v type="int" >        4        8        9        9        9 </v>
   <v type="int" >        2        8        8        9        9 </v>
   <v type="int" >        6       10       10       10       10 </v>
  </varray>
  <i name="volumeweight">      0.00340136 </i>
 </kpoints>
 <parameters>
  <separator name="general" >
   <i type="string" name="SYSTEM">unknown system</i>
   <i type="logical" name="LCOMPAT"> F  </i>
  </separator>
  <separator name="electronic" >
   <i type="string" name="PREC">normal</i>
   <i name="ENMAX">    500.00000000</i>
   <i name="ENAUG">    605.39200000</i>
   <i name="EDIFF">      0.00001000</i>
   <i type="int" name="IALGO">    68</i>
   <i type="int" name="IWAVPR">    10</i>
   <i type="int" name="NBANDS">    76</i>
   <i name="NELECT">    128.00000000</i>
   <i type="int" name="TURBO">     0</i>
   <i type="int" name="IRESTART">     0</i>
   <i type="int" name="NREBOOT">     0</i>
   <i type="int" name="NMIN">     0</i>
   <i name="EREF">      0.00000000</i>
   <separator name="electronic smearing" >
    <i type="int" name="ISMEAR">    -5</i>
    <i name="SIGMA">      0.20000000</i>
    <i name="KSPACING">      0.50000000</i>
    <i type="logical" name="KGAMMA"> T  </i>
   </separator>
   <separator name="electronic projectors" >
    <i type="logical" name="LREAL"> F  </i>
    <v name="ROPT">      0.00000000      0.00000000      0.00000000</v>
    <i type="int" name="LMAXPAW">  -100</i>
    <i type="int" name="LMAXMIX">     2</i>
    <i type="logical" name="NLSPLINE"> F  </i>
   </separator>
   <separator name="electronic startup" >
    <i type="int" name="ISTART">     0</i>
    <i type="int" name="ICHARG">     2</i>
    <i type="int" name="INIWAV">     1</i>
   </separator>
   <separator name="electronic spin" >
    <i type="int" name="ISPIN">     1</i>
    <i type="logical" name="LNONCOLLINEAR"> F  </i>
    <v name="MAGMOM">      1.00000000      1.00000000      1.00000000      1.00000000      1.00000000      1.00000000      1.00000000      1.00000000      1.00000000      1.00000000      1.00000000      1.00000000      1.00000000      1.00000000      1.00000000      1.00000000      1.00000000      1.00000000      1.00000000      1.00000000
</v>
    <i name="NUPDOWN">     -1.00000000</i>
    <i type="logical" name="LSORBIT"> F  </i>
    <v name="SAXIS">      0.00000000      0.00000000      1.00000000</v>
    <i type="logical" name="LSPIRAL"> F  </i>
    <v name="QSPIRAL">      0.00000000      0.00000000      0.00000000</v>
    <i type="logical" name="LZEROZ"> F  </i>
   </separator>
   <separator name="electronic exchange-correlation" >
    <i type="logical" name="LASPH"> F  </i>
    <i type="logical" name="LMETAGGA"> F  </i>
   </separator>
   <separator name="electronic convergence" >
    <i type="int" name="NELM">    60</i>
    <i type="int" name="NELMDL">    -5</i>
    <i type="int" name="NELMIN">     4</i>
    <i name="ENINI">    500.00000000</i>
    <separator name="electronic convergence detail" >
     <i type="logical" name="LDIAG"> T  </i>
     <i type="logical" name="LSUBROT"> F  </i>
     <i name="WEIMIN">      0.00000000</i>
     <i name="EBREAK">      0.00000003</i>
     <i name="DEPER">      0.30000000</i>
     <i type="int" name="NRMM">     4</i>
     <i name="TIME">      0.40000000</i>
    </separator>
   </separator>
   <separator name="electronic mixer" >
    <i name="AMIX">      0.40000000</i>
    <i name="BMIX">      1.00000000</i>
    <i name="AMIN">      0.10000000</i>
    <i name="AMIX_MAG">      1.60000000</i>
    <i name="BMIX_MAG">      1.00000000</i>
    <separator name="electronic mixer details" >
     <i type="int" name="IMIX">     4</i>
     <i type="logical" name="MIXFIRST"> F  </i>
     <i type="int" name="MAXMIX">   -45</i>
     <i name="WC">    100.00000000</i>
     <i type="int" name="INIMIX">     1</i>
     <i type="int" name="MIXPRE">     1</i>
     <i type="int" name="MREMOVE">     5</i>
    </separator>
   </separator>
   <separator name="electronic dipolcorrection" >
    <i type="logical" name="LDIPOL"> F  </i>
    <i type="logical" name="LMONO"> F  </i>
    <i type="int" name="IDIPOL">     0</i>
    <i name="EPSILON">      1.00000000</i>
    <v name="DIPOL">   -100.00000000   -100.00000000   -100.00000000</v>
    <i name="EFIELD">      0.00000000</i>
   </separator>
  </separator>
  <separator name="grids" >
   <i type="int" name="NGX">    24</i>
   <i type="int" name="NGY">    24</i>
   <i type="int" name="NGZ">   224</i>
   <i type="int" name="NGXF">    48</i>
   <i type="int" name="NGYF">    48</i>
   <i type="int" name="NGZF">   448</i>
   <i type="logical" name="ADDGRID"> F  </i>
  </separator>
  <separator name="ionic" >
   <i type="int" name="NSW">     0</i>
   <i type="int" name="IBRION">    -1</i>
   <i type="int" name="MDALGO">     0</i>
   <i type="int" name="ISIF">     2</i>
   <i name="PSTRESS">      0.00000000</i>
   <i name="EDIFFG">      0.00010000</i>
   <i type="int" name="NFREE">     0</i>
   <i name="POTIM">      0.50000000</i>
   <i name="SMASS">     -3.00000000</i>
   <i name="SCALEE">      1.00000000</i>
  </separator>
  <separator name="ionic md" >
   <i name="TEBEG">      0.00010000</i>
   <i name="TEEND">      0.00010000</i>
   <i type="int" name="NBLOCK">     1</i>
   <i type="int" name="KBLOCK">     1</i>
   <i type="int" name="NPACO">   256</i>
   <i name="APACO">     16.00000000</i>
  </separator>
  <separator name="symmetry" >
   <i type="int" name="ISYM">     2</i>
   <i name="SYMPREC">      0.00001000</i>
  </separator>
  <separator name="dos" >
   <i type="int" name="LORBIT">     0</i>
   <v name="RWIGS">     -1.00000000     -1.00000000     -1.00000000</v>
   <i type="int" name="NEDOS">   301</i>
   <i name="EMIN">     10.00000000</i>
   <i name="EMAX">    -10.00000000</i>
   <i name="EFERMI">      0.00000000</i>
  </separator>
  <separator name="writing" >
   <i type="int" name="NWRITE">     2</i>
   <i type="logical" name="LWAVE"> F  </i>
   <i type="logical" name="LDOWNSAMPLE"> F  </i>
   <i type="logical" name="LCHARG"> T  </i>
   <i type="logical" name="LPARD"> F  </i>
   <i type="logical" name="LVTOT"> F  </i>
   <i type="logical" name="LVHAR"> F  </i>
   <i type="logical" name="LELF"> F  </i>
   <i type="logical" name="LOPTICS"> F  </i>
   <v name="STM">      0.00000000      0.00000000      0.00000000      0.00000000      0.00000000      0.00000000      0.00000000</v>
  </separator>
  <separator name="performance" >
   <i type="int" name="NPAR">     2</i>
   <i type="int" name="NSIM">     4</i>
   <i type="int" name="NBLK">    -1</i>
   <i type="logical" name="LPLANE"> T  </i>
   <i type="logical" name="LSCALAPACK"> T  </i>
   <i type="logical" name="LSCAAWARE"> F  </i>
   <i type="logical" name="LSCALU"> F  </i>
   <i type="logical" name="LASYNC"> F  </i>
   <i type="logical" name="LORBITALREAL"> F  </i>
  </separator>
  <separator name="miscellaneous" >
   <i type="int" name="IDIOT">     3</i>
   <i type="int" name="ISPECIAL">     0</i>
   <i type="logical" name="LMUSIC"> F  </i>
   <v name="POMASS">     16.00000000     87.62000000     47.88000000</v>
   <v name="DARWINR">      0.00000000      0.00000000      0.00000000</v>
   <v name="DARWINV">      1.00000000      1.00000000      1.00000000</v>
   <i type="logical" name="LCORR"> T  </i>
  </separator>
  <i type="logical" name="GGA_COMPAT"> T  </i>
  <i type="logical" name="LBERRY"> F  </i>
  <i type="int" name="ICORELEVEL">     0</i>
  <i type="logical" name="LDAU"> F  </i>
  <i type="int" name="I_CONSTRAINED_M">     0</i>
  <separator name="electronic exchange-correlation" >
   <i type="string" name="GGA">--</i>
   <i type="int" name="VOSKOWN">     0</i>
   <i type="logical" name="LHFCALC"> F  </i>
   <i type="string" name="PRECFOCK"></i>
   <i type="logical" name="LSYMGRAD"> F  </i>
   <i type="logical" name="LHFONE"> F  </i>
   <i type="logical" name="LRHFCALC"> F  </i>
   <i type="logical" name="LTHOMAS"> F  </i>
   <i type="logical" name="LMODELHF"> F  </i>
   <i name="ENCUT4O">     -1.00000000</i>
   <i type="int" name="EXXOEP">     0</i>
   <i type="int" name="FOURORBIT">     0</i>
   <i name="AEXX">      0.00000000</i>
   <i name="HFALPHA">      0.00000000</i>
   <i name="MCALPHA">      0.00000000</i>
   <i name="ALDAX">      1.00000000</i>
   <i name="AGGAX">      1.00000000</i>
   <i name="ALDAC">      1.00000000</i>
   <i name="AGGAC">      1.00000000</i>
   <i type="int" name="NKREDX">     1</i>
   <i type="int" name="NKREDY">     1</i>
   <i type="int" name="NKREDZ">     1</i>
   <i type="logical" name="SHIFTRED"> F  </i>
   <i type="logical" name="ODDONLY"> F  </i>
   <i type="logical" name="EVENONLY"> F  </i>
   <i type="int" name="LMAXFOCK">     0</i>
   <i type="int" name="NMAXFOCKAE">     0</i>
   <i type="logical" name="LFOCKAEDFT"> F  </i>
   <i name="HFSCREEN">      0.00000000</i>
   <i name="HFSCREENC">      0.00000000</i>
   <i type="int" name="NBANDSGWLOW">     0</i>
  </separator>
  <separator name="vdW DFT" >
   <i type="logical" name="LUSE_VDW"> F  </i>
   <i name="Zab_VDW">     -0.84910000</i>
   <i name="PARAM1">      0.12340000</i>
   <i name="PARAM2">      1.00000000</i>
   <i name="PARAM3">      0.00000000</i>
  </separator>
  <separator name="model GW" >
   <i type="int" name="MODEL_GW">     0</i>
   <i name="MODEL_EPS0">     18.60617460</i>
   <i name="MODEL_ALPHA">      1.00000000</i>
  </separator>
  <separator name="linear response parameters" >
   <i type="logical" name="LEPSILON"> F  </i>
   <i type="logical" name="LRPA"> F  </i>
   <i type="logical" name="LNABLA"> F  </i>
   <i type="logical" name="LVEL"> F  </i>
   <i type="int" name="KINTER">     0</i>
   <i name="CSHIFT">      0.10000000</i>
   <i name="OMEGAMAX">     -1.00000000</i>
   <i name="DEG_THRESHOLD">      0.00200000</i>
   <i name="RTIME">     -0.10000000</i>
   <i name="WPLASMAI">      0.00000000</i>
   <v name="DFIELD">      0.00000000      0.00000000      0.00000000</v>
   <v name="WPLASMA">      0.00000000      0.00000000      0.00000000      0.00000000      0.00000000      0.00000000      0.00000000      0.00000000      0.00000000</v>
  </separator>
  <separator name="orbital magnetization" >
   <i type="logical" name="NUCIND"> F  </i>
   <v name="MAGPOS">      0.00000000      0.00000000      0.00000000</v>
   <i type="logical" name="LNICSALL"> T  </i>
   <i type="logical" name="ORBITALMAG"> F  </i>
   <i type="logical" name="LMAGBLOCH"> F  </i>
   <i type="logical" name="LCHIMAG"> F  </i>
   <i type="logical" name="LGAUGE"> T  </i>
   <i type="int" name="MAGATOM">     0</i>
   <v name="MAGDIPOL">      0.00000000      0.00000000      0.00000000</v>
   <v name="AVECCONST">      0.00000000      0.00000000      0.00000000</v>
  </separator>
  <separator name="response functions" >
   <i type="logical" name="LADDER"> F  </i>
   <i type="logical" name="LRPAFORCE"> F  </i>
   <i type="logical" name="LFXC"> F  </i>
   <i type="logical" name="LHARTREE"> T  </i>
   <i type="int" name="IBSE">     0</i>
   <v type="int" name="KPOINT">    -1     0     0     0</v>
   <i type="logical" name="LTCTE"> F  </i>
   <i type="logical" name="LTETE"> F  </i>
   <i type="logical" name="LTRIPLET"> F  </i>
   <i type="logical" name="LFXCEPS"> F  </i>
   <i type="logical" name="LFXHEG"> F  </i>
   <i type="int" name="NATURALO">     2</i>
   <i type="logical" name="L2ORDER"> F  </i>
   <i type="logical" name="LMP2LT"> F  </i>
   <i type="logical" name="LUSEW"> F  </i>
   <i name="ENCUTGW">     -2.00000000</i>
   <i name="ENCUTGWSOFT">     -2.00000000</i>
   <i name="ENCUTLF">     -1.00000000</i>
   <i type="int" name="LMAXMP2">    -1</i>
   <i name="SCISSOR">      0.00000000</i>
   <i type="int" name="NOMEGA">     0</i>
   <i type="int" name="NOMEGAR">     0</i>
   <i type="int" name="NBANDSGW">    -1</i>
   <i type="int" name="NBANDSO">    -1</i>
   <i type="int" name="NBANDSV">    -1</i>
   <i type="int" name="NELM">     1</i>
   <i type="int" name="NELMHF">     1</i>
   <i type="int" name="DIM">     3</i>
   <i type="int" name="ANTIRES">     0</i>
   <i name="OMEGAMAX">    -30.00000000</i>
   <i name="OMEGAMIN">    -30.00000000</i>
   <i name="OMEGATL">   -200.00000000</i>
   <i type="int" name="OMEGAGRID">   140</i>
   <i name="CSHIFT">     -0.10000000</i>
   <i type="logical" name="SELFENERGY"> F  </i>
   <i type="logical" name="LSPECTRAL"> F  </i>
   <i type="logical" name="LSPECTRALGW"> F  </i>
   <i type="logical" name="LSINGLES"> F  </i>
   <i type="logical" name="LFERMIGW"> F  </i>
   <i type="logical" name="ODDONLYGW"> F  </i>
   <i type="logical" name="EVENONLYGW"> F  </i>
   <i type="int" name="NKREDLFX">     1</i>
   <i type="int" name="NKREDLFY">     1</i>
   <i type="int" name="NKREDLFZ">     1</i>
   <i type="int" name="MAXMEM">  2800</i>
   <i type="int" name="TELESCOPE">     0</i>
   <i type="int" name="TAUPAR">     1</i>
   <i type="int" name="OMEGAPAR">    -1</i>
   <i name="LAMBDA">      1.00000000</i>
  </separator>
  <separator name="External order field" >
   <i name="OFIELD_KAPPA">      0.00000000</i>
   <v name="OFIELD_K">      0.00000000      0.00000000      0.00000000</v>
   <i name="OFIELD_Q6_NEAR">      0.00000000</i>
   <i name="OFIELD_Q6_FAR">      0.00000000</i>
   <i name="OFIELD_A">      0.00000000</i>
  </separator>
 </parameters>
 <atominfo>
  <atoms>      20 </atoms>
  <types>       3 </types>
  <array name="atoms" >
   <dimension dim="1">ion</dimension>
   <field type="string">element</field>
   <field type="int">atomtype</field>
   <set>
    <rc><c>O </c><c>   1</c></rc>
    <rc><c>O </c><c>   1</c></rc>
    <rc><c>O </c><c>   1</c></rc>
    <rc><c>O </c><c>   1</c></rc>
    <rc><c>O </c><c>   1</c></rc>
    <rc><c>O </c><c>   1</c></rc>
    <rc><c>O </c><c>   1</c></rc>
    <rc><c>O </c><c>   1</c></rc>
    <rc><c>O </c><c>   1</c></rc>
    <rc><c>O </c><c>   1</c></rc>
    <rc><c>O </c><c>   1</c></rc>
    <rc><c>O </c><c>   1</c></rc>
    <rc><c>Sr</c><c>   2</c></rc>
    <rc><c>Sr</c><c>   2</c></rc>
    <rc><c>Sr</c><c>   2</c></rc>
    <rc><c>Sr</c><c>   2</c></rc>
    <rc><c>Ti</c><c>   3</c></rc>
    <rc><c>Ti</c><c>   3</c></rc>
    <rc><c>Ti</c><c>   3</c></rc>
    <rc><c>Ti</c><c>   3</c></rc>
   </set>
  </array>
  <array name="atomtypes" >
   <dimension dim="1">type</dimension>
   <field type="int">atomspertype</field>
   <field type="string">element</field>
   <field>mass</field>
   <field>valence</field>
   <field type="string">pseudopotential</field>
   <set>
    <rc><c>  12</c><c>O </c><c>     16.00000000</c><c>      6.00000000</c><c> PAW_PBE O 08Apr2002                    </c></rc>
    <rc><c>   4</c><c>Sr</c><c>     87.62000000</c><c>     10.00000000</c><c> PAW_PBE Sr_sv 07Sep2000                </c></rc>
    <rc><c>   4</c><c>Ti</c><c>     47.88000000</c><c>      4.00000000</c><c> PAW_PBE Ti 08Apr2002                   </c></rc>
   </set>
  </array>
 </atominfo>
 <structure name="initialpos" >
  <crystal>
   <varray name="basis" >
    <v>       3.94684634       0.00000000       0.00000000 </v>
    <v>       0.00000000       3.94684634       0.00000000 </v>
    <v>       0.00000000       0.00000000      39.81396220 </v>
   </varray>
   <i name="volume">    620.20582001 </i>
   <varray name="rec_basis" >
    <v>       0.25336684       0.00000000       0.00000000 </v>
    <v>       0.00000000       0.25336684       0.00000000 </v>
    <v>       0.00000000       0.00000000       0.02511682 </v>
   </varray>
  </crystal>
  <varray name="positions" >
   <v>       0.50000000       0.50000000       0.32651862 </v>
   <v>       0.50000000       0.00000000       0.37608473 </v>
   <v>       0.00000000       0.50000000       0.37608473 </v>
   <v>       0.50000000       0.50000000       0.42565084 </v>
   <v>       0.50000000       0.00000000       0.47521695 </v>
   <v>       0.00000000       0.50000000       0.47521695 </v>
   <v>       0.50000000       0.50000000       0.52478305 </v>
   <v>       0.50000000       0.00000000       0.57434916 </v>
   <v>       0.00000000       0.50000000       0.57434916 </v>
   <v>       0.50000000       0.50000000       0.62391527 </v>
   <v>       0.50000000       0.00000000       0.67348138 </v>
   <v>       0.00000000       0.50000000       0.67348138 </v>
   <v>       0.00000000       0.00000000       0.32651862 </v>
   <v>       0.00000000       0.00000000       0.42565084 </v>
   <v>       0.00000000       0.00000000       0.52478305 </v>
   <v>       0.00000000       0.00000000       0.62391527 </v>
   <v>       0.50000000       0.50000000       0.37608473 </v>
   <v>       0.50000000       0.50000000       0.47521695 </v>
   <v>       0.50000000       0.50000000       0.57434916 </v>
   <v>       0.50000000       0.50000000       0.67348138 </v>
  </varray>
 </structure>
 <calculation>
  <scstep>
   <time name="dav">    7.89    7.89</time>
   <time name="total">    8.07    8.08</time>
   <energy>
    <i name="alphaZ">    284.86957638 </i>
    <i name="ewald"> 108526.67003485 </i>
    <i name="hartreedc">-116467.88900152 </i>
    <i name="XCdc">    325.52647893 </i>
    <i name="pawpsdc">   5334.45189010 </i>
    <i name="pawaedc">  -5139.13784255 </i>
    <i name="eentropy">      0.00000000 </i>
    <i name="bandstr">   -222.10087740 </i>
    <i name="atom">   8937.26825017 </i>
    <i name="e_fr_energy">   1579.65850897 </i>
    <i name="e_wo_entrp">   1579.65850897 </i>
    <i name="e_0_energy">   1579.65850897 </i>
   </energy>
  </scstep>
  <scstep>
   <time name="dav">    9.18    9.18</time>
   <time name="total">    9.19    9.19</time>
   <energy>
    <i name="e_fr_energy">    183.53725704 </i>
    <i name="e_wo_entrp">    183.53725704 </i>
    <i name="e_0_energy">    183.53725704 </i>
   </energy>
  </scstep>
  <scstep>
   <time name="dav">    9.64    9.64</time>
   <time name="total">    9.64    9.65</time>
   <energy>
    <i name="e_fr_energy">   -176.48321360 </i>
    <i name="e_wo_entrp">   -176.48321360 </i>
    <i name="e_0_energy">   -176.48321360 </i>
   </energy>
  </scstep>
  <scstep>
   <time name="dav">    9.43    9.43</time>
   <time name="total">    9.43    9.43</time>
   <energy>
    <i name="e_fr_energy">   -200.92936149 </i>
    <i name="e_wo_entrp">   -200.92936149 </i>
    <i name="e_0_energy">   -200.92936149 </i>
   </energy>
  </scstep>
  <scstep>
   <time name="dav">   11.89   11.88</time>
   <time name="total">   12.21   12.21</time>
   <energy>
    <i name="e_fr_energy">   -202.30981704 </i>
    <i name="e_wo_entrp">   -202.30981704 </i>
    <i name="e_0_energy">   -202.30981704 </i>
   </energy>
  </scstep>
  <scstep>
   <time name="diag">    0.88    0.88</time>
   <time name="diis">    6.17    6.17</time>
   <time name="orth">    0.17    0.17</time>
   <time name="total">    7.70    7.71</time>
   <energy>
    <i name="e_fr_energy">   -161.85186184 </i>
    <i name="e_wo_entrp">   -161.85186184 </i>
    <i name="e_0_energy">   -161.85186184 </i>
   </energy>
  </scstep>
  <scstep>
   <time name="diag">    0.88    0.88</time>
   <time name="diis">    6.53    6.52</time>
   <time name="orth">    0.17    0.17</time>
   <time name="total">    8.05    8.05</time>
   <energy>
    <i name="e_fr_energy">   -157.73586088 </i>
    <i name="e_wo_entrp">   -157.73586088 </i>
    <i name="e_0_energy">   -157.73586088 </i>
   </energy>
  </scstep>
  <scstep>
   <time name="diag">    0.88    0.88</time>
   <time name="diis">    7.60    7.59</time>
   <time name="orth">    0.17    0.17</time>
   <time name="total">    9.12    9.12</time>
   <energy>
    <i name="e_fr_energy">   -156.97825115 </i>
    <i name="e_wo_entrp">   -156.97825115 </i>
    <i name="e_0_energy">   -156.97825115 </i>
   </energy>
  </scstep>
  <scstep>
   <time name="diag">    0.88    0.88</time>
   <time name="diis">    7.39    7.39</time>
   <time name="orth">    0.17    0.17</time>
   <time name="total">    8.92    8.92</time>
   <energy>
    <i name="e_fr_energy">   -156.72652546 </i>
    <i name="e_wo_entrp">   -156.72652546 </i>
    <i name="e_0_energy">   -156.72652546 </i>
   </energy>
  </scstep>
  <scstep>
   <time name="diag">    0.88    0.88</time>
   <time name="diis">    8.46    8.46</time>
   <time name="orth">    0.17    0.17</time>
   <time name="total">    9.99    9.99</time>
   <energy>
    <i name="e_fr_energy">   -156.67810540 </i>
    <i name="e_wo_entrp">   -156.67810540 </i>
    <i name="e_0_energy">   -156.67810540 </i>
   </energy>
  </scstep>
  <scstep>
   <time name="diag">    0.89    0.89</time>
   <time name="diis">    8.26    8.25</time>
   <time name="orth">    0.17    0.17</time>
   <time name="total">    9.80    9.80</time>
   <energy>
    <i name="e_fr_energy">   -156.65611703 </i>
    <i name="e_wo_entrp">   -156.65611703 </i>
    <i name="e_0_energy">   -156.65611703 </i>
   </energy>
  </scstep>
  <scstep>
   <time name="diag">    0.89    0.89</time>
   <time name="diis">    8.81    8.80</time>
   <time name="orth">    0.17    0.17</time>
   <time name="total">   10.35   10.35</time>
   <energy>
    <i name="e_fr_energy">   -156.64783008 </i>
    <i name="e_wo_entrp">   -156.64783008 </i>
    <i name="e_0_energy">   -156.64783008 </i>
   </energy>
  </scstep>
  <scstep>
   <time name="diag">    0.89    0.89</time>
   <time name="diis">    9.32    9.31</time>
   <time name="orth">    0.17    0.17</time>
   <time name="total">   10.86   10.86</time>
   <energy>
    <i name="e_fr_energy">   -156.64247926 </i>
    <i name="e_wo_entrp">   -156.64247926 </i>
    <i name="e_0_energy">   -156.64247926 </i>
   </energy>
  </scstep>
  <scstep>
   <time name="diag">    0.89    0.89</time>
   <time name="diis">    8.15    8.15</time>
   <time name="orth">    0.17    0.17</time>
   <time name="total">    9.70    9.70</time>
   <energy>
    <i name="e_fr_energy">   -156.63996897 </i>
    <i name="e_wo_entrp">   -156.63996897 </i>
    <i name="e_0_energy">   -156.63996897 </i>
   </energy>
  </scstep>
  <scstep>
   <time name="diag">    0.89    0.89</time>
   <time name="diis">    8.57    8.57</time>
   <time name="orth">    0.17    0.17</time>
   <time name="total">   10.12   10.12</time>
   <energy>
    <i name="e_fr_energy">   -156.63979893 </i>
    <i name="e_wo_entrp">   -156.63979893 </i>
    <i name="e_0_energy">   -156.63979893 </i>
   </energy>
  </scstep>
  <scstep>
   <time name="diag">    0.89    0.89</time>
   <time name="diis">    8.79    8.79</time>
   <time name="orth">    0.17    0.17</time>
   <time name="total">   10.34   10.34</time>
   <energy>
    <i name="e_fr_energy">   -156.64098476 </i>
    <i name="e_wo_entrp">   -156.64098476 </i>
    <i name="e_0_energy">   -156.64098476 </i>
   </energy>
  </scstep>
  <scstep>
   <time name="diag">    0.89    0.89</time>
   <time name="diis">    8.71    8.71</time>
   <time name="orth">    0.17    0.17</time>
   <time name="total">   10.26   10.26</time>
   <energy>
    <i name="e_fr_energy">   -156.64192121 </i>
    <i name="e_wo_entrp">   -156.64192121 </i>
    <i name="e_0_energy">   -156.64192121 </i>
   </energy>
  </scstep>
  <scstep>
   <time name="diag">    0.89    0.89</time>
   <time name="diis">    8.37    8.37</time>
   <time name="orth">    0.17    0.17</time>
   <time name="total">    9.92    9.92</time>
   <energy>
    <i name="e_fr_energy">   -156.64233323 </i>
    <i name="e_wo_entrp">   -156.64233323 </i>
    <i name="e_0_energy">   -156.64233323 </i>
   </energy>
  </scstep>
  <scstep>
   <time name="diag">    0.89    0.89</time>
   <time name="diis">    7.61    7.61</time>
   <time name="orth">    0.17    0.17</time>
   <time name="total">    9.16    9.16</time>
   <energy>
    <i name="e_fr_energy">   -156.64297798 </i>
    <i name="e_wo_entrp">   -156.64297798 </i>
    <i name="e_0_energy">   -156.64297798 </i>
   </energy>
  </scstep>
  <scstep>
   <time name="diag">    0.89    0.89</time>
   <time name="diis">    6.80    6.80</time>
   <time name="orth">    0.17    0.17</time>
   <time name="total">    8.35    8.35</time>
   <energy>
    <i name="e_fr_energy">   -156.64346321 </i>
    <i name="e_wo_entrp">   -156.64346321 </i>
    <i name="e_0_energy">   -156.64346321 </i>
   </energy>
  </scstep>
  <scstep>
   <time name="diag">    0.89    0.89</time>
   <time name="diis">    6.06    6.06</time>
   <time name="orth">    0.17    0.17</time>
   <time name="total">    7.61    7.62</time>
   <energy>
    <i name="e_fr_energy">   -156.64379491 </i>
    <i name="e_wo_entrp">   -156.64379491 </i>
    <i name="e_0_energy">   -156.64379491 </i>
   </energy>
  </scstep>
  <scstep>
   <time name="diag">    0.89    0.89</time>
   <time name="diis">    5.34    5.34</time>
   <time name="orth">    0.17    0.17</time>
   <time name="total">    6.89    6.89</time>
   <energy>
    <i name="e_fr_energy">   -156.64395295 </i>
    <i name="e_wo_entrp">   -156.64395295 </i>
    <i name="e_0_energy">   -156.64395295 </i>
   </energy>
  </scstep>
  <scstep>
   <time name="diag">    0.89    0.90</time>
   <time name="diis">    4.99    4.99</time>
   <time name="orth">    0.17    0.17</time>
   <time name="total">    6.55    6.55</time>
   <energy>
    <i name="e_fr_energy">   -156.64406116 </i>
    <i name="e_wo_entrp">   -156.64406116 </i>
    <i name="e_0_energy">   -156.64406116 </i>
   </energy>
  </scstep>
  <scstep>
   <time name="diag">    0.89    0.89</time>
   <time name="diis">    4.64    4.64</time>
   <time name="orth">    0.17    0.17</time>
   <time name="total">    6.19    6.19</time>
   <energy>
    <i name="e_fr_energy">   -156.64412749 </i>
    <i name="e_wo_entrp">   -156.64412749 </i>
    <i name="e_0_energy">   -156.64412749 </i>
   </energy>
  </scstep>
  <scstep>
   <time name="diag">    0.89    0.89</time>
   <time name="diis">    4.36    4.35</time>
   <time name="orth">    0.17    0.17</time>
   <time name="total">    5.91    5.91</time>
   <energy>
    <i name="e_fr_energy">   -156.64417202 </i>
    <i name="e_wo_entrp">   -156.64417202 </i>
    <i name="e_0_energy">   -156.64417202 </i>
   </energy>
  </scstep>
  <scstep>
   <time name="diag">    0.89    0.89</time>
   <time name="diis">    4.27    4.27</time>
   <time name="orth">    0.17    0.17</time>
   <time name="total">    5.82    5.82</time>
   <energy>
    <i name="e_fr_energy">   -156.64418978 </i>
    <i name="e_wo_entrp">   -156.64418978 </i>
    <i name="e_0_energy">   -156.64418978 </i>
   </energy>
  </scstep>
  <scstep>
   <time name="diag">    0.89    0.89</time>
   <time name="diis">    4.13    4.13</time>
   <time name="orth">    0.17    0.17</time>
   <time name="total">    5.35    5.35</time>
   <energy>
    <i name="alphaZ">    284.86957638 </i>
    <i name="ewald"> 108526.67003485 </i>
    <i name="hartreedc">-117036.19666817 </i>
    <i name="XCdc">    341.54474381 </i>
    <i name="pawpsdc">   6145.01833435 </i>
    <i name="pawaedc">  -5974.94364138 </i>
    <i name="eentropy">      0.00000000 </i>
    <i name="bandstr">  -1380.87482647 </i>
    <i name="atom">   8937.26825017 </i>
    <i name="e_fr_energy">   -156.64419646 </i>
    <i name="e_wo_entrp">   -156.64419646 </i>
    <i name="e_0_energy">   -156.64419646 </i>
   </energy>
  </scstep>
  <structure>
   <crystal>
    <varray name="basis" >
     <v>       3.94684634       0.00000000       0.00000000 </v>
     <v>       0.00000000       3.94684634       0.00000000 </v>
     <v>       0.00000000       0.00000000      39.81396220 </v>
    </varray>
    <i name="volume">    620.20582001 </i>
    <varray name="rec_basis" >
     <v>       0.25336684       0.00000000       0.00000000 </v>
     <v>       0.00000000       0.25336684       0.00000000 </v>
     <v>       0.00000000       0.00000000       0.02511682 </v>
    </varray>
   </crystal>
   <varray name="positions" >
    <v>       0.50000000       0.50000000       0.32651862 </v>
    <v>       0.50000000       0.00000000       0.37608473 </v>
    <v>       0.00000000       0.50000000       0.37608473 </v>
    <v>       0.50000000       0.50000000       0.42565084 </v>
    <v>       0.50000000       0.00000000       0.47521695 </v>
    <v>       0.00000000       0.50000000       0.47521695 </v>
    <v>       0.50000000       0.50000000       0.52478305 </v>
    <v>       0.50000000       0.00000000       0.57434916 </v>
    <v>       0.00000000       0.50000000       0.57434916 </v>
    <v>       0.50000000       0.50000000       0.62391527 </v>
    <v>       0.50000000       0.00000000       0.67348138 </v>
    <v>       0.00000000       0.50000000       0.67348138 </v>
    <v>       0.00000000       0.00000000       0.32651862 </v>
    <v>       0.00000000       0.00000000       0.42565084 </v>
    <v>       0.00000000       0.00000000       0.52478305 </v>
    <v>       0.00000000       0.00000000       0.62391527 </v>
    <v>       0.50000000       0.50000000       0.37608473 </v>
    <v>       0.50000000       0.50000000       0.47521695 </v>
    <v>       0.50000000       0.50000000       0.57434916 </v>
    <v>       0.50000000       0.50000000       0.67348138 </v>
   </varray>
  </structure>
  <varray name="forces" >
   <v>       0.00000000      -0.00000000      -0.77633031 </v>
   <v>       0.00000000       0.00000000      -0.04723276 </v>
   <v>       0.00000000       0.00000000      -0.04723276 </v>
   <v>       0.00000000       0.00000000       0.24399236 </v>
   <v>       0.00000000       0.00000000       0.02536313 </v>
   <v>       0.00000000       0.00000000       0.02536313 </v>
   <v>       0.00000000       0.00000000       0.17134332 </v>
   <v>       0.00000000       0.00000000      -0.01846811 </v>
   <v>      -0.00000000       0.00000000      -0.01846811 </v>
   <v>       0.00000000       0.00000000       0.88238409 </v>
   <v>       0.00000000       0.00000000       0.33420549 </v>
   <v>       0.00000000      -0.00000000       0.33420549 </v>
   <v>       0.00000000       0.00000000       1.41482472 </v>
   <v>       0.00000000       0.00000000       0.04518458 </v>
   <v>       0.00000000      -0.00000000      -0.00661175 </v>
   <v>       0.00000000       0.00000000       0.68657129 </v>
   <v>       0.00000000      -0.00000000      -0.83442758 </v>
   <v>       0.00000000       0.00000000      -0.14798382 </v>
   <v>      -0.00000000       0.00000000      -0.20525937 </v>
   <v>       0.00000000       0.00000000      -2.06142303 </v>
  </varray>
  <varray name="stress" >
   <v>     -14.88123441       0.00000000       0.00000000 </v>
   <v>       0.00000000     -14.88123441       0.00000000 </v>
   <v>       0.00000000       0.00000000      -8.83274233 </v>
  </varray>
  <energy>
   <i name="e_fr_energy">   -156.64419646 </i>
   <i name="e_wo_entrp">   -156.64419646 </i>
   <i name="e_0_energy">      0.00000000 </i>
  </energy>
  <time name="totalsc">  247.16  247.22</time>
  <eigenvalues>
   <array>
    <dimension dim="1">band</dimension>
    <dimension dim="2">kpoint</dimension>
    <dimension dim="3">spin</dimension>
    <field>eigene</field>
    <field>occ</field>
    <set>
     <set comment="spin 1">
      <set comment="kpoint 1">
       <r>  -35.5734    1.0000 </r>
       <r>  -34.4111    1.0000 </r>
       <r>  -34.3981    1.0000 </r>
       <r>  -34.1975    1.0000 </r>
       <r>  -19.1477    1.0000 </r>
       <r>  -19.0451    1.0000 </r>
       <r>  -18.9553    1.0000 </r>
       <r>  -18.3670    1.0000 </r>
       <r>  -17.9838    1.0000 </r>
       <r>  -17.9704    1.0000 </r>
       <r>  -17.9550    1.0000 </r>
       <r>  -17.9259    1.0000 </r>
       <r>  -17.8939    1.0000 </r>
       <r>  -17.8268    1.0000 </r>
       <r>  -17.4893    1.0000 </r>
       <r>  -17.4861    1.0000 </r>
       <r>  -17.4861    1.0000 </r>
       <r>  -17.2795    1.0000 </r>
       <r>  -17.2332    1.0000 </r>
       <r>  -16.4578    1.0000 </r>
       <r>  -16.4578    1.0000 </r>
       <r>  -16.4335    1.0000 </r>
       <r>  -16.4335    1.0000 </r>
       <r>  -16.3235    1.0000 </r>
       <r>  -16.2577    1.0000 </r>
       <r>  -16.2577    1.0000 </r>
       <r>  -16.0638    1.0000 </r>
       <r>  -15.8465    1.0000 </r>
       <r>   -5.6710    1.0000 </r>
       <r>   -5.1706    1.0000 </r>
       <r>   -4.6596    1.0000 </r>
       <r>   -4.4370    1.0000 </r>
       <r>   -4.4370    1.0000 </r>
       <r>   -4.4229    1.0000 </r>
       <r>   -4.4229    1.0000 </r>
       <r>   -4.4094    1.0000 </r>
       <r>   -4.4094    1.0000 </r>
       <r>   -4.0998    1.0000 </r>
       <r>   -3.9309    1.0000 </r>
       <r>   -3.9309    1.0000 </r>
       <r>   -3.7335    1.0000 </r>
       <r>   -3.6230    1.0000 </r>
       <r>   -3.6230    1.0000 </r>
       <r>   -3.3989    1.0000 </r>
       <r>   -3.2630    1.0000 </r>
       <r>   -3.2388    1.0000 </r>
       <r>   -3.2388    1.0000 </r>
       <r>   -3.1763    1.0000 </r>
       <r>   -2.8885    1.0000 </r>
       <r>   -2.8885    1.0000 </r>
       <r>   -2.8666    1.0000 </r>
       <r>   -2.8402    1.0000 </r>
       <r>   -2.6616    1.0000 </r>
       <r>   -2.6616    1.0000 </r>
       <r>   -2.2650    1.0000 </r>
       <r>   -2.2650    1.0000 </r>
       <r>   -2.2332    1.0000 </r>
       <r>   -2.2146    1.0000 </r>
       <r>   -2.1551    1.0000 </r>
       <r>   -2.1551    1.0000 </r>
       <r>   -1.9800    1.0000 </r>
       <r>   -1.9800    1.0000 </r>
       <r>   -1.4714    1.0000 </r>
       <r>   -1.4714    1.0000 </r>
       <r>    0.0553    0.0000 </r>
       <r>    0.1226    0.0000 </r>
       <r>    0.1720    0.0000 </r>
       <r>    0.1720    0.0000 </r>
       <r>    0.1899    0.0000 </r>
       <r>    0.4286    0.0000 </r>
       <r>    0.5079    0.0000 </r>
       <r>    0.6709    0.0000 </r>
       <r>    0.6712    0.0000 </r>
       <r>    1.2887    0.0000 </r>
       <r>    4.0069    0.0000 </r>
       <r>    4.0512    0.0000 </r>
      </set>
      <set comment="kpoint 2">
       <r>  -35.5705    1.0000 </r>
       <r>  -34.4075    1.0000 </r>
       <r>  -34.3947    1.0000 </r>
       <r>  -34.1940    1.0000 </r>
       <r>  -19.0744    1.0000 </r>
       <r>  -18.9810    1.0000 </r>
       <r>  -18.9417    1.0000 </r>
       <r>  -18.3698    1.0000 </r>
       <r>  -18.0589    1.0000 </r>
       <r>  -18.0102    1.0000 </r>
       <r>  -17.9654    1.0000 </r>
       <r>  -17.9335    1.0000 </r>
       <r>  -17.9202    1.0000 </r>
       <r>  -17.7992    1.0000 </r>
       <r>  -17.7247    1.0000 </r>
       <r>  -17.4793    1.0000 </r>
       <r>  -17.4594    1.0000 </r>
       <r>  -17.2764    1.0000 </r>
       <r>  -16.9671    1.0000 </r>
       <r>  -16.4495    1.0000 </r>
       <r>  -16.4247    1.0000 </r>
       <r>  -16.3624    1.0000 </r>
       <r>  -16.3489    1.0000 </r>
       <r>  -16.3106    1.0000 </r>
       <r>  -16.2489    1.0000 </r>
       <r>  -16.1657    1.0000 </r>
       <r>  -16.0840    1.0000 </r>
       <r>  -15.8741    1.0000 </r>
       <r>   -5.6836    1.0000 </r>
       <r>   -5.2142    1.0000 </r>
       <r>   -4.8208    1.0000 </r>
       <r>   -4.7269    1.0000 </r>
       <r>   -4.6806    1.0000 </r>
       <r>   -4.6033    1.0000 </r>
       <r>   -4.5414    1.0000 </r>
       <r>   -4.4403    1.0000 </r>
       <r>   -4.4238    1.0000 </r>
       <r>   -4.4079    1.0000 </r>
       <r>   -4.2825    1.0000 </r>
       <r>   -3.9977    1.0000 </r>
       <r>   -3.9695    1.0000 </r>
       <r>   -3.7553    1.0000 </r>
       <r>   -3.7031    1.0000 </r>
       <r>   -3.5021    1.0000 </r>
       <r>   -3.4720    1.0000 </r>
       <r>   -3.3334    1.0000 </r>
       <r>   -3.1738    1.0000 </r>
       <r>   -3.0206    1.0000 </r>
       <r>   -3.0007    1.0000 </r>
       <r>   -2.9154    1.0000 </r>
       <r>   -2.8344    1.0000 </r>
       <r>   -2.7680    1.0000 </r>
       <r>   -2.7305    1.0000 </r>
       <r>   -2.6992    1.0000 </r>
       <r>   -2.5739    1.0000 </r>
       <r>   -2.5415    1.0000 </r>
       <r>   -2.5175    1.0000 </r>
       <r>   -2.4777    1.0000 </r>
       <r>   -2.3512    1.0000 </r>
       <r>   -2.2526    1.0000 </r>
       <r>   -2.1230    1.0000 </r>
       <r>   -2.1056    1.0000 </r>
       <r>   -1.8403    1.0000 </r>
       <r>   -1.7803    1.0000 </r>
       <r>    0.1887    0.0000 </r>
       <r>    0.4654    0.0000 </r>
       <r>    0.5114    0.0000 </r>
       <r>    0.5236    0.0000 </r>
       <r>    0.5728    0.0000 </r>
       <r>    0.5968    0.0000 </r>
       <r>    0.6922    0.0000 </r>
       <r>    0.8663    0.0000 </r>
       <r>    0.9260    0.0000 </r>
       <r>    1.3122    0.0000 </r>
       <r>    1.3358    0.0000 </r>
       <r>    4.2553    0.0000 </r>
      </set>
      <set comment="kpoint 3">
       <r>  -35.5639    1.0000 </r>
       <r>  -34.3995    1.0000 </r>
       <r>  -34.3872    1.0000 </r>
       <r>  -34.1861    1.0000 </r>
       <r>  -18.9960    1.0000 </r>
       <r>  -18.9254    1.0000 </r>
       <r>  -18.8106    1.0000 </r>
       <r>  -18.3821    1.0000 </r>
       <r>  -18.2336    1.0000 </r>
       <r>  -18.0968    1.0000 </r>
       <r>  -18.0469    1.0000 </r>
       <r>  -17.9353    1.0000 </r>
       <r>  -17.9061    1.0000 </r>
       <r>  -17.7999    1.0000 </r>
       <r>  -17.6842    1.0000 </r>
       <r>  -17.4637    1.0000 </r>
       <r>  -17.4487    1.0000 </r>
       <r>  -17.2592    1.0000 </r>
       <r>  -16.6638    1.0000 </r>
       <r>  -16.4308    1.0000 </r>
       <r>  -16.4048    1.0000 </r>
       <r>  -16.3390    1.0000 </r>
       <r>  -16.2289    1.0000 </r>
       <r>  -16.1901    1.0000 </r>
       <r>  -16.1531    1.0000 </r>
       <r>  -16.1053    1.0000 </r>
       <r>  -15.9869    1.0000 </r>
       <r>  -15.9188    1.0000 </r>
       <r>   -5.7276    1.0000 </r>
       <r>   -5.5472    1.0000 </r>
       <r>   -5.3320    1.0000 </r>
       <r>   -5.2930    1.0000 </r>
       <r>   -5.2248    1.0000 </r>
       <r>   -5.0700    1.0000 </r>
       <r>   -4.9788    1.0000 </r>
       <r>   -4.6603    1.0000 </r>
       <r>   -4.5850    1.0000 </r>
       <r>   -4.4398    1.0000 </r>
       <r>   -4.4163    1.0000 </r>
       <r>   -4.3921    1.0000 </r>
       <r>   -4.3138    1.0000 </r>
       <r>   -4.1597    1.0000 </r>
       <r>   -3.9107    1.0000 </r>
       <r>   -3.8580    1.0000 </r>
       <r>   -3.6471    1.0000 </r>
       <r>   -3.6285    1.0000 </r>
       <r>   -3.4130    1.0000 </r>
       <r>   -3.3293    1.0000 </r>
       <r>   -3.3111    1.0000 </r>
       <r>   -3.1920    1.0000 </r>
       <r>   -3.1756    1.0000 </r>
       <r>   -3.1464    1.0000 </r>
       <r>   -2.9556    1.0000 </r>
       <r>   -2.9122    1.0000 </r>
       <r>   -2.8852    1.0000 </r>
       <r>   -2.6574    1.0000 </r>
       <r>   -2.6308    1.0000 </r>
       <r>   -2.4942    1.0000 </r>
       <r>   -2.3108    1.0000 </r>
       <r>   -2.2592    1.0000 </r>
       <r>   -2.2334    1.0000 </r>
       <r>   -2.2044    1.0000 </r>
       <r>   -2.0802    1.0000 </r>
       <r>   -2.0370    1.0000 </r>
       <r>    0.2343    0.0000 </r>
       <r>    0.7081    0.0000 </r>
       <r>    1.0550    0.0000 </r>
       <r>    1.2176    0.0000 </r>
       <r>    1.2322    0.0000 </r>
       <r>    1.2414    0.0000 </r>
       <r>    1.2961    0.0000 </r>
       <r>    1.3151    0.0000 </r>
       <r>    1.3964    0.0000 </r>
       <r>    1.6916    0.0000 </r>
       <r>    1.7155    0.0000 </r>
       <r>    5.2370    0.0000 </r>
      </set>
      <set comment="kpoint 4">
       <r>  -35.5586    1.0000 </r>
       <r>  -34.3931    1.0000 </r>
       <r>  -34.3811    1.0000 </r>
       <r>  -34.1798    1.0000 </r>
       <r>  -19.0602    1.0000 </r>
       <r>  -18.9081    1.0000 </r>
       <r>  -18.6655    1.0000 </r>
       <r>  -18.3479    1.0000 </r>
       <r>  -18.3025    1.0000 </r>
       <r>  -18.1628    1.0000 </r>
       <r>  -18.0172    1.0000 </r>
       <r>  -17.9651    1.0000 </r>
       <r>  -17.9083    1.0000 </r>
       <r>  -17.8248    1.0000 </r>
       <r>  -17.5677    1.0000 </r>
       <r>  -17.4512    1.0000 </r>
       <r>  -17.4067    1.0000 </r>
       <r>  -17.2461    1.0000 </r>
       <r>  -16.4941    1.0000 </r>
       <r>  -16.4157    1.0000 </r>
       <r>  -16.3887    1.0000 </r>
       <r>  -16.3342    1.0000 </r>
       <r>  -16.2127    1.0000 </r>
       <r>  -16.1646    1.0000 </r>
       <r>  -16.0719    1.0000 </r>
       <r>  -15.9921    1.0000 </r>
       <r>  -15.9372    1.0000 </r>
       <r>  -15.8629    1.0000 </r>
       <r>   -5.9134    1.0000 </r>
       <r>   -5.8990    1.0000 </r>
       <r>   -5.7966    1.0000 </r>
       <r>   -5.7735    1.0000 </r>
       <r>   -5.5821    1.0000 </r>
       <r>   -5.4936    1.0000 </r>
       <r>   -5.2659    1.0000 </r>
       <r>   -5.0913    1.0000 </r>
       <r>   -4.8552    1.0000 </r>
       <r>   -4.5672    1.0000 </r>
       <r>   -4.4088    1.0000 </r>
       <r>   -4.3789    1.0000 </r>
       <r>   -4.3583    1.0000 </r>
       <r>   -4.2911    1.0000 </r>
       <r>   -4.1287    1.0000 </r>
       <r>   -4.0988    1.0000 </r>
       <r>   -3.9302    1.0000 </r>
       <r>   -3.9120    1.0000 </r>
       <r>   -3.7610    1.0000 </r>
       <r>   -3.6199    1.0000 </r>
       <r>   -3.4561    1.0000 </r>
       <r>   -3.2302    1.0000 </r>
       <r>   -3.2272    1.0000 </r>
       <r>   -3.1697    1.0000 </r>
       <r>   -3.1481    1.0000 </r>
       <r>   -3.1112    1.0000 </r>
       <r>   -2.8668    1.0000 </r>
       <r>   -2.8278    1.0000 </r>
       <r>   -2.6362    1.0000 </r>
       <r>   -2.5515    1.0000 </r>
       <r>   -2.5157    1.0000 </r>
       <r>   -2.4038    1.0000 </r>
       <r>   -2.3422    1.0000 </r>
       <r>   -2.3302    1.0000 </r>
       <r>   -2.0103    1.0000 </r>
       <r>   -1.7932    1.0000 </r>
       <r>    0.2721    0.0000 </r>
       <r>    0.7380    0.0000 </r>
       <r>    1.2755    0.0000 </r>
       <r>    1.6964    0.0000 </r>
       <r>    1.7397    0.0000 </r>
       <r>    1.7535    0.0000 </r>
       <r>    1.7669    0.0000 </r>
       <r>    1.7844    0.0000 </r>
       <r>    1.8199    0.0000 </r>
       <r>    1.9648    0.0000 </r>
       <r>    2.0700    0.0000 </r>
       <r>    5.8470    0.0000 </r>
      </set>
      <set comment="kpoint 5">
       <r>  -35.5676    1.0000 </r>
       <r>  -34.4041    1.0000 </r>
       <r>  -34.3914    1.0000 </r>
       <r>  -34.1906    1.0000 </r>
       <r>  -19.0064    1.0000 </r>
       <r>  -18.9218    1.0000 </r>
       <r>  -18.9014    1.0000 </r>
       <r>  -18.3542    1.0000 </r>
       <r>  -18.0425    1.0000 </r>
       <r>  -18.0172    1.0000 </r>
       <r>  -17.9996    1.0000 </r>
       <r>  -17.9866    1.0000 </r>
       <r>  -17.9215    1.0000 </r>
       <r>  -17.8505    1.0000 </r>
       <r>  -17.7555    1.0000 </r>
       <r>  -17.4581    1.0000 </r>
       <r>  -17.4502    1.0000 </r>
       <r>  -17.2786    1.0000 </r>
       <r>  -16.8609    1.0000 </r>
       <r>  -16.4543    1.0000 </r>
       <r>  -16.4071    1.0000 </r>
       <r>  -16.3597    1.0000 </r>
       <r>  -16.3086    1.0000 </r>
       <r>  -16.2485    1.0000 </r>
       <r>  -16.2301    1.0000 </r>
       <r>  -16.1348    1.0000 </r>
       <r>  -16.0802    1.0000 </r>
       <r>  -15.9055    1.0000 </r>
       <r>   -5.6941    1.0000 </r>
       <r>   -5.2693    1.0000 </r>
       <r>   -4.9753    1.0000 </r>
       <r>   -4.8487    1.0000 </r>
       <r>   -4.8071    1.0000 </r>
       <r>   -4.7119    1.0000 </r>
       <r>   -4.5617    1.0000 </r>
       <r>   -4.5550    1.0000 </r>
       <r>   -4.5365    1.0000 </r>
       <r>   -4.4991    1.0000 </r>
       <r>   -4.4038    1.0000 </r>
       <r>   -4.3511    1.0000 </r>
       <r>   -4.1278    1.0000 </r>
       <r>   -4.0044    1.0000 </r>
       <r>   -3.8076    1.0000 </r>
       <r>   -3.7101    1.0000 </r>
       <r>   -3.5293    1.0000 </r>
       <r>   -3.5161    1.0000 </r>
       <r>   -3.3908    1.0000 </r>
       <r>   -3.2631    1.0000 </r>
       <r>   -3.1928    1.0000 </r>
       <r>   -3.0014    1.0000 </r>
       <r>   -2.8749    1.0000 </r>
       <r>   -2.8363    1.0000 </r>
       <r>   -2.6453    1.0000 </r>
       <r>   -2.6373    1.0000 </r>
       <r>   -2.6199    1.0000 </r>
       <r>   -2.5891    1.0000 </r>
       <r>   -2.5756    1.0000 </r>
       <r>   -2.5324    1.0000 </r>
       <r>   -2.4260    1.0000 </r>
       <r>   -2.4238    1.0000 </r>
       <r>   -2.3106    1.0000 </r>
       <r>   -2.2128    1.0000 </r>
       <r>   -2.1664    1.0000 </r>
       <r>   -1.6600    1.0000 </r>
       <r>    0.4657    0.0000 </r>
       <r>    0.6154    0.0000 </r>
       <r>    0.6848    0.0000 </r>
       <r>    0.7198    0.0000 </r>
       <r>    0.7816    0.0000 </r>
       <r>    0.8456    0.0000 </r>
       <r>    0.9049    0.0000 </r>
       <r>    0.9183    0.0000 </r>
       <r>    1.1904    0.0000 </r>
       <r>    1.3742    0.0000 </r>
       <r>    4.4440    0.0000 </r>
       <r>    4.6331    0.0000 </r>
      </set>
      <set comment="kpoint 6">
       <r>  -35.5611    1.0000 </r>
       <r>  -34.3962    1.0000 </r>
       <r>  -34.3840    1.0000 </r>
       <r>  -34.1829    1.0000 </r>
       <r>  -18.9295    1.0000 </r>
       <r>  -18.8561    1.0000 </r>
       <r>  -18.7299    1.0000 </r>
       <r>  -18.3310    1.0000 </r>
       <r>  -18.1913    1.0000 </r>
       <r>  -18.0676    1.0000 </r>
       <r>  -18.0290    1.0000 </r>
       <r>  -17.9665    1.0000 </r>
       <r>  -17.9183    1.0000 </r>
       <r>  -17.8628    1.0000 </r>
       <r>  -17.6311    1.0000 </r>
       <r>  -17.5022    1.0000 </r>
       <r>  -17.3995    1.0000 </r>
       <r>  -17.2688    1.0000 </r>
       <r>  -16.6860    1.0000 </r>
       <r>  -16.4559    1.0000 </r>
       <r>  -16.3948    1.0000 </r>
       <r>  -16.3577    1.0000 </r>
       <r>  -16.2291    1.0000 </r>
       <r>  -16.2060    1.0000 </r>
       <r>  -16.1634    1.0000 </r>
       <r>  -16.1067    1.0000 </r>
       <r>  -15.9895    1.0000 </r>
       <r>  -15.9584    1.0000 </r>
       <r>   -5.7303    1.0000 </r>
       <r>   -5.5305    1.0000 </r>
       <r>   -5.3702    1.0000 </r>
       <r>   -5.3075    1.0000 </r>
       <r>   -5.2247    1.0000 </r>
       <r>   -5.0589    1.0000 </r>
       <r>   -4.9561    1.0000 </r>
       <r>   -4.7168    1.0000 </r>
       <r>   -4.6949    1.0000 </r>
       <r>   -4.6219    1.0000 </r>
       <r>   -4.6141    1.0000 </r>
       <r>   -4.5518    1.0000 </r>
       <r>   -4.4929    1.0000 </r>
       <r>   -4.3141    1.0000 </r>
       <r>   -4.2297    1.0000 </r>
       <r>   -4.1537    1.0000 </r>
       <r>   -4.0646    1.0000 </r>
       <r>   -3.7990    1.0000 </r>
       <r>   -3.7682    1.0000 </r>
       <r>   -3.6885    1.0000 </r>
       <r>   -3.5374    1.0000 </r>
       <r>   -3.3032    1.0000 </r>
       <r>   -3.1206    1.0000 </r>
       <r>   -3.0275    1.0000 </r>
       <r>   -2.8202    1.0000 </r>
       <r>   -2.7552    1.0000 </r>
       <r>   -2.7248    1.0000 </r>
       <r>   -2.6705    1.0000 </r>
       <r>   -2.6196    1.0000 </r>
       <r>   -2.5931    1.0000 </r>
       <r>   -2.5136    1.0000 </r>
       <r>   -2.3439    1.0000 </r>
       <r>   -2.2751    1.0000 </r>
       <r>   -2.0954    1.0000 </r>
       <r>   -2.0472    1.0000 </r>
       <r>   -1.7373    1.0000 </r>
       <r>    0.5680    0.0000 </r>
       <r>    0.9112    0.0000 </r>
       <r>    1.1822    0.0000 </r>
       <r>    1.2717    0.0000 </r>
       <r>    1.3115    0.0000 </r>
       <r>    1.3394    0.0000 </r>
       <r>    1.3933    0.0000 </r>
       <r>    1.4279    0.0000 </r>
       <r>    1.5307    0.0000 </r>
       <r>    1.7303    0.0000 </r>
       <r>    1.7829    0.0000 </r>
       <r>    5.4293    0.0000 </r>
      </set>
      <set comment="kpoint 7">
       <r>  -35.5559    1.0000 </r>
       <r>  -34.3899    1.0000 </r>
       <r>  -34.3781    1.0000 </r>
       <r>  -34.1767    1.0000 </r>
       <r>  -18.9674    1.0000 </r>
       <r>  -18.8191    1.0000 </r>
       <r>  -18.5823    1.0000 </r>
       <r>  -18.2933    1.0000 </r>
       <r>  -18.2544    1.0000 </r>
       <r>  -18.1148    1.0000 </r>
       <r>  -17.9775    1.0000 </r>
       <r>  -17.9680    1.0000 </r>
       <r>  -17.9167    1.0000 </r>
       <r>  -17.7959    1.0000 </r>
       <r>  -17.5650    1.0000 </r>
       <r>  -17.5084    1.0000 </r>
       <r>  -17.3522    1.0000 </r>
       <r>  -17.2640    1.0000 </r>
       <r>  -16.5812    1.0000 </r>
       <r>  -16.4605    1.0000 </r>
       <r>  -16.4116    1.0000 </r>
       <r>  -16.3306    1.0000 </r>
       <r>  -16.2240    1.0000 </r>
       <r>  -16.1595    1.0000 </r>
       <r>  -16.1416    1.0000 </r>
       <r>  -16.0436    1.0000 </r>
       <r>  -15.9858    1.0000 </r>
       <r>  -15.9087    1.0000 </r>
       <r>   -5.8975    1.0000 </r>
       <r>   -5.8299    1.0000 </r>
       <r>   -5.7862    1.0000 </r>
       <r>   -5.7464    1.0000 </r>
       <r>   -5.5766    1.0000 </r>
       <r>   -5.4205    1.0000 </r>
       <r>   -5.2576    1.0000 </r>
       <r>   -5.0911    1.0000 </r>
       <r>   -4.9146    1.0000 </r>
       <r>   -4.8221    1.0000 </r>
       <r>   -4.6546    1.0000 </r>
       <r>   -4.6142    1.0000 </r>
       <r>   -4.5895    1.0000 </r>
       <r>   -4.5499    1.0000 </r>
       <r>   -4.5152    1.0000 </r>
       <r>   -4.4247    1.0000 </r>
       <r>   -4.2297    1.0000 </r>
       <r>   -3.9934    1.0000 </r>
       <r>   -3.9061    1.0000 </r>
       <r>   -3.8061    1.0000 </r>
       <r>   -3.6786    1.0000 </r>
       <r>   -3.3790    1.0000 </r>
       <r>   -3.2182    1.0000 </r>
       <r>   -3.1354    1.0000 </r>
       <r>   -2.9012    1.0000 </r>
       <r>   -2.8374    1.0000 </r>
       <r>   -2.7858    1.0000 </r>
       <r>   -2.7604    1.0000 </r>
       <r>   -2.7277    1.0000 </r>
       <r>   -2.6478    1.0000 </r>
       <r>   -2.5172    1.0000 </r>
       <r>   -2.4436    1.0000 </r>
       <r>   -2.3590    1.0000 </r>
       <r>   -2.0425    1.0000 </r>
       <r>   -1.8526    1.0000 </r>
       <r>   -1.7557    1.0000 </r>
       <r>    0.6050    0.0000 </r>
       <r>    0.9637    0.0000 </r>
       <r>    1.4068    0.0000 </r>
       <r>    1.7748    0.0000 </r>
       <r>    1.7857    0.0000 </r>
       <r>    1.7929    0.0000 </r>
       <r>    1.8320    0.0000 </r>
       <r>    1.8540    0.0000 </r>
       <r>    1.9057    0.0000 </r>
       <r>    2.0223    0.0000 </r>
       <r>    2.1550    0.0000 </r>
       <r>    6.1211    0.0000 </r>
      </set>
      <set comment="kpoint 8">
       <r>  -35.5549    1.0000 </r>
       <r>  -34.3888    1.0000 </r>
       <r>  -34.3769    1.0000 </r>
       <r>  -34.1755    1.0000 </r>
       <r>  -18.7936    1.0000 </r>
       <r>  -18.7023    1.0000 </r>
       <r>  -18.5384    1.0000 </r>
       <r>  -18.2161    1.0000 </r>
       <r>  -18.1712    1.0000 </r>
       <r>  -18.0571    1.0000 </r>
       <r>  -18.0109    1.0000 </r>
       <r>  -17.9454    1.0000 </r>
       <r>  -17.9280    1.0000 </r>
       <r>  -17.9101    1.0000 </r>
       <r>  -17.5027    1.0000 </r>
       <r>  -17.4851    1.0000 </r>
       <r>  -17.4002    1.0000 </r>
       <r>  -17.2707    1.0000 </r>
       <r>  -16.7464    1.0000 </r>
       <r>  -16.4972    1.0000 </r>
       <r>  -16.4148    1.0000 </r>
       <r>  -16.3577    1.0000 </r>
       <r>  -16.3169    1.0000 </r>
       <r>  -16.2200    1.0000 </r>
       <r>  -16.1414    1.0000 </r>
       <r>  -16.1358    1.0000 </r>
       <r>  -16.0314    1.0000 </r>
       <r>  -15.9968    1.0000 </r>
       <r>   -5.7452    1.0000 </r>
       <r>   -5.5936    1.0000 </r>
       <r>   -5.5417    1.0000 </r>
       <r>   -5.3840    1.0000 </r>
       <r>   -5.2434    1.0000 </r>
       <r>   -5.0880    1.0000 </r>
       <r>   -5.0637    1.0000 </r>
       <r>   -5.0320    1.0000 </r>
       <r>   -5.0259    1.0000 </r>
       <r>   -4.9302    1.0000 </r>
       <r>   -4.9087    1.0000 </r>
       <r>   -4.8838    1.0000 </r>
       <r>   -4.7841    1.0000 </r>
       <r>   -4.6858    1.0000 </r>
       <r>   -4.6407    1.0000 </r>
       <r>   -4.5992    1.0000 </r>
       <r>   -4.5570    1.0000 </r>
       <r>   -4.5071    1.0000 </r>
       <r>   -4.2153    1.0000 </r>
       <r>   -4.1792    1.0000 </r>
       <r>   -3.9213    1.0000 </r>
       <r>   -3.6323    1.0000 </r>
       <r>   -3.5916    1.0000 </r>
       <r>   -3.2099    1.0000 </r>
       <r>   -2.9230    1.0000 </r>
       <r>   -2.7553    1.0000 </r>
       <r>   -2.4760    1.0000 </r>
       <r>   -2.4412    1.0000 </r>
       <r>   -2.3761    1.0000 </r>
       <r>   -2.3034    1.0000 </r>
       <r>   -2.2869    1.0000 </r>
       <r>   -2.1948    1.0000 </r>
       <r>   -2.1747    1.0000 </r>
       <r>   -2.0245    1.0000 </r>
       <r>   -1.9645    1.0000 </r>
       <r>   -1.3443    1.0000 </r>
       <r>    1.1576    0.0000 </r>
       <r>    1.3617    0.0000 </r>
       <r>    1.3734    0.0000 </r>
       <r>    1.5211    0.0000 </r>
       <r>    1.5953    0.0000 </r>
       <r>    1.6268    0.0000 </r>
       <r>    1.6828    0.0000 </r>
       <r>    1.7517    0.0000 </r>
       <r>    1.7643    0.0000 </r>
       <r>    1.8217    0.0000 </r>
       <r>    2.0098    0.0000 </r>
       <r>    2.0445    0.0000 </r>
      </set>
      <set comment="kpoint 9">
       <r>  -35.5498    1.0000 </r>
       <r>  -34.3829    1.0000 </r>
       <r>  -34.3712    1.0000 </r>
       <r>  -34.1697    1.0000 </r>
       <r>  -18.7246    1.0000 </r>
       <r>  -18.5905    1.0000 </r>
       <r>  -18.3743    1.0000 </r>
       <r>  -18.2323    1.0000 </r>
       <r>  -18.1048    1.0000 </r>
       <r>  -18.0581    1.0000 </r>
       <r>  -17.9924    1.0000 </r>
       <r>  -17.9182    1.0000 </r>
       <r>  -17.8858    1.0000 </r>
       <r>  -17.7824    1.0000 </r>
       <r>  -17.5880    1.0000 </r>
       <r>  -17.3802    1.0000 </r>
       <r>  -17.3580    1.0000 </r>
       <r>  -17.2755    1.0000 </r>
       <r>  -16.8084    1.0000 </r>
       <r>  -16.5354    1.0000 </r>
       <r>  -16.4654    1.0000 </r>
       <r>  -16.3925    1.0000 </r>
       <r>  -16.3071    1.0000 </r>
       <r>  -16.2656    1.0000 </r>
       <r>  -16.1629    1.0000 </r>
       <r>  -16.1141    1.0000 </r>
       <r>  -16.0799    1.0000 </r>
       <r>  -15.9951    1.0000 </r>
       <r>   -5.8964    1.0000 </r>
       <r>   -5.8373    1.0000 </r>
       <r>   -5.8208    1.0000 </r>
       <r>   -5.5708    1.0000 </r>
       <r>   -5.5104    1.0000 </r>
       <r>   -5.4921    1.0000 </r>
       <r>   -5.3672    1.0000 </r>
       <r>   -5.2782    1.0000 </r>
       <r>   -5.2144    1.0000 </r>
       <r>   -5.1507    1.0000 </r>
       <r>   -5.1166    1.0000 </r>
       <r>   -5.0568    1.0000 </r>
       <r>   -5.0034    1.0000 </r>
       <r>   -4.9402    1.0000 </r>
       <r>   -4.9014    1.0000 </r>
       <r>   -4.7278    1.0000 </r>
       <r>   -4.6134    1.0000 </r>
       <r>   -4.4973    1.0000 </r>
       <r>   -4.4614    1.0000 </r>
       <r>   -4.3469    1.0000 </r>
       <r>   -4.0789    1.0000 </r>
       <r>   -3.9360    1.0000 </r>
       <r>   -3.5920    1.0000 </r>
       <r>   -3.1035    1.0000 </r>
       <r>   -3.0031    1.0000 </r>
       <r>   -2.8388    1.0000 </r>
       <r>   -2.5120    1.0000 </r>
       <r>   -2.4553    1.0000 </r>
       <r>   -2.2357    1.0000 </r>
       <r>   -2.1773    1.0000 </r>
       <r>   -2.1719    1.0000 </r>
       <r>   -2.1208    1.0000 </r>
       <r>   -2.0753    1.0000 </r>
       <r>   -1.9589    1.0000 </r>
       <r>   -1.7623    1.0000 </r>
       <r>   -1.1865    1.0000 </r>
       <r>    1.2706    0.0000 </r>
       <r>    1.4922    0.0000 </r>
       <r>    1.7646    0.0000 </r>
       <r>    1.8055    0.0000 </r>
       <r>    1.9335    0.0000 </r>
       <r>    1.9693    0.0000 </r>
       <r>    2.0266    0.0000 </r>
       <r>    2.0426    0.0000 </r>
       <r>    2.0870    0.0000 </r>
       <r>    2.1152    0.0000 </r>
       <r>    2.3572    0.0000 </r>
       <r>    6.1128    0.0000 </r>
      </set>
      <set comment="kpoint 10">
       <r>  -35.5450    1.0000 </r>
       <r>  -34.3772    1.0000 </r>
       <r>  -34.3657    1.0000 </r>
       <r>  -34.1640    1.0000 </r>
       <r>  -18.4502    1.0000 </r>
       <r>  -18.3469    1.0000 </r>
       <r>  -18.2558    1.0000 </r>
       <r>  -18.1626    1.0000 </r>
       <r>  -18.1098    1.0000 </r>
       <r>  -18.0208    1.0000 </r>
       <r>  -17.9236    1.0000 </r>
       <r>  -17.9061    1.0000 </r>
       <r>  -17.8827    1.0000 </r>
       <r>  -17.7755    1.0000 </r>
       <r>  -17.4825    1.0000 </r>
       <r>  -17.3760    1.0000 </r>
       <r>  -17.2887    1.0000 </r>
       <r>  -17.2601    1.0000 </r>
       <r>  -17.0725    1.0000 </r>
       <r>  -16.5788    1.0000 </r>
       <r>  -16.5241    1.0000 </r>
       <r>  -16.5234    1.0000 </r>
       <r>  -16.4153    1.0000 </r>
       <r>  -16.2655    1.0000 </r>
       <r>  -16.2532    1.0000 </r>
       <r>  -16.1804    1.0000 </r>
       <r>  -16.0559    1.0000 </r>
       <r>  -16.0374    1.0000 </r>
       <r>   -6.0096    1.0000 </r>
       <r>   -5.9667    1.0000 </r>
       <r>   -5.9459    1.0000 </r>
       <r>   -5.8769    1.0000 </r>
       <r>   -5.6612    1.0000 </r>
       <r>   -5.6324    1.0000 </r>
       <r>   -5.6026    1.0000 </r>
       <r>   -5.5922    1.0000 </r>
       <r>   -5.5595    1.0000 </r>
       <r>   -5.3824    1.0000 </r>
       <r>   -5.3466    1.0000 </r>
       <r>   -5.2145    1.0000 </r>
       <r>   -5.1666    1.0000 </r>
       <r>   -5.1352    1.0000 </r>
       <r>   -4.9841    1.0000 </r>
       <r>   -4.9261    1.0000 </r>
       <r>   -4.9063    1.0000 </r>
       <r>   -4.6767    1.0000 </r>
       <r>   -4.6100    1.0000 </r>
       <r>   -4.5731    1.0000 </r>
       <r>   -4.1444    1.0000 </r>
       <r>   -4.0010    1.0000 </r>
       <r>   -3.8699    1.0000 </r>
       <r>   -2.9916    1.0000 </r>
       <r>   -2.9402    1.0000 </r>
       <r>   -2.8760    1.0000 </r>
       <r>   -2.4680    1.0000 </r>
       <r>   -2.4287    1.0000 </r>
       <r>   -2.0583    1.0000 </r>
       <r>   -2.0207    1.0000 </r>
       <r>   -1.8169    1.0000 </r>
       <r>   -1.7928    1.0000 </r>
       <r>   -1.7630    1.0000 </r>
       <r>   -1.7229    1.0000 </r>
       <r>   -1.7191    1.0000 </r>
       <r>   -0.8560    1.0000 </r>
       <r>    1.7883    0.0000 </r>
       <r>    1.8315    0.0000 </r>
       <r>    1.9553    0.0000 </r>
       <r>    1.9986    0.0000 </r>
       <r>    2.1404    0.0000 </r>
       <r>    2.2084    0.0000 </r>
       <r>    2.2460    0.0000 </r>
       <r>    2.2864    0.0000 </r>
       <r>    2.3378    0.0000 </r>
       <r>    5.5885    0.0000 </r>
       <r>    5.7468    0.0000 </r>
       <r>    5.7675    0.0000 </r>
      </set>
     </set>
    </set>
   </array>
  </eigenvalues>
  <separator name="orbital magnetization" >
   <v name="MAGDIPOLOUT">      0.00000000      0.00000000      0.00000000</v>
  </separator>
  <dos>
   <i name="efermi">     -0.77583182 </i>
   <total>
    <array>
     <dimension dim="1">gridpoints</dimension>
     <dimension dim="2">spin</dimension>
     <field>energy</field>
     <field>total</field>
     <field>integrated</field>
     <set>
      <set comment="spin 1">
       <r>   -37.6581     0.0000     0.0000 </r>
       <r>   -37.5053     0.0000     0.0000 </r>
       <r>   -37.3524     0.0000     0.0000 </r>
       <r>   -37.1995     0.0000     0.0000 </r>
       <r>   -37.0466     0.0000     0.0000 </r>
       <r>   -36.8937     0.0000     0.0000 </r>
       <r>   -36.7409     0.0000     0.0000 </r>
       <r>   -36.5880     0.0000     0.0000 </r>
       <r>   -36.4351     0.0000     0.0000 </r>
       <r>   -36.2822     0.0000     0.0000 </r>
       <r>   -36.1293     0.0000     0.0000 </r>
       <r>   -35.9765     0.0000     0.0000 </r>
       <r>   -35.8236     0.0000     0.0000 </r>
       <r>   -35.6707     0.0000     0.0000 </r>
       <r>   -35.5178     0.0000     2.0000 </r>
       <r>   -35.3649     0.0000     2.0000 </r>
       <r>   -35.2121     0.0000     2.0000 </r>
       <r>   -35.0592     0.0000     2.0000 </r>
       <r>   -34.9063     0.0000     2.0000 </r>
       <r>   -34.7534     0.0000     2.0000 </r>
       <r>   -34.6005     0.0000     2.0000 </r>
       <r>   -34.4477     0.0000     2.0000 </r>
       <r>   -34.2948     0.0000     6.0000 </r>
       <r>   -34.1419     0.0000     8.0000 </r>
       <r>   -33.9890     0.0000     8.0000 </r>
       <r>   -33.8361     0.0000     8.0000 </r>
       <r>   -33.6833     0.0000     8.0000 </r>
       <r>   -33.5304     0.0000     8.0000 </r>
       <r>   -33.3775     0.0000     8.0000 </r>
       <r>   -33.2246     0.0000     8.0000 </r>
       <r>   -33.0717     0.0000     8.0000 </r>
       <r>   -32.9189     0.0000     8.0000 </r>
       <r>   -32.7660     0.0000     8.0000 </r>
       <r>   -32.6131     0.0000     8.0000 </r>
       <r>   -32.4602     0.0000     8.0000 </r>
       <r>   -32.3073     0.0000     8.0000 </r>
       <r>   -32.1545     0.0000     8.0000 </r>
       <r>   -32.0016     0.0000     8.0000 </r>
       <r>   -31.8487     0.0000     8.0000 </r>
       <r>   -31.6958     0.0000     8.0000 </r>
       <r>   -31.5429     0.0000     8.0000 </r>
       <r>   -31.3901     0.0000     8.0000 </r>
       <r>   -31.2372     0.0000     8.0000 </r>
       <r>   -31.0843     0.0000     8.0000 </r>
       <r>   -30.9314     0.0000     8.0000 </r>
       <r>   -30.7785     0.0000     8.0000 </r>
       <r>   -30.6257     0.0000     8.0000 </r>
       <r>   -30.4728     0.0000     8.0000 </r>
       <r>   -30.3199     0.0000     8.0000 </r>
       <r>   -30.1670     0.0000     8.0000 </r>
       <r>   -30.0141     0.0000     8.0000 </r>
       <r>   -29.8613     0.0000     8.0000 </r>
       <r>   -29.7084     0.0000     8.0000 </r>
       <r>   -29.5555     0.0000     8.0000 </r>
       <r>   -29.4026     0.0000     8.0000 </r>
       <r>   -29.2497     0.0000     8.0000 </r>
       <r>   -29.0969     0.0000     8.0000 </r>
       <r>   -28.9440     0.0000     8.0000 </r>
       <r>   -28.7911     0.0000     8.0000 </r>
       <r>   -28.6382     0.0000     8.0000 </r>
       <r>   -28.4853     0.0000     8.0000 </r>
       <r>   -28.3325     0.0000     8.0000 </r>
       <r>   -28.1796     0.0000     8.0000 </r>
       <r>   -28.0267     0.0000     8.0000 </r>
       <r>   -27.8738     0.0000     8.0000 </r>
       <r>   -27.7209     0.0000     8.0000 </r>
       <r>   -27.5681     0.0000     8.0000 </r>
       <r>   -27.4152     0.0000     8.0000 </r>
       <r>   -27.2623     0.0000     8.0000 </r>
       <r>   -27.1094     0.0000     8.0000 </r>
       <r>   -26.9565     0.0000     8.0000 </r>
       <r>   -26.8037     0.0000     8.0000 </r>
       <r>   -26.6508     0.0000     8.0000 </r>
       <r>   -26.4979     0.0000     8.0000 </r>
       <r>   -26.3450     0.0000     8.0000 </r>
       <r>   -26.1921     0.0000     8.0000 </r>
       <r>   -26.0393     0.0000     8.0000 </r>
       <r>   -25.8864     0.0000     8.0000 </r>
       <r>   -25.7335     0.0000     8.0000 </r>
       <r>   -25.5806     0.0000     8.0000 </r>
       <r>   -25.4277     0.0000     8.0000 </r>
       <r>   -25.2749     0.0000     8.0000 </r>
       <r>   -25.1220     0.0000     8.0000 </r>
       <r>   -24.9691     0.0000     8.0000 </r>
       <r>   -24.8162     0.0000     8.0000 </r>
       <r>   -24.6633     0.0000     8.0000 </r>
       <r>   -24.5105     0.0000     8.0000 </r>
       <r>   -24.3576     0.0000     8.0000 </r>
       <r>   -24.2047     0.0000     8.0000 </r>
       <r>   -24.0518     0.0000     8.0000 </r>
       <r>   -23.8989     0.0000     8.0000 </r>
       <r>   -23.7461     0.0000     8.0000 </r>
       <r>   -23.5932     0.0000     8.0000 </r>
       <r>   -23.4403     0.0000     8.0000 </r>
       <r>   -23.2874     0.0000     8.0000 </r>
       <r>   -23.1345     0.0000     8.0000 </r>
       <r>   -22.9817     0.0000     8.0000 </r>
       <r>   -22.8288     0.0000     8.0000 </r>
       <r>   -22.6759     0.0000     8.0000 </r>
       <r>   -22.5230     0.0000     8.0000 </r>
       <r>   -22.3701     0.0000     8.0000 </r>
       <r>   -22.2173     0.0000     8.0000 </r>
       <r>   -22.0644     0.0000     8.0000 </r>
       <r>   -21.9115     0.0000     8.0000 </r>
       <r>   -21.7586     0.0000     8.0000 </r>
       <r>   -21.6057     0.0000     8.0000 </r>
       <r>   -21.4529     0.0000     8.0000 </r>
       <r>   -21.3000     0.0000     8.0000 </r>
       <r>   -21.1471     0.0000     8.0000 </r>
       <r>   -20.9942     0.0000     8.0000 </r>
       <r>   -20.8413     0.0000     8.0000 </r>
       <r>   -20.6885     0.0000     8.0000 </r>
       <r>   -20.5356     0.0000     8.0000 </r>
       <r>   -20.3827     0.0000     8.0000 </r>
       <r>   -20.2298     0.0000     8.0000 </r>
       <r>   -20.0769     0.0000     8.0000 </r>
       <r>   -19.9241     0.0000     8.0000 </r>
       <r>   -19.7712     0.0000     8.0000 </r>
       <r>   -19.6183     0.0000     8.0000 </r>
       <r>   -19.4654     0.0000     8.0000 </r>
       <r>   -19.3125     0.0000     8.0000 </r>
       <r>   -19.1597     0.0000     8.0000 </r>
       <r>   -19.0068    10.7137     8.5139 </r>
       <r>   -18.8539    12.3909    10.6039 </r>
       <r>   -18.7010     6.9424    11.9382 </r>
       <r>   -18.5481     4.6469    12.9942 </r>
       <r>   -18.3953     2.7560    13.6042 </r>
       <r>   -18.2424    13.7020    15.8875 </r>
       <r>   -18.0895    15.6480    18.3143 </r>
       <r>   -17.9366    27.0973    23.3719 </r>
       <r>   -17.7837    14.3206    27.7324 </r>
       <r>   -17.6309     5.2838    28.6213 </r>
       <r>   -17.4780    39.8586    30.8113 </r>
       <r>   -17.3251     3.7427    33.8483 </r>
       <r>   -17.1722     0.1709    36.0052 </r>
       <r>   -17.0193     1.3802    36.1421 </r>
       <r>   -16.8665     2.5660    36.4594 </r>
       <r>   -16.7136     5.9620    37.1390 </r>
       <r>   -16.5607     8.9763    37.9418 </r>
       <r>   -16.4078    60.9206    41.5306 </r>
       <r>   -16.2549    26.4883    45.7824 </r>
       <r>   -16.1021    16.2413    51.1316 </r>
       <r>   -15.9492    17.2227    54.7640 </r>
       <r>   -15.7963     0.0000    56.0000 </r>
       <r>   -15.6434     0.0000    56.0000 </r>
       <r>   -15.4905     0.0000    56.0000 </r>
       <r>   -15.3377     0.0000    56.0000 </r>
       <r>   -15.1848     0.0000    56.0000 </r>
       <r>   -15.0319     0.0000    56.0000 </r>
       <r>   -14.8790     0.0000    56.0000 </r>
       <r>   -14.7261     0.0000    56.0000 </r>
       <r>   -14.5733     0.0000    56.0000 </r>
       <r>   -14.4204     0.0000    56.0000 </r>
       <r>   -14.2675     0.0000    56.0000 </r>
       <r>   -14.1146     0.0000    56.0000 </r>
       <r>   -13.9617     0.0000    56.0000 </r>
       <r>   -13.8089     0.0000    56.0000 </r>
       <r>   -13.6560     0.0000    56.0000 </r>
       <r>   -13.5031     0.0000    56.0000 </r>
       <r>   -13.3502     0.0000    56.0000 </r>
       <r>   -13.1973     0.0000    56.0000 </r>
       <r>   -13.0445     0.0000    56.0000 </r>
       <r>   -12.8916     0.0000    56.0000 </r>
       <r>   -12.7387     0.0000    56.0000 </r>
       <r>   -12.5858     0.0000    56.0000 </r>
       <r>   -12.4329     0.0000    56.0000 </r>
       <r>   -12.2801     0.0000    56.0000 </r>
       <r>   -12.1272     0.0000    56.0000 </r>
       <r>   -11.9743     0.0000    56.0000 </r>
       <r>   -11.8214     0.0000    56.0000 </r>
       <r>   -11.6685     0.0000    56.0000 </r>
       <r>   -11.5157     0.0000    56.0000 </r>
       <r>   -11.3628     0.0000    56.0000 </r>
       <r>   -11.2099     0.0000    56.0000 </r>
       <r>   -11.0570     0.0000    56.0000 </r>
       <r>   -10.9041     0.0000    56.0000 </r>
       <r>   -10.7513     0.0000    56.0000 </r>
       <r>   -10.5984     0.0000    56.0000 </r>
       <r>   -10.4455     0.0000    56.0000 </r>
       <r>   -10.2926     0.0000    56.0000 </r>
       <r>   -10.1397     0.0000    56.0000 </r>
       <r>    -9.9869     0.0000    56.0000 </r>
       <r>    -9.8340     0.0000    56.0000 </r>
       <r>    -9.6811     0.0000    56.0000 </r>
       <r>    -9.5282     0.0000    56.0000 </r>
       <r>    -9.3753     0.0000    56.0000 </r>
       <r>    -9.2225     0.0000    56.0000 </r>
       <r>    -9.0696     0.0000    56.0000 </r>
       <r>    -8.9167     0.0000    56.0000 </r>
       <r>    -8.7638     0.0000    56.0000 </r>
       <r>    -8.6109     0.0000    56.0000 </r>
       <r>    -8.4581     0.0000    56.0000 </r>
       <r>    -8.3052     0.0000    56.0000 </r>
       <r>    -8.1523     0.0000    56.0000 </r>
       <r>    -7.9994     0.0000    56.0000 </r>
       <r>    -7.8465     0.0000    56.0000 </r>
       <r>    -7.6937     0.0000    56.0000 </r>
       <r>    -7.5408     0.0000    56.0000 </r>
       <r>    -7.3879     0.0000    56.0000 </r>
       <r>    -7.2350     0.0000    56.0000 </r>
       <r>    -7.0821     0.0000    56.0000 </r>
       <r>    -6.9293     0.0000    56.0000 </r>
       <r>    -6.7764     0.0000    56.0000 </r>
       <r>    -6.6235     0.0000    56.0000 </r>
       <r>    -6.4706     0.0000    56.0000 </r>
       <r>    -6.3177     0.0000    56.0000 </r>
       <r>    -6.1649     0.0000    56.0000 </r>
       <r>    -6.0120     0.0000    56.0000 </r>
       <r>    -5.8591    12.4673    57.3741 </r>
       <r>    -5.7062    17.3704    59.8938 </r>
       <r>    -5.5533    15.7525    62.1258 </r>
       <r>    -5.4005    12.1879    64.4535 </r>
       <r>    -5.2476    15.1684    66.8212 </r>
       <r>    -5.0947    17.0993    69.4364 </r>
       <r>    -4.9418    17.7698    72.2680 </r>
       <r>    -4.7889    19.0052    75.2932 </r>
       <r>    -4.6361    22.4776    78.4140 </r>
       <r>    -4.4832    28.0391    82.6935 </r>
       <r>    -4.3303    14.6967    86.0946 </r>
       <r>    -4.1774    11.9409    88.0770 </r>
       <r>    -4.0245    11.8683    90.1392 </r>
       <r>    -3.8717    12.2366    92.3574 </r>
       <r>    -3.7188    13.1879    94.4460 </r>
       <r>    -3.5659    10.7575    96.3065 </r>
       <r>    -3.4130     8.6859    97.9328 </r>
       <r>    -3.2601     9.7638    99.3762 </r>
       <r>    -3.1073    19.8519   101.7613 </r>
       <r>    -2.9544    17.8793   104.0018 </r>
       <r>    -2.8015    21.7128   107.1125 </r>
       <r>    -2.6486    20.2260   110.0678 </r>
       <r>    -2.4957    28.0093   113.8123 </r>
       <r>    -2.3429    31.5554   117.1714 </r>
       <r>    -2.1900    17.8565   120.2267 </r>
       <r>    -2.0371    18.2620   122.9195 </r>
       <r>    -1.8842     9.4215   124.8564 </r>
       <r>    -1.7313    10.4869   126.6366 </r>
       <r>    -1.5785     1.9269   127.2311 </r>
       <r>    -1.4256     1.1088   127.4511 </r>
       <r>    -1.2727     1.0370   127.6061 </r>
       <r>    -1.1198     0.9579   127.7677 </r>
       <r>    -0.9669     0.6890   127.8936 </r>
       <r>    -0.8141     0.0000   128.0000 </r>
       <r>    -0.6612     0.0000   128.0000 </r>
       <r>    -0.5083     0.0000   128.0000 </r>
       <r>    -0.3554     0.0000   128.0000 </r>
       <r>    -0.2025     0.0000   128.0000 </r>
       <r>    -0.0497     0.0000   128.0000 </r>
       <r>     0.1032     0.3626   128.0087 </r>
       <r>     0.2561     2.7479   128.1919 </r>
       <r>     0.4090     4.1766   128.7792 </r>
       <r>     0.5619     6.4672   129.5697 </r>
       <r>     0.7147     6.2012   130.4503 </r>
       <r>     0.8676     9.7298   131.6949 </r>
       <r>     1.0205     7.2912   132.9105 </r>
       <r>     1.1734     8.6891   134.1135 </r>
       <r>     1.3263    14.0402   135.7701 </r>
       <r>     1.4791    12.2950   137.6701 </r>
       <r>     1.6320    13.3351   139.6153 </r>
       <r>     1.7849    32.6933   142.3482 </r>
       <r>     1.9378    14.7391   145.3837 </r>
       <r>     2.0907    11.8013   147.4937 </r>
       <r>     2.2435     4.3246   148.6521 </r>
       <r>     2.3964     0.5077   149.0923 </r>
       <r>     2.5493     0.4981   149.1692 </r>
       <r>     2.7022     0.4885   149.2446 </r>
       <r>     2.8551     0.4789   149.3186 </r>
       <r>     3.0079     0.4693   149.3911 </r>
       <r>     3.1608     0.4598   149.4621 </r>
       <r>     3.3137     0.4502   149.5316 </r>
       <r>     3.4666     0.4406   149.5997 </r>
       <r>     3.6195     0.4310   149.6664 </r>
       <r>     3.7723     0.4214   149.7315 </r>
       <r>     3.9252     0.4119   149.7952 </r>
       <r>     4.0781     0.4829   149.8583 </r>
       <r>     4.2310     0.9632   149.9689 </r>
       <r>     4.3839     0.7845   150.0987 </r>
       <r>     4.5367     0.7206   150.2131 </r>
       <r>     4.6896     0.6955   150.3201 </r>
       <r>     4.8425     0.7133   150.4278 </r>
       <r>     4.9954     0.7311   150.5382 </r>
       <r>     5.1483     0.7489   150.6513 </r>
       <r>     5.3012     0.8090   150.7685 </r>
       <r>     5.4540     0.7861   150.8980 </r>
       <r>     5.6069     0.7662   151.0601 </r>
       <r>     5.7598     0.7480   151.2197 </r>
       <r>     5.9127     1.8144   151.4872 </r>
       <r>     6.0656     1.6631   151.7531 </r>
       <r>     6.2184     0.0000   152.0000 </r>
       <r>     6.3713     0.0000   152.0000 </r>
       <r>     6.5242     0.0000   152.0000 </r>
       <r>     6.6771     0.0000   152.0000 </r>
       <r>     6.8300     0.0000   152.0000 </r>
       <r>     6.9828     0.0000   152.0000 </r>
       <r>     7.1357     0.0000   152.0000 </r>
       <r>     7.2886     0.0000   152.0000 </r>
       <r>     7.4415     0.0000   152.0000 </r>
       <r>     7.5944     0.0000   152.0000 </r>
       <r>     7.7472     0.0000   152.0000 </r>
       <r>     7.9001     0.0000   152.0000 </r>
       <r>     8.0530     0.0000   152.0000 </r>
       <r>     8.2059     0.0000   152.0000 </r>
      </set>
     </set>
    </array>
   </total>
  </dos>
 </calculation>
 <structure name="finalpos" >
  <crystal>
   <varray name="basis" >
    <v>       3.94684634       0.00000000       0.00000000 </v>
    <v>       0.00000000       3.94684634       0.00000000 </v>
    <v>       0.00000000       0.00000000      39.81396220 </v>
   </varray>
   <i name="volume">    620.20582001 </i>
   <varray name="rec_basis" >
    <v>       0.25336684       0.00000000       0.00000000 </v>
    <v>       0.00000000       0.25336684       0.00000000 </v>
    <v>       0.00000000       0.00000000       0.02511682 </v>
   </varray>
  </crystal>
  <varray name="positions" >
   <v>       0.50000000       0.50000000       0.32651862 </v>
   <v>       0.50000000       0.00000000       0.37608473 </v>
   <v>       0.00000000       0.50000000       0.37608473 </v>
   <v>       0.50000000       0.50000000       0.42565084 </v>
   <v>       0.50000000       0.00000000       0.47521695 </v>
   <v>       0.00000000       0.50000000       0.47521695 </v>
   <v>       0.50000000       0.50000000       0.52478305 </v>
   <v>       0.50000000       0.00000000       0.57434916 </v>
   <v>       0.00000000       0.50000000       0.57434916 </v>
   <v>       0.50000000       0.50000000       0.62391527 </v>
   <v>       0.50000000       0.00000000       0.67348138 </v>
   <v>       0.00000000       0.50000000       0.67348138 </v>
   <v>       0.00000000       0.00000000       0.32651862 </v>
   <v>       0.00000000       0.00000000       0.42565084 </v>
   <v>       0.00000000       0.00000000       0.52478305 </v>
   <v>       0.00000000       0.00000000       0.62391527 </v>
   <v>       0.50000000       0.50000000       0.37608473 </v>
   <v>       0.50000000       0.50000000       0.47521695 </v>
   <v>       0.50000000       0.50000000       0.57434916 </v>
   <v>       0.50000000       0.50000000       0.67348138 </v>
  </varray>
 </structure>
</modeling>
