unknown system                          
           1
     3.946846    0.000000    0.000000
     0.000000    3.946846    0.000000
     0.000000    0.000000   39.813962
   O    Sr   Ti
  12   4   4
Direct configuration=     1
   0.50000000  0.50000000  0.32651862
   0.50000000  0.00000000  0.37608473
   0.00000000  0.50000000  0.37608473
   0.50000000  0.50000000  0.42565084
   0.50000000  0.00000000  0.47521695
   0.00000000  0.50000000  0.47521695
   0.50000000  0.50000000  0.52478305
   0.50000000  0.00000000  0.57434916
   0.00000000  0.50000000  0.57434916
   0.50000000  0.50000000  0.62391527
   0.50000000  0.00000000  0.67348138
   0.00000000  0.50000000  0.67348138
   0.00000000  0.00000000  0.32651862
   0.00000000  0.00000000  0.42565084
   0.00000000  0.00000000  0.52478305
   0.00000000  0.00000000  0.62391527
   0.50000000  0.50000000  0.37608473
   0.50000000  0.50000000  0.47521695
   0.50000000  0.50000000  0.57434916
   0.50000000  0.50000000  0.67348138
