  20  20   0   0
  0.1957362E+02  0.3905268E-09  0.3905268E-09  0.2566844E-08  0.5000000E-15
  1.000000000000000E-004
  CAR 
 unknown system                          
      9.87990020    -35.87178556  301      0.74862625      1.00000000
    -35.872  0.0000E+00  0.0000E+00
    -35.719  0.0000E+00  0.0000E+00
    -35.567  0.0000E+00  0.0000E+00
    -35.414  0.0000E+00  0.0000E+00
    -35.262  0.0000E+00  0.0000E+00
    -35.109  0.0000E+00  0.0000E+00
    -34.957  0.0000E+00  0.0000E+00
    -34.804  0.0000E+00  0.0000E+00
    -34.652  0.0000E+00  0.0000E+00
    -34.499  0.0000E+00  0.0000E+00
    -34.347  0.0000E+00  0.0000E+00
    -34.194  0.0000E+00  0.0000E+00
    -34.042  0.0000E+00  0.0000E+00
    -33.889  0.0000E+00  0.0000E+00
    -33.737  0.0000E+00  0.2000E+01
    -33.584  0.0000E+00  0.2000E+01
    -33.432  0.0000E+00  0.2000E+01
    -33.279  0.0000E+00  0.2000E+01
    -33.127  0.0000E+00  0.2000E+01
    -32.974  0.0000E+00  0.2000E+01
    -32.822  0.0000E+00  0.2000E+01
    -32.669  0.0000E+00  0.6000E+01
    -32.517  0.0000E+00  0.8000E+01
    -32.364  0.0000E+00  0.8000E+01
    -32.212  0.0000E+00  0.8000E+01
    -32.059  0.0000E+00  0.8000E+01
    -31.907  0.0000E+00  0.8000E+01
    -31.754  0.0000E+00  0.8000E+01
    -31.602  0.0000E+00  0.8000E+01
    -31.449  0.0000E+00  0.8000E+01
    -31.297  0.0000E+00  0.8000E+01
    -31.144  0.0000E+00  0.8000E+01
    -30.992  0.0000E+00  0.8000E+01
    -30.839  0.0000E+00  0.8000E+01
    -30.687  0.0000E+00  0.8000E+01
    -30.534  0.0000E+00  0.8000E+01
    -30.382  0.0000E+00  0.8000E+01
    -30.229  0.0000E+00  0.8000E+01
    -30.077  0.0000E+00  0.8000E+01
    -29.924  0.0000E+00  0.8000E+01
    -29.772  0.0000E+00  0.8000E+01
    -29.619  0.0000E+00  0.8000E+01
    -29.467  0.0000E+00  0.8000E+01
    -29.314  0.0000E+00  0.8000E+01
    -29.162  0.0000E+00  0.8000E+01
    -29.009  0.0000E+00  0.8000E+01
    -28.857  0.0000E+00  0.8000E+01
    -28.704  0.0000E+00  0.8000E+01
    -28.552  0.0000E+00  0.8000E+01
    -28.399  0.0000E+00  0.8000E+01
    -28.247  0.0000E+00  0.8000E+01
    -28.094  0.0000E+00  0.8000E+01
    -27.941  0.0000E+00  0.8000E+01
    -27.789  0.0000E+00  0.8000E+01
    -27.636  0.0000E+00  0.8000E+01
    -27.484  0.0000E+00  0.8000E+01
    -27.331  0.0000E+00  0.8000E+01
    -27.179  0.0000E+00  0.8000E+01
    -27.026  0.0000E+00  0.8000E+01
    -26.874  0.0000E+00  0.8000E+01
    -26.721  0.0000E+00  0.8000E+01
    -26.569  0.0000E+00  0.8000E+01
    -26.416  0.0000E+00  0.8000E+01
    -26.264  0.0000E+00  0.8000E+01
    -26.111  0.0000E+00  0.8000E+01
    -25.959  0.0000E+00  0.8000E+01
    -25.806  0.0000E+00  0.8000E+01
    -25.654  0.0000E+00  0.8000E+01
    -25.501  0.0000E+00  0.8000E+01
    -25.349  0.0000E+00  0.8000E+01
    -25.196  0.0000E+00  0.8000E+01
    -25.044  0.0000E+00  0.8000E+01
    -24.891  0.0000E+00  0.8000E+01
    -24.739  0.0000E+00  0.8000E+01
    -24.586  0.0000E+00  0.8000E+01
    -24.434  0.0000E+00  0.8000E+01
    -24.281  0.0000E+00  0.8000E+01
    -24.129  0.0000E+00  0.8000E+01
    -23.976  0.0000E+00  0.8000E+01
    -23.824  0.0000E+00  0.8000E+01
    -23.671  0.0000E+00  0.8000E+01
    -23.519  0.0000E+00  0.8000E+01
    -23.366  0.0000E+00  0.8000E+01
    -23.214  0.0000E+00  0.8000E+01
    -23.061  0.0000E+00  0.8000E+01
    -22.909  0.0000E+00  0.8000E+01
    -22.756  0.0000E+00  0.8000E+01
    -22.604  0.0000E+00  0.8000E+01
    -22.451  0.0000E+00  0.8000E+01
    -22.299  0.0000E+00  0.8000E+01
    -22.146  0.0000E+00  0.8000E+01
    -21.994  0.0000E+00  0.8000E+01
    -21.841  0.0000E+00  0.8000E+01
    -21.689  0.0000E+00  0.8000E+01
    -21.536  0.0000E+00  0.8000E+01
    -21.384  0.0000E+00  0.8000E+01
    -21.231  0.0000E+00  0.8000E+01
    -21.079  0.0000E+00  0.8000E+01
    -20.926  0.0000E+00  0.8000E+01
    -20.774  0.0000E+00  0.8000E+01
    -20.621  0.0000E+00  0.8000E+01
    -20.469  0.0000E+00  0.8000E+01
    -20.316  0.0000E+00  0.8000E+01
    -20.164  0.0000E+00  0.8000E+01
    -20.011  0.0000E+00  0.8000E+01
    -19.859  0.0000E+00  0.8000E+01
    -19.706  0.0000E+00  0.8000E+01
    -19.554  0.0000E+00  0.8000E+01
    -19.401  0.0000E+00  0.8000E+01
    -19.249  0.0000E+00  0.8000E+01
    -19.096  0.0000E+00  0.8000E+01
    -18.944  0.0000E+00  0.8000E+01
    -18.791  0.0000E+00  0.8000E+01
    -18.639  0.0000E+00  0.8000E+01
    -18.486  0.0000E+00  0.8000E+01
    -18.334  0.0000E+00  0.8000E+01
    -18.181  0.0000E+00  0.8000E+01
    -18.029  0.0000E+00  0.8000E+01
    -17.876  0.0000E+00  0.8000E+01
    -17.724  0.0000E+00  0.8000E+01
    -17.571  0.8893E+01  0.8626E+01
    -17.419  0.1460E+02  0.1035E+02
    -17.266  0.8800E+01  0.1191E+02
    -17.114  0.5191E+01  0.1301E+02
    -16.961  0.8791E+01  0.1422E+02
    -16.809  0.5255E+01  0.1530E+02
    -16.656  0.2105E+02  0.1655E+02
    -16.504  0.7589E+01  0.2178E+02
    -16.351  0.8213E+01  0.2631E+02
    -16.199  0.2546E+02  0.2767E+02
    -16.046  0.7057E+01  0.2959E+02
    -15.894  0.3520E+02  0.3131E+02
    -15.741  0.1443E+02  0.3299E+02
    -15.589  0.1331E+00  0.3600E+02
    -15.436  0.7439E+00  0.3607E+02
    -15.284  0.1355E+01  0.3623E+02
    -15.131  0.1966E+01  0.3648E+02
    -14.979  0.8699E+01  0.3752E+02
    -14.826  0.3335E+02  0.4017E+02
    -14.674  0.9218E+02  0.4606E+02
    -14.521  0.2980E+02  0.4975E+02
    -14.368  0.1798E+02  0.5491E+02
    -14.216  0.0000E+00  0.5600E+02
    -14.063  0.0000E+00  0.5600E+02
    -13.911  0.0000E+00  0.5600E+02
    -13.758  0.0000E+00  0.5600E+02
    -13.606  0.0000E+00  0.5600E+02
    -13.453  0.0000E+00  0.5600E+02
    -13.301  0.0000E+00  0.5600E+02
    -13.148  0.0000E+00  0.5600E+02
    -12.996  0.0000E+00  0.5600E+02
    -12.843  0.0000E+00  0.5600E+02
    -12.691  0.0000E+00  0.5600E+02
    -12.538  0.0000E+00  0.5600E+02
    -12.386  0.0000E+00  0.5600E+02
    -12.233  0.0000E+00  0.5600E+02
    -12.081  0.0000E+00  0.5600E+02
    -11.928  0.0000E+00  0.5600E+02
    -11.776  0.0000E+00  0.5600E+02
    -11.623  0.0000E+00  0.5600E+02
    -11.471  0.0000E+00  0.5600E+02
    -11.318  0.0000E+00  0.5600E+02
    -11.166  0.0000E+00  0.5600E+02
    -11.013  0.0000E+00  0.5600E+02
    -10.861  0.0000E+00  0.5600E+02
    -10.708  0.0000E+00  0.5600E+02
    -10.556  0.0000E+00  0.5600E+02
    -10.403  0.0000E+00  0.5600E+02
    -10.251  0.0000E+00  0.5600E+02
    -10.098  0.0000E+00  0.5600E+02
     -9.946  0.0000E+00  0.5600E+02
     -9.793  0.0000E+00  0.5600E+02
     -9.641  0.0000E+00  0.5600E+02
     -9.488  0.0000E+00  0.5600E+02
     -9.336  0.0000E+00  0.5600E+02
     -9.183  0.0000E+00  0.5600E+02
     -9.031  0.0000E+00  0.5600E+02
     -8.878  0.0000E+00  0.5600E+02
     -8.726  0.0000E+00  0.5600E+02
     -8.573  0.0000E+00  0.5600E+02
     -8.421  0.0000E+00  0.5600E+02
     -8.268  0.0000E+00  0.5600E+02
     -8.116  0.0000E+00  0.5600E+02
     -7.963  0.0000E+00  0.5600E+02
     -7.811  0.0000E+00  0.5600E+02
     -7.658  0.0000E+00  0.5600E+02
     -7.506  0.0000E+00  0.5600E+02
     -7.353  0.0000E+00  0.5600E+02
     -7.201  0.0000E+00  0.5600E+02
     -7.048  0.0000E+00  0.5600E+02
     -6.896  0.0000E+00  0.5600E+02
     -6.743  0.0000E+00  0.5600E+02
     -6.591  0.0000E+00  0.5600E+02
     -6.438  0.0000E+00  0.5600E+02
     -6.286  0.0000E+00  0.5600E+02
     -6.133  0.0000E+00  0.5600E+02
     -5.981  0.0000E+00  0.5600E+02
     -5.828  0.0000E+00  0.5600E+02
     -5.676  0.0000E+00  0.5600E+02
     -5.523  0.0000E+00  0.5600E+02
     -5.371  0.0000E+00  0.5600E+02
     -5.218  0.0000E+00  0.5600E+02
     -5.066  0.0000E+00  0.5600E+02
     -4.913  0.0000E+00  0.5600E+02
     -4.761  0.0000E+00  0.5600E+02
     -4.608  0.1958E+01  0.5609E+02
     -4.456  0.1099E+02  0.5722E+02
     -4.303  0.2420E+02  0.5917E+02
     -4.151  0.1369E+02  0.6122E+02
     -3.998  0.1686E+02  0.6366E+02
     -3.846  0.1574E+02  0.6610E+02
     -3.693  0.1502E+02  0.6844E+02
     -3.541  0.1763E+02  0.7104E+02
     -3.388  0.2030E+02  0.7401E+02
     -3.236  0.2227E+02  0.7718E+02
     -3.083  0.2534E+02  0.8084E+02
     -2.931  0.2278E+02  0.8466E+02
     -2.778  0.1688E+02  0.8768E+02
     -2.626  0.1473E+02  0.9006E+02
     -2.473  0.1339E+02  0.9220E+02
     -2.321  0.1277E+02  0.9422E+02
     -2.168  0.1121E+02  0.9606E+02
     -2.016  0.1260E+02  0.9789E+02
     -1.863  0.1273E+02  0.9967E+02
     -1.711  0.6251E+01  0.1011E+03
     -1.558  0.1664E+02  0.1033E+03
     -1.406  0.1504E+02  0.1058E+03
     -1.253  0.1640E+02  0.1079E+03
     -1.101  0.1404E+02  0.1101E+03
     -0.948  0.2556E+02  0.1135E+03
     -0.795  0.2868E+02  0.1165E+03
     -0.643  0.2444E+02  0.1213E+03
     -0.490  0.1255E+02  0.1238E+03
     -0.338  0.8599E+01  0.1254E+03
     -0.185  0.7450E+01  0.1266E+03
     -0.033  0.2757E+01  0.1274E+03
      0.120  0.1089E+01  0.1277E+03
      0.272  0.7817E+00  0.1278E+03
      0.425  0.4743E+00  0.1279E+03
      0.577  0.1670E+00  0.1280E+03
      0.730  0.0000E+00  0.1280E+03
      0.882  0.0000E+00  0.1280E+03
      1.035  0.0000E+00  0.1280E+03
      1.187  0.0000E+00  0.1280E+03
      1.340  0.0000E+00  0.1280E+03
      1.492  0.0000E+00  0.1280E+03
      1.645  0.5725E+00  0.1280E+03
      1.797  0.1811E+01  0.1282E+03
      1.950  0.2650E+01  0.1286E+03
      2.102  0.3159E+01  0.1290E+03
      2.255  0.3710E+01  0.1296E+03
      2.407  0.6373E+01  0.1303E+03
      2.560  0.7287E+01  0.1313E+03
      2.712  0.9023E+01  0.1327E+03
      2.865  0.1195E+02  0.1343E+03
      3.017  0.1335E+02  0.1363E+03
      3.170  0.1386E+02  0.1383E+03
      3.322  0.1594E+02  0.1406E+03
      3.475  0.1720E+02  0.1432E+03
      3.627  0.1558E+02  0.1457E+03
      3.780  0.1066E+02  0.1477E+03
      3.932  0.4875E+01  0.1489E+03
      4.085  0.1287E+01  0.1493E+03
      4.237  0.8515E+00  0.1495E+03
      4.390  0.8170E+00  0.1496E+03
      4.542  0.7825E+00  0.1497E+03
      4.695  0.7480E+00  0.1498E+03
      4.847  0.7135E+00  0.1499E+03
      5.000  0.6790E+00  0.1501E+03
      5.152  0.6446E+00  0.1502E+03
      5.305  0.6101E+00  0.1502E+03
      5.457  0.5756E+00  0.1503E+03
      5.610  0.5620E+00  0.1504E+03
      5.762  0.5414E+00  0.1505E+03
      5.915  0.5208E+00  0.1506E+03
      6.067  0.5002E+00  0.1507E+03
      6.220  0.4796E+00  0.1507E+03
      6.372  0.4591E+00  0.1508E+03
      6.525  0.4385E+00  0.1509E+03
      6.677  0.4179E+00  0.1509E+03
      6.830  0.3973E+00  0.1510E+03
      6.982  0.3767E+00  0.1511E+03
      7.135  0.3561E+00  0.1511E+03
      7.287  0.1260E+01  0.1512E+03
      7.440  0.2019E+01  0.1515E+03
      7.592  0.1566E+01  0.1517E+03
      7.745  0.1112E+01  0.1519E+03
      7.897  0.0000E+00  0.1520E+03
      8.050  0.0000E+00  0.1520E+03
      8.202  0.0000E+00  0.1520E+03
      8.355  0.0000E+00  0.1520E+03
      8.507  0.0000E+00  0.1520E+03
      8.660  0.0000E+00  0.1520E+03
      8.812  0.0000E+00  0.1520E+03
      8.965  0.0000E+00  0.1520E+03
      9.117  0.0000E+00  0.1520E+03
      9.270  0.0000E+00  0.1520E+03
      9.422  0.0000E+00  0.1520E+03
      9.575  0.0000E+00  0.1520E+03
      9.727  0.0000E+00  0.1520E+03
      9.880  0.0000E+00  0.1520E+03
