Automatically generated mesh
       6
Reciprocal lattice
    0.00000000000000    0.00000000000000    0.00000000000000             1
    0.25000000000000    0.00000000000000    0.00000000000000             4
    0.50000000000000    0.00000000000000    0.00000000000000             2
    0.25000000000000    0.25000000000000    0.00000000000000             4
    0.50000000000000    0.25000000000000    0.00000000000000             4
    0.50000000000000    0.50000000000000    0.00000000000000             1
Tetrahedra
        26    0.01041666666667
         4         1         1         2         4
         4         1         2         2         4
         4         1         2         4         4
         4         2         2         3         5
         4         2         2         4         5
         4         2         4         4         5
         4         2         3         3         5
         4         2         3         5         5
         4         2         4         5         5
         4         2         3         3         4
         4         3         3         4         5
         4         3         4         5         5
         4         2         2         3         4
         4         2         3         4         4
         4         3         4         4         5
         4         1         2         2         2
         4         2         2         2         4
         2         2         2         4         4
         2         1         1         2         2
         4         4         4         5         6
         4         4         5         5         6
         4         4         5         6         6
         4         4         5         5         5
         4         5         5         5         6
         2         5         5         6         6
         2         4         4         5         5
