       N       E                     dE             d eps       ncg     rms          rms(c)
DAV:   1     0.159896483441E+04    0.15990E+04   -0.55980E+04   920   0.151E+03
DAV:   2     0.172397186573E+03   -0.14266E+04   -0.13762E+04  1104   0.395E+02
DAV:   3    -0.175866670220E+03   -0.34826E+03   -0.33826E+03  1224   0.191E+02
DAV:   4    -0.200268483505E+03   -0.24402E+02   -0.24323E+02  1168   0.582E+01
DAV:   5    -0.201753978008E+03   -0.14855E+01   -0.14848E+01  1584   0.131E+01    0.371E+01
RMM:   6    -0.161366876556E+03    0.40387E+02   -0.28352E+02  1009   0.501E+01    0.137E+01
RMM:   7    -0.157628977890E+03    0.37379E+01   -0.12099E+01  1091   0.132E+01    0.709E+00
RMM:   8    -0.156893264596E+03    0.73571E+00   -0.30622E+00  1200   0.611E+00    0.305E+00
RMM:   9    -0.156702957255E+03    0.19031E+00   -0.12158E+00  1224   0.389E+00    0.993E-01
RMM:  10    -0.156664228656E+03    0.38729E-01   -0.21517E-01  1364   0.132E+00    0.599E-01
RMM:  11    -0.156641800649E+03    0.22428E-01   -0.16489E-01  1249   0.109E+00    0.436E-01
RMM:  12    -0.156629391896E+03    0.12409E-01   -0.44371E-02  1356   0.545E-01    0.296E-01
RMM:  13    -0.156623985380E+03    0.54065E-02   -0.18265E-02  1371   0.375E-01    0.155E-01
RMM:  14    -0.156619553279E+03    0.44321E-02   -0.20258E-02  1261   0.384E-01    0.163E-01
RMM:  15    -0.156618862743E+03    0.69054E-03   -0.59268E-03  1373   0.200E-01    0.671E-02
RMM:  16    -0.156619880763E+03   -0.10180E-02   -0.52844E-03  1294   0.180E-01    0.998E-02
RMM:  17    -0.156620296380E+03   -0.41562E-03   -0.25282E-03  1250   0.141E-01    0.294E-02
RMM:  18    -0.156621623135E+03   -0.13268E-02   -0.86631E-04  1209   0.756E-02    0.339E-02
RMM:  19    -0.156622663001E+03   -0.10399E-02   -0.53089E-04  1172   0.537E-02    0.120E-02
RMM:  20    -0.156623059076E+03   -0.39607E-03   -0.16582E-04   940   0.256E-02    0.674E-03
RMM:  21    -0.156623337018E+03   -0.27794E-03   -0.11626E-04   912   0.224E-02    0.793E-03
RMM:  22    -0.156623384909E+03   -0.47891E-04   -0.40116E-05   799   0.175E-02    0.195E-03
RMM:  23    -0.156623396543E+03   -0.11634E-04   -0.13721E-05   706   0.105E-02    0.136E-03
RMM:  24    -0.156623403977E+03   -0.74341E-05   -0.97532E-06   636   0.861E-03
   1 F= -.15662340E+03 E0= -.15662340E+03  d E =0.000000E+00
