 vasp.5.4.4.18Apr17-6-g9f103f2a35 (build Jun 30 2017 11:15:00) complex          
  
 executed on    STALLO_VASP_5.4.4 date 2019.11.06  14:27:07
 running on    4 total cores
 distrk:  each k-point on    4 cores,    1 groups
 distr:  one band on NCORES_PER_BAND=   2 cores,    2 groups


--------------------------------------------------------------------------------------------------------


 INCAR:
 POTCAR:   PAW_PBE O 08Apr2002                    
 POTCAR:   PAW_PBE Sr_sv 07Sep2000                
 POTCAR:   PAW_PBE Ti 08Apr2002                   
 POTCAR:   PAW_PBE O 08Apr2002                    
   VRHFIN =O: s2p4                                                              
   LEXCH  = PE                                                                  
   EATOM  =   432.3788 eV,   31.7789 Ry                                         
                                                                                
   TITEL  = PAW_PBE O 08Apr2002                                                 
   LULTRA =        F    use ultrasoft PP ?                                      
   IUNSCR =        0    unscreen: 0-lin 1-nonlin 2-no                           
   RPACOR =     .000    partial core radius                                     
   POMASS =   16.000; ZVAL   =    6.000    mass and valenz                      
   RCORE  =    1.520    outmost cutoff radius                                   
   RWIGS  =    1.550; RWIGS  =     .820    wigner-seitz radius (au A)           
   ENMAX  =  400.000; ENMIN  =  300.000 eV                                      
   ICORE  =        2    local potential                                         
   LCOR   =        T    correct aug charges                                     
   LPAW   =        T    paw PP                                                  
   EAUG   =  605.392                                                            
   DEXC   =     .000                                                            
   RMAX   =    2.264    core radius for proj-oper                               
   RAUG   =    1.300    factor for augmentation sphere                          
   RDEP   =    1.550    radius for radial grids                                 
   QCUT   =   -5.520; QGAM   =   11.041    optimization parameters              
                                                                                
   Description                                                                  
     l     E      TYP  RCUT    TYP  RCUT                                        
     0   .000     23  1.200                                                     
     0  -.700     23  1.200                                                     
     1   .000     23  1.520                                                     
     1   .600     23  1.520                                                     
     2   .000      7  1.500                                                     
  local pseudopotential read in
  atomic valenz-charges read in
  non local Contribution for L=           0  read in
    real space projection operators read in
  non local Contribution for L=           0  read in
    real space projection operators read in
  non local Contribution for L=           1  read in
    real space projection operators read in
  non local Contribution for L=           1  read in
    real space projection operators read in
    PAW grid and wavefunctions read in
 
   number of l-projection  operators is LMAX  =           4
   number of lm-projection operators is LMMAX =           8
 
 POTCAR:   PAW_PBE Sr_sv 07Sep2000                
   VRHFIN =Sr: 4s4p5s                                                           
   LEXCH  = PE                                                                  
   EATOM  =   842.4562 eV,   61.9188 Ry                                         
                                                                                
   TITEL  = PAW_PBE Sr_sv 07Sep2000                                             
   LULTRA =        F    use ultrasoft PP ?                                      
   IUNSCR =        1    unscreen: 0-lin 1-nonlin 2-no                           
   RPACOR =    2.200    partial core radius                                     
   POMASS =   87.620; ZVAL   =   10.000    mass and valenz                      
   RCORE  =    2.500    outmost cutoff radius                                   
   RWIGS  =    4.040; RWIGS  =    2.138    wigner-seitz radius (au A)           
   ENMAX  =  229.282; ENMIN  =  171.961 eV                                      
   RCLOC  =    2.201    cutoff for local pot                                    
   LCOR   =        T    correct aug charges                                     
   LPAW   =        T    paw PP                                                  
   EAUG   =  366.804                                                            
   DEXC   =     .000                                                            
   RMAX   =    3.045    core radius for proj-oper                               
   RAUG   =    1.300    factor for augmentation sphere                          
   RDEP   =    2.562    radius for radial grids                                 
   QCUT   =   -4.105; QGAM   =    8.210    optimization parameters              
                                                                                
   Description                                                                  
     l     E      TYP  RCUT    TYP  RCUT                                        
     0   .000     23  2.480                                                     
     0   .000     23  2.480                                                     
     1   .000     23  2.500                                                     
     1   .000     23  2.500                                                     
     2   .000     23  2.500                                                     
     2   .000     23  2.500                                                     
  local pseudopotential read in
  partial core-charges read in
  atomic valenz-charges read in
  non local Contribution for L=           0  read in
    real space projection operators read in
  non local Contribution for L=           0  read in
    real space projection operators read in
  non local Contribution for L=           1  read in
    real space projection operators read in
  non local Contribution for L=           1  read in
    real space projection operators read in
  non local Contribution for L=           2  read in
    real space projection operators read in
  non local Contribution for L=           2  read in
    real space projection operators read in
    PAW grid and wavefunctions read in
 
   number of l-projection  operators is LMAX  =           6
   number of lm-projection operators is LMMAX =          18
 
 POTCAR:   PAW_PBE Ti 08Apr2002                   
   VRHFIN =Ti: d3 s1                                                            
   LEXCH  = PE                                                                  
   EATOM  =    94.7929 eV,    6.9671 Ry                                         
                                                                                
   TITEL  = PAW_PBE Ti 08Apr2002                                                
   LULTRA =        F    use ultrasoft PP ?                                      
   IUNSCR =        1    unscreen: 0-lin 1-nonlin 2-no                           
   RPACOR =    2.200    partial core radius                                     
   POMASS =   47.880; ZVAL   =    4.000    mass and valenz                      
   RCORE  =    2.800    outmost cutoff radius                                   
   RWIGS  =    2.500; RWIGS  =    1.323    wigner-seitz radius (au A)           
   ENMAX  =  178.330; ENMIN  =  133.747 eV                                      
   RCLOC  =    2.215    cutoff for local pot                                    
   LCOR   =        T    correct aug charges                                     
   LPAW   =        T    paw PP                                                  
   EAUG   =  328.883                                                            
   DEXC   =    -.043                                                            
   RMAX   =    3.453    core radius for proj-oper                               
   RAUG   =    1.300    factor for augmentation sphere                          
   RDEP   =    2.885    radius for radial grids                                 
   QCUT   =   -3.620; QGAM   =    7.241    optimization parameters              
                                                                                
   Description                                                                  
     l     E      TYP  RCUT    TYP  RCUT                                        
     2   .000     23  2.800                                                     
     2   .000     23  2.800                                                     
     0   .000     23  2.800                                                     
     0  1.500     23  2.800                                                     
     1  -.400     23  2.800                                                     
     3   .000      7   .000                                                     
  local pseudopotential read in
  partial core-charges read in
  atomic valenz-charges read in
  non local Contribution for L=           2  read in
    real space projection operators read in
  non local Contribution for L=           2  read in
    real space projection operators read in
  non local Contribution for L=           0  read in
    real space projection operators read in
  non local Contribution for L=           0  read in
    real space projection operators read in
  non local Contribution for L=           1  read in
    real space projection operators read in
    PAW grid and wavefunctions read in
 
   number of l-projection  operators is LMAX  =           5
   number of lm-projection operators is LMMAX =          15
 

 ----------------------------------------------------------------------------- 
|                                                                             |
|  ADVICE TO THIS USER RUNNING 'VASP/VAMP'   (HEAR YOUR MASTER'S VOICE ...):  |
|                                                                             |
|      You have a (more or less) 'large supercell' and for larger cells       |
|      it might be more efficient to use real space projection operators      |
|      So try LREAL= Auto  in the INCAR   file.                               |
|      Mind: If you want to do a very accurate calculations keep the          |
|      reciprocal projection scheme          (i.e. LREAL=.FALSE.)             |
|                                                                             |
 ----------------------------------------------------------------------------- 

 PAW_PBE O 08Apr2002                    :
 energy of atom  1       EATOM= -432.3788
 kinetic energy error for atom=    0.0224 (will be added to EATOM!!)
 PAW_PBE Sr_sv 07Sep2000                :
 energy of atom  2       EATOM= -842.4562
 kinetic energy error for atom=    0.0012 (will be added to EATOM!!)
 PAW_PBE Ti 08Apr2002                   :
 energy of atom  3       EATOM=  -94.7929
 kinetic energy error for atom=    0.0002 (will be added to EATOM!!)
 
 
 POSCAR:  O Sr Ti                                
  positions in direct lattice
  No initial velocities read in
 exchange correlation table for  LEXCH =        8
   RHO(1)=    0.500       N(1)  =     2000
   RHO(2)=  100.500       N(2)  =     4000
 


--------------------------------------------------------------------------------------------------------


 ion  position               nearest neighbor table
   1  0.500  0.500  0.234-  17 1.95  13 2.76  13 2.76  13 2.76  13 2.76
   2  0.500  0.000  0.310-  17 1.95  17 1.95  13 2.76  14 2.76  13 2.76  14 2.76
   3  0.000  0.500  0.310-  17 1.95  17 1.95  13 2.76  13 2.76  14 2.76  14 2.76
   4  0.500  0.500  0.386-  17 1.95  18 1.95  14 2.76  14 2.76  14 2.76  14 2.76
   5  0.500  0.000  0.462-  18 1.95  18 1.95  15 2.76  15 2.76  14 2.76  14 2.76
   6  0.000  0.500  0.462-  18 1.95  18 1.95  15 2.76  15 2.76  14 2.76  14 2.76
   7  0.500  0.500  0.538-  18 1.95  19 1.95  15 2.76  15 2.76  15 2.76  15 2.76
   8  0.500  0.000  0.614-  19 1.95  19 1.95  16 2.76  16 2.76  15 2.76  15 2.76
   9  0.000  0.500  0.614-  19 1.95  19 1.95  16 2.76  16 2.76  15 2.76  15 2.76
  10  0.500  0.500  0.690-  19 1.95  20 1.95  16 2.76  16 2.76  16 2.76  16 2.76
  11  0.500  0.000  0.766-  20 1.95  20 1.95  16 2.76  16 2.76
  12  0.000  0.500  0.766-  20 1.95  20 1.95  16 2.76  16 2.76
  13  0.000  0.000  0.234-   2 2.76   3 2.76   3 2.76   2 2.76   1 2.76   1 2.76   1 2.76   1 2.76
                            17 3.38  17 3.38  17 3.38  17 3.38  14 3.91
  14  0.000  0.000  0.386-   2 2.76   3 2.76   3 2.76   2 2.76   4 2.76   4 2.76   4 2.76   4 2.76
                             5 2.76   6 2.76   5 2.76   6 2.76  17 3.38  17 3.38  17 3.38  17 3.38
  15  0.000  0.000  0.538-   5 2.76   6 2.76   6 2.76   5 2.76   7 2.76   7 2.76   7 2.76   7 2.76
                             8 2.76   9 2.76   8 2.76   9 2.76  18 3.38  18 3.38  18 3.38  18 3.38
  16  0.000  0.000  0.690-   8 2.76   9 2.76  11 2.76  12 2.76   9 2.76  12 2.76   8 2.76  11 2.76
                            10 2.76  10 2.76  10 2.76  10 2.76  20 3.38  19 3.38  19 3.38  19 3.38
  17  0.500  0.500  0.310-   1 1.95   4 1.95   3 1.95   2 1.95   2 1.95   3 1.95  13 3.38  13 3.38
                            14 3.38  14 3.38  13 3.38  14 3.38  13 3.38  14 3.38
  18  0.500  0.500  0.462-   7 1.95   6 1.95   5 1.95   5 1.95   6 1.95   4 1.95  15 3.38  15 3.38
                            15 3.38  15 3.38  14 3.38  14 3.38  14 3.38  14 3.38
  19  0.500  0.500  0.614-  10 1.95   9 1.95   8 1.95   8 1.95   9 1.95   7 1.95  16 3.38  16 3.38
                            16 3.38  16 3.38  15 3.38  15 3.38  15 3.38  15 3.38
  20  0.500  0.500  0.766-  10 1.95  11 1.95  12 1.95  11 1.95  12 1.95  16 3.38  16 3.38  16 3.38
                            16 3.38
 
  LATTYP: Found a simple tetragonal cell.
 ALAT       =     3.9052680000
 C/A-ratio  =     6.5727724704
  
  Lattice vectors:
  
 A1 = (   3.9052680000,   0.0000000000,   0.0000000000)
 A2 = (   0.0000000000,   3.9052680000,   0.0000000000)
 A3 = (   0.0000000000,   0.0000000000,  25.6684380000)


Analysis of symmetry for initial positions (statically):
=====================================================================
 Subroutine PRICEL returns:
 Original cell was already a primitive cell.
 

 Routine SETGRP: Setting up the symmetry group for a 
 simple tetragonal supercell.


 Subroutine GETGRP returns: Found  8 space group operations
 (whereof  8 operations were pure point group operations)
 out of a pool of 16 trial point group operations.


The static configuration has the point symmetry C_4v.


Analysis of symmetry for dynamics (positions and initial velocities):
=====================================================================
 Subroutine PRICEL returns:
 Original cell was already a primitive cell.
 

 Routine SETGRP: Setting up the symmetry group for a 
 simple tetragonal supercell.


 Subroutine GETGRP returns: Found  8 space group operations
 (whereof  8 operations were pure point group operations)
 out of a pool of 16 trial point group operations.


The dynamic configuration has the point symmetry C_4v.


 Subroutine INISYM returns: Found  8 space group operations
 (whereof  8 operations are pure point group operations),
 and found     1 'primitive' translations

 
 
 KPOINTS: k-density: 2.0                          

Automatic generation of k-mesh.
Space group operators:
 irot       det(A)        alpha          n_x          n_y          n_z        tau_x        tau_y        tau_z
    1     1.000000     0.000000     1.000000     0.000000     0.000000     0.000000     0.000000     0.000000
    2     1.000000    90.000000     0.000000     0.000000    -1.000000     0.000000     0.000000     0.000000
    3     1.000000   180.000000     0.000000     0.000000     1.000000     0.000000     0.000000     0.000000
    4     1.000000    90.000000     0.000000     0.000000     1.000000     0.000000     0.000000     0.000000
    5    -1.000000   180.000000     0.000000     1.000000     0.000000     0.000000     0.000000     0.000000
    6    -1.000000   180.000000     0.707107     0.707107     0.000000     0.000000     0.000000     0.000000
    7    -1.000000   180.000000     1.000000     0.000000     0.000000     0.000000     0.000000     0.000000
    8    -1.000000   180.000000     0.707107    -0.707107     0.000000     0.000000     0.000000     0.000000
 
 Subroutine IBZKPT returns following result:
 ===========================================
 
 Found      6 irreducible k-points:
 
 Following reciprocal coordinates:
            Coordinates               Weight
  0.000000  0.000000  0.000000      1.000000
  0.250000  0.000000  0.000000      4.000000
  0.500000  0.000000  0.000000      2.000000
  0.250000  0.250000  0.000000      4.000000
  0.500000  0.250000  0.000000      4.000000
  0.500000  0.500000  0.000000      1.000000
 
 Following cartesian coordinates:
            Coordinates               Weight
  0.000000  0.000000  0.000000      1.000000
  0.064016  0.000000  0.000000      4.000000
  0.128032  0.000000  0.000000      2.000000
  0.064016  0.064016  0.000000      4.000000
  0.128032  0.064016  0.000000      4.000000
  0.128032  0.128032  0.000000      1.000000
 
 TETIRR: Found     26 inequivalent tetrahedra from       96


--------------------------------------------------------------------------------------------------------




 Dimension of arrays:
   k-points           NKPTS =      6   k-points in BZ     NKDIM =      6   number of bands    NBANDS=     76
   number of dos      NEDOS =    301   number of ions     NIONS =     20
   non local maximal  LDIM  =      6   non local SUM 2l+1 LMDIM =     18
   total plane-waves  NPLWV =  80640
   max r-space proj   IRMAX =      1   max aug-charges    IRDMAX=  14425
   dimension x,y,z NGX =    24 NGY =   24 NGZ =  140
   dimension x,y,z NGXF=    48 NGYF=   48 NGZF=  280
   support grid    NGXF=    48 NGYF=   48 NGZF=  280
   ions per type =              12   4   4
   NGX,Y,Z   is equivalent  to a cutoff of  10.22, 10.22,  9.07 a.u.
   NGXF,Y,Z  is equivalent  to a cutoff of  20.43, 20.43, 18.13 a.u.

 SYSTEM =  unknown system                          
 POSCAR =   O Sr Ti                                

 Startparameter for this run:
   NWRITE =      2    write-flag & timer
   PREC   = normal    normal or accurate (medium, high low for compatibility)
   ISTART =      0    job   : 0-new  1-cont  2-samecut
   ICHARG =      2    charge: 1-file 2-atom 10-const
   ISPIN  =      1    spin polarized calculation?
   LNONCOLLINEAR =      F non collinear calculations
   LSORBIT =      F    spin-orbit coupling
   INIWAV =      1    electr: 0-lowe 1-rand  2-diag
   LASPH  =      F    aspherical Exc in radial PAW
   METAGGA=      F    non-selfconsistent MetaGGA calc.

 Electronic Relaxation 1
   ENCUT  =  500.0 eV  36.75 Ry    6.06 a.u.   7.12  7.12 46.80*2*pi/ulx,y,z
   ENINI  =  500.0     initial cutoff
   ENAUG  =  605.4 eV  augmentation charge cutoff
   NELM   =     60;   NELMIN=  4; NELMDL= -5     # of ELM steps 
   EDIFF  = 0.1E-04   stopping-criterion for ELM
   LREAL  =      F    real-space projection
   NLSPLINE    = F    spline interpolate recip. space projectors
   LCOMPAT=      F    compatible to vasp.4.4
   GGA_COMPAT  = T    GGA compatible to vasp.4.4-vasp.4.6
   LMAXPAW     = -100 max onsite density
   LMAXMIX     =    2 max onsite mixed and CHGCAR
   VOSKOWN=      0    Vosko Wilk Nusair interpolation
   ROPT   =    0.00000   0.00000   0.00000
 Ionic relaxation
   EDIFFG = 0.1E-03   stopping-criterion for IOM
   NSW    =      0    number of steps for IOM
   NBLOCK =      1;   KBLOCK =      1    inner block; outer block 
   IBRION =     -1    ionic relax: 0-MD 1-quasi-New 2-CG
   NFREE  =      0    steps in history (QN), initial steepest desc. (CG)
   ISIF   =      2    stress and relaxation
   IWAVPR =     10    prediction:  0-non 1-charg 2-wave 3-comb
   ISYM   =      2    0-nonsym 1-usesym 2-fastsym
   LCORR  =      T    Harris-Foulkes like correction to forces

   POTIM  = 0.5000    time-step for ionic-motion
   TEIN   =    0.0    initial temperature
   TEBEG  =    0.0;   TEEND  =   0.0 temperature during run
   SMASS  =  -3.00    Nose mass-parameter (am)
   estimated Nose-frequenzy (Omega)   =  0.10E-29 period in steps =****** mass=  -0.349E-27a.u.
   SCALEE = 1.0000    scale energy and forces
   NPACO  =    256;   APACO  = 16.0  distance and # of slots for P.C.
   PSTRESS=    0.0 pullay stress

  Mass of Ions in am
   POMASS =  16.00 87.62 47.88
  Ionic Valenz
   ZVAL   =   6.00 10.00  4.00
  Atomic Wigner-Seitz radii
   RWIGS  =  -1.00 -1.00 -1.00
  virtual crystal weights 
   VCA    =   1.00  1.00  1.00
   NELECT =     128.0000    total number of electrons
   NUPDOWN=      -1.0000    fix difference up-down

 DOS related values:
   EMIN   =  10.00;   EMAX   =-10.00  energy-range for DOS
   EFERMI =   0.00
   ISMEAR =    -5;   SIGMA  =   0.20  broadening in eV -4-tet -1-fermi 0-gaus

 Electronic relaxation 2 (details)
   IALGO  =     68    algorithm
   LDIAG  =      T    sub-space diagonalisation (order eigenvalues)
   LSUBROT=      F    optimize rotation matrix (better conditioning)
   TURBO    =      0    0=normal 1=particle mesh
   IRESTART =      0    0=no restart 2=restart with 2 vectors
   NREBOOT  =      0    no. of reboots
   NMIN     =      0    reboot dimension
   EREF     =   0.00    reference energy to select bands
   IMIX   =      4    mixing-type and parameters
     AMIX     =   0.40;   BMIX     =  1.00
     AMIX_MAG =   1.60;   BMIX_MAG =  1.00
     AMIN     =   0.10
     WC   =   100.;   INIMIX=   1;  MIXPRE=   1;  MAXMIX= -45

 Intra band minimization:
   WEIMIN = 0.0000     energy-eigenvalue tresh-hold
   EBREAK =  0.33E-07  absolut break condition
   DEPER  =   0.30     relativ break condition  

   TIME   =   0.40     timestep for ELM

  volume/ion in A,a.u.               =      19.57       132.09
  Fermi-wavevector in a.u.,A,eV,Ry     =   1.127832  2.131294 17.306682  1.272005
  Thomas-Fermi vector in A             =   2.264520
 
 Write flags
   LWAVE        =      F    write WAVECAR
   LDOWNSAMPLE  =      F    k-point downsampling of WAVECAR
   LCHARG       =      T    write CHGCAR
   LVTOT        =      F    write LOCPOT, total local potential
   LVHAR        =      F    write LOCPOT, Hartree potential only
   LELF         =      F    write electronic localiz. function (ELF)
   LORBIT       =      0    0 simple, 1 ext, 2 COOP (PROOUT), +10 PAW based schemes


 Dipole corrections
   LMONO  =      F    monopole corrections only (constant potential shift)
   LDIPOL =      F    correct potential (dipole corrections)
   IDIPOL =      0    1-x, 2-y, 3-z, 4-all directions 
   EPSILON=  1.0000000 bulk dielectric constant

 Exchange correlation treatment:
   GGA     =    --    GGA type
   LEXCH   =     8    internal setting for exchange type
   VOSKOWN=      0    Vosko Wilk Nusair interpolation
   LHFCALC =     F    Hartree Fock is set to
   LHFONE  =     F    Hartree Fock one center treatment
   AEXX    =    0.0000 exact exchange contribution

 Linear response parameters
   LEPSILON=     F    determine dielectric tensor
   LRPA    =     F    only Hartree local field effects (RPA)
   LNABLA  =     F    use nabla operator in PAW spheres
   LVEL    =     F    velocity operator in full k-point grid
   LINTERFAST=   F  fast interpolation
   KINTER  =     0    interpolate to denser k-point grid
   CSHIFT  =0.1000    complex shift for real part using Kramers Kronig
   OMEGAMAX=  -1.0    maximum frequency
   DEG_THRESHOLD= 0.2000000E-02 threshold for treating states as degnerate
   RTIME   =   -0.100 relaxation time in fs
  (WPLASMAI=    0.000 imaginary part of plasma frequency in eV, 0.658/RTIME)
   DFIELD  = 0.0000000 0.0000000 0.0000000 field for delta impulse in time
 
 Orbital magnetization related:
   ORBITALMAG=     F  switch on orbital magnetization
   LCHIMAG   =     F  perturbation theory with respect to B field
   DQ        =  0.001000  dq finite difference perturbation B field
   LLRAUG    =     F  two centre corrections for induced B field



--------------------------------------------------------------------------------------------------------


 Static calculation
 charge density and potential will be updated during run
 non-spin polarized calculation
 RMM-DIIS sequential band-by-band and
  variant of blocked Davidson during initial phase
 perform sub-space diagonalisation
    before iterative eigenvector-optimisation
 modified Broyden-mixing scheme, WC =      100.0
 initial mixing is a Kerker type mixing with AMIX =  0.4000 and BMIX =      1.0000
 Hartree-type preconditioning will be used
 using additional bands           12
 reciprocal scheme for non local part
 use partial core corrections
 calculate Harris-corrections to forces 
   (improved forces if not selfconsistent)
 use gradient corrections 
 use of overlap-Matrix (Vanderbilt PP)
 Fermi weights with tetrahedron method with Bloechl corrections


--------------------------------------------------------------------------------------------------------


  energy-cutoff  :      500.00
  volume of cell :      391.47
      direct lattice vectors                 reciprocal lattice vectors
     3.905268000  0.000000000  0.000000000     0.256064373  0.000000000  0.000000000
     0.000000000  3.905268000  0.000000000     0.000000000  0.256064373  0.000000000
     0.000000000  0.000000000 25.668438000     0.000000000  0.000000000  0.038958350

  length of vectors
     3.905268000  3.905268000 25.668438000     0.256064373  0.256064373  0.038958350


 
 k-points in units of 2pi/SCALE and weight: k-density: 2.0                          
   0.00000000  0.00000000  0.00000000       0.062
   0.06401609  0.00000000  0.00000000       0.250
   0.12803219  0.00000000  0.00000000       0.125
   0.06401609  0.06401609  0.00000000       0.250
   0.12803219  0.06401609  0.00000000       0.250
   0.12803219  0.12803219  0.00000000       0.062
 
 k-points in reciprocal lattice and weights: k-density: 2.0                          
   0.00000000  0.00000000  0.00000000       0.062
   0.25000000  0.00000000  0.00000000       0.250
   0.50000000  0.00000000  0.00000000       0.125
   0.25000000  0.25000000  0.00000000       0.250
   0.50000000  0.25000000  0.00000000       0.250
   0.50000000  0.50000000  0.00000000       0.062
 
 position of ions in fractional coordinates (direct lattice) 
   0.50000000  0.50000000  0.23375010
   0.50000000  0.00000000  0.30982150
   0.00000000  0.50000000  0.30982150
   0.50000000  0.50000000  0.38589290
   0.50000000  0.00000000  0.46196430
   0.00000000  0.50000000  0.46196430
   0.50000000  0.50000000  0.53803570
   0.50000000  0.00000000  0.61410710
   0.00000000  0.50000000  0.61410710
   0.50000000  0.50000000  0.69017850
   0.50000000  0.00000000  0.76624990
   0.00000000  0.50000000  0.76624990
   0.00000000  0.00000000  0.23375010
   0.00000000  0.00000000  0.38589290
   0.00000000  0.00000000  0.53803570
   0.00000000  0.00000000  0.69017850
   0.50000000  0.50000000  0.30982150
   0.50000000  0.50000000  0.46196430
   0.50000000  0.50000000  0.61410710
   0.50000000  0.50000000  0.76624990
 
 position of ions in cartesian coordinates  (Angst):
   1.95263400  1.95263400  6.00000000
   1.95263400  0.00000000  7.95263400
   0.00000000  1.95263400  7.95263400
   1.95263400  1.95263400  9.90526800
   1.95263400  0.00000000 11.85790200
   0.00000000  1.95263400 11.85790200
   1.95263400  1.95263400 13.81053600
   1.95263400  0.00000000 15.76317000
   0.00000000  1.95263400 15.76317000
   1.95263400  1.95263400 17.71580400
   1.95263400  0.00000000 19.66843800
   0.00000000  1.95263400 19.66843800
   0.00000000  0.00000000  6.00000000
   0.00000000  0.00000000  9.90526800
   0.00000000  0.00000000 13.81053600
   0.00000000  0.00000000 17.71580400
   1.95263400  1.95263400  7.95263400
   1.95263400  1.95263400 11.85790200
   1.95263400  1.95263400 15.76317000
   1.95263400  1.95263400 19.66843800
 


--------------------------------------------------------------------------------------------------------


 k-point  1 :   0.0000 0.0000 0.0000  plane waves:    9877
 k-point  2 :   0.2500 0.0000 0.0000  plane waves:    9936
 k-point  3 :   0.5000 0.0000 0.0000  plane waves:    9934
 k-point  4 :   0.2500 0.2500 0.0000  plane waves:    9920
 k-point  5 :   0.5000 0.2500 0.0000  plane waves:    9982
 k-point  6 :   0.5000 0.5000 0.0000  plane waves:    9948

 maximum and minimum number of plane-waves per node :      4996     4899

 maximum number of plane-waves:      9982
 maximum index in each direction: 
   IXMAX=    7   IYMAX=    7   IZMAX=   46
   IXMIN=   -7   IYMIN=   -7   IZMIN=  -46


 parallel 3D FFT for wavefunctions:
    minimum data exchange during FFTs selected (reduces bandwidth)
 parallel 3D FFT for charge:
    minimum data exchange during FFTs selected (reduces bandwidth)


 total amount of memory used by VASP MPI-rank0    82007. kBytes
=======================================================================

   base      :      30000. kBytes
   nonl-proj :      14548. kBytes
   fftplans  :       6669. kBytes
   grid      :      11994. kBytes
   one-center:        155. kBytes
   wavefun   :      18641. kBytes
 
     INWAV:  cpu time    0.0000: real time    0.0000
 Broyden mixing: mesh for mixing (old mesh)
   NGX = 15   NGY = 15   NGZ = 93
  (NGX  = 48   NGY  = 48   NGZ  =280)
  gives a total of  20925 points

 initial charge density was supplied:
 charge density of overlapping atoms calculated
 number of electron     128.0000000 magnetization 
 keeping initial charge density in first step


--------------------------------------------------------------------------------------------------------


 Maximum index for augmentation-charges         3446 (set IRDMAX)


--------------------------------------------------------------------------------------------------------


 First call to EWALD:  gamma=   0.242
 Maximum number of real-space cells 5x 5x 1
 Maximum number of reciprocal cells 2x 2x 8

    FEWALD:  cpu time    0.0020: real time    0.0019


--------------------------------------- Iteration      1(   1)  ---------------------------------------


    POTLOK:  cpu time    0.0980: real time    0.1202
    SETDIJ:  cpu time    0.0110: real time    0.0121
     EDDAV:  cpu time    2.7546: real time    2.7590
 BZINTS: Fermi energy: 15.386770;128.000000 electrons
         Band energy: 139.616697;  BLOECHL correction: -0.192733
       DOS:  cpu time    0.0030: real time    0.0025
    --------------------------------------------
      LOOP:  cpu time    2.8666: real time    2.8939

 eigenvalue-minimisations  :   920
 total energy-change (2. order) : 0.1598965E+04  (-0.5598029E+04)
 number of electron     128.0000000 magnetization 
 augmentation part      128.0000000 magnetization 

 Free energy of the ion-electron system (eV)
  ---------------------------------------------------
  alpha Z        PSCENC =       451.31605171
  Ewald energy   TEWEN  =     24913.70541863
  -Hartree energ DENC   =    -33364.93616084
  -exchange      EXHF   =         0.00000000
  -V(xc)+E(xc)   XCENC  =       326.68052994
  PAW double counting   =      5334.45189010    -5139.13784255
  entropy T*S    EENTRO =         0.00000000
  eigenvalues    EBANDS =       139.61669725
  atomic energy  EATOM  =      8937.26825017
  Solvation  Ediel_sol  =         0.00000000
  ---------------------------------------------------
  free energy    TOTEN  =      1598.96483441 eV

  energy without entropy =     1598.96483441  energy(sigma->0) =     1598.96483441


--------------------------------------------------------------------------------------------------------




--------------------------------------- Iteration      1(   2)  ---------------------------------------


     EDDAV:  cpu time    3.1675: real time    3.1733
 BZINTS: Fermi energy:  4.998175;128.000000 electrons
         Band energy:***********;  BLOECHL correction: -0.127448
       DOS:  cpu time    0.0020: real time    0.0023
    --------------------------------------------
      LOOP:  cpu time    3.1695: real time    3.1755

 eigenvalue-minimisations  :  1104
 total energy-change (2. order) :-0.1426568E+04  (-0.1376231E+04)
 number of electron     128.0000000 magnetization 
 augmentation part      128.0000000 magnetization 

 Free energy of the ion-electron system (eV)
  ---------------------------------------------------
  alpha Z        PSCENC =       451.31605171
  Ewald energy   TEWEN  =     24913.70541863
  -Hartree energ DENC   =    -33364.93616084
  -exchange      EXHF   =         0.00000000
  -V(xc)+E(xc)   XCENC  =       326.68052994
  PAW double counting   =      5334.45189010    -5139.13784255
  entropy T*S    EENTRO =         0.00000000
  eigenvalues    EBANDS =     -1286.95095059
  atomic energy  EATOM  =      8937.26825017
  Solvation  Ediel_sol  =         0.00000000
  ---------------------------------------------------
  free energy    TOTEN  =       172.39718657 eV

  energy without entropy =      172.39718657  energy(sigma->0) =      172.39718657


--------------------------------------------------------------------------------------------------------




--------------------------------------- Iteration      1(   3)  ---------------------------------------


     EDDAV:  cpu time    3.4415: real time    3.4450
 BZINTS: Fermi energy: -2.311126;128.000000 electrons
         Band energy:***********;  BLOECHL correction:  0.000000
       DOS:  cpu time    0.0010: real time    0.0007
    --------------------------------------------
      LOOP:  cpu time    3.4425: real time    3.4457

 eigenvalue-minimisations  :  1224
 total energy-change (2. order) :-0.3482639E+03  (-0.3382634E+03)
 number of electron     128.0000000 magnetization 
 augmentation part      128.0000000 magnetization 

 Free energy of the ion-electron system (eV)
  ---------------------------------------------------
  alpha Z        PSCENC =       451.31605171
  Ewald energy   TEWEN  =     24913.70541863
  -Hartree energ DENC   =    -33364.93616084
  -exchange      EXHF   =         0.00000000
  -V(xc)+E(xc)   XCENC  =       326.68052994
  PAW double counting   =      5334.45189010    -5139.13784255
  entropy T*S    EENTRO =         0.00000000
  eigenvalues    EBANDS =     -1635.21480738
  atomic energy  EATOM  =      8937.26825017
  Solvation  Ediel_sol  =         0.00000000
  ---------------------------------------------------
  free energy    TOTEN  =      -175.86667022 eV

  energy without entropy =     -175.86667022  energy(sigma->0) =     -175.86667022


--------------------------------------------------------------------------------------------------------




--------------------------------------- Iteration      1(   4)  ---------------------------------------


     EDDAV:  cpu time    3.3165: real time    3.3215
 BZINTS: Fermi energy: -4.075657;128.000000 electrons
         Band energy:***********;  BLOECHL correction:  0.000000
       DOS:  cpu time    0.0010: real time    0.0006
    --------------------------------------------
      LOOP:  cpu time    3.3175: real time    3.3221

 eigenvalue-minimisations  :  1168
 total energy-change (2. order) :-0.2440181E+02  (-0.2432278E+02)
 number of electron     128.0000000 magnetization 
 augmentation part      128.0000000 magnetization 

 Free energy of the ion-electron system (eV)
  ---------------------------------------------------
  alpha Z        PSCENC =       451.31605171
  Ewald energy   TEWEN  =     24913.70541863
  -Hartree energ DENC   =    -33364.93616084
  -exchange      EXHF   =         0.00000000
  -V(xc)+E(xc)   XCENC  =       326.68052994
  PAW double counting   =      5334.45189010    -5139.13784255
  entropy T*S    EENTRO =         0.00000000
  eigenvalues    EBANDS =     -1659.61662067
  atomic energy  EATOM  =      8937.26825017
  Solvation  Ediel_sol  =         0.00000000
  ---------------------------------------------------
  free energy    TOTEN  =      -200.26848350 eV

  energy without entropy =     -200.26848350  energy(sigma->0) =     -200.26848350


--------------------------------------------------------------------------------------------------------




--------------------------------------- Iteration      1(   5)  ---------------------------------------


     EDDAV:  cpu time    4.2444: real time    4.2559
 BZINTS: Fermi energy: -4.152764;128.000000 electrons
         Band energy:***********;  BLOECHL correction:  0.000000
       DOS:  cpu time    0.0000: real time    0.0006
    CHARGE:  cpu time    0.1180: real time    0.1180
    MIXING:  cpu time    0.0030: real time    0.0028
    --------------------------------------------
      LOOP:  cpu time    4.3653: real time    4.3772

 eigenvalue-minimisations  :  1584
 total energy-change (2. order) :-0.1485495E+01  (-0.1484799E+01)
 number of electron     127.9999793 magnetization 
 augmentation part       13.6855814 magnetization 

 Broyden mixing:
  rms(total) = 0.37130E+01    rms(broyden)= 0.37125E+01
  rms(prec ) = 0.39633E+01
  weight for this iteration     100.00

 Free energy of the ion-electron system (eV)
  ---------------------------------------------------
  alpha Z        PSCENC =       451.31605171
  Ewald energy   TEWEN  =     24913.70541863
  -Hartree energ DENC   =    -33364.93616084
  -exchange      EXHF   =         0.00000000
  -V(xc)+E(xc)   XCENC  =       326.68052994
  PAW double counting   =      5334.45189010    -5139.13784255
  entropy T*S    EENTRO =         0.00000000
  eigenvalues    EBANDS =     -1661.10211517
  atomic energy  EATOM  =      8937.26825017
  Solvation  Ediel_sol  =         0.00000000
  ---------------------------------------------------
  free energy    TOTEN  =      -201.75397801 eV

  energy without entropy =     -201.75397801  energy(sigma->0) =     -201.75397801


--------------------------------------------------------------------------------------------------------




--------------------------------------- Iteration      1(   6)  ---------------------------------------


    POTLOK:  cpu time    0.0920: real time    0.0954
    SETDIJ:  cpu time    0.0120: real time    0.0114
    EDDIAG:  cpu time    0.3210: real time    0.3207
  RMM-DIIS:  cpu time    2.1547: real time    2.1542
    ORTHCH:  cpu time    0.0620: real time    0.0626
 BZINTS: Fermi energy: -0.135566;128.000000 electrons
         Band energy:***********;  BLOECHL correction: -0.088509
       DOS:  cpu time    0.0030: real time    0.0023
    CHARGE:  cpu time    0.1210: real time    0.1210
    MIXING:  cpu time    0.0020: real time    0.0026
    --------------------------------------------
      LOOP:  cpu time    2.7676: real time    2.7702

 eigenvalue-minimisations  :  1009
 total energy-change (2. order) : 0.4038710E+02  (-0.2835196E+02)
 number of electron     127.9999847 magnetization 
 augmentation part       14.2521028 magnetization 

 Broyden mixing:
  rms(total) = 0.13668E+01    rms(broyden)= 0.13657E+01
  rms(prec ) = 0.14351E+01
  weight for this iteration     100.00

 eigenvalues of (default mixing * dielectric matrix)
  average eigenvalue GAMMA=   0.7720
  0.7720

 Free energy of the ion-electron system (eV)
  ---------------------------------------------------
  alpha Z        PSCENC =       451.31605171
  Ewald energy   TEWEN  =     24913.70541863
  -Hartree energ DENC   =    -33647.53274051
  -exchange      EXHF   =         0.00000000
  -V(xc)+E(xc)   XCENC  =       346.48552879
  PAW double counting   =      5952.80590472    -5770.59065492
  entropy T*S    EENTRO =         0.00000000
  eigenvalues    EBANDS =     -1344.82463515
  atomic energy  EATOM  =      8937.26825017
  Solvation  Ediel_sol  =         0.00000000
  ---------------------------------------------------
  free energy    TOTEN  =      -161.36687656 eV

  energy without entropy =     -161.36687656  energy(sigma->0) =     -161.36687656


--------------------------------------------------------------------------------------------------------




--------------------------------------- Iteration      1(   7)  ---------------------------------------


    POTLOK:  cpu time    0.0910: real time    0.0945
    SETDIJ:  cpu time    0.0110: real time    0.0114
    EDDIAG:  cpu time    0.3200: real time    0.3197
  RMM-DIIS:  cpu time    2.3556: real time    2.3554
    ORTHCH:  cpu time    0.0630: real time    0.0627
 BZINTS: Fermi energy: -0.912444;128.000000 electrons
         Band energy:***********;  BLOECHL correction:  0.000000
       DOS:  cpu time    0.0000: real time    0.0006
    CHARGE:  cpu time    0.1180: real time    0.1180
    MIXING:  cpu time    0.0030: real time    0.0028
    --------------------------------------------
      LOOP:  cpu time    2.9615: real time    2.9650

 eigenvalue-minimisations  :  1091
 total energy-change (2. order) : 0.3737899E+01  (-0.1209887E+01)
 number of electron     127.9999842 magnetization 
 augmentation part       13.5664586 magnetization 

 Broyden mixing:
  rms(total) = 0.70866E+00    rms(broyden)= 0.70861E+00
  rms(prec ) = 0.73798E+00
  weight for this iteration     100.00

 eigenvalues of (default mixing * dielectric matrix)
  average eigenvalue GAMMA=   1.0801
  0.8920  1.2681

 Free energy of the ion-electron system (eV)
  ---------------------------------------------------
  alpha Z        PSCENC =       451.31605171
  Ewald energy   TEWEN  =     24913.70541863
  -Hartree energ DENC   =    -33655.71418571
  -exchange      EXHF   =         0.00000000
  -V(xc)+E(xc)   XCENC  =       342.81951364
  PAW double counting   =      5977.36156856    -5800.04144105
  entropy T*S    EENTRO =         0.00000000
  eigenvalues    EBANDS =     -1324.34415384
  atomic energy  EATOM  =      8937.26825017
  Solvation  Ediel_sol  =         0.00000000
  ---------------------------------------------------
  free energy    TOTEN  =      -157.62897789 eV

  energy without entropy =     -157.62897789  energy(sigma->0) =     -157.62897789


--------------------------------------------------------------------------------------------------------




--------------------------------------- Iteration      1(   8)  ---------------------------------------


    POTLOK:  cpu time    0.0920: real time    0.0965
    SETDIJ:  cpu time    0.0120: real time    0.0113
    EDDIAG:  cpu time    0.3190: real time    0.3194
  RMM-DIIS:  cpu time    2.6226: real time    2.6223
    ORTHCH:  cpu time    0.0630: real time    0.0627
 BZINTS: Fermi energy: -0.472875;128.000000 electrons
         Band energy:***********;  BLOECHL correction:  0.000000
       DOS:  cpu time    0.0000: real time    0.0006
    CHARGE:  cpu time    0.1180: real time    0.1175
    MIXING:  cpu time    0.0030: real time    0.0029
    --------------------------------------------
      LOOP:  cpu time    3.2295: real time    3.2331

 eigenvalue-minimisations  :  1200
 total energy-change (2. order) : 0.7357133E+00  (-0.3062239E+00)
 number of electron     127.9999841 magnetization 
 augmentation part       13.7641223 magnetization 

 Broyden mixing:
  rms(total) = 0.30540E+00    rms(broyden)= 0.30537E+00
  rms(prec ) = 0.32579E+00
  weight for this iteration     100.00

 eigenvalues of (default mixing * dielectric matrix)
  average eigenvalue GAMMA=   1.2787
  2.2086  0.9123  0.7153

 Free energy of the ion-electron system (eV)
  ---------------------------------------------------
  alpha Z        PSCENC =       451.31605171
  Ewald energy   TEWEN  =     24913.70541863
  -Hartree energ DENC   =    -33674.04632157
  -exchange      EXHF   =         0.00000000
  -V(xc)+E(xc)   XCENC  =       342.49598894
  PAW double counting   =      6077.14813548    -5904.12700551
  entropy T*S    EENTRO =         0.00000000
  eigenvalues    EBANDS =     -1300.65378245
  atomic energy  EATOM  =      8937.26825017
  Solvation  Ediel_sol  =         0.00000000
  ---------------------------------------------------
  free energy    TOTEN  =      -156.89326460 eV

  energy without entropy =     -156.89326460  energy(sigma->0) =     -156.89326460


--------------------------------------------------------------------------------------------------------




--------------------------------------- Iteration      1(   9)  ---------------------------------------


    POTLOK:  cpu time    0.0920: real time    0.0963
    SETDIJ:  cpu time    0.0120: real time    0.0113
    EDDIAG:  cpu time    0.3190: real time    0.3216
  RMM-DIIS:  cpu time    2.6336: real time    2.6341
    ORTHCH:  cpu time    0.0630: real time    0.0625
 BZINTS: Fermi energy: -0.018510;128.000000 electrons
         Band energy:***********;  BLOECHL correction:  0.000000
       DOS:  cpu time    0.0000: real time    0.0006
    CHARGE:  cpu time    0.1170: real time    0.1175
    MIXING:  cpu time    0.0040: real time    0.0037
    --------------------------------------------
      LOOP:  cpu time    3.2405: real time    3.2477

 eigenvalue-minimisations  :  1224
 total energy-change (2. order) : 0.1903073E+00  (-0.1215839E+00)
 number of electron     127.9999838 magnetization 
 augmentation part       13.7808233 magnetization 

 Broyden mixing:
  rms(total) = 0.99312E-01    rms(broyden)= 0.99238E-01
  rms(prec ) = 0.11703E+00
  weight for this iteration     100.00

 eigenvalues of (default mixing * dielectric matrix)
  average eigenvalue GAMMA=   1.1913
  2.2465  0.8914  0.8914  0.7359

 Free energy of the ion-electron system (eV)
  ---------------------------------------------------
  alpha Z        PSCENC =       451.31605171
  Ewald energy   TEWEN  =     24913.70541863
  -Hartree energ DENC   =    -33701.15438667
  -exchange      EXHF   =         0.00000000
  -V(xc)+E(xc)   XCENC  =       342.18240826
  PAW double counting   =      6174.22475035    -6004.84187347
  entropy T*S    EENTRO =         0.00000000
  eigenvalues    EBANDS =     -1269.40357625
  atomic energy  EATOM  =      8937.26825017
  Solvation  Ediel_sol  =         0.00000000
  ---------------------------------------------------
  free energy    TOTEN  =      -156.70295726 eV

  energy without entropy =     -156.70295726  energy(sigma->0) =     -156.70295726


--------------------------------------------------------------------------------------------------------




--------------------------------------- Iteration      1(  10)  ---------------------------------------


    POTLOK:  cpu time    0.0920: real time    0.0962
    SETDIJ:  cpu time    0.0120: real time    0.0114
    EDDIAG:  cpu time    0.3190: real time    0.3195
  RMM-DIIS:  cpu time    2.9166: real time    2.9161
    ORTHCH:  cpu time    0.0630: real time    0.0626
 BZINTS: Fermi energy:  0.127373;128.000000 electrons
         Band energy:***********;  BLOECHL correction:  0.000000
       DOS:  cpu time    0.0010: real time    0.0006
    CHARGE:  cpu time    0.1170: real time    0.1177
    MIXING:  cpu time    0.0030: real time    0.0032
    --------------------------------------------
      LOOP:  cpu time    3.5235: real time    3.5273

 eigenvalue-minimisations  :  1364
 total energy-change (2. order) : 0.3872860E-01  (-0.2151717E-01)
 number of electron     127.9999839 magnetization 
 augmentation part       13.7260620 magnetization 

 Broyden mixing:
  rms(total) = 0.59873E-01    rms(broyden)= 0.59865E-01
  rms(prec ) = 0.75136E-01
  weight for this iteration     100.00

 eigenvalues of (default mixing * dielectric matrix)
  average eigenvalue GAMMA=   1.2452
  1.9096  1.9096  0.9623  0.7427  0.7018

 Free energy of the ion-electron system (eV)
  ---------------------------------------------------
  alpha Z        PSCENC =       451.31605171
  Ewald energy   TEWEN  =     24913.70541863
  -Hartree energ DENC   =    -33718.66026505
  -exchange      EXHF   =         0.00000000
  -V(xc)+E(xc)   XCENC  =       342.54733487
  PAW double counting   =      6194.41601445    -6025.42082288
  entropy T*S    EENTRO =         0.00000000
  eigenvalues    EBANDS =     -1251.83621057
  atomic energy  EATOM  =      8937.26825017
  Solvation  Ediel_sol  =         0.00000000
  ---------------------------------------------------
  free energy    TOTEN  =      -156.66422866 eV

  energy without entropy =     -156.66422866  energy(sigma->0) =     -156.66422866


--------------------------------------------------------------------------------------------------------




--------------------------------------- Iteration      1(  11)  ---------------------------------------


    POTLOK:  cpu time    0.0930: real time    0.0973
    SETDIJ:  cpu time    0.0110: real time    0.0117
    EDDIAG:  cpu time    0.3200: real time    0.3197
  RMM-DIIS:  cpu time    2.6996: real time    2.6987
    ORTHCH:  cpu time    0.0670: real time    0.0677
 BZINTS: Fermi energy:  0.272807;128.000000 electrons
         Band energy:***********;  BLOECHL correction:  0.000000
       DOS:  cpu time    0.0010: real time    0.0006
    CHARGE:  cpu time    0.1170: real time    0.1171
    MIXING:  cpu time    0.0030: real time    0.0032
    --------------------------------------------
      LOOP:  cpu time    3.3115: real time    3.3159

 eigenvalue-minimisations  :  1249
 total energy-change (2. order) : 0.2242801E-01  (-0.1648898E-01)
 number of electron     127.9999840 magnetization 
 augmentation part       13.6591040 magnetization 

 Broyden mixing:
  rms(total) = 0.43564E-01    rms(broyden)= 0.43548E-01
  rms(prec ) = 0.54255E-01
  weight for this iteration     100.00

 eigenvalues of (default mixing * dielectric matrix)
  average eigenvalue GAMMA=   1.3182
  2.3122  2.3122  0.9356  0.9356  0.7603  0.6533

 Free energy of the ion-electron system (eV)
  ---------------------------------------------------
  alpha Z        PSCENC =       451.31605171
  Ewald energy   TEWEN  =     24913.70541863
  -Hartree energ DENC   =    -33740.25515986
  -exchange      EXHF   =         0.00000000
  -V(xc)+E(xc)   XCENC  =       342.96401298
  PAW double counting   =      6209.64733968    -6040.59751534
  entropy T*S    EENTRO =         0.00000000
  eigenvalues    EBANDS =     -1230.69019862
  atomic energy  EATOM  =      8937.26825017
  Solvation  Ediel_sol  =         0.00000000
  ---------------------------------------------------
  free energy    TOTEN  =      -156.64180065 eV

  energy without entropy =     -156.64180065  energy(sigma->0) =     -156.64180065


--------------------------------------------------------------------------------------------------------




--------------------------------------- Iteration      1(  12)  ---------------------------------------


    POTLOK:  cpu time    0.0930: real time    0.0946
    SETDIJ:  cpu time    0.0120: real time    0.0117
    EDDIAG:  cpu time    0.3200: real time    0.3197
  RMM-DIIS:  cpu time    2.9306: real time    2.9302
    ORTHCH:  cpu time    0.0670: real time    0.0676
 BZINTS: Fermi energy:  0.496955;128.000000 electrons
         Band energy:***********;  BLOECHL correction:  0.000000
       DOS:  cpu time    0.0010: real time    0.0006
    CHARGE:  cpu time    0.1170: real time    0.1169
    MIXING:  cpu time    0.0040: real time    0.0034
    --------------------------------------------
      LOOP:  cpu time    3.5445: real time    3.5447

 eigenvalue-minimisations  :  1356
 total energy-change (2. order) : 0.1240875E-01  (-0.4437123E-02)
 number of electron     127.9999839 magnetization 
 augmentation part       13.6314583 magnetization 

 Broyden mixing:
  rms(total) = 0.29641E-01    rms(broyden)= 0.29637E-01
  rms(prec ) = 0.37790E-01
  weight for this iteration     100.00

 eigenvalues of (default mixing * dielectric matrix)
  average eigenvalue GAMMA=   1.2544
  2.3251  2.2729  1.0110  1.0110  0.7888  0.6959  0.6759

 Free energy of the ion-electron system (eV)
  ---------------------------------------------------
  alpha Z        PSCENC =       451.31605171
  Ewald energy   TEWEN  =     24913.70541863
  -Hartree energ DENC   =    -33751.88064415
  -exchange      EXHF   =         0.00000000
  -V(xc)+E(xc)   XCENC  =       343.00268517
  PAW double counting   =      6212.61848928    -6043.38969637
  entropy T*S    EENTRO =         0.00000000
  eigenvalues    EBANDS =     -1219.26994634
  atomic energy  EATOM  =      8937.26825017
  Solvation  Ediel_sol  =         0.00000000
  ---------------------------------------------------
  free energy    TOTEN  =      -156.62939190 eV

  energy without entropy =     -156.62939190  energy(sigma->0) =     -156.62939190


--------------------------------------------------------------------------------------------------------




--------------------------------------- Iteration      1(  13)  ---------------------------------------


    POTLOK:  cpu time    0.0920: real time    0.0976
    SETDIJ:  cpu time    0.0110: real time    0.0117
    EDDIAG:  cpu time    0.3220: real time    0.3207
  RMM-DIIS:  cpu time    2.9456: real time    2.9454
    ORTHCH:  cpu time    0.0680: real time    0.0676
 BZINTS: Fermi energy:  0.571818;128.000000 electrons
         Band energy:***********;  BLOECHL correction:  0.000000
       DOS:  cpu time    0.0000: real time    0.0006
    CHARGE:  cpu time    0.1180: real time    0.1172
    MIXING:  cpu time    0.0030: real time    0.0036
    --------------------------------------------
      LOOP:  cpu time    3.5605: real time    3.5645

 eigenvalue-minimisations  :  1371
 total energy-change (2. order) : 0.5406516E-02  (-0.1826539E-02)
 number of electron     127.9999839 magnetization 
 augmentation part       13.6448627 magnetization 

 Broyden mixing:
  rms(total) = 0.15496E-01    rms(broyden)= 0.15494E-01
  rms(prec ) = 0.23933E-01
  weight for this iteration     100.00

 eigenvalues of (default mixing * dielectric matrix)
  average eigenvalue GAMMA=   1.4339
  2.8817  2.8817  1.4847  1.0062  0.9210  0.9210  0.7064  0.6687

 Free energy of the ion-electron system (eV)
  ---------------------------------------------------
  alpha Z        PSCENC =       451.31605171
  Ewald energy   TEWEN  =     24913.70541863
  -Hartree energ DENC   =    -33756.72599207
  -exchange      EXHF   =         0.00000000
  -V(xc)+E(xc)   XCENC  =       342.97462009
  PAW double counting   =      6212.15690332    -6042.84170770
  entropy T*S    EENTRO =         0.00000000
  eigenvalues    EBANDS =     -1214.47752953
  atomic energy  EATOM  =      8937.26825017
  Solvation  Ediel_sol  =         0.00000000
  ---------------------------------------------------
  free energy    TOTEN  =      -156.62398538 eV

  energy without entropy =     -156.62398538  energy(sigma->0) =     -156.62398538


--------------------------------------------------------------------------------------------------------




--------------------------------------- Iteration      1(  14)  ---------------------------------------


    POTLOK:  cpu time    0.0930: real time    0.0958
    SETDIJ:  cpu time    0.0120: real time    0.0117
    EDDIAG:  cpu time    0.3200: real time    0.3200
  RMM-DIIS:  cpu time    2.7286: real time    2.7278
    ORTHCH:  cpu time    0.0680: real time    0.0677
 BZINTS: Fermi energy:  0.600862;128.000000 electrons
         Band energy:***********;  BLOECHL correction:  0.000000
       DOS:  cpu time    0.0000: real time    0.0006
    CHARGE:  cpu time    0.1170: real time    0.1172
    MIXING:  cpu time    0.0040: real time    0.0038
    --------------------------------------------
      LOOP:  cpu time    3.3415: real time    3.3445

 eigenvalue-minimisations  :  1261
 total energy-change (2. order) : 0.4432101E-02  (-0.2025773E-02)
 number of electron     127.9999839 magnetization 
 augmentation part       13.6515968 magnetization 

 Broyden mixing:
  rms(total) = 0.16339E-01    rms(broyden)= 0.16333E-01
  rms(prec ) = 0.19754E-01
  weight for this iteration     100.00

 eigenvalues of (default mixing * dielectric matrix)
  average eigenvalue GAMMA=   1.4120
  3.3974  2.5635  1.4876  1.0890  1.0890  0.8818  0.8818  0.6418  0.6761

 Free energy of the ion-electron system (eV)
  ---------------------------------------------------
  alpha Z        PSCENC =       451.31605171
  Ewald energy   TEWEN  =     24913.70541863
  -Hartree energ DENC   =    -33768.54829450
  -exchange      EXHF   =         0.00000000
  -V(xc)+E(xc)   XCENC  =       342.90911977
  PAW double counting   =      6205.29231097    -6035.56947666
  entropy T*S    EENTRO =         0.00000000
  eigenvalues    EBANDS =     -1202.99293338
  atomic energy  EATOM  =      8937.26825017
  Solvation  Ediel_sol  =         0.00000000
  ---------------------------------------------------
  free energy    TOTEN  =      -156.61955328 eV

  energy without entropy =     -156.61955328  energy(sigma->0) =     -156.61955328


--------------------------------------------------------------------------------------------------------




--------------------------------------- Iteration      1(  15)  ---------------------------------------


    POTLOK:  cpu time    0.0920: real time    0.0947
    SETDIJ:  cpu time    0.0110: real time    0.0117
    EDDIAG:  cpu time    0.3210: real time    0.3199
  RMM-DIIS:  cpu time    2.9835: real time    2.9826
    ORTHCH:  cpu time    0.0670: real time    0.0677
 BZINTS: Fermi energy:  0.698685;128.000000 electrons
         Band energy:***********;  BLOECHL correction:  0.000000
       DOS:  cpu time    0.0000: real time    0.0006
    CHARGE:  cpu time    0.1180: real time    0.1173
    MIXING:  cpu time    0.0040: real time    0.0039
    --------------------------------------------
      LOOP:  cpu time    3.5965: real time    3.5985

 eigenvalue-minimisations  :  1373
 total energy-change (2. order) : 0.6905355E-03  (-0.5926761E-03)
 number of electron     127.9999839 magnetization 
 augmentation part       13.6489142 magnetization 

 Broyden mixing:
  rms(total) = 0.67102E-02    rms(broyden)= 0.67069E-02
  rms(prec ) = 0.10417E-01
  weight for this iteration     100.00

 eigenvalues of (default mixing * dielectric matrix)
  average eigenvalue GAMMA=   1.4662
  3.9795  2.3799  1.6770  1.6770  0.9405  0.9405  0.9906  0.7979  0.6232  0.6560

 Free energy of the ion-electron system (eV)
  ---------------------------------------------------
  alpha Z        PSCENC =       451.31605171
  Ewald energy   TEWEN  =     24913.70541863
  -Hartree energ DENC   =    -33773.59236161
  -exchange      EXHF   =         0.00000000
  -V(xc)+E(xc)   XCENC  =       342.97829136
  PAW double counting   =      6207.25501118    -6037.58065293
  entropy T*S    EENTRO =         0.00000000
  eigenvalues    EBANDS =     -1197.96887126
  atomic energy  EATOM  =      8937.26825017
  Solvation  Ediel_sol  =         0.00000000
  ---------------------------------------------------
  free energy    TOTEN  =      -156.61886274 eV

  energy without entropy =     -156.61886274  energy(sigma->0) =     -156.61886274


--------------------------------------------------------------------------------------------------------




--------------------------------------- Iteration      1(  16)  ---------------------------------------


    POTLOK:  cpu time    0.0930: real time    0.0971
    SETDIJ:  cpu time    0.0110: real time    0.0116
    EDDIAG:  cpu time    0.3200: real time    0.3195
  RMM-DIIS:  cpu time    2.7926: real time    2.7919
    ORTHCH:  cpu time    0.0620: real time    0.0625
 BZINTS: Fermi energy:  0.679511;128.000000 electrons
         Band energy:***********;  BLOECHL correction:  0.000000
       DOS:  cpu time    0.0010: real time    0.0006
    CHARGE:  cpu time    0.1170: real time    0.1172
    MIXING:  cpu time    0.0040: real time    0.0042
    --------------------------------------------
      LOOP:  cpu time    3.4005: real time    3.4046

 eigenvalue-minimisations  :  1294
 total energy-change (2. order) :-0.1018020E-02  (-0.5284425E-03)
 number of electron     127.9999839 magnetization 
 augmentation part       13.6396040 magnetization 

 Broyden mixing:
  rms(total) = 0.99757E-02    rms(broyden)= 0.99729E-02
  rms(prec ) = 0.11342E-01
  weight for this iteration     100.00

 eigenvalues of (default mixing * dielectric matrix)
  average eigenvalue GAMMA=   1.6451
  5.5206  2.8223  2.3251  1.1927  1.1927  1.2459  0.8689  0.8689  0.7569  0.6512
  0.6512

 Free energy of the ion-electron system (eV)
  ---------------------------------------------------
  alpha Z        PSCENC =       451.31605171
  Ewald energy   TEWEN  =     24913.70541863
  -Hartree energ DENC   =    -33780.47570089
  -exchange      EXHF   =         0.00000000
  -V(xc)+E(xc)   XCENC  =       343.02133757
  PAW double counting   =      6208.04784040    -6038.44483187
  entropy T*S    EENTRO =         0.00000000
  eigenvalues    EBANDS =     -1191.05824649
  atomic energy  EATOM  =      8937.26825017
  Solvation  Ediel_sol  =         0.00000000
  ---------------------------------------------------
  free energy    TOTEN  =      -156.61988076 eV

  energy without entropy =     -156.61988076  energy(sigma->0) =     -156.61988076


--------------------------------------------------------------------------------------------------------




--------------------------------------- Iteration      1(  17)  ---------------------------------------


    POTLOK:  cpu time    0.0910: real time    0.0949
    SETDIJ:  cpu time    0.0120: real time    0.0117
    EDDIAG:  cpu time    0.3190: real time    0.3197
  RMM-DIIS:  cpu time    2.6816: real time    2.6831
    ORTHCH:  cpu time    0.0620: real time    0.0625
 BZINTS: Fermi energy:  0.738070;128.000000 electrons
         Band energy:***********;  BLOECHL correction:  0.000000
       DOS:  cpu time    0.0010: real time    0.0006
    CHARGE:  cpu time    0.1170: real time    0.1175
    MIXING:  cpu time    0.0050: real time    0.0044
    --------------------------------------------
      LOOP:  cpu time    3.2885: real time    3.2943

 eigenvalue-minimisations  :  1250
 total energy-change (2. order) :-0.4156175E-03  (-0.2528240E-03)
 number of electron     127.9999839 magnetization 
 augmentation part       13.6386811 magnetization 

 Broyden mixing:
  rms(total) = 0.29383E-02    rms(broyden)= 0.29353E-02
  rms(prec ) = 0.38298E-02
  weight for this iteration     100.00

 eigenvalues of (default mixing * dielectric matrix)
  average eigenvalue GAMMA=   1.6760
  5.9764  2.7948  2.3118  1.5956  1.2386  1.2386  1.1855  0.8664  0.8664  0.7333
  0.6522  0.6522

 Free energy of the ion-electron system (eV)
  ---------------------------------------------------
  alpha Z        PSCENC =       451.31605171
  Ewald energy   TEWEN  =     24913.70541863
  -Hartree energ DENC   =    -33783.04343914
  -exchange      EXHF   =         0.00000000
  -V(xc)+E(xc)   XCENC  =       342.96592278
  PAW double counting   =      6205.51126743    -6035.86923793
  entropy T*S    EENTRO =         0.00000000
  eigenvalues    EBANDS =     -1188.47453004
  atomic energy  EATOM  =      8937.26825017
  Solvation  Ediel_sol  =         0.00000000
  ---------------------------------------------------
  free energy    TOTEN  =      -156.62029638 eV

  energy without entropy =     -156.62029638  energy(sigma->0) =     -156.62029638


--------------------------------------------------------------------------------------------------------




--------------------------------------- Iteration      1(  18)  ---------------------------------------


    POTLOK:  cpu time    0.0900: real time    0.0954
    SETDIJ:  cpu time    0.0120: real time    0.0117
    EDDIAG:  cpu time    0.3200: real time    0.3197
  RMM-DIIS:  cpu time    2.6396: real time    2.6392
    ORTHCH:  cpu time    0.0620: real time    0.0625
 BZINTS: Fermi energy:  0.785184;128.000000 electrons
         Band energy:***********;  BLOECHL correction:  0.000000
       DOS:  cpu time    0.0000: real time    0.0006
    CHARGE:  cpu time    0.1180: real time    0.1173
    MIXING:  cpu time    0.0050: real time    0.0046
    --------------------------------------------
      LOOP:  cpu time    3.2465: real time    3.2509

 eigenvalue-minimisations  :  1209
 total energy-change (2. order) :-0.1326755E-02  (-0.8663137E-04)
 number of electron     127.9999839 magnetization 
 augmentation part       13.6414932 magnetization 

 Broyden mixing:
  rms(total) = 0.33908E-02    rms(broyden)= 0.33900E-02
  rms(prec ) = 0.38468E-02
  weight for this iteration     100.00

 eigenvalues of (default mixing * dielectric matrix)
  average eigenvalue GAMMA=   1.7486
  6.7918  3.2872  2.2969  2.2969  1.2089  1.2089  1.0860  0.9563  0.8161  0.8161
  0.6695  0.6695  0.6271

 Free energy of the ion-electron system (eV)
  ---------------------------------------------------
  alpha Z        PSCENC =       451.31605171
  Ewald energy   TEWEN  =     24913.70541863
  -Hartree energ DENC   =    -33784.26013714
  -exchange      EXHF   =         0.00000000
  -V(xc)+E(xc)   XCENC  =       342.98634275
  PAW double counting   =      6206.24665000    -6036.59191691
  entropy T*S    EENTRO =         0.00000000
  eigenvalues    EBANDS =     -1187.29228236
  atomic energy  EATOM  =      8937.26825017
  Solvation  Ediel_sol  =         0.00000000
  ---------------------------------------------------
  free energy    TOTEN  =      -156.62162314 eV

  energy without entropy =     -156.62162314  energy(sigma->0) =     -156.62162314


--------------------------------------------------------------------------------------------------------




--------------------------------------- Iteration      1(  19)  ---------------------------------------


    POTLOK:  cpu time    0.0910: real time    0.0947
    SETDIJ:  cpu time    0.0120: real time    0.0117
    EDDIAG:  cpu time    0.3190: real time    0.3195
  RMM-DIIS:  cpu time    2.5576: real time    2.5564
    ORTHCH:  cpu time    0.0620: real time    0.0624
 BZINTS: Fermi energy:  0.683403;128.000000 electrons
         Band energy:***********;  BLOECHL correction:  0.000000
       DOS:  cpu time    0.0010: real time    0.0006
    CHARGE:  cpu time    0.1170: real time    0.1177
    MIXING:  cpu time    0.0050: real time    0.0048
    --------------------------------------------
      LOOP:  cpu time    3.1645: real time    3.1678

 eigenvalue-minimisations  :  1172
 total energy-change (2. order) :-0.1039866E-02  (-0.5308861E-04)
 number of electron     127.9999839 magnetization 
 augmentation part       13.6393257 magnetization 

 Broyden mixing:
  rms(total) = 0.12037E-02    rms(broyden)= 0.12027E-02
  rms(prec ) = 0.14058E-02
  weight for this iteration     100.00

 eigenvalues of (default mixing * dielectric matrix)
  average eigenvalue GAMMA=   1.7831
  7.5925  3.5496  2.3587  2.3587  1.2541  1.2541  1.0316  1.0316  0.9178  0.8447
  0.8447  0.6620  0.6620  0.6012

 Free energy of the ion-electron system (eV)
  ---------------------------------------------------
  alpha Z        PSCENC =       451.31605171
  Ewald energy   TEWEN  =     24913.70541863
  -Hartree energ DENC   =    -33784.26910033
  -exchange      EXHF   =         0.00000000
  -V(xc)+E(xc)   XCENC  =       342.97160009
  PAW double counting   =      6205.89749708    -6036.22329582
  entropy T*S    EENTRO =         0.00000000
  eigenvalues    EBANDS =     -1187.28908454
  atomic energy  EATOM  =      8937.26825017
  Solvation  Ediel_sol  =         0.00000000
  ---------------------------------------------------
  free energy    TOTEN  =      -156.62266300 eV

  energy without entropy =     -156.62266300  energy(sigma->0) =     -156.62266300


--------------------------------------------------------------------------------------------------------




--------------------------------------- Iteration      1(  20)  ---------------------------------------


    POTLOK:  cpu time    0.0910: real time    0.0944
    SETDIJ:  cpu time    0.0120: real time    0.0117
    EDDIAG:  cpu time    0.3190: real time    0.3193
  RMM-DIIS:  cpu time    2.0887: real time    2.0874
    ORTHCH:  cpu time    0.0620: real time    0.0625
 BZINTS: Fermi energy:  0.706952;128.000000 electrons
         Band energy:***********;  BLOECHL correction:  0.000000
       DOS:  cpu time    0.0010: real time    0.0006
    CHARGE:  cpu time    0.1170: real time    0.1172
    MIXING:  cpu time    0.0050: real time    0.0050
    --------------------------------------------
      LOOP:  cpu time    2.6956: real time    2.6981

 eigenvalue-minimisations  :   940
 total energy-change (2. order) :-0.3960743E-03  (-0.1658246E-04)
 number of electron     127.9999839 magnetization 
 augmentation part       13.6386082 magnetization 

 Broyden mixing:
  rms(total) = 0.67356E-03    rms(broyden)= 0.67345E-03
  rms(prec ) = 0.78662E-03
  weight for this iteration     100.00

 eigenvalues of (default mixing * dielectric matrix)
  average eigenvalue GAMMA=   1.8877
  8.1454  4.0204  2.5865  2.3227  2.3227  1.2071  1.2071  1.0489  1.0489  0.8531
  0.8531  0.7737  0.6598  0.6598  0.6055

 Free energy of the ion-electron system (eV)
  ---------------------------------------------------
  alpha Z        PSCENC =       451.31605171
  Ewald energy   TEWEN  =     24913.70541863
  -Hartree energ DENC   =    -33784.30457438
  -exchange      EXHF   =         0.00000000
  -V(xc)+E(xc)   XCENC  =       342.97399190
  PAW double counting   =      6206.24523789    -6036.57903624
  entropy T*S    EENTRO =         0.00000000
  eigenvalues    EBANDS =     -1187.24839876
  atomic energy  EATOM  =      8937.26825017
  Solvation  Ediel_sol  =         0.00000000
  ---------------------------------------------------
  free energy    TOTEN  =      -156.62305908 eV

  energy without entropy =     -156.62305908  energy(sigma->0) =     -156.62305908


--------------------------------------------------------------------------------------------------------




--------------------------------------- Iteration      1(  21)  ---------------------------------------


    POTLOK:  cpu time    0.0920: real time    0.0948
    SETDIJ:  cpu time    0.0110: real time    0.0115
    EDDIAG:  cpu time    0.3200: real time    0.3197
  RMM-DIIS:  cpu time    2.0327: real time    2.0313
    ORTHCH:  cpu time    0.0620: real time    0.0628
 BZINTS: Fermi energy:  0.725405;128.000000 electrons
         Band energy:***********;  BLOECHL correction:  0.000000
       DOS:  cpu time    0.0010: real time    0.0006
    CHARGE:  cpu time    0.1170: real time    0.1175
    MIXING:  cpu time    0.0060: real time    0.0052
    --------------------------------------------
      LOOP:  cpu time    2.6416: real time    2.6434

 eigenvalue-minimisations  :   912
 total energy-change (2. order) :-0.2779421E-03  (-0.1162614E-04)
 number of electron     127.9999839 magnetization 
 augmentation part       13.6387683 magnetization 

 Broyden mixing:
  rms(total) = 0.79337E-03    rms(broyden)= 0.79322E-03
  rms(prec ) = 0.86393E-03
  weight for this iteration     100.00

 eigenvalues of (default mixing * dielectric matrix)
  average eigenvalue GAMMA=   1.9115
  8.3124  4.8807  2.7298  2.7298  2.0968  1.2325  1.2325  1.1909  0.9264  0.9264
  0.8132  0.8132  0.7370  0.6253  0.6684  0.6684

 Free energy of the ion-electron system (eV)
  ---------------------------------------------------
  alpha Z        PSCENC =       451.31605171
  Ewald energy   TEWEN  =     24913.70541863
  -Hartree energ DENC   =    -33784.24134142
  -exchange      EXHF   =         0.00000000
  -V(xc)+E(xc)   XCENC  =       342.97668061
  PAW double counting   =      6206.38830965    -6036.71714338
  entropy T*S    EENTRO =         0.00000000
  eigenvalues    EBANDS =     -1187.31956299
  atomic energy  EATOM  =      8937.26825017
  Solvation  Ediel_sol  =         0.00000000
  ---------------------------------------------------
  free energy    TOTEN  =      -156.62333702 eV

  energy without entropy =     -156.62333702  energy(sigma->0) =     -156.62333702


--------------------------------------------------------------------------------------------------------




--------------------------------------- Iteration      1(  22)  ---------------------------------------


    POTLOK:  cpu time    0.0920: real time    0.0967
    SETDIJ:  cpu time    0.0120: real time    0.0115
    EDDIAG:  cpu time    0.3200: real time    0.3199
  RMM-DIIS:  cpu time    1.7967: real time    1.7966
    ORTHCH:  cpu time    0.0630: real time    0.0630
 BZINTS: Fermi energy:  0.741365;128.000000 electrons
         Band energy:***********;  BLOECHL correction:  0.000000
       DOS:  cpu time    0.0010: real time    0.0006
    CHARGE:  cpu time    0.1170: real time    0.1175
    MIXING:  cpu time    0.0060: real time    0.0054
    --------------------------------------------
      LOOP:  cpu time    2.4076: real time    2.4112

 eigenvalue-minimisations  :   799
 total energy-change (2. order) :-0.4789111E-04  (-0.4011568E-05)
 number of electron     127.9999839 magnetization 
 augmentation part       13.6379717 magnetization 

 Broyden mixing:
  rms(total) = 0.19481E-03    rms(broyden)= 0.19470E-03
  rms(prec ) = 0.22511E-03
  weight for this iteration     100.00

 eigenvalues of (default mixing * dielectric matrix)
  average eigenvalue GAMMA=   1.8848
  8.2966  5.1670  2.9958  2.5029  2.1153  1.4210  1.2297  1.2297  0.9398  0.9398
  0.9673  0.8151  0.8151  0.6663  0.6663  0.6286  0.6454

 Free energy of the ion-electron system (eV)
  ---------------------------------------------------
  alpha Z        PSCENC =       451.31605171
  Ewald energy   TEWEN  =     24913.70541863
  -Hartree energ DENC   =    -33784.13190697
  -exchange      EXHF   =         0.00000000
  -V(xc)+E(xc)   XCENC  =       342.97362835
  PAW double counting   =      6206.25931316    -6036.57960444
  entropy T*S    EENTRO =         0.00000000
  eigenvalues    EBANDS =     -1187.43453552
  atomic energy  EATOM  =      8937.26825017
  Solvation  Ediel_sol  =         0.00000000
  ---------------------------------------------------
  free energy    TOTEN  =      -156.62338491 eV

  energy without entropy =     -156.62338491  energy(sigma->0) =     -156.62338491


--------------------------------------------------------------------------------------------------------




--------------------------------------- Iteration      1(  23)  ---------------------------------------


    POTLOK:  cpu time    0.0920: real time    0.0952
    SETDIJ:  cpu time    0.0120: real time    0.0115
    EDDIAG:  cpu time    0.3190: real time    0.3200
  RMM-DIIS:  cpu time    1.6368: real time    1.6356
    ORTHCH:  cpu time    0.0620: real time    0.0629
 BZINTS: Fermi energy:  0.736494;128.000000 electrons
         Band energy:***********;  BLOECHL correction:  0.000000
       DOS:  cpu time    0.0000: real time    0.0006
    CHARGE:  cpu time    0.1180: real time    0.1175
    MIXING:  cpu time    0.0060: real time    0.0057
    --------------------------------------------
      LOOP:  cpu time    2.2457: real time    2.2489

 eigenvalue-minimisations  :   706
 total energy-change (2. order) :-0.1163432E-04  (-0.1372118E-05)
 number of electron     127.9999839 magnetization 
 augmentation part       13.6381810 magnetization 

 Broyden mixing:
  rms(total) = 0.13577E-03    rms(broyden)= 0.13575E-03
  rms(prec ) = 0.15649E-03
  weight for this iteration     100.00

 eigenvalues of (default mixing * dielectric matrix)
  average eigenvalue GAMMA=   1.8586
  8.2209  5.4184  3.0743  2.4951  2.1696  1.7468  1.2570  1.2570  0.9970  0.9462
  0.9462  0.8158  0.8158  0.7664  0.6583  0.6583  0.6352  0.5771

 Free energy of the ion-electron system (eV)
  ---------------------------------------------------
  alpha Z        PSCENC =       451.31605171
  Ewald energy   TEWEN  =     24913.70541863
  -Hartree energ DENC   =    -33784.14056019
  -exchange      EXHF   =         0.00000000
  -V(xc)+E(xc)   XCENC  =       342.97447191
  PAW double counting   =      6206.30703666    -6036.62627030
  entropy T*S    EENTRO =         0.00000000
  eigenvalues    EBANDS =     -1187.42779515
  atomic energy  EATOM  =      8937.26825017
  Solvation  Ediel_sol  =         0.00000000
  ---------------------------------------------------
  free energy    TOTEN  =      -156.62339654 eV

  energy without entropy =     -156.62339654  energy(sigma->0) =     -156.62339654


--------------------------------------------------------------------------------------------------------




--------------------------------------- Iteration      1(  24)  ---------------------------------------


    POTLOK:  cpu time    0.0920: real time    0.0944
    SETDIJ:  cpu time    0.0120: real time    0.0115
    EDDIAG:  cpu time    0.3200: real time    0.3196
  RMM-DIIS:  cpu time    1.5368: real time    1.5368
    ORTHCH:  cpu time    0.0630: real time    0.0629
 BZINTS: Fermi energy:  0.748626;128.000000 electrons
         Band energy:***********;  BLOECHL correction:  0.000000
       DOS:  cpu time    0.0000: real time    0.0006
    --------------------------------------------
      LOOP:  cpu time    2.0237: real time    2.0257

 eigenvalue-minimisations  :   636
 total energy-change (2. order) :-0.7434113E-05  (-0.9753153E-06)
 number of electron     127.9999839 magnetization 
 augmentation part       13.6381810 magnetization 

 Free energy of the ion-electron system (eV)
  ---------------------------------------------------
  alpha Z        PSCENC =       451.31605171
  Ewald energy   TEWEN  =     24913.70541863
  -Hartree energ DENC   =    -33784.13580295
  -exchange      EXHF   =         0.00000000
  -V(xc)+E(xc)   XCENC  =       342.97424131
  PAW double counting   =      6206.29853588    -6036.61727443
  entropy T*S    EENTRO =         0.00000000
  eigenvalues    EBANDS =     -1187.43282431
  atomic energy  EATOM  =      8937.26825017
  Solvation  Ediel_sol  =         0.00000000
  ---------------------------------------------------
  free energy    TOTEN  =      -156.62340398 eV

  energy without entropy =     -156.62340398  energy(sigma->0) =     -156.62340398


--------------------------------------------------------------------------------------------------------




 average (electrostatic) potential at core
  the test charge radii are     0.7215  1.1929  1.2598
  (the norm of the test charge is              1.0000)
       1 -73.1754       2 -73.6856       3 -73.6856       4 -73.6545       5 -73.7235
       6 -73.7235       7 -73.8142       8 -73.8204       9 -73.8204      10 -74.0656
      11 -73.4232      12 -73.4232      13 -39.9041      14 -38.7766      15 -38.8605
      16 -38.7224      17 -29.3017      18 -29.4782      19 -29.6270      20 -29.6649
 
 
 
 E-fermi :   0.7486     XC(G=0):  -7.3753     alpha+bet : -7.6895


 k-point     1 :       0.0000    0.0000    0.0000
  band No.  band energies     occupation 
      1     -33.7922      2.00000
      2     -32.7964      2.00000
      3     -32.7112      2.00000
      4     -32.6552      2.00000
      5     -17.7085      2.00000
      6     -17.6276      2.00000
      7     -17.5218      2.00000
      8     -17.0421      2.00000
      9     -16.5603      2.00000
     10     -16.5229      2.00000
     11     -16.4877      2.00000
     12     -16.4635      2.00000
     13     -16.4223      2.00000
     14     -16.3817      2.00000
     15     -15.9355      2.00000
     16     -15.7570      2.00000
     17     -15.7083      2.00000
     18     -15.7083      2.00000
     19     -15.6136      2.00000
     20     -14.8511      2.00000
     21     -14.8511      2.00000
     22     -14.7594      2.00000
     23     -14.7594      2.00000
     24     -14.7259      2.00000
     25     -14.7259      2.00000
[...]
     43      -2.7161      2.00000
     44      -2.7129      2.00000
     45      -2.5079      2.00000
     46      -2.3348      2.00000
     47      -2.2235      2.00000
     48      -2.1970      2.00000
     49      -1.9906      2.00000
     50      -1.8746      2.00000
     51      -1.7434      2.00000
     52      -1.6991      2.00000
     53      -1.6740      2.00000
     54      -1.6102      2.00000
     55      -1.3613      2.00000
     56      -1.3349      2.00000
     57      -1.2460      2.00000
     58      -1.1538      2.00000
     59      -1.0534      2.00000
     60      -0.9678      2.00000
     61      -0.7868      2.00000
     62      -0.7453      2.00000
     63      -0.5127      2.00000
     64      -0.2205      2.00000
     65       1.8201      0.00000
     66       2.3618      0.00000
     67       2.9294      0.00000
     68       3.4057      0.00000
     69       3.4452      0.00000
     70       3.5138      0.00000
     71       3.5627      0.00000
     72       3.5721      0.00000
     73       3.6567      0.00000
     74       3.6816      0.00000
     75       3.8085      0.00000
     76       7.4365      0.00000

 k-point     4 :       0.2500    0.2500    0.0000
  band No.  band energies     occupation 
      1     -33.7743      2.00000
      2     -32.7752      2.00000
      3     -32.6903      2.00000
      4     -32.6340      2.00000
      5     -17.4459      2.00000
      6     -17.2961      2.00000
      7     -17.1871      2.00000
      8     -16.9101      2.00000
      9     -16.6331      2.00000
     10     -16.5588      2.00000
     11     -16.5576      2.00000
     12     -16.4686      2.00000
     13     -16.4321      2.00000
     14     -16.2879      2.00000
     15     -16.2179      2.00000
     16     -15.9081      2.00000
     17     -15.7493      2.00000
     18     -15.6718      2.00000
     19     -14.9995      2.00000
     20     -14.8789      2.00000
     21     -14.7745      2.00000
     22     -14.6952      2.00000
     23     -14.6834      2.00000
     24     -14.6235      2.00000
     25     -14.5390      2.00000
     26     -14.4666      2.00000
     27     -14.4322      2.00000
     28     -14.4288      2.00000
     29      -4.3205      2.00000
     30      -4.1044      2.00000
     31      -3.9452      2.00000
     32      -3.9143      2.00000
     33      -3.6652      2.00000
     34      -3.5209      2.00000
     35      -3.5044      2.00000
     36      -3.4513      2.00000
     37      -3.3907      2.00000
     38      -3.3670      2.00000
     39      -3.2928      2.00000
     40      -3.1239      2.00000
     41      -3.1040      2.00000
     42      -3.0873      2.00000
     43      -3.0072      2.00000
     44      -2.9585      2.00000
     45      -2.9275      2.00000
     46      -2.8166      2.00000
     47      -2.6652      2.00000
     48      -2.6139      2.00000
     49      -2.2549      2.00000
     50      -2.1067      2.00000
     51      -2.0196      2.00000
     52      -1.6123      2.00000
     53      -1.4189      2.00000
     54      -1.1787      2.00000
     55      -1.0308      2.00000
     56      -0.9998      2.00000
     57      -0.9381      2.00000
     58      -0.9167      2.00000
     59      -0.8234      2.00000
     60      -0.7492      2.00000
     61      -0.6390      2.00000
     62      -0.6119      2.00000
     63      -0.4945      2.00000
     64      -0.0661      2.00000
     65       2.5279      0.00000
     66       2.7878      0.00000
     67       2.8779      0.00000
     68       3.0210      0.00000
     69       3.0381      0.00000
     70       3.1703      0.00000
     71       3.1971      0.00000
     72       3.2900      0.00000
     73       3.3385      0.00000
     74       3.5696      0.00000
     75       3.6040      0.00000
     76       7.2433      0.00000

 k-point     5 :       0.5000    0.2500    0.0000
  band No.  band energies     occupation 
      1     -33.7656      2.00000
      2     -32.7649      2.00000
      3     -32.6801      2.00000
      4     -32.6236      2.00000
      5     -17.3962      2.00000
      6     -17.1872      2.00000
      7     -16.9499      2.00000
      8     -16.6649      2.00000
      9     -16.6463      2.00000
     10     -16.6063      2.00000
     11     -16.5281      2.00000
     12     -16.4933      2.00000
     13     -16.3948      2.00000
     14     -16.0862      2.00000
     15     -16.0283      2.00000
     16     -15.9212      2.00000
     17     -15.9008      2.00000
     18     -15.6068      2.00000
     19     -15.0264      2.00000
     20     -14.9191      2.00000
     21     -14.8647      2.00000
     22     -14.6745      2.00000
     23     -14.6728      2.00000
     24     -14.6089      2.00000
     25     -14.5618      2.00000
     26     -14.5227      2.00000
     27     -14.4836      2.00000
     28     -14.3926      2.00000
     29      -4.5561      2.00000
     30      -4.4453      2.00000
     31      -4.3524      2.00000
     32      -4.1973      2.00000
     33      -4.1933      2.00000
     34      -4.0367      2.00000
     35      -4.0175      2.00000
     36      -3.9544      2.00000
     37      -3.7344      2.00000
     38      -3.6541      2.00000
     39      -3.5459      2.00000
     40      -3.5060      2.00000
     41      -3.4641      2.00000
     42      -3.4175      2.00000
     43      -3.2274      2.00000
     44      -3.2089      2.00000
     45      -3.1331      2.00000
     46      -2.9877      2.00000
     47      -2.9710      2.00000
     48      -2.8357      2.00000
     49      -2.6320      2.00000
     50      -2.4806      2.00000
     51      -2.0471      2.00000
     52      -1.6012      2.00000
     53      -1.4296      2.00000
     54      -1.3161      2.00000
     55      -1.0443      2.00000
     56      -0.9824      2.00000
     57      -0.8263      2.00000
     58      -0.7788      2.00000
     59      -0.7191      2.00000
     60      -0.7025      2.00000
     61      -0.6549      2.00000
     62      -0.4863      2.00000
     63      -0.1966      2.00000
     64       0.0976      2.00000
     65       2.6768      0.00000
     66       3.0136      0.00000
     67       3.3534      0.00000
     68       3.5286      0.00000
     69       3.6267      0.00000
     70       3.7031      0.00000
     71       3.7137      0.00000
     72       3.7593      0.00000
     73       3.8455      0.00000
     74       3.8904      0.00000
     75       3.9934      0.00000
     76       7.8003      0.00000

 k-point     6 :       0.5000    0.5000    0.0000
  band No.  band energies     occupation 
      1     -33.7573      2.00000
      2     -32.7553      2.00000
      3     -32.6706      2.00000
      4     -32.6140      2.00000
      5     -16.9017      2.00000
      6     -16.7282      2.00000
      7     -16.7282      2.00000
      8     -16.6483      2.00000
      9     -16.6355      2.00000
     10     -16.6355      2.00000
     11     -16.4160      2.00000
     12     -16.4160      2.00000
     13     -16.3962      2.00000
     14     -16.0021      2.00000
     15     -15.8722      2.00000
     16     -15.8722      2.00000
     17     -15.6596      2.00000
     18     -15.6596      2.00000
     19     -15.6299      2.00000
     20     -15.0329      2.00000
     21     -14.9306      2.00000
     22     -14.9306      2.00000
     23     -14.8330      2.00000
     24     -14.7114      2.00000
     25     -14.6184      2.00000
     26     -14.6184      2.00000
     27     -14.4706      2.00000
     28     -14.4706      2.00000
     29      -4.6962      2.00000
     30      -4.6062      2.00000
     31      -4.5882      2.00000
     32      -4.5026      2.00000
     33      -4.3554      2.00000
     34      -4.3237      2.00000
     35      -4.2447      2.00000
     36      -4.2060      2.00000
     37      -4.1671      2.00000
     38      -4.0888      2.00000
     39      -3.9649      2.00000
     40      -3.9264      2.00000
     41      -3.7606      2.00000
     42      -3.7606      2.00000
     43      -3.5080      2.00000
     44      -3.5080      2.00000
     45      -3.4668      2.00000
     46      -3.4534      2.00000
     47      -3.1613      2.00000
     48      -3.1613      2.00000
     49      -2.7029      2.00000
     50      -2.7029      2.00000
     51      -2.5000      2.00000
     52      -1.3667      2.00000
     53      -1.3667      2.00000
     54      -1.3313      2.00000
     55      -0.9076      2.00000
     56      -0.9076      2.00000
     57      -0.4875      2.00000
     58      -0.4875      2.00000
     59      -0.1923      2.00000
     60      -0.1748      2.00000
     61      -0.1748      2.00000
     62      -0.1089      2.00000
     63      -0.0636      2.00000
     64       0.6599      2.00000
     65       3.5404      0.00000
     66       3.5422      0.00000
     67       3.7659      0.00000
     68       3.7961      0.00000
     69       3.9531      0.00000
     70       4.0593      0.00000
     71       4.0817      0.00000
     72       4.1184      0.00000
     73       4.1407      0.00000
     74       7.1838      0.00000
     75       7.2458      0.00000
     76       7.2989      0.00000


--------------------------------------------------------------------------------------------------------


 soft charge-density along one line, spin component           1
         0         1         2         3         4         5         6         7         8         9
 total charge-density along one line
 
 pseudopotential strength for first ion, spin component:           1
 12.659  -0.343  -0.000  -0.022   0.000   0.000   0.001  -0.000
 -0.343   0.083   0.000   0.002  -0.000  -0.000  -0.000   0.000
 -0.000   0.000  -8.951   0.000  -0.000  -0.091  -0.000   0.000
 -0.022   0.002   0.000  -8.972   0.000  -0.000  -0.088  -0.000
  0.000  -0.000  -0.000   0.000  -8.951   0.000  -0.000  -0.091
  0.000  -0.000  -0.091  -0.000   0.000   0.247   0.000  -0.000
  0.001  -0.000  -0.000  -0.088  -0.000   0.000   0.246   0.000
 -0.000   0.000   0.000  -0.000  -0.091  -0.000   0.000   0.247
 total augmentation occupancy for first ion, spin component:           1
  1.865   0.125   0.000  -0.006   0.000   0.000   0.013   0.000
  0.125   0.012   0.000   0.026   0.000   0.000   0.005   0.000
  0.000   0.000   1.520  -0.000   0.000   0.123   0.000   0.000
 -0.006   0.026  -0.000   1.520   0.000   0.000   0.133  -0.000
  0.000   0.000   0.000   0.000   1.520   0.000   0.000   0.123
  0.000   0.000   0.123   0.000   0.000   0.011   0.000   0.000
  0.013   0.005   0.000   0.133  -0.000   0.000   0.013   0.000
  0.000   0.000   0.000  -0.000   0.123   0.000   0.000   0.011


------------------------ aborting loop because EDIFF is reached ----------------------------------------


    CHARGE:  cpu time    0.1200: real time    0.1203
    FORLOC:  cpu time    0.0210: real time    0.0209
    FORNL :  cpu time    1.1918: real time    1.1908
    STRESS:  cpu time    2.4116: real time    2.4114
    FORCOR:  cpu time    0.1030: real time    0.1029
    FORHAR:  cpu time    0.0350: real time    0.0353
    MIXING:  cpu time    0.0060: real time    0.0059
    OFIELD:  cpu time    0.0000: real time    0.0000

  FORCE on cell =-STRESS in cart. coord.  units (eV):
  Direction    XX          YY          ZZ          XY          YZ          ZX
  --------------------------------------------------------------------------------------
  Alpha Z   451.31605   451.31605   451.31605
  Ewald   30025.31756 30025.31756-35136.94585     0.00000     0.00000     0.00000
  Hartree 32581.81158 32581.81158-31379.45360    -0.00000    -0.00000    -0.00000
  E(xc)    -579.82422  -579.82422  -579.34970    -0.00000     0.00000    -0.00000
  Local  -64348.69582-64348.69582 64783.12506    -0.00000     0.00000     0.00000
  n-local  -488.01224  -465.63032  -479.16412    -1.13728     0.00003    -0.00006
  augment   115.94887   115.94887   114.94802     0.00000    -0.00000     0.00000
  Kinetic  2212.02742  2256.19000  2229.68127    -6.04081    -0.00003     0.00002
  Fock        0.00000     0.00000     0.00000     0.00000     0.00000     0.00000
  -------------------------------------------------------------------------------------
  Total       3.16145     3.16145     4.15713     0.00000     0.00000    -0.00000
  in kB      12.93886    12.93886    17.01388     0.00000     0.00000    -0.00000
  external pressure =       14.30 kB  Pullay stress =        0.00 kB


 VOLUME and BASIS-vectors are now :
 -----------------------------------------------------------------------------
  energy-cutoff  :      500.00
  volume of cell :      391.47
      direct lattice vectors                 reciprocal lattice vectors
     3.905268000  0.000000000  0.000000000     0.256064373  0.000000000  0.000000000
     0.000000000  3.905268000  0.000000000     0.000000000  0.256064373  0.000000000
     0.000000000  0.000000000 25.668438000     0.000000000  0.000000000  0.038958350

  length of vectors
     3.905268000  3.905268000 25.668438000     0.256064373  0.256064373  0.038958350


 FORCES acting on ions
    electron-ion (+dipol)            ewald-force                    non-local-force                 convergence-correction
 -----------------------------------------------------------------------------------------------
   0.169E-12 -.113E-12 0.157E+04   -.276E-14 0.267E-14 -.158E+04   0.000E+00 0.000E+00 0.791E+01   -.130E-13 0.197E-13 0.152E-02
   0.171E-12 -.155E-13 0.112E+04   -.723E-14 -.374E-14 -.111E+04   0.000E+00 0.318E-21 -.267E+00   -.141E-13 0.705E-14 -.166E-03
   0.709E-14 0.295E-12 0.112E+04   0.548E-14 -.847E-14 -.111E+04   0.000E+00 -.847E-21 -.267E+00   -.571E-14 0.209E-13 -.166E-03
   0.156E-12 0.287E-12 0.669E+03   -.956E-14 -.300E-14 -.669E+03   0.000E+00 0.000E+00 0.658E+00   0.697E-14 0.879E-14 -.332E-03
   0.165E-12 -.128E-12 0.223E+03   -.458E-14 -.321E-14 -.223E+03   0.847E-21 0.000E+00 0.197E+00   -.110E-13 0.229E-13 -.234E-03
   -.359E-14 -.122E-12 0.223E+03   0.843E-14 -.119E-13 -.223E+03   0.106E-21 0.000E+00 0.197E+00   -.221E-14 0.203E-13 -.234E-03
   0.165E-12 -.328E-12 -.223E+03   0.148E-14 0.548E-14 0.223E+03   0.000E+00 -.635E-21 0.543E+00   -.534E-14 -.123E-13 -.372E-03
   0.158E-12 0.546E-13 -.669E+03   -.364E-14 -.423E-14 0.669E+03   0.424E-21 0.106E-21 0.252E-01   -.113E-13 0.100E-13 -.520E-03
   -.333E-14 0.129E-12 -.669E+03   0.918E-14 -.129E-13 0.669E+03   0.000E+00 -.847E-21 0.252E-01   -.480E-14 0.435E-14 -.520E-03
   0.142E-12 0.218E-13 -.112E+04   -.275E-14 -.659E-17 0.111E+04   0.000E+00 -.159E-20 0.271E+01   -.528E-14 0.641E-14 0.801E-03
   0.179E-12 -.509E-13 -.154E+04   -.662E-14 -.619E-14 0.154E+04   0.000E+00 -.424E-20 -.223E+01   0.130E-13 -.429E-14 0.324E-02
   -.446E-14 0.655E-12 -.154E+04   0.656E-14 -.517E-14 0.154E+04   0.000E+00 0.106E-20 -.223E+01   0.662E-14 -.167E-13 0.324E-02
   0.323E-14 -.176E-12 0.255E+04   0.718E-14 0.728E-15 -.255E+04   0.000E+00 0.000E+00 -.499E+01   0.208E-14 0.238E-13 0.761E-03
   -.437E-14 -.153E-12 0.111E+04   0.107E-13 0.217E-14 -.111E+04   0.000E+00 0.000E+00 0.953E-02   0.599E-14 -.548E-15 -.308E-03
   0.250E-15 -.358E-13 -.372E+03   0.231E-14 0.116E-13 0.372E+03   0.847E-21 0.000E+00 0.994E-01   0.924E-14 -.727E-14 -.567E-03
   0.111E-13 0.543E-13 -.186E+04   0.115E-13 0.210E-14 0.186E+04   0.000E+00 0.741E-21 -.818E+00   0.219E-14 0.539E-14 0.652E-03
   -.114E-14 -.177E-12 0.743E+03   -.881E-14 0.112E-13 -.744E+03   0.000E+00 0.000E+00 -.403E+00   0.242E-14 0.301E-14 -.857E-05
   0.292E-15 -.764E-13 0.148E+03   -.903E-14 0.795E-14 -.149E+03   0.000E+00 0.106E-21 -.968E-01   0.228E-14 -.637E-14 -.182E-03
   0.280E-14 -.898E-13 -.446E+03   -.935E-14 0.112E-13 0.446E+03   0.000E+00 0.000E+00 -.255E-01   0.301E-14 -.394E-14 -.303E-03
   -.128E-14 -.428E-13 -.105E+04   -.597E-14 0.907E-14 0.104E+04   0.000E+00 0.212E-21 0.139E+01   -.458E-15 -.442E-14 0.209E-02
 -----------------------------------------------------------------------------------------------
   0.131E-11 -.117E-13 -.245E+01   -.747E-14 0.527E-14 0.909E-12   0.222E-20 -.561E-20 0.244E+01   -.195E-13 0.968E-13 0.839E-02
 
 
 POSITION                                       TOTAL-FORCE (eV/Angst)
 -----------------------------------------------------------------------------------
      1.95263      1.95263      6.00000        -0.000000      0.000000     -1.073275
      1.95263      0.00000      7.95263         0.000000      0.000000      0.002353
      0.00000      1.95263      7.95263        -0.000000     -0.000000      0.002353
      1.95263      1.95263      9.90527         0.000000     -0.000000      0.384864
      1.95263      0.00000     11.85790         0.000000      0.000000      0.068780
      0.00000      1.95263     11.85790         0.000000      0.000000      0.068780
      1.95263      1.95263     13.81054         0.000000      0.000000      0.309802
      1.95263      0.00000     15.76317         0.000000      0.000000      0.022026
      0.00000      1.95263     15.76317         0.000000      0.000000      0.022026
      1.95263      1.95263     17.71580         0.000000      0.000000      1.065808
      1.95263      0.00000     19.66844         0.000000      0.000000      0.469043
      0.00000      1.95263     19.66844         0.000000     -0.000000      0.469043
      0.00000      0.00000      6.00000         0.000000      0.000000      1.191230
      0.00000      0.00000      9.90527         0.000000      0.000000     -0.002151
      0.00000      0.00000     13.81054         0.000000      0.000000     -0.055842
      0.00000      0.00000     17.71580         0.000000      0.000000      0.667156
      1.95263      1.95263      7.95263         0.000000      0.000000     -1.041794
      1.95263      1.95263     11.85790         0.000000      0.000000     -0.319195
      1.95263      1.95263     15.76317         0.000000      0.000000     -0.377685
      1.95263      1.95263     19.66844         0.000000      0.000000     -1.873323
 -----------------------------------------------------------------------------------
    total drift:                                0.000000      0.000000      0.000792


--------------------------------------------------------------------------------------------------------



  FREE ENERGIE OF THE ION-ELECTRON SYSTEM (eV)
  ---------------------------------------------------
  free  energy   TOTEN  =      -156.62340398 eV

  energy  without entropy=     -156.62340398  energy(sigma->0) =     -156.62340398
 


--------------------------------------------------------------------------------------------------------


    POTLOK:  cpu time    0.1030: real time    0.1033


--------------------------------------------------------------------------------------------------------


     LOOP+:  cpu time   79.9958: real time   80.1730
    4ORBIT:  cpu time    0.0000: real time    0.0000
 BZINTS: Fermi energy:  0.748626;128.000000 electrons
         Band energy:***********;  BLOECHL correction:  0.000000

 total amount of memory used by VASP MPI-rank0    82007. kBytes
=======================================================================

   base      :      30000. kBytes
   nonl-proj :      14548. kBytes
   fftplans  :       6669. kBytes
   grid      :      11994. kBytes
   one-center:        155. kBytes
   wavefun   :      18641. kBytes
 
  
  
 General timing and accounting informations for this job:
 ========================================================
  
                  Total CPU time used (sec):       81.900
                            User time (sec):       80.613
                          System time (sec):        1.287
                         Elapsed time (sec):       82.785
  
                   Maximum memory used (kb):       90492.
                   Average memory used (kb):           0.
  
                          Minor page faults:        26251
                          Major page faults:          177
                 Voluntary context switches:         3559
