unknown system                          
   2.60000000000000     
     1.010884    0.000000    0.000000
     0.000000    1.010884    0.000000
     0.000000    0.000000    1.010884
   Pt
     1
Direct
  0.000000  0.000000  0.000000
 
   28   28   28
  69.220      67.572      63.034      56.617      49.468      42.411      35.786      29.611      23.894      18.809    
  14.637      11.581      9.6314      8.5893      8.2494      8.5893      9.6314      11.581      14.637      18.809    
  23.894      29.611      35.786      42.411      49.468      56.617      63.034      67.572      67.572      66.029    
  61.767      55.711      48.904      42.094      35.598      29.460      23.735      18.640      14.475      11.440    
  9.5151      8.4866      8.1506      8.4866      9.5151      11.440      14.475      18.640      23.735      29.460    
  35.598      42.094      48.904      55.711      61.767      66.029      63.034      61.767      58.242      53.145    
  47.244      41.090      34.941      28.913      23.190      18.096      13.978      11.023      9.1748      8.1869    
  7.8632      8.1869      9.1748      11.023      13.978      18.096      23.190      28.913      34.941      41.090    
  47.244      53.145      58.242      61.767      56.617      55.711      53.145      49.292      44.564      39.262    
  33.584      27.749      22.105      17.105      13.133      10.349      8.6369      7.7152      7.4129      7.7152    
  8.6369      10.349      13.133      17.105      22.105      27.749      33.584      39.262      44.564      49.292    
  53.145      55.711      49.468      48.904      47.244      44.564      40.943      36.466      31.296      25.763    
  20.362      15.634      11.968      9.4637      7.9446      7.1109      6.8389      7.1109      7.9446      9.4637    
  11.968      15.634      20.362      25.763      31.296      36.466      40.943      44.564      47.244      48.904    
  42.411      42.094      41.090      39.262      36.466      32.658      28.006      22.925      17.993      13.765    
  10.575      8.4477      7.1509      6.4232      6.1885      6.4232      7.1509      8.4477      10.575      13.765    
  17.993      22.925      28.006      32.658      36.466      39.262      41.090      42.094      35.786      35.598    
  34.941      33.584      31.296      28.006      23.909      19.457      15.223      11.694      9.1031      7.3928    
  6.3132      5.7051      5.5107      5.7051      6.3132      7.3928      9.1031      11.694      15.223      19.457    
  23.909      28.006      31.296      33.584      34.941      35.598      29.611      29.460      28.913      27.749    
  25.763      22.925      19.457      15.791      12.412      9.6776      7.7044      6.3705      5.4937      5.0048    
  4.8494      5.0048      5.4937      6.3705      7.7044      9.6776      12.412      15.791      19.457      22.925    
  25.763      27.749      28.913      29.460      23.894      23.735      23.190      22.105      20.362      17.993    
  15.223      12.412      9.9085      7.9253      6.4737      5.4318      4.7434      4.3608      4.2391      4.3608    
  4.7434      5.4318      6.4737      7.9253      9.9085      12.412      15.223      17.993      20.362      22.105    
  23.190      23.735      18.809      18.640      18.096      17.105      15.634      13.765      11.694      9.6776    
  7.9253      6.5222      5.4291      4.6270      4.0959      3.7985      3.7034      3.7985      4.0959      4.6270    
  5.4291      6.5222      7.9253      9.6776      11.694      13.765      15.634      17.105      18.096      18.640    
  14.637      14.475      13.978      13.133      11.968      10.575      9.1031      7.7044      6.4737      5.4291    
  4.5957      3.9808      3.5675      3.3322      3.2561      3.3322      3.5675      3.9808      4.5957      5.4291    
  6.4737      7.7044      9.1031      10.575      11.968      13.133      13.978      14.475      11.581      11.440    
  11.023      10.349      9.4637      8.4477      7.3928      6.3705      5.4318      4.6270      3.9808      3.4956    
  3.1620      2.9680      2.9044      2.9680      3.1620      3.4956      3.9808      4.6270      5.4318      6.3705    
  7.3928      8.4477      9.4637      10.349      11.023      11.440      9.6314      9.5151      9.1748      8.6369    
  7.9446      7.1509      6.3132      5.4937      4.7434      4.0959      3.5675      3.1620      2.8768      2.7077    
  2.6517      2.7077      2.8768      3.1620      3.5675      4.0959      4.7434      5.4937      6.3132      7.1509    
  7.9446      8.6369      9.1748      9.5151      8.5893      8.4866      8.1869      7.7152      7.1109      6.4232    
  5.7051      5.0048      4.3608      3.7985      3.3322      2.9680      2.7077      2.5516      2.4996      2.5516    
  2.7077      2.9680      3.3322      3.7985      4.3608      5.0048      5.7051      6.4232      7.1109      7.7152    
  8.1869      8.4866      8.2494      8.1506      7.8632      7.4129      6.8389      6.1885      5.5107      4.8494    
  4.2391      3.7034      3.2561      2.9044      2.6517      2.4996      2.4489      2.4996      2.6517      2.9044    
  3.2561      3.7034      4.2391      4.8494      5.5107      6.1885      6.8389      7.4129      7.8632      8.1506    
  8.5893      8.4866      8.1869      7.7152      7.1109      6.4232      5.7051      5.0048      4.3608      3.7985    
  3.3322      2.9680      2.7077      2.5516      2.4996      2.5516      2.7077      2.9680      3.3322      3.7985    
  4.3608      5.0048      5.7051      6.4232      7.1109      7.7152      8.1869      8.4866      9.6314      9.5151    
  9.1748      8.6369      7.9446      7.1509      6.3132      5.4937      4.7434      4.0959      3.5675      3.1620    
  2.8768      2.7077      2.6517      2.7077      2.8768      3.1620      3.5675      4.0959      4.7434      5.4937    
  6.3132      7.1509      7.9446      8.6369      9.1748      9.5151      11.581      11.440      11.023      10.349    
  9.4637      8.4477      7.3928      6.3705      5.4318      4.6270      3.9808      3.4956      3.1620      2.9680    
  2.9044      2.9680      3.1620      3.4956      3.9808      4.6270      5.4318      6.3705      7.3928      8.4477    
  9.4637      10.349      11.023      11.440      14.637      14.475      13.978      13.133      11.968      10.575    
  9.1031      7.7044      6.4737      5.4291      4.5957      3.9808      3.5675      3.3322      3.2561      3.3322    
  3.5675      3.9808      4.5957      5.4291      6.4737      7.7044      9.1031      10.575      11.968      13.133    
  13.978      14.475      18.809      18.640      18.096      17.105      15.634      13.765      11.694      9.6776    
  7.9253      6.5222      5.4291      4.6270      4.0959      3.7985      3.7034      3.7985      4.0959      4.6270    
  5.4291      6.5222      7.9253      9.6776      11.694      13.765      15.634      17.105      18.096      18.640    
  23.894      23.735      23.190      22.105      20.362      17.993      15.223      12.412      9.9085      7.9253    
  6.4737      5.4318      4.7434      4.3608      4.2391      4.3608      4.7434      5.4318      6.4737      7.9253    
  9.9085      12.412      15.223      17.993      20.362      22.105      23.190      23.735      29.611      29.460    
  28.913      27.749      25.763      22.925      19.457      15.791      12.412      9.6776      7.7044      6.3705    
  5.4937      5.0048      4.8494      5.0048      5.4937      6.3705      7.7044      9.6776      12.412      15.791    
  19.457      22.925      25.763      27.749      28.913      29.460      35.786      35.598      34.941      33.584    
  31.296      28.006      23.909      19.457      15.223      11.694      9.1031      7.3928      6.3132      5.7051    
  5.5107      5.7051      6.3132      7.3928      9.1031      11.694      15.223      19.457      23.909      28.006    
  31.296      33.584      34.941      35.598      42.411      42.094      41.090      39.262      36.466      32.658    
  28.006      22.925      17.993      13.765      10.575      8.4477      7.1509      6.4232      6.1885      6.4232    
  7.1509      8.4477      10.575      13.765      17.993      22.925      28.006      32.658      36.466      39.262    
  41.090      42.094      49.468      48.904      47.244      44.564      40.943      36.466      31.296      25.763    
  20.362      15.634      11.968      9.4637      7.9446      7.1109      6.8389      7.1109      7.9446      9.4637    
  11.968      15.634      20.362      25.763      31.296      36.466      40.943      44.564      47.244      48.904    
  56.617      55.711      53.145      49.292      44.564      39.262      33.584      27.749      22.105      17.105    
  13.133      10.349      8.6369      7.7152      7.4129      7.7152      8.6369      10.349      13.133      17.105    
  22.105      27.749      33.584      39.262      44.564      49.292      53.145      55.711      63.034      61.767    
  58.242      53.145      47.244      41.090      34.941      28.913      23.190      18.096      13.978      11.023    
  9.1748      8.1869      7.8632      8.1869      9.1748      11.023      13.978      18.096      23.190      28.913    
  34.941      41.090      47.244      53.145      58.242      61.767      67.572      66.029      61.767      55.711    
  48.904      42.094      35.598      29.460      23.735      18.640      14.475      11.440      9.5151      8.4866    
  8.1506      8.4866      9.5151      11.440      14.475      18.640      23.735      29.460      35.598      42.094    
  48.904      55.711      61.767      66.029      67.572      66.029      61.767      55.711      48.904      42.094    
  35.598      29.460      23.735      18.640      14.475      11.440      9.5151      8.4866      8.1506      8.4866    
  9.5151      11.440      14.475      18.640      23.735      29.460      35.598      42.094      48.904      55.711    
  61.767      66.029      66.029      64.582      60.577      54.857      48.365      41.782      35.403      29.298    
  23.567      18.465      14.311      11.301      9.4003      8.3853      8.0533      8.3853      9.4003      11.301    
  14.311      18.465      23.567      29.298      35.403      41.782      48.365      54.857      60.577      64.582    
  61.767      60.577      57.258      52.426      46.771      40.789      34.727      28.723      23.000      17.910    
  13.812      10.887      9.0644      8.0897      7.7702      8.0897      9.0644      10.887      13.812      17.910    
  23.000      28.723      34.727      40.789      46.771      52.426      57.258      60.577      55.711      54.857    
  52.426      48.744      44.170      38.972      33.343      27.523      21.889      16.907      12.968      10.218    
  8.5336      7.6245      7.3265      7.6245      8.5336      10.218      12.968      16.907      21.889      27.523    
  33.343      38.972      44.170      48.744      52.426      54.857      48.904      48.365      46.771      44.170    
  40.616      36.179      31.028      25.506      20.127      15.434      11.810      9.3445      7.8508      7.0287    
  6.7609      7.0287      7.8508      9.3445      11.810      15.434      20.127      25.506      31.028      36.179    
  40.616      44.170      46.771      48.365      42.094      41.782      40.789      38.972      36.179      32.370    
  27.720      22.654      17.756      13.575      10.433      8.3433      7.0674      6.3508      6.1199      6.3508    
  7.0674      8.3433      10.433      13.575      17.756      22.654      27.720      32.370      36.179      38.972    
  40.789      41.782      35.598      35.403      34.727      33.343      31.028      27.720      23.623      19.196    
  15.006      11.528      8.9832      7.3044      6.2412      5.6428      5.4517      5.6428      6.2412      7.3044    
  8.9832      11.528      15.006      19.196      23.623      27.720      31.028      33.343      34.727      35.403    
  29.460      29.298      28.723      27.523      25.506      22.654      19.196      15.563      12.230      9.5439    
  7.6084      6.2965      5.4332      4.9523      4.7995      4.9523      5.4332      6.2965      7.6084      9.5439    
  12.230      15.563      19.196      22.654      25.506      27.523      28.723      29.298      23.735      23.567    
  23.000      21.889      20.127      17.756      15.006      12.230      9.7692      7.8236      6.3974      5.3712    
  4.6936      4.3170      4.1972      4.3170      4.6936      5.3712      6.3974      7.8236      9.7692      12.230    
  15.006      17.756      20.127      21.889      23.000      23.567      18.640      18.465      17.910      16.907    
  15.434      13.575      11.528      9.5439      7.8236      6.4449      5.3680      4.5782      4.0551      3.7620    
  3.6682      3.7620      4.0551      4.5782      5.3680      6.4449      7.8236      9.5439      11.528      13.575    
  15.434      16.907      17.910      18.465      14.475      14.311      13.812      12.968      11.810      10.433    
  8.9832      7.6084      6.3974      5.3680      4.5471      3.9412      3.5338      3.3015      3.2263      3.3015    
  3.5338      3.9412      4.5471      5.3680      6.3974      7.6084      8.9832      10.433      11.810      12.968    
  13.812      14.311      11.440      11.301      10.887      10.218      9.3445      8.3433      7.3044      6.2965    
  5.3712      4.5782      3.9412      3.4627      3.1334      2.9417      2.8788      2.9417      3.1334      3.4627    
  3.9412      4.5782      5.3712      6.2965      7.3044      8.3433      9.3445      10.218      10.887      11.301    
  9.5151      9.4003      9.0644      8.5336      7.8508      7.0674      6.2412      5.4332      4.6936      4.0551    
  3.5338      3.1334      2.8516      2.6844      2.6291      2.6844      2.8516      3.1334      3.5338      4.0551    
  4.6936      5.4332      6.2412      7.0674      7.8508      8.5336      9.0644      9.4003      8.4866      8.3853    
  8.0897      7.6245      7.0287      6.3508      5.6428      4.9523      4.3170      3.7620      3.3015      2.9417    
  2.6844      2.5301      2.4787      2.5301      2.6844      2.9417      3.3015      3.7620      4.3170      4.9523    
  5.6428      6.3508      7.0287      7.6245      8.0897      8.3853      8.1506      8.0533      7.7702      7.3265    
  6.7609      6.1199      5.4517      4.7995      4.1972      3.6682      3.2263      2.8788      2.6291      2.4787    
  2.4285      2.4787      2.6291      2.8788      3.2263      3.6682      4.1972      4.7995      5.4517      6.1199    
  6.7609      7.3265      7.7702      8.0533      8.4866      8.3853      8.0897      7.6245      7.0287      6.3508    
  5.6428      4.9523      4.3170      3.7620      3.3015      2.9417      2.6844      2.5301      2.4787      2.5301    
  2.6844      2.9417      3.3015      3.7620      4.3170      4.9523      5.6428      6.3508      7.0287      7.6245    
  8.0897      8.3853      9.5151      9.4003      9.0644      8.5336      7.8508      7.0674      6.2412      5.4332    
  4.6936      4.0551      3.5338      3.1334      2.8516      2.6844      2.6291      2.6844      2.8516      3.1334    
  3.5338      4.0551      4.6936      5.4332      6.2412      7.0674      7.8508      8.5336      9.0644      9.4003    
  11.440      11.301      10.887      10.218      9.3445      8.3433      7.3044      6.2965      5.3712      4.5782    
  3.9412      3.4627      3.1334      2.9417      2.8788      2.9417      3.1334      3.4627      3.9412      4.5782    
  5.3712      6.2965      7.3044      8.3433      9.3445      10.218      10.887      11.301      14.475      14.311    
  13.812      12.968      11.810      10.433      8.9832      7.6084      6.3974      5.3680      4.5471      3.9412    
  3.5338      3.3015      3.2263      3.3015      3.5338      3.9412      4.5471      5.3680      6.3974      7.6084    
  8.9832      10.433      11.810      12.968      13.812      14.311      18.640      18.465      17.910      16.907    
  15.434      13.575      11.528      9.5439      7.8236      6.4449      5.3680      4.5782      4.0551      3.7620    
  3.6682      3.7620      4.0551      4.5782      5.3680      6.4449      7.8236      9.5439      11.528      13.575    
  15.434      16.907      17.910      18.465      23.735      23.567      23.000      21.889      20.127      17.756    
  15.006      12.230      9.7692      7.8236      6.3974      5.3712      4.6936      4.3170      4.1972      4.3170    
  4.6936      5.3712      6.3974      7.8236      9.7692      12.230      15.006      17.756      20.127      21.889    
  23.000      23.567      29.460      29.298      28.723      27.523      25.506      22.654      19.196      15.563    
  12.230      9.5439      7.6084      6.2965      5.4332      4.9523      4.7995      4.9523      5.4332      6.2965    
  7.6084      9.5439      12.230      15.563      19.196      22.654      25.506      27.523      28.723      29.298    
  35.598      35.403      34.727      33.343      31.028      27.720      23.623      19.196      15.006      11.528    
  8.9832      7.3044      6.2412      5.6428      5.4517      5.6428      6.2412      7.3044      8.9832      11.528    
  15.006      19.196      23.623      27.720      31.028      33.343      34.727      35.403      42.094      41.782    
  40.789      38.972      36.179      32.370      27.720      22.654      17.756      13.575      10.433      8.3433    
  7.0674      6.3508      6.1199      6.3508      7.0674      8.3433      10.433      13.575      17.756      22.654    
  27.720      32.370      36.179      38.972      40.789      41.782      48.904      48.365      46.771      44.170    
  40.616      36.179      31.028      25.506      20.127      15.434      11.810      9.3445      7.8508      7.0287    
  6.7609      7.0287      7.8508      9.3445      11.810      15.434      20.127      25.506      31.028      36.179    
  40.616      44.170      46.771      48.365      55.711      54.857      52.426      48.744      44.170      38.972    
  33.343      27.523      21.889      16.907      12.968      10.218      8.5336      7.6245      7.3265      7.6245    
  8.5336      10.218      12.968      16.907      21.889      27.523      33.343      38.972      44.170      48.744    
  52.426      54.857      61.767      60.577      57.258      52.426      46.771      40.789      34.727      28.723    
  23.000      17.910      13.812      10.887      9.0644      8.0897      7.7702      8.0897      9.0644      10.887    
  13.812      17.910      23.000      28.723      34.727      40.789      46.771      52.426      57.258      60.577    
  66.029      64.582      60.577      54.857      48.365      41.782      35.403      29.298      23.567      18.465    
  14.311      11.301      9.4003      8.3853      8.0533      8.3853      9.4003      11.301      14.311      18.465    
  23.567      29.298      35.403      41.782      48.365      54.857      60.577      64.582      63.034      61.767    
  58.242      53.145      47.244      41.090      34.941      28.913      23.190      18.096      13.978      11.023    
  9.1748      8.1869      7.8632      8.1869      9.1748      11.023      13.978      18.096      23.190      28.913    
  34.941      41.090      47.244      53.145      58.242      61.767      61.767      60.577      57.258      52.426    
  46.771      40.789      34.727      28.723      23.000      17.910      13.812      10.887      9.0644      8.0897    
  7.7702      8.0897      9.0644      10.887      13.812      17.910      23.000      28.723      34.727      40.789    
  46.771      52.426      57.258      60.577      58.242      57.258      54.482      50.350      45.345      39.823    
  33.998      28.075      22.375      17.327      13.309      10.483      8.7415      7.8062      7.4993      7.8062    
  8.7415      10.483      13.309      17.327      22.375      28.075      33.998      39.823      45.345      50.350    
  54.482      57.258      53.145      52.426      50.350      47.119      42.951      38.029      32.541      26.783    
  21.200      16.301      12.473      9.8360      8.2321      7.3602      7.0749      7.3602      8.2321      9.8360    
  12.473      16.301      21.200      26.783      32.541      38.029      42.951      47.119      50.350      52.426    
  47.244      46.771      45.345      42.951      39.571      35.246      30.158      24.693      19.400      14.829    
  11.343      8.9961      7.5766      6.7892      6.5338      6.7892      7.5766      8.9961      11.343      14.829    
  19.400      24.693      30.158      35.246      39.571      42.951      45.345      46.771      41.090      40.789    
  39.823      38.029      35.246      31.441      26.815      21.819      17.041      13.011      10.017      8.0389    
  6.8237      6.1398      5.9202      6.1398      6.8237      8.0389      10.017      13.011      17.041      21.819    
  26.815      31.441      35.246      38.029      39.823      40.789      34.941      34.727      33.998      32.541    
  30.158      26.815      22.744      18.408      14.361      11.042      8.6344      7.0468      6.0311      5.4614    
  5.2798      5.4614      6.0311      7.0468      8.6344      11.042      14.361      18.408      22.744      26.815    
  30.158      32.541      33.998      34.727      28.913      28.723      28.075      26.783      24.693      21.819    
  18.408      14.885      11.698      9.1547      7.3293      6.0804      5.2569      4.7993      4.6539      4.7993    
  5.2569      6.0804      7.3293      9.1547      11.698      14.885      18.408      21.819      24.693      26.783    
  28.075      28.723      23.190      23.000      22.375      21.200      19.400      17.041      14.361      11.698    
  9.3636      7.5284      6.1747      5.1945      4.5483      4.1892      4.0750      4.1892      4.5483      5.1945    
  6.1747      7.5284      9.3636      11.698      14.361      17.041      19.400      21.200      22.375      23.000    
  18.096      17.910      17.327      16.301      14.829      13.011      11.042      9.1547      7.5284      6.2193    
  5.1899      4.4358      3.9360      3.6555      3.5656      3.6555      3.9360      4.4358      5.1899      6.2193    
  7.5284      9.1547      11.042      13.011      14.829      16.301      17.327      17.910      13.978      13.812    
  13.309      12.473      11.343      10.017      8.6344      7.3293      6.1747      5.1899      4.4054      3.8258    
  3.4351      3.2118      3.1394      3.2118      3.4351      3.8258      4.4054      5.1899      6.1747      7.3293    
  8.6344      10.017      11.343      12.473      13.309      13.812      11.023      10.887      10.483      9.8360    
  8.9961      8.0389      7.0468      6.0804      5.1945      4.4358      3.8258      3.3666      3.0497      2.8647    
  2.8040      2.8647      3.0497      3.3666      3.8258      4.4358      5.1945      6.0804      7.0468      8.0389    
  8.9961      9.8360      10.483      10.887      9.1748      9.0644      8.7415      8.2321      7.5766      6.8237    
  6.0311      5.2569      4.5483      3.9360      3.4351      3.0497      2.7778      2.6163      2.5628      2.6163    
  2.7778      3.0497      3.4351      3.9360      4.5483      5.2569      6.0311      6.8237      7.5766      8.2321    
  8.7415      9.0644      8.1869      8.0897      7.8062      7.3602      6.7892      6.1398      5.4614      4.7993    
  4.1892      3.6555      3.2118      2.8647      2.6163      2.4672      2.4175      2.4672      2.6163      2.8647    
  3.2118      3.6555      4.1892      4.7993      5.4614      6.1398      6.7892      7.3602      7.8062      8.0897    
  7.8632      7.7702      7.4993      7.0749      6.5338      5.9202      5.2798      4.6539      4.0750      3.5656    
  3.1394      2.8040      2.5628      2.4175      2.3690      2.4175      2.5628      2.8040      3.1394      3.5656    
  4.0750      4.6539      5.2798      5.9202      6.5338      7.0749      7.4993      7.7702      8.1869      8.0897    
  7.8062      7.3602      6.7892      6.1398      5.4614      4.7993      4.1892      3.6555      3.2118      2.8647    
  2.6163      2.4672      2.4175      2.4672      2.6163      2.8647      3.2118      3.6555      4.1892      4.7993    
  5.4614      6.1398      6.7892      7.3602      7.8062      8.0897      9.1748      9.0644      8.7415      8.2321    
  7.5766      6.8237      6.0311      5.2569      4.5483      3.9360      3.4351      3.0497      2.7778      2.6163    
  2.5628      2.6163      2.7778      3.0497      3.4351      3.9360      4.5483      5.2569      6.0311      6.8237    
  7.5766      8.2321      8.7415      9.0644      11.023      10.887      10.483      9.8360      8.9961      8.0389    
  7.0468      6.0804      5.1945      4.4358      3.8258      3.3666      3.0497      2.8647      2.8040      2.8647    
  3.0497      3.3666      3.8258      4.4358      5.1945      6.0804      7.0468      8.0389      8.9961      9.8360    
  10.483      10.887      13.978      13.812      13.309      12.473      11.343      10.017      8.6344      7.3293    
  6.1747      5.1899      4.4054      3.8258      3.4351      3.2118      3.1394      3.2118      3.4351      3.8258    
  4.4054      5.1899      6.1747      7.3293      8.6344      10.017      11.343      12.473      13.309      13.812    
  18.096      17.910      17.327      16.301      14.829      13.011      11.042      9.1547      7.5284      6.2193    
  5.1899      4.4358      3.9360      3.6555      3.5656      3.6555      3.9360      4.4358      5.1899      6.2193    
  7.5284      9.1547      11.042      13.011      14.829      16.301      17.327      17.910      23.190      23.000    
  22.375      21.200      19.400      17.041      14.361      11.698      9.3636      7.5284      6.1747      5.1945    
  4.5483      4.1892      4.0750      4.1892      4.5483      5.1945      6.1747      7.5284      9.3636      11.698    
  14.361      17.041      19.400      21.200      22.375      23.000      28.913      28.723      28.075      26.783    
  24.693      21.819      18.408      14.885      11.698      9.1547      7.3293      6.0804      5.2569      4.7993    
  4.6539      4.7993      5.2569      6.0804      7.3293      9.1547      11.698      14.885      18.408      21.819    
  24.693      26.783      28.075      28.723      34.941      34.727      33.998      32.541      30.158      26.815    
  22.744      18.408      14.361      11.042      8.6344      7.0468      6.0311      5.4614      5.2798      5.4614    
  6.0311      7.0468      8.6344      11.042      14.361      18.408      22.744      26.815      30.158      32.541    
  33.998      34.727      41.090      40.789      39.823      38.029      35.246      31.441      26.815      21.819    
  17.041      13.011      10.017      8.0389      6.8237      6.1398      5.9202      6.1398      6.8237      8.0389    
  10.017      13.011      17.041      21.819      26.815      31.441      35.246      38.029      39.823      40.789    
  47.244      46.771      45.345      42.951      39.571      35.246      30.158      24.693      19.400      14.829    
  11.343      8.9961      7.5766      6.7892      6.5338      6.7892      7.5766      8.9961      11.343      14.829    
  19.400      24.693      30.158      35.246      39.571      42.951      45.345      46.771      53.145      52.426    
  50.350      47.119      42.951      38.029      32.541      26.783      21.200      16.301      12.473      9.8360    
  8.2321      7.3602      7.0749      7.3602      8.2321      9.8360      12.473      16.301      21.200      26.783    
  32.541      38.029      42.951      47.119      50.350      52.426      58.242      57.258      54.482      50.350    
  45.345      39.823      33.998      28.075      22.375      17.327      13.309      10.483      8.7415      7.8062    
  7.4993      7.8062      8.7415      10.483      13.309      17.327      22.375      28.075      33.998      39.823    
  45.345      50.350      54.482      57.258      61.767      60.577      57.258      52.426      46.771      40.789    
  34.727      28.723      23.000      17.910      13.812      10.887      9.0644      8.0897      7.7702      8.0897    
  9.0644      10.887      13.812      17.910      23.000      28.723      34.727      40.789      46.771      52.426    
  57.258      60.577      56.617      55.711      53.145      49.292      44.564      39.262      33.584      27.749    
  22.105      17.105      13.133      10.349      8.6369      7.7152      7.4129      7.7152      8.6369      10.349    
  13.133      17.105      22.105      27.749      33.584      39.262      44.564      49.292      53.145      55.711    
  55.711      54.857      52.426      48.744      44.170      38.972      33.343      27.523      21.889      16.907    
  12.968      10.218      8.5336      7.6245      7.3265      7.6245      8.5336      10.218      12.968      16.907    
  21.889      27.523      33.343      38.972      44.170      48.744      52.426      54.857      53.145      52.426    
  50.350      47.119      42.951      38.029      32.541      26.783      21.200      16.301      12.473      9.8360    
  8.2321      7.3602      7.0749      7.3602      8.2321      9.8360      12.473      16.301      21.200      26.783    
  32.541      38.029      42.951      47.119      50.350      52.426      49.292      48.744      47.119      44.457    
  40.809      36.258      30.994      25.386      19.962      15.265      11.664      9.2285      7.7564      6.9446    