unknown system                          
   2.60000000000000     
     1.010884    0.000000    0.000000
     0.000000    1.010884    0.000000
     0.000000    0.000000    1.010884
   Pt
     1
Direct
  0.000000  0.000000  0.000000
 
   28   28   28
 0.69219987072E+02 0.67572424323E+02 0.63034043347E+02 0.56617382321E+02 0.49468127630E+02
 0.42411484279E+02 0.35785833982E+02 0.29610887545E+02 0.23893937874E+02 0.18808839554E+02
 0.14637213262E+02 0.11580620821E+02 0.96313710307E+01 0.85893320380E+01 0.82494071905E+01
 0.85893320380E+01 0.96313710307E+01 0.11580620821E+02 0.14637213262E+02 0.18808839554E+02
 0.23893937874E+02 0.29610887545E+02 0.35785833982E+02 0.42411484279E+02 0.49468127630E+02
 0.56617382321E+02 0.63034043347E+02 0.67572424323E+02 0.67572424323E+02 0.66028679707E+02
 0.61766970112E+02 0.55711213204E+02 0.48903774023E+02 0.42094320252E+02 0.35597974246E+02
 0.29459655965E+02 0.23734857902E+02 0.18639530399E+02 0.14474876147E+02 0.11440291641E+02
 0.95151021999E+01 0.84866161457E+01 0.81506340203E+01 0.84866161457E+01 0.95151021999E+01
 0.11440291641E+02 0.14474876147E+02 0.18639530399E+02 0.23734857902E+02 0.29459655965E+02
 0.35597974246E+02 0.42094320252E+02 0.48903774023E+02 0.55711213204E+02 0.61766970112E+02
 0.66028679707E+02 0.63034043347E+02 0.61766970112E+02 0.58241810638E+02 0.53144990718E+02
 0.47243769641E+02 0.41089612679E+02 0.34940608284E+02 0.28912710725E+02 0.23189854839E+02
 0.18095843002E+02 0.13977610632E+02 0.11023267396E+02 0.91748306427E+01 0.81869439380E+01
 0.78632400402E+01 0.81869439380E+01 0.91748306427E+01 0.11023267396E+02 0.13977610632E+02
 0.18095843002E+02 0.23189854839E+02 0.28912710725E+02 0.34940608284E+02 0.41089612679E+02
 0.47243769641E+02 0.53144990718E+02 0.58241810638E+02 0.61766970112E+02 0.56617382321E+02
 0.55711213204E+02 0.53144990718E+02 0.49292487392E+02 0.44563916340E+02 0.39261817439E+02
 0.33583898420E+02 0.27748587686E+02 0.22105414315E+02 0.17104627488E+02 0.13133199588E+02
 0.10348560367E+02 0.86368911336E+01 0.77152380663E+01 0.74129252246E+01 0.77152380663E+01
 0.86368911336E+01 0.10348560367E+02 0.13133199588E+02 0.17104627488E+02 0.22105414315E+02
 0.27748587686E+02 0.33583898420E+02 0.39261817439E+02 0.44563916340E+02 0.49292487392E+02
 0.53144990718E+02 0.55711213204E+02 0.49468127630E+02 0.48903774023E+02 0.47243769641E+02
 0.44563916340E+02 0.40942853713E+02 0.36465858170E+02 0.31296492758E+02 0.25762892920E+02
 0.20362142096E+02 0.15634417475E+02 0.11967969129E+02 0.94637050101E+01 0.79446423122E+01
 0.71108605016E+01 0.68388955651E+01 0.71108605016E+01 0.79446423122E+01 0.94637050101E+01
 0.11967969129E+02 0.15634417475E+02 0.20362142096E+02 0.25762892920E+02 0.31296492758E+02
 0.36465858170E+02 0.40942853713E+02 0.44563916340E+02 0.47243769641E+02 0.48903774023E+02
 0.42411484279E+02 0.42094320252E+02 0.41089612679E+02 0.39261817439E+02 0.36465858170E+02
 0.32658351738E+02 0.28006217029E+02 0.22924629232E+02 0.17992575704E+02 0.13764560068E+02
 0.10575090831E+02 0.84477414111E+01 0.71508562046E+01 0.64232290595E+01 0.61885276408E+01
 0.64232290595E+01 0.71508562046E+01 0.84477414111E+01 0.10575090831E+02 0.13764560068E+02
 0.17992575704E+02 0.22924629232E+02 0.28006217029E+02 0.32658351738E+02 0.36465858170E+02
 0.39261817439E+02 0.41089612679E+02 0.42094320252E+02 0.35785833982E+02 0.35597974246E+02
 0.34940608284E+02 0.33583898420E+02 0.31296492758E+02 0.28006217029E+02 0.23908530211E+02
 0.19456824764E+02 0.15223387248E+02 0.11693971168E+02 0.91030529819E+01 0.73928048527E+01
 0.63131885315E+01 0.57050669500E+01 0.55107164194E+01 0.57050669500E+01 0.63131885315E+01
 0.73928048527E+01 0.91030529819E+01 0.11693971168E+02 0.15223387248E+02 0.19456824764E+02
 0.23908530211E+02 0.28006217029E+02 0.31296492758E+02 0.33583898420E+02 0.34940608284E+02
 0.35597974246E+02 0.29610887545E+02 0.29459655965E+02 0.28912710725E+02 0.27748587686E+02
 0.25762892920E+02 0.22924629232E+02 0.19456824764E+02 0.15790720795E+02 0.12411683200E+02
 0.96775522741E+01 0.77044234759E+01 0.63705281370E+01 0.54936544063E+01 0.50048342269E+01
 0.48494153024E+01 0.50048342269E+01 0.54936544063E+01 0.63705281370E+01 0.77044234759E+01
 0.96775522741E+01 0.12411683200E+02 0.15790720795E+02 0.19456824764E+02 0.22924629232E+02
 0.25762892920E+02 0.27748587686E+02 0.28912710725E+02 0.29459655965E+02 0.23893937874E+02
 0.23734857902E+02 0.23189854839E+02 0.22105414315E+02 0.20362142096E+02 0.17992575704E+02
 0.15223387248E+02 0.12411683200E+02 0.99084767116E+01 0.79252850688E+01 0.64736799098E+01
 0.54317967502E+01 0.47433749268E+01 0.43607863378E+01 0.42391175482E+01 0.43607863378E+01
 0.47433749268E+01 0.54317967502E+01 0.64736799098E+01 0.79252850688E+01 0.99084767116E+01
 0.12411683200E+02 0.15223387248E+02 0.17992575704E+02 0.20362142096E+02 0.22105414315E+02
 0.23189854839E+02 0.23734857902E+02 0.18808839554E+02 0.18639530399E+02 0.18095843002E+02
 0.17104627488E+02 0.15634417475E+02 0.13764560068E+02 0.11693971168E+02 0.96775522741E+01
 0.79252850688E+01 0.65221709729E+01 0.54291183370E+01 0.46270028132E+01 0.40959210974E+01
 0.37985240618E+01 0.37033606844E+01 0.37985240618E+01 0.40959210974E+01 0.46270028132E+01
 0.54291183370E+01 0.65221709729E+01 0.79252850688E+01 0.96775522741E+01 0.11693971168E+02
 0.13764560068E+02 0.15634417475E+02 0.17104627488E+02 0.18095843002E+02 0.18639530399E+02
 0.14637213262E+02 0.14474876147E+02 0.13977610632E+02 0.13133199588E+02 0.11967969129E+02
 0.10575090831E+02 0.91030529819E+01 0.77044234759E+01 0.64736799098E+01 0.54291183370E+01
 0.45957193900E+01 0.39807679874E+01 0.35675433510E+01 0.33322050778E+01 0.32560599620E+01
 0.33322050778E+01 0.35675433510E+01 0.39807679874E+01 0.45957193900E+01 0.54291183370E+01
 0.64736799098E+01 0.77044234759E+01 0.91030529819E+01 0.10575090831E+02 0.11967969129E+02
 0.13133199588E+02 0.13977610632E+02 0.14474876147E+02 0.11580620821E+02 0.11440291641E+02
 0.11023267396E+02 0.10348560367E+02 0.94637050101E+01 0.84477414111E+01 0.73928048527E+01
 0.63705281370E+01 0.54317967502E+01 0.46270028132E+01 0.39807679874E+01 0.34955734230E+01
 0.31620209219E+01 0.29679836281E+01 0.29043949984E+01 0.29679836281E+01 0.31620209219E+01
 0.34955734230E+01 0.39807679874E+01 0.46270028132E+01 0.54317967502E+01 0.63705281370E+01
 0.73928048527E+01 0.84477414111E+01 0.94637050101E+01 0.10348560367E+02 0.11023267396E+02
 0.11440291641E+02 0.96313710307E+01 0.95151021999E+01 0.91748306427E+01 0.86368911336E+01
 0.79446423122E+01 0.71508562046E+01 0.63131885315E+01 0.54936544063E+01 0.47433749268E+01
 0.40959210974E+01 0.35675433510E+01 0.31620209219E+01 0.28767896589E+01 0.27077232685E+01
 0.26517323535E+01 0.27077232685E+01 0.28767896589E+01 0.31620209219E+01 0.35675433510E+01
 0.40959210974E+01 0.47433749268E+01 0.54936544063E+01 0.63131885315E+01 0.71508562046E+01
 0.79446423122E+01 0.86368911336E+01 0.91748306427E+01 0.95151021999E+01 0.85893320380E+01
 0.84866161457E+01 0.81869439380E+01 0.77152380663E+01 0.71108605016E+01 0.64232290595E+01
 0.57050669500E+01 0.50048342269E+01 0.43607863378E+01 0.37985240618E+01 0.33322050778E+01
 0.29679836281E+01 0.27077232685E+01 0.25516470416E+01 0.24996402744E+01 0.25516470416E+01
 0.27077232685E+01 0.29679836281E+01 0.33322050778E+01 0.37985240618E+01 0.43607863378E+01
 0.50048342269E+01 0.57050669500E+01 0.64232290595E+01 0.71108605016E+01 0.77152380663E+01
 0.81869439380E+01 0.84866161457E+01 0.82494071905E+01 0.81506340203E+01 0.78632400402E+01
 0.74129252246E+01 0.68388955651E+01 0.61885276408E+01 0.55107164194E+01 0.48494153024E+01
 0.42391175482E+01 0.37033606844E+01 0.32560599620E+01 0.29043949984E+01 0.26517323535E+01
 0.24996402744E+01 0.24488653231E+01 0.24996402744E+01 0.26517323535E+01 0.29043949984E+01
 0.32560599620E+01 0.37033606844E+01 0.42391175482E+01 0.48494153024E+01 0.55107164194E+01
 0.61885276408E+01 0.68388955651E+01 0.74129252246E+01 0.78632400402E+01 0.81506340203E+01
 0.85893320380E+01 0.84866161457E+01 0.81869439380E+01 0.77152380663E+01 0.71108605016E+01
 0.64232290595E+01 0.57050669500E+01 0.50048342269E+01 0.43607863378E+01 0.37985240618E+01
 0.33322050778E+01 0.29679836281E+01 0.27077232685E+01 0.25516470416E+01 0.24996402744E+01
 0.25516470416E+01 0.27077232685E+01 0.29679836281E+01 0.33322050778E+01 0.37985240618E+01
 0.43607863378E+01 0.50048342269E+01 0.57050669500E+01 0.64232290595E+01 0.71108605016E+01
 0.77152380663E+01 0.81869439380E+01 0.84866161457E+01 0.96313710307E+01 0.95151021999E+01
 0.91748306427E+01 0.86368911336E+01 0.79446423122E+01 0.71508562046E+01 0.63131885315E+01
 0.54936544063E+01 0.47433749268E+01 0.40959210974E+01 0.35675433510E+01 0.31620209219E+01
 0.28767896589E+01 0.27077232685E+01 0.26517323535E+01 0.27077232685E+01 0.28767896589E+01
 0.31620209219E+01 0.35675433510E+01 0.40959210974E+01 0.47433749268E+01 0.54936544063E+01
 0.63131885315E+01 0.71508562046E+01 0.79446423122E+01 0.86368911336E+01 0.91748306427E+01
 0.95151021999E+01 0.11580620821E+02 0.11440291641E+02 0.11023267396E+02 0.10348560367E+02
 0.94637050101E+01 0.84477414111E+01 0.73928048527E+01 0.63705281370E+01 0.54317967502E+01
 0.46270028132E+01 0.39807679874E+01 0.34955734230E+01 0.31620209219E+01 0.29679836281E+01
 0.29043949984E+01 0.29679836281E+01 0.31620209219E+01 0.34955734230E+01 0.39807679874E+01
 0.46270028132E+01 0.54317967502E+01 0.63705281370E+01 0.73928048527E+01 0.84477414111E+01
 0.94637050101E+01 0.10348560367E+02 0.11023267396E+02 0.11440291641E+02 0.14637213262E+02
 0.14474876147E+02 0.13977610632E+02 0.13133199588E+02 0.11967969129E+02 0.10575090831E+02
 0.91030529819E+01 0.77044234759E+01 0.64736799098E+01 0.54291183370E+01 0.45957193900E+01
 0.39807679874E+01 0.35675433510E+01 0.33322050778E+01 0.32560599620E+01 0.33322050778E+01
 0.35675433510E+01 0.39807679874E+01 0.45957193900E+01 0.54291183370E+01 0.64736799098E+01
 0.77044234759E+01 0.91030529819E+01 0.10575090831E+02 0.11967969129E+02 0.13133199588E+02
 0.13977610632E+02 0.14474876147E+02 0.18808839554E+02 0.18639530399E+02 0.18095843002E+02
 0.17104627488E+02 0.15634417475E+02 0.13764560068E+02 0.11693971168E+02 0.96775522741E+01
 0.79252850688E+01 0.65221709729E+01 0.54291183370E+01 0.46270028132E+01 0.40959210974E+01
 0.37985240618E+01 0.37033606844E+01 0.37985240618E+01 0.40959210974E+01 0.46270028132E+01
 0.54291183370E+01 0.65221709729E+01 0.79252850688E+01 0.96775522741E+01 0.11693971168E+02
 0.13764560068E+02 0.15634417475E+02 0.17104627488E+02 0.18095843002E+02 0.18639530399E+02
 0.23893937874E+02 0.23734857902E+02 0.23189854839E+02 0.22105414315E+02 0.20362142096E+02
 0.17992575704E+02 0.15223387248E+02 0.12411683200E+02 0.99084767116E+01 0.79252850688E+01
 0.64736799098E+01 0.54317967502E+01 0.47433749268E+01 0.43607863378E+01 0.42391175482E+01
 0.43607863378E+01 0.47433749268E+01 0.54317967502E+01 0.64736799098E+01 0.79252850688E+01
 0.99084767116E+01 0.12411683200E+02 0.15223387248E+02 0.17992575704E+02 0.20362142096E+02
 0.22105414315E+02 0.23189854839E+02 0.23734857902E+02 0.29610887545E+02 0.29459655965E+02
 0.28912710725E+02 0.27748587686E+02 0.25762892920E+02 0.22924629232E+02 0.19456824764E+02
 0.15790720795E+02 0.12411683200E+02 0.96775522741E+01 0.77044234759E+01 0.63705281370E+01
 0.54936544063E+01 0.50048342269E+01 0.48494153024E+01 0.50048342269E+01 0.54936544063E+01
 0.63705281370E+01 0.77044234759E+01 0.96775522741E+01 0.12411683200E+02 0.15790720795E+02
 0.19456824764E+02 0.22924629232E+02 0.25762892920E+02 0.27748587686E+02 0.28912710725E+02
 0.29459655965E+02 0.35785833982E+02 0.35597974246E+02 0.34940608284E+02 0.33583898420E+02
 0.31296492758E+02 0.28006217029E+02 0.23908530211E+02 0.19456824764E+02 0.15223387248E+02
 0.11693971168E+02 0.91030529819E+01 0.73928048527E+01 0.63131885315E+01 0.57050669500E+01
 0.55107164194E+01 0.57050669500E+01 0.63131885315E+01 0.73928048527E+01 0.91030529819E+01
 0.11693971168E+02 0.15223387248E+02 0.19456824764E+02 0.23908530211E+02 0.28006217029E+02
 0.31296492758E+02 0.33583898420E+02 0.34940608284E+02 0.35597974246E+02 0.42411484279E+02
 0.42094320252E+02 0.41089612679E+02 0.39261817439E+02 0.36465858170E+02 0.32658351738E+02
 0.28006217029E+02 0.22924629232E+02 0.17992575704E+02 0.13764560068E+02 0.10575090831E+02
 0.84477414111E+01 0.71508562046E+01 0.64232290595E+01 0.61885276408E+01 0.64232290595E+01
 0.71508562046E+01 0.84477414111E+01 0.10575090831E+02 0.13764560068E+02 0.17992575704E+02
 0.22924629232E+02 0.28006217029E+02 0.32658351738E+02 0.36465858170E+02 0.39261817439E+02
 0.41089612679E+02 0.42094320252E+02 0.49468127630E+02 0.48903774023E+02 0.47243769641E+02
 0.44563916340E+02 0.40942853713E+02 0.36465858170E+02 0.31296492758E+02 0.25762892920E+02
 0.20362142096E+02 0.15634417475E+02 0.11967969129E+02 0.94637050101E+01 0.79446423122E+01
 0.71108605016E+01 0.68388955651E+01 0.71108605016E+01 0.79446423122E+01 0.94637050101E+01
 0.11967969129E+02 0.15634417475E+02 0.20362142096E+02 0.25762892920E+02 0.31296492758E+02
 0.36465858170E+02 0.40942853713E+02 0.44563916340E+02 0.47243769641E+02 0.48903774023E+02
 0.56617382321E+02 0.55711213204E+02 0.53144990718E+02 0.49292487392E+02 0.44563916340E+02
 0.39261817439E+02 0.33583898420E+02 0.27748587686E+02 0.22105414315E+02 0.17104627488E+02
 0.13133199588E+02 0.10348560367E+02 0.86368911336E+01 0.77152380663E+01 0.74129252246E+01
 0.77152380663E+01 0.86368911336E+01 0.10348560367E+02 0.13133199588E+02 0.17104627488E+02
 0.22105414315E+02 0.27748587686E+02 0.33583898420E+02 0.39261817439E+02 0.44563916340E+02
 0.49292487392E+02 0.53144990718E+02 0.55711213204E+02 0.63034043347E+02 0.61766970112E+02
 0.58241810638E+02 0.53144990718E+02 0.47243769641E+02 0.41089612679E+02 0.34940608284E+02
 0.28912710725E+02 0.23189854839E+02 0.18095843002E+02 0.13977610632E+02 0.11023267396E+02
 0.91748306427E+01 0.81869439380E+01 0.78632400402E+01 0.81869439380E+01 0.91748306427E+01
 0.11023267396E+02 0.13977610632E+02 0.18095843002E+02 0.23189854839E+02 0.28912710725E+02
 0.34940608284E+02 0.41089612679E+02 0.47243769641E+02 0.53144990718E+02 0.58241810638E+02
 0.61766970112E+02 0.67572424323E+02 0.66028679707E+02 0.61766970112E+02 0.55711213204E+02
 0.48903774023E+02 0.42094320252E+02 0.35597974246E+02 0.29459655965E+02 0.23734857902E+02
 0.18639530399E+02 0.14474876147E+02 0.11440291641E+02 0.95151021999E+01 0.84866161457E+01
 0.81506340203E+01 0.84866161457E+01 0.95151021999E+01 0.11440291641E+02 0.14474876147E+02
 0.18639530399E+02 0.23734857902E+02 0.29459655965E+02 0.35597974246E+02 0.42094320252E+02
 0.48903774023E+02 0.55711213204E+02 0.61766970112E+02 0.66028679707E+02 0.67572424323E+02
 0.66028679707E+02 0.61766970112E+02 0.55711213204E+02 0.48903774023E+02 0.42094320252E+02
 0.35597974246E+02 0.29459655965E+02 0.23734857902E+02 0.18639530399E+02 0.14474876147E+02
 0.11440291641E+02 0.95151021999E+01 0.84866161457E+01 0.81506340203E+01 0.84866161457E+01
 0.95151021999E+01 0.11440291641E+02 0.14474876147E+02 0.18639530399E+02 0.23734857902E+02
 0.29459655965E+02 0.35597974246E+02 0.42094320252E+02 0.48903774023E+02 0.55711213204E+02
 0.61766970112E+02 0.66028679707E+02 0.66028679707E+02 0.64581651642E+02 0.60577370423E+02
 0.54856532734E+02 0.48364910802E+02 0.41782299366E+02 0.35403407551E+02 0.29297979865E+02
 0.23567051392E+02 0.18465372236E+02 0.14311227549E+02 0.11300733341E+02 0.94002743400E+01
 0.83852894237E+01 0.80533167060E+01 0.83852894237E+01 0.94002743400E+01 0.11300733341E+02
 0.14311227549E+02 0.18465372236E+02 0.23567051392E+02 0.29297979865E+02 0.35403407551E+02
 0.41782299366E+02 0.48364910802E+02 0.54856532734E+02 0.60577370423E+02 0.64581651642E+02
 0.61766970112E+02 0.60577370423E+02 0.57257578282E+02 0.52425630163E+02 0.46770581193E+02
 0.40789344954E+02 0.34727067866E+02 0.28723148744E+02 0.22999578955E+02 0.17909961731E+02
 0.13811646723E+02 0.10886651694E+02 0.90643653469E+01 0.80897085395E+01 0.77701607095E+01
 0.80897085395E+01 0.90643653469E+01 0.10886651694E+02 0.13811646723E+02 0.17909961731E+02
 0.22999578955E+02 0.28723148744E+02 0.34727067866E+02 0.40789344954E+02 0.46770581193E+02
 0.52425630163E+02 0.57257578282E+02 0.60577370423E+02 0.55711213204E+02 0.54856532734E+02
 0.52425630163E+02 0.48744485084E+02 0.44170376057E+02 0.38971881112E+02 0.33343140538E+02
 0.27523162679E+02 0.21888652718E+02 0.16907297839E+02 0.12967838151E+02 0.10218433243E+02
 0.85336278781E+01 0.76245414012E+01 0.73264814554E+01 0.76245414012E+01 0.85336278781E+01
 0.10218433243E+02 0.12967838151E+02 0.16907297839E+02 0.21888652718E+02 0.27523162679E+02
 0.33343140538E+02 0.38971881112E+02 0.44170376057E+02 0.48744485084E+02 0.52425630163E+02
 0.54856532734E+02 0.48903774023E+02 0.48364910802E+02 0.46770581193E+02 0.44170376057E+02
 0.40616008484E+02 0.36179167814E+02 0.31027953937E+02 0.25506486506E+02 0.20126850074E+02
 0.15434024039E+02 0.11810058271E+02 0.93445235200E+01 0.78507891547E+01 0.70286690860E+01
 0.67608699804E+01 0.70286690860E+01 0.78507891547E+01 0.93445235200E+01 0.11810058271E+02
 0.15434024039E+02 0.20126850074E+02 0.25506486506E+02 0.31027953937E+02 0.36179167814E+02
 0.40616008484E+02 0.44170376057E+02 0.46770581193E+02 0.48364910802E+02 0.42094320252E+02
 0.41782299366E+02 0.40789344954E+02 0.38971881112E+02 0.36179167814E+02 0.32369781222E+02
 0.27719725170E+02 0.22654242301E+02 0.17756168364E+02 0.13574717415E+02 0.10433028881E+02
 0.83433075162E+01 0.70674174775E+01 0.63508003073E+01 0.61199258026E+01 0.63508003073E+01
 0.70674174775E+01 0.83433075162E+01 0.10433028881E+02 0.13574717415E+02 0.17756168364E+02
 0.22654242301E+02 0.27719725170E+02 0.32369781222E+02 0.36179167814E+02 0.38971881112E+02
 0.40789344954E+02 0.41782299366E+02 0.35597974246E+02 0.35403407551E+02 0.34727067866E+02
 0.33343140538E+02 0.31027953937E+02 0.27719725170E+02 0.23623425124E+02 0.19196356040E+02
 0.15006404058E+02 0.11528168769E+02 0.89832456924E+01 0.73044491396E+01 0.62411680682E+01
 0.56428104010E+01 0.54517242453E+01 0.56428104010E+01 0.62411680682E+01 0.73044491396E+01
 0.89832456924E+01 0.11528168769E+02 0.15006404058E+02 0.19196356040E+02 0.23623425124E+02
 0.27719725170E+02 0.31027953937E+02 0.33343140538E+02 0.34727067866E+02 0.35403407551E+02
 0.29459655965E+02 0.29297979865E+02 0.28723148744E+02 0.27523162679E+02 0.25506486506E+02
 0.22654242301E+02 0.19196356040E+02 0.15562868138E+02 0.12230307180E+02 0.95438752312E+01
 0.76084267561E+01 0.62965134032E+01 0.54331912277E+01 0.49523364729E+01 0.47994999637E+01
 0.49523364729E+01 0.54331912277E+01 0.62965134032E+01 0.76084267561E+01 0.95438752312E+01
 0.12230307180E+02 0.15562868138E+02 0.19196356040E+02 0.22654242301E+02 0.25506486506E+02
 0.27523162679E+02 0.28723148744E+02 0.29297979865E+02 0.23734857902E+02 0.23567051392E+02
 0.22999578955E+02 0.21888652718E+02 0.20126850074E+02 0.17756168364E+02 0.15006404058E+02
 0.12230307180E+02 0.97691600304E+01 0.78236193966E+01 0.63974457534E+01 0.53711894988E+01
 0.46935537958E+01 0.43170005911E+01 0.41972421640E+01 0.43170005911E+01 0.46935537958E+01
 0.53711894988E+01 0.63974457534E+01 0.78236193966E+01 0.97691600304E+01 0.12230307180E+02
 0.15006404058E+02 0.17756168364E+02 0.20126850074E+02 0.21888652718E+02 0.22999578955E+02
 0.23567051392E+02 0.18639530399E+02 0.18465372236E+02 0.17909961731E+02 0.16907297839E+02
 0.15434024039E+02 0.13574717415E+02 0.11528168769E+02 0.95438752312E+01 0.78236193966E+01
 0.64449063792E+01 0.53680377596E+01 0.45781664445E+01 0.40551012353E+01 0.37620468286E+01
 0.36682358733E+01 0.37620468286E+01 0.40551012353E+01 0.45781664445E+01 0.53680377596E+01
 0.64449063792E+01 0.78236193966E+01 0.95438752312E+01 0.11528168769E+02 0.13574717415E+02
 0.15434024039E+02 0.16907297839E+02 0.17909961731E+02 0.18465372236E+02 0.14474876147E+02
 0.14311227549E+02 0.13811646723E+02 0.12967838151E+02 0.11810058271E+02 0.10433028881E+02
 0.89832456924E+01 0.76084267561E+01 0.63974457534E+01 0.53680377596E+01 0.45471233300E+01
 0.39412219455E+01 0.35337755238E+01 0.33015321259E+01 0.32263469589E+01 0.33015321259E+01
 0.35337755238E+01 0.39412219455E+01 0.45471233300E+01 0.53680377596E+01 0.63974457534E+01
 0.76084267561E+01 0.89832456924E+01 0.10433028881E+02 0.11810058271E+02 0.12967838151E+02
 0.13811646723E+02 0.14311227549E+02 0.11440291641E+02 0.11300733341E+02 0.10886651694E+02
 0.10218433243E+02 0.93445235200E+01 0.83433075162E+01 0.73044491396E+01 0.62965134032E+01
 0.53711894988E+01 0.45781664445E+01 0.39412219455E+01 0.34626686803E+01 0.31333836496E+01
 0.29416696780E+01 0.28788113632E+01 0.29416696780E+01 0.31333836496E+01 0.34626686803E+01
 0.39412219455E+01 0.45781664445E+01 0.53711894988E+01 0.62965134032E+01 0.73044491396E+01
 0.83433075162E+01 0.93445235200E+01 0.10218433243E+02 0.10886651694E+02 0.11300733341E+02
 0.95151021999E+01 0.94002743400E+01 0.90643653469E+01 0.85336278781E+01 0.78507891547E+01
 0.70674174775E+01 0.62411680682E+01 0.54331912277E+01 0.46935537958E+01 0.40551012353E+01
 0.35337755238E+01 0.31333836496E+01 0.28515665623E+01 0.26844335681E+01 0.26290666518E+01
 0.26844335681E+01 0.28515665623E+01 0.31333836496E+01 0.35337755238E+01 0.40551012353E+01
 0.46935537958E+01 0.54331912277E+01 0.62411680682E+01 0.70674174775E+01 0.78507891547E+01
 0.85336278781E+01 0.90643653469E+01 0.94002743400E+01 0.84866161457E+01 0.83852894237E+01
 0.80897085395E+01 0.76245414012E+01 0.70286690860E+01 0.63508003073E+01 0.56428104010E+01
 0.49523364729E+01 0.43170005911E+01 0.37620468286E+01 0.33015321259E+01 0.29416696780E+01
 0.26844335681E+01 0.25301385054E+01 0.24787204655E+01 0.25301385054E+01 0.26844335681E+01
 0.29416696780E+01 0.33015321259E+01 0.37620468286E+01 0.43170005911E+01 0.49523364729E+01
 0.56428104010E+01 0.63508003073E+01 0.70286690860E+01 0.76245414012E+01 0.80897085395E+01
 0.83852894237E+01 0.81506340203E+01 0.80533167060E+01 0.77701607095E+01 0.73264814554E+01
 0.67608699804E+01 0.61199258026E+01 0.54517242453E+01 0.47994999637E+01 0.41972421640E+01
 0.36682358733E+01 0.32263469589E+01 0.28788113632E+01 0.26290666518E+01 0.24787204655E+01
 0.24285278191E+01 0.24787204655E+01 0.26290666518E+01 0.28788113632E+01 0.32263469589E+01
 0.36682358733E+01 0.41972421640E+01 0.47994999637E+01 0.54517242453E+01 0.61199258026E+01
 0.67608699804E+01 0.73264814554E+01 0.77701607095E+01 0.80533167060E+01 0.84866161457E+01
 0.83852894237E+01 0.80897085395E+01 0.76245414012E+01 0.70286690860E+01 0.63508003073E+01
 0.56428104010E+01 0.49523364729E+01 0.43170005911E+01 0.37620468286E+01 0.33015321259E+01
 0.29416696780E+01 0.26844335681E+01 0.25301385054E+01 0.24787204655E+01 0.25301385054E+01
 0.26844335681E+01 0.29416696780E+01 0.33015321259E+01 0.37620468286E+01 0.43170005911E+01
 0.49523364729E+01 0.56428104010E+01 0.63508003073E+01 0.70286690860E+01 0.76245414012E+01
 0.80897085395E+01 0.83852894237E+01 0.95151021999E+01 0.94002743400E+01 0.90643653469E+01
 0.85336278781E+01 0.78507891547E+01 0.70674174775E+01 0.62411680682E+01 0.54331912277E+01
 0.46935537958E+01 0.40551012353E+01 0.35337755238E+01 0.31333836496E+01 0.28515665623E+01
 0.26844335681E+01 0.26290666518E+01 0.26844335681E+01 0.28515665623E+01 0.31333836496E+01
 0.35337755238E+01 0.40551012353E+01 0.46935537958E+01 0.54331912277E+01 0.62411680682E+01
 0.70674174775E+01 0.78507891547E+01 0.85336278781E+01 0.90643653469E+01 0.94002743400E+01
 0.11440291641E+02 0.11300733341E+02 0.10886651694E+02 0.10218433243E+02 0.93445235200E+01
 0.83433075162E+01 0.73044491396E+01 0.62965134032E+01 0.53711894988E+01 0.45781664445E+01
 0.39412219455E+01 0.34626686803E+01 0.31333836496E+01 0.29416696780E+01 0.28788113632E+01
 0.29416696780E+01 0.31333836496E+01 0.34626686803E+01 0.39412219455E+01 0.45781664445E+01
 0.53711894988E+01 0.62965134032E+01 0.73044491396E+01 0.83433075162E+01 0.93445235200E+01
 0.10218433243E+02 0.10886651694E+02 0.11300733341E+02 0.14474876147E+02 0.14311227549E+02
 0.13811646723E+02 0.12967838151E+02 0.11810058271E+02 0.10433028881E+02 0.89832456924E+01
 0.76084267561E+01 0.63974457534E+01 0.53680377596E+01 0.45471233300E+01 0.39412219455E+01
 0.35337755238E+01 0.33015321259E+01 0.32263469589E+01 0.33015321259E+01 0.35337755238E+01
 0.39412219455E+01 0.45471233300E+01 0.53680377596E+01 0.63974457534E+01 0.76084267561E+01
 0.89832456924E+01 0.10433028881E+02 0.11810058271E+02 0.12967838151E+02 0.13811646723E+02
 0.14311227549E+02 0.18639530399E+02 0.18465372236E+02 0.17909961731E+02 0.16907297839E+02
 0.15434024039E+02 0.13574717415E+02 0.11528168769E+02 0.95438752312E+01 0.78236193966E+01
 0.64449063792E+01 0.53680377596E+01 0.45781664445E+01 0.40551012353E+01 0.37620468286E+01
 0.36682358733E+01 0.37620468286E+01 0.40551012353E+01 0.45781664445E+01 0.53680377596E+01
 0.64449063792E+01 0.78236193966E+01 0.95438752312E+01 0.11528168769E+02 0.13574717415E+02
 0.15434024039E+02 0.16907297839E+02 0.17909961731E+02 0.18465372236E+02 0.23734857902E+02
 0.23567051392E+02 0.22999578955E+02 0.21888652718E+02 0.20126850074E+02 0.17756168364E+02
 0.15006404058E+02 0.12230307180E+02 0.97691600304E+01 0.78236193966E+01 0.63974457534E+01
 0.53711894988E+01 0.46935537958E+01 0.43170005911E+01 0.41972421640E+01 0.43170005911E+01
 0.46935537958E+01 0.53711894988E+01 0.63974457534E+01 0.78236193966E+01 0.97691600304E+01
 0.12230307180E+02 0.15006404058E+02 0.17756168364E+02 0.20126850074E+02 0.21888652718E+02
 0.22999578955E+02 0.23567051392E+02 0.29459655965E+02 0.29297979865E+02 0.28723148744E+02
 0.27523162679E+02 0.25506486506E+02 0.22654242301E+02 0.19196356040E+02 0.15562868138E+02
 0.12230307180E+02 0.95438752312E+01 0.76084267561E+01 0.62965134032E+01 0.54331912277E+01
 0.49523364729E+01 0.47994999637E+01 0.49523364729E+01 0.54331912277E+01 0.62965134032E+01
 0.76084267561E+01 0.95438752312E+01 0.12230307180E+02 0.15562868138E+02 0.19196356040E+02
 0.22654242301E+02 0.25506486506E+02 0.27523162679E+02 0.28723148744E+02 0.29297979865E+02
 0.35597974246E+02 0.35403407551E+02 0.34727067866E+02 0.33343140538E+02 0.31027953937E+02
 0.27719725170E+02 0.23623425124E+02 0.19196356040E+02 0.15006404058E+02 0.11528168769E+02
 0.89832456924E+01 0.73044491396E+01 0.62411680682E+01 0.56428104010E+01 0.54517242453E+01
 0.56428104010E+01 0.62411680682E+01 0.73044491396E+01 0.89832456924E+01 0.11528168769E+02
 0.15006404058E+02 0.19196356040E+02 0.23623425124E+02 0.27719725170E+02 0.31027953937E+02
 0.33343140538E+02 0.34727067866E+02 0.35403407551E+02 0.42094320252E+02 0.41782299366E+02
 0.40789344954E+02 0.38971881112E+02 0.36179167814E+02 0.32369781222E+02 0.27719725170E+02
 0.22654242301E+02 0.17756168364E+02 0.13574717415E+02 0.10433028881E+02 0.83433075162E+01
 0.70674174775E+01 0.63508003073E+01 0.61199258026E+01 0.63508003073E+01 0.70674174775E+01
 0.83433075162E+01 0.10433028881E+02 0.13574717415E+02 0.17756168364E+02 0.22654242301E+02
 0.27719725170E+02 0.32369781222E+02 0.36179167814E+02 0.38971881112E+02 0.40789344954E+02
 0.41782299366E+02 0.48903774023E+02 0.48364910802E+02 0.46770581193E+02 0.44170376057E+02
 0.40616008484E+02 0.36179167814E+02 0.31027953937E+02 0.25506486506E+02 0.20126850074E+02
 0.15434024039E+02 0.11810058271E+02 0.93445235200E+01 0.78507891547E+01 0.70286690860E+01
 0.67608699804E+01 0.70286690860E+01 0.78507891547E+01 0.93445235200E+01 0.11810058271E+02
 0.15434024039E+02 0.20126850074E+02 0.25506486506E+02 0.31027953937E+02 0.36179167814E+02
 0.40616008484E+02 0.44170376057E+02 0.46770581193E+02 0.48364910802E+02 0.55711213204E+02
 0.54856532734E+02 0.52425630163E+02 0.48744485084E+02 0.44170376057E+02 0.38971881112E+02
 0.33343140538E+02 0.27523162679E+02 0.21888652718E+02 0.16907297839E+02 0.12967838151E+02
 0.10218433243E+02 0.85336278781E+01 0.76245414012E+01 0.73264814554E+01 0.76245414012E+01
 0.85336278781E+01 0.10218433243E+02 0.12967838151E+02 0.16907297839E+02 0.21888652718E+02
 0.27523162679E+02 0.33343140538E+02 0.38971881112E+02 0.44170376057E+02 0.48744485084E+02
 0.52425630163E+02 0.54856532734E+02 0.61766970112E+02 0.60577370423E+02 0.57257578282E+02
 0.52425630163E+02 0.46770581193E+02 0.40789344954E+02 0.34727067866E+02 0.28723148744E+02
 0.22999578955E+02 0.17909961731E+02 0.13811646723E+02 0.10886651694E+02 0.90643653469E+01
 0.80897085395E+01 0.77701607095E+01 0.80897085395E+01 0.90643653469E+01 0.10886651694E+02
 0.13811646723E+02 0.17909961731E+02 0.22999578955E+02 0.28723148744E+02 0.34727067866E+02
 0.40789344954E+02 0.46770581193E+02 0.52425630163E+02 0.57257578282E+02 0.60577370423E+02
 0.66028679707E+02 0.64581651642E+02 0.60577370423E+02 0.54856532734E+02 0.48364910802E+02
 0.41782299366E+02 0.35403407551E+02 0.29297979865E+02 0.23567051392E+02 0.18465372236E+02
 0.14311227549E+02 0.11300733341E+02 0.94002743400E+01 0.83852894237E+01 0.80533167060E+01
 0.83852894237E+01 0.94002743400E+01 0.11300733341E+02 0.14311227549E+02 0.18465372236E+02
 0.23567051392E+02 0.29297979865E+02 0.35403407551E+02 0.41782299366E+02 0.48364910802E+02
 0.54856532734E+02 0.60577370423E+02 0.64581651642E+02 0.63034043347E+02 0.61766970112E+02
 0.58241810638E+02 0.53144990718E+02 0.47243769641E+02 0.41089612679E+02 0.34940608284E+02
 0.28912710725E+02 0.23189854839E+02 0.18095843002E+02 0.13977610632E+02 0.11023267396E+02
 0.91748306427E+01 0.81869439380E+01 0.78632400402E+01 0.81869439380E+01 0.91748306427E+01
 0.11023267396E+02 0.13977610632E+02 0.18095843002E+02 0.23189854839E+02 0.28912710725E+02
 0.34940608284E+02 0.41089612679E+02 0.47243769641E+02 0.53144990718E+02 0.58241810638E+02
 0.61766970112E+02 0.61766970112E+02 0.60577370423E+02 0.57257578282E+02 0.52425630163E+02
 0.46770581193E+02 0.40789344954E+02 0.34727067866E+02 0.28723148744E+02 0.22999578955E+02
 0.17909961731E+02 0.13811646723E+02 0.10886651694E+02 0.90643653469E+01 0.80897085395E+01
 0.77701607095E+01 0.80897085395E+01 0.90643653469E+01 0.10886651694E+02 0.13811646723E+02
 0.17909961731E+02 0.22999578955E+02 0.28723148744E+02 0.34727067866E+02 0.40789344954E+02
 0.46770581193E+02 0.52425630163E+02 0.57257578282E+02 0.60577370423E+02 0.58241810638E+02
 0.57257578282E+02 0.54481670936E+02 0.50350132051E+02 0.45345468300E+02 0.39823066672E+02