   1   1   0   0
  0.1815619E+02  0.2628300E-09  0.2628300E-09  0.2628300E-09  0.5000000E-15
  1.000000000000000E-004
  CAR 
 unknown system                          
     31.15957616     -4.99648385  301      5.37298743      1.00000000
     -4.996  0.0000E+00  0.0000E+00
     -4.876  0.0000E+00  0.0000E+00
     -4.755  0.0000E+00  0.0000E+00
     -4.635  0.0000E+00  0.0000E+00
     -4.514  0.0000E+00  0.0000E+00
     -4.394  0.0000E+00  0.0000E+00
     -4.273  0.0000E+00  0.0000E+00
     -4.153  0.0000E+00  0.0000E+00
     -4.032  0.0000E+00  0.0000E+00
     -3.912  0.0000E+00  0.0000E+00
     -3.791  0.0000E+00  0.0000E+00
     -3.671  0.0000E+00  0.0000E+00
     -3.550  0.0000E+00  0.0000E+00
     -3.430  0.0000E+00  0.0000E+00
     -3.309  0.0000E+00  0.0000E+00
     -3.189  0.0000E+00  0.0000E+00
     -3.068  0.0000E+00  0.0000E+00
     -2.948  0.9046E-03  0.1473E-04
     -2.827  0.1088E-01  0.6140E-03
     -2.707  0.3165E-01  0.3078E-02
     -2.586  0.5092E-01  0.8140E-02
     -2.466  0.6162E-01  0.1501E-01
     -2.345  0.6783E-01  0.2279E-01
     -2.225  0.7671E-01  0.3147E-01
     -2.104  0.8816E-01  0.4138E-01
     -1.983  0.1004E+00  0.5275E-01
     -1.863  0.1123E+00  0.6558E-01
     -1.742  0.1236E+00  0.7979E-01
     -1.622  0.1359E+00  0.9542E-01
     -1.501  0.1494E+00  0.1126E+00
     -1.381  0.1638E+00  0.1315E+00
     -1.260  0.1786E+00  0.1521E+00
     -1.140  0.1951E+00  0.1746E+00
     -1.019  0.2164E+00  0.1993E+00
     -0.899  0.2453E+00  0.2271E+00
     -0.778  0.2763E+00  0.2585E+00
     -0.658  0.3077E+00  0.2937E+00
     -0.537  0.3467E+00  0.3329E+00
     -0.417  0.4130E+00  0.3784E+00
     -0.296  0.5335E+00  0.4344E+00
     -0.176  0.8241E+00  0.5132E+00
     -0.055  0.1152E+01  0.6328E+00
      0.065  0.1493E+01  0.7900E+00
      0.186  0.1803E+01  0.9916E+00
      0.306  0.2123E+01  0.1228E+01
      0.427  0.2319E+01  0.1497E+01
      0.547  0.2589E+01  0.1795E+01
      0.668  0.2358E+01  0.2096E+01
      0.788  0.2549E+01  0.2395E+01
      0.909  0.2309E+01  0.2701E+01
      1.030  0.2162E+01  0.2963E+01
      1.150  0.1756E+01  0.3202E+01
      1.271  0.1495E+01  0.3398E+01
      1.391  0.1332E+01  0.3567E+01
      1.512  0.1304E+01  0.3725E+01
      1.632  0.1347E+01  0.3885E+01
      1.753  0.1546E+01  0.4057E+01
      1.873  0.1848E+01  0.4263E+01
      1.994  0.1596E+01  0.4468E+01
      2.114  0.2261E+01  0.4690E+01
      2.235  0.1730E+01  0.4930E+01
      2.355  0.1377E+01  0.5117E+01
      2.476  0.1112E+01  0.5265E+01
      2.596  0.9583E+00  0.5389E+01
      2.717  0.8539E+00  0.5499E+01
      2.837  0.9861E+00  0.5607E+01
      2.958  0.1249E+01  0.5741E+01
      3.078  0.1474E+01  0.5906E+01
      3.199  0.1655E+01  0.6094E+01
      3.319  0.1771E+01  0.6300E+01
      3.440  0.2021E+01  0.6526E+01
      3.560  0.2239E+01  0.6782E+01
      3.681  0.2139E+01  0.7050E+01
      3.801  0.1879E+01  0.7292E+01
      3.922  0.1567E+01  0.7503E+01
      4.043  0.1083E+01  0.7663E+01
      4.163  0.1035E+01  0.7784E+01
      4.284  0.1879E+01  0.7942E+01
      4.404  0.2466E+01  0.8242E+01
      4.525  0.2232E+01  0.8523E+01
      4.645  0.1995E+01  0.8781E+01
      4.766  0.2054E+01  0.9023E+01
      4.886  0.1818E+01  0.9253E+01
      5.007  0.1665E+01  0.9463E+01
      5.127  0.1494E+01  0.9651E+01
      5.248  0.1416E+01  0.9825E+01
      5.368  0.1401E+01  0.9993E+01
      5.489  0.1401E+01  0.1017E+02
      5.609  0.1207E+01  0.1033E+02
      5.730  0.8634E+00  0.1045E+02
      5.850  0.6670E+00  0.1054E+02
      5.971  0.6228E+00  0.1062E+02
      6.091  0.6225E+00  0.1070E+02
      6.212  0.5880E+00  0.1077E+02
      6.332  0.5504E+00  0.1084E+02
      6.453  0.5098E+00  0.1090E+02
      6.573  0.4730E+00  0.1096E+02
      6.694  0.4383E+00  0.1102E+02
      6.814  0.4065E+00  0.1107E+02
      6.935  0.3727E+00  0.1111E+02
      7.056  0.3366E+00  0.1116E+02
      7.176  0.2982E+00  0.1119E+02
      7.297  0.2632E+00  0.1123E+02
      7.417  0.2313E+00  0.1126E+02
      7.538  0.2261E+00  0.1129E+02
      7.658  0.2217E+00  0.1131E+02
      7.779  0.2179E+00  0.1134E+02
      7.899  0.2146E+00  0.1137E+02
      8.020  0.2114E+00  0.1139E+02
      8.140  0.2081E+00  0.1142E+02
      8.261  0.2048E+00  0.1144E+02
      8.381  0.2013E+00  0.1147E+02
      8.502  0.1978E+00  0.1149E+02
      8.622  0.1942E+00  0.1151E+02
      8.743  0.1905E+00  0.1154E+02
      8.863  0.1867E+00  0.1156E+02
      8.984  0.1829E+00  0.1158E+02
      9.104  0.1791E+00  0.1160E+02
      9.225  0.1752E+00  0.1162E+02
      9.345  0.1710E+00  0.1165E+02
      9.466  0.1681E+00  0.1167E+02
      9.586  0.1700E+00  0.1169E+02
      9.707  0.1681E+00  0.1171E+02
      9.828  0.2473E+00  0.1173E+02
      9.948  0.3537E+00  0.1177E+02
     10.069  0.3994E+00  0.1181E+02
     10.189  0.4257E+00  0.1186E+02
     10.310  0.4361E+00  0.1192E+02
     10.430  0.4329E+00  0.1197E+02
     10.551  0.4303E+00  0.1202E+02
     10.671  0.4288E+00  0.1207E+02
     10.792  0.4270E+00  0.1212E+02
     10.912  0.4243E+00  0.1217E+02
     11.033  0.4168E+00  0.1223E+02
     11.153  0.4077E+00  0.1227E+02
     11.274  0.4006E+00  0.1232E+02
     11.394  0.3945E+00  0.1237E+02
     11.515  0.3874E+00  0.1242E+02
     11.635  0.3791E+00  0.1246E+02
     11.756  0.3710E+00  0.1251E+02
     11.876  0.3643E+00  0.1255E+02
     11.997  0.3622E+00  0.1260E+02
     12.117  0.3656E+00  0.1264E+02
     12.238  0.3642E+00  0.1269E+02
     12.358  0.3590E+00  0.1273E+02
     12.479  0.3503E+00  0.1277E+02
     12.599  0.3364E+00  0.1281E+02
     12.720  0.3330E+00  0.1285E+02
     12.841  0.3296E+00  0.1289E+02
     12.961  0.3263E+00  0.1293E+02
     13.082  0.3235E+00  0.1297E+02
     13.202  0.3208E+00  0.1301E+02
     13.323  0.3177E+00  0.1305E+02
     13.443  0.3141E+00  0.1309E+02
     13.564  0.3103E+00  0.1313E+02
     13.684  0.3042E+00  0.1316E+02
     13.805  0.2995E+00  0.1320E+02
     13.925  0.2948E+00  0.1323E+02
     14.046  0.2901E+00  0.1327E+02
     14.166  0.2852E+00  0.1330E+02
     14.287  0.2819E+00  0.1334E+02
     14.407  0.2906E+00  0.1337E+02
     14.528  0.3032E+00  0.1341E+02
     14.648  0.2949E+00  0.1345E+02
     14.769  0.2844E+00  0.1348E+02
     14.889  0.2749E+00  0.1351E+02
     15.010  0.2636E+00  0.1355E+02
     15.130  0.2517E+00  0.1358E+02
     15.251  0.2432E+00  0.1361E+02
     15.371  0.2560E+00  0.1364E+02
     15.492  0.2599E+00  0.1367E+02
     15.612  0.2640E+00  0.1370E+02
     15.733  0.2704E+00  0.1373E+02
     15.854  0.2811E+00  0.1377E+02
     15.974  0.2900E+00  0.1380E+02
     16.095  0.2961E+00  0.1383E+02
     16.215  0.3571E+00  0.1388E+02
     16.336  0.3563E+00  0.1392E+02
     16.456  0.3482E+00  0.1396E+02
     16.577  0.3816E+00  0.1400E+02
     16.697  0.4170E+00  0.1405E+02
     16.818  0.4607E+00  0.1410E+02
     16.938  0.4961E+00  0.1416E+02
     17.059  0.5051E+00  0.1422E+02
     17.179  0.5056E+00  0.1428E+02
     17.300  0.4925E+00  0.1434E+02
     17.420  0.4893E+00  0.1440E+02
     17.541  0.5083E+00  0.1446E+02
     17.661  0.5312E+00  0.1453E+02
     17.782  0.5381E+00  0.1459E+02
     17.902  0.5394E+00  0.1465E+02
     18.023  0.5447E+00  0.1472E+02
     18.143  0.5540E+00  0.1479E+02
     18.264  0.5633E+00  0.1485E+02
     18.384  0.5724E+00  0.1492E+02
     18.505  0.5334E+00  0.1499E+02
     18.625  0.5354E+00  0.1505E+02
     18.746  0.5553E+00  0.1512E+02
     18.867  0.5616E+00  0.1519E+02
     18.987  0.6017E+00  0.1526E+02
     19.108  0.5935E+00  0.1533E+02
     19.228  0.5362E+00  0.1540E+02
     19.349  0.5206E+00  0.1546E+02
     19.469  0.4990E+00  0.1552E+02
     19.590  0.4860E+00  0.1558E+02
     19.710  0.4841E+00  0.1564E+02
     19.831  0.4940E+00  0.1570E+02
     19.951  0.5048E+00  0.1576E+02
     20.072  0.5156E+00  0.1582E+02
     20.192  0.5244E+00  0.1588E+02
     20.313  0.5315E+00  0.1595E+02
     20.433  0.5414E+00  0.1601E+02
     20.554  0.5041E+00  0.1608E+02
     20.674  0.5005E+00  0.1614E+02
     20.795  0.5097E+00  0.1620E+02
     20.915  0.5179E+00  0.1626E+02
     21.036  0.5260E+00  0.1632E+02
     21.156  0.5338E+00  0.1639E+02
     21.277  0.5424E+00  0.1645E+02
     21.397  0.5514E+00  0.1652E+02
     21.518  0.5572E+00  0.1658E+02
     21.638  0.5597E+00  0.1665E+02
     21.759  0.5600E+00  0.1672E+02
     21.880  0.5471E+00  0.1678E+02
     22.000  0.5353E+00  0.1685E+02
     22.121  0.5366E+00  0.1691E+02
     22.241  0.5487E+00  0.1698E+02
     22.362  0.5597E+00  0.1705E+02
     22.482  0.5700E+00  0.1711E+02
     22.603  0.7664E+00  0.1719E+02
     22.723  0.7119E+00  0.1728E+02
     22.844  0.5260E+00  0.1736E+02
     22.964  0.4814E+00  0.1742E+02
     23.085  0.5582E+00  0.1748E+02
     23.205  0.6188E+00  0.1755E+02
     23.326  0.6335E+00  0.1763E+02
     23.446  0.6436E+00  0.1770E+02
     23.567  0.7892E+00  0.1779E+02
     23.687  0.7844E+00  0.1788E+02
     23.808  0.7234E+00  0.1797E+02
     23.928  0.6786E+00  0.1806E+02
     24.049  0.6450E+00  0.1814E+02
     24.169  0.6157E+00  0.1821E+02
     24.290  0.5936E+00  0.1829E+02
     24.410  0.5692E+00  0.1836E+02
     24.531  0.5390E+00  0.1842E+02
     24.651  0.5220E+00  0.1849E+02
     24.772  0.5424E+00  0.1855E+02
     24.893  0.6334E+00  0.1862E+02
     25.013  0.6545E+00  0.1870E+02
     25.134  0.6210E+00  0.1878E+02
     25.254  0.6268E+00  0.1885E+02
     25.375  0.6362E+00  0.1893E+02
     25.495  0.6459E+00  0.1900E+02
     25.616  0.6551E+00  0.1908E+02
     25.736  0.6658E+00  0.1916E+02
     25.857  0.6870E+00  0.1924E+02
     25.977  0.7198E+00  0.1933E+02
     26.098  0.7978E+00  0.1942E+02
     26.218  0.6720E+00  0.1951E+02
     26.339  0.5440E+00  0.1958E+02
     26.459  0.4527E+00  0.1964E+02
     26.580  0.3976E+00  0.1969E+02
     26.700  0.3635E+00  0.1974E+02
     26.821  0.3354E+00  0.1978E+02
     26.941  0.3097E+00  0.1982E+02
     27.062  0.2848E+00  0.1986E+02
     27.182  0.2652E+00  0.1989E+02
     27.303  0.2013E+00  0.1992E+02
     27.423  0.1408E+00  0.1994E+02
     27.544  0.1116E+00  0.1996E+02
     27.664  0.8122E-01  0.1997E+02
     27.785  0.5785E-01  0.1998E+02
     27.906  0.4722E-01  0.1998E+02
     28.026  0.3792E-01  0.1999E+02
     28.147  0.2967E-01  0.1999E+02
     28.267  0.2247E-01  0.1999E+02
     28.388  0.1630E-01  0.2000E+02
     28.508  0.1118E-01  0.2000E+02
     28.629  0.7093E-02  0.2000E+02
     28.749  0.4054E-02  0.2000E+02
     28.870  0.2004E-02  0.2000E+02
     28.990  0.6841E-03  0.2000E+02
     29.111  0.5690E-04  0.2000E+02
     29.231  0.0000E+00  0.2000E+02
     29.352  0.0000E+00  0.2000E+02
     29.472  0.0000E+00  0.2000E+02
     29.593  0.0000E+00  0.2000E+02
     29.713  0.0000E+00  0.2000E+02
     29.834  0.0000E+00  0.2000E+02
     29.954  0.0000E+00  0.2000E+02
     30.075  0.0000E+00  0.2000E+02
     30.195  0.0000E+00  0.2000E+02
     30.316  0.0000E+00  0.2000E+02
     30.436  0.0000E+00  0.2000E+02
     30.557  0.0000E+00  0.2000E+02
     30.677  0.0000E+00  0.2000E+02
     30.798  0.0000E+00  0.2000E+02
     30.919  0.0000E+00  0.2000E+02
     31.039  0.0000E+00  0.2000E+02
     31.160  0.0000E+00  0.2000E+02
