    1    1    1    1
  0.1815619E+02  0.2628300E-09  0.2628300E-09  0.2628300E-09  0.5000000E-15
  1.000000000000000E-004
  CAR 
 unknown system                          
     10     56     10
 
  0.0000000E+00  0.0000000E+00  0.0000000E+00  0.1000000E-02
    1       -2.996484   1.000000
    2       -0.238817   1.000000
    3       -0.238817   1.000000
    4        5.647530  -0.151808
    5        5.647530  -0.189518
    6        5.647530  -0.031274
    7       20.763021   0.000000
    8       20.763021   0.000000
    9       20.763021   0.000000
   10       26.169779   0.000000
 
  0.1000000E+00  0.0000000E+00  0.0000000E+00  0.6000000E-02
    1       -2.721252   1.000000
    2       -0.187716   1.000000
    3        0.012829   1.000000
    4        5.405157   0.803661
    5        5.405157   0.477385
    6        5.666819  -0.065620
    7       18.942034   0.000000
    8       21.251001   0.000000
    9       21.251001   0.000000
   10       27.063946   0.000000
 
  0.2000000E+00  0.0000000E+00  0.0000000E+00  0.6000000E-02
    1       -2.028222   1.000000
    2       -0.051028   1.000000
    3        0.813934   1.000000
    4        4.820755   1.000849
    5        4.820755   1.019683
    6        5.717667  -0.093131
    7       15.966636   0.000000
    8       22.541661   0.000000
    9       22.541661   0.000000
   10       25.759051   0.000000
 
  0.3000000E+00  0.0000000E+00  0.0000000E+00  0.6000000E-02
    1       -1.236982   1.000000
    2        0.124072   1.000000
    3        2.203973   1.000000
    4        4.176930   1.000000
    5        4.176930   1.000000
    6        5.781157  -0.048838
    7       13.162496   0.000000
    8       24.043346   0.000000
    9       24.259730   0.000000
   10       24.259731   0.000000
 
  0.4000000E+00  0.0000000E+00  0.0000000E+00  0.6000000E-02
    1       -0.633373   1.000000
    2        0.271174   1.000000
    3        3.704753   1.000000
    4        3.704753   1.000000
    5        3.905316   1.054217
    6        5.833084  -0.008064
    7       10.848039   0.000000
    8       22.910015   0.000000
    9       25.952692   0.000000
   10       26.062700   0.000000
 
  0.5000000E+00  0.0000000E+00  0.0000000E+00  0.3000000E-02
    1       -0.404453   1.000000
    2        0.328805   1.000000
    3        3.533961   1.000000
    4        3.533961   1.000000
    5        4.885806   1.097465
    6        5.853064   0.000000
    7        9.727770   0.000000
    8       22.515612   0.000000
    9       25.538018   0.000000
   10       26.794553   0.000000
 
  0.1000000E+00  0.1000000E+00  0.0000000E+00  0.1200000E-01
    1       -2.441922   1.000000
    2       -0.032759   1.000000
    3        0.155787   1.000000
    4        5.149715   1.016315
    5        5.389395   0.743892
    6        5.465177   0.156470
    7       19.098936   0.000000
    8       19.681026   0.000000
    9       21.742061   0.000000
   10       27.209223   0.000000
 
  0.2000000E+00  0.1000000E+00  0.0000000E+00  0.2400000E-01
    1       -1.745869   1.000000
    2        0.148983   1.000000
    3        0.899066   1.000000
    4        4.550904   1.000396
    5        4.843387   1.021532
    6        5.490354   0.268826
    7       16.364906   0.000000
    8       20.482734   0.000000
    9       23.043701   0.000000
   10       26.007370   0.000000
 
  0.3000000E+00  0.1000000E+00  0.0000000E+00  0.2400000E-01
    1       -0.964561   1.000000
    2        0.339833   1.000000
    3        2.154987   1.000000
    4        4.039855   1.000000
    5        4.207208   1.000000
    6        5.559493   0.132408
    7       13.515136   0.000000
    8       21.766312   0.000000
    9       24.580061   0.000000
   10       24.786656   0.000000
 
  0.4000000E+00  0.1000000E+00  0.0000000E+00  0.2400000E-01
    1       -0.369539   1.000000
    2        0.511168   1.000000
    3        2.726732   1.000000
    4        3.739222   1.000000
    5        4.777924   1.044204
    6        5.616748   0.016482
    7       11.058041   0.000000
    8       22.624605   0.000000
    9       24.039769   0.000000
   10       26.544860   0.000000
 
  0.5000000E+00  0.1000000E+00  0.0000000E+00  0.1200000E-01
    1       -0.142539   1.000000
    2        0.588108   1.000000
    3        2.639681   1.000000
    4        3.569690   1.000000
    5        5.638816   0.440083
    6        5.823681   0.000000
    7        9.749407   0.000000
    8       22.601104   0.000000
    9       25.011201   0.000000
   10       25.085804   0.000000
 
  0.2000000E+00  0.2000000E+00  0.0000000E+00  0.1200000E-01
    1       -1.086732   1.000000
    2        0.651618   1.000000
    3        1.310915   1.000000
    4        3.963371   1.000000
    5        4.834731   1.000061
    6        5.007545   1.070667
    7       17.329052   0.000000
    8       17.427946   0.000000
    9       24.375748   0.000000
   10       25.683093   0.000000
 
  0.3000000E+00  0.2000000E+00  0.0000000E+00  0.2400000E-01
    1       -0.430215   1.000000
    2        0.998276   1.000000
    3        2.140495   1.000000
    4        3.871305   1.000000
    5        4.285533   1.000000
    6        5.020370   0.957629
    7       14.366192   0.000000
    8       18.742925   0.000000
    9       24.701619   0.000000
   10       26.165257   0.000000
 
  0.4000000E+00  0.2000000E+00  0.0000000E+00  0.2400000E-01
    1        0.036865   1.000000
    2        1.252226   1.000000
    3        1.999690   1.000000
    4        3.830460   1.000000
    5        5.086887   1.002703
    6        5.567288   0.114574
    7       11.600207   0.000000
    8       20.291772   0.000000
    9       23.515743   0.000000
   10       26.070521   0.000000
 
  0.5000000E+00  0.2000000E+00  0.0000000E+00  0.1200000E-01
    1        0.214211   1.000000
    2        1.444659   1.000000
    3        1.723832   1.000000
    4        3.664518   1.000000
    5        5.113431   1.009328
    6        7.173803   0.000000
    7        9.805520   0.000000
    8       21.950244   0.000000
    9       22.056891   0.000000
   10       24.941373   0.000000
 
  0.3000000E+00  0.3000000E+00  0.0000000E+00  0.1200000E-01
    1        0.001056   1.000000
    2        1.041609   1.000000
    3        3.136089   1.000000
    4        4.211142   1.000000
    5        4.325532   1.007087
    6        4.476798   0.890805
    7       14.597437   0.000000
    8       16.734291   0.000000
    9       23.817221   0.000000
   10       27.851181   0.000000
 
  0.4000000E+00  0.3000000E+00  0.0000000E+00  0.2400000E-01
    1        0.299433   1.000000
    2        0.696446   1.000000
    3        3.605563   1.000000
    4        3.945273   1.000000
    5        4.492426   1.020303
    6        6.247573  -0.002980
    7       12.170734   0.000000
    8       17.700610   0.000000
    9       22.003102   0.000000
   10       26.555542   0.000000
 
  0.5000000E+00  0.3000000E+00  0.0000000E+00  0.1200000E-01
    1        0.471491   1.000000
    2        0.487643   1.000000
    3        3.683082   1.000000
    4        3.784464   1.000000
    5        4.522518   1.027314
    6        8.445670   0.000000
    7        9.869558   0.000000
    8       18.863601   0.000000
    9       20.569529   0.000000
   10       25.924441   0.000000
 
  0.4000000E+00  0.4000000E+00  0.0000000E+00  0.1200000E-01
    1        0.032520   1.000000
    2        0.621805   1.000000
    3        4.018862   1.000000
    4        4.071883   1.000000
    5        5.438554   0.522227
    6        7.333281  -0.017507
    7       11.794675   0.000000
    8       16.169870   0.000000
    9       20.155103   0.000000
   10       27.366618   0.000000
 
  0.5000000E+00  0.4000000E+00  0.0000000E+00  0.1200000E-01
    1       -0.154837   1.000000
    2        0.694258   1.000000
    3        3.883900   1.000000
    4        4.082730   1.000000
    5        5.944331   0.100295
    6        9.445346   0.000000
    7        9.892947   0.000000
    8       16.103413   0.000000
    9       19.216791   0.000000
   10       27.147861   0.000000
 
  0.5000000E+00  0.5000000E+00  0.0000000E+00  0.3000000E-02
    1       -0.370522   1.000000
    2        0.773616   1.000000
    3        3.922417   1.000000
    4        3.922417   1.000000
    5        7.224165   0.000000
    6        9.851581   0.000000
    7        9.851581   0.000000
    8       14.734570   0.000000
    9       18.666369   0.000000
   10       27.756114   0.000000
 
  0.1000000E+00  0.1000000E+00  0.1000000E+00  0.8000000E-02
    1       -2.155878   1.000000
    2        0.206620   1.000000
    3        0.206620   1.000000
    4        5.114169   1.007923
    5        5.205483   1.036238
    6        5.205483   0.873877
    7       19.227524   0.000000
    8       20.139346   0.000000
    9       20.139346   0.000000
   10       28.804154   0.000000
 
  0.2000000E+00  0.1000000E+00  0.1000000E+00  0.2400000E-01
    1       -1.448710   1.000000
    2        0.343904   1.000000
    3        0.972748   1.000000
    4        4.578834   1.000268
    5        4.580945   1.005363
    6        5.246062   0.871252
    7       16.756347   0.000000
    8       20.565827   0.000000
    9       21.283014   0.000000
   10       27.168675   0.000000
 
  0.3000000E+00  0.1000000E+00  0.1000000E+00  0.2400000E-01
    1       -0.661537   1.000000
    2        0.523984   1.000000
    3        2.127131   1.000000
    4        3.891676   1.000000
    5        4.233188   1.000000
    6        5.324081   0.578314
    7       13.877415   0.000000
    8       21.784730   0.000000
    9       22.484794   0.000000
   10       25.977051   0.000000
 
  0.4000000E+00  0.1000000E+00  0.1000000E+00  0.2400000E-01
    1       -0.040374   1.000000
    2        0.681337   1.000000
    3        2.492289   1.000000
    4        3.380438   1.000000
    5        5.277036   0.974238
    6        5.407072   0.137653
    7       11.296180   0.000000
    8       22.865822   0.000000
    9       23.127720   0.000000
   10       26.000337   0.000000
 
  0.5000000E+00  0.1000000E+00  0.1000000E+00  0.1200000E-01
    1        0.217341   1.000000
    2        0.745316   1.000000
    3        2.383215   1.000000
    4        3.192722   1.000000
    5        5.409500   0.816945
    6        6.548968   0.000000
    7        9.787446   0.000000
    8       22.787706   0.000000
    9       24.434137   0.000000
   10       25.012955   0.000000
 
  0.2000000E+00  0.2000000E+00  0.1000000E+00  0.2400000E-01
    1       -0.757339   1.000000
    2        0.831338   1.000000
    3        1.354811   1.000000
    4        3.998907   1.000000
    5        4.618023   1.000033
    6        4.713414   1.049563
    7       17.710043   0.000000
    8       17.816596   0.000000
    9       22.010006   0.000000
   10       27.370119   0.000000
 
  0.3000000E+00  0.2000000E+00  0.1000000E+00  0.4800000E-01
    1       -0.074451   1.000000
    2        1.123718   1.000000
    3        2.155380   1.000000
    4        3.644735   1.000000
    5        4.345195   1.000000
    6        4.777977   0.975933
    7       14.762269   0.000000
    8       19.067195   0.000000
    9       23.131820   0.000000
   10       26.273538   0.000000
 
  0.4000000E+00  0.2000000E+00  0.1000000E+00  0.4800000E-01
    1        0.438856   1.000000
    2        1.324148   1.000000
    3        2.023837   1.000000
    4        3.305358   1.000000
    5        4.825256   1.009532
    6        6.010260  -0.001789
    7       11.908942   0.000000
    8       20.573164   0.000000
    9       23.574094   0.000000
   10       24.848872   0.000000
 
  0.5000000E+00  0.2000000E+00  0.1000000E+00  0.2400000E-01
    1        0.658752   1.000000
    2        1.456231   1.000000
    3        1.774733   1.000000
    4        3.131731   1.000000
    5        4.862381   1.008246
    6        7.819129   0.000000
    7        9.887740   0.000000
    8       22.197398   0.000000
    9       22.431695   0.000000
   10       24.135921   0.000000
 
  0.3000000E+00  0.3000000E+00  0.1000000E+00  0.2400000E-01
    1        0.350622   1.000000
    2        1.169105   1.000000
    3        3.081708   1.000000
    4        3.633099   1.000000
    5        4.236198   1.008182
    6        4.808596   0.704533
    7       15.117137   0.000000
    8       16.948082   0.000000
    9       23.917548   0.000000
   10       24.831944   0.000000
 
  0.4000000E+00  0.3000000E+00  0.1000000E+00  0.4800000E-01
    1        0.556324   1.000000
    2        0.932742   1.000000
    3        3.410245   1.000000
    4        3.449160   1.000000
    5        4.391740   1.021219
    6        6.674174  -0.036198
    7       12.588200   0.000000
    8       17.963901   0.000000
    9       22.143044   0.000000
   10       25.036951   0.000000
 
  0.5000000E+00  0.3000000E+00  0.1000000E+00  0.2400000E-01
    1        0.537083   1.000000
    2        0.925831   1.000000
    3        3.254912   1.000000
    4        3.499764   1.000000
    5        4.460332   1.020919
    6        9.076604   0.000000
    7       10.033205   0.000000
    8       19.284249   0.000000
    9       20.464763   0.000000
   10       25.162800   0.000000
 
  0.4000000E+00  0.4000000E+00  0.1000000E+00  0.2400000E-01
    1        0.113675   1.000000
    2        1.054727   1.000000
    3        3.509337   1.000000
    4        3.553704   1.000000
    5        5.608773   0.421773
    6        7.816324  -0.014522
    7       12.330811   0.000000
    8       16.345236   0.000000
    9       20.064012   0.000000
   10       26.017729   0.000000
 
  0.5000000E+00  0.4000000E+00  0.1000000E+00  0.2400000E-01
    1       -0.074683   1.000000
    2        1.138666   1.000000
    3        3.375486   1.000000
    4        3.578177   1.000000
    5        6.108258   0.055861
    6       10.086243   0.000000
    7       10.253737   0.000000
    8       16.335296   0.000000
    9       19.007236   0.000000
   10       26.417278   0.000000
 
  0.5000000E+00  0.5000000E+00  0.1000000E+00  0.6000000E-02
    1       -0.287157   1.000000
    2        1.224835   1.000000
    3        3.423759   1.000000
    4        3.423759   1.000000
    5        7.237408   0.000000
    6       10.504239   0.000000
    7       10.504239   0.000000
    8       14.773873   0.000000
    9       18.420084   0.000000
   10       27.713050   0.000000
 
  0.2000000E+00  0.2000000E+00  0.2000000E+00  0.8000000E-02
    1       -0.019267   1.000000
    2        1.475576   1.000000
    3        1.475576   1.000000
    4        4.016455   1.000000
    5        4.016455   1.000000
    6        4.272866   1.011231
    7       18.288000   0.000000
    8       19.059197   0.000000
    9       19.059197   0.000000
   10       29.159576   0.000000
 
  0.3000000E+00  0.2000000E+00  0.2000000E+00  0.2400000E-01
    1        0.614287   1.000000
    2        1.645220   1.000000
    3        2.224272   1.000000
    4        3.251014   1.000000
    5        4.065316   1.000000
    6        4.687523   0.865470
    7       15.732430   0.000000
    8       19.513523   0.000000
    9       20.636697   0.000000
   10       27.234211   0.000000
 
  0.4000000E+00  0.2000000E+00  0.2000000E+00  0.2400000E-01
    1        1.071303   1.000000
    2        1.832538   1.000000
    3        2.068378   1.000000
    4        2.650154   1.000000
    5        4.263275   1.000330
    6        6.697812  -0.054202
    7       12.687716   0.000000
    8       20.691722   0.000000
    9       22.222536   0.000000
   10       24.986054   0.000000
 
  0.5000000E+00  0.2000000E+00  0.2000000E+00  0.1200000E-01
    1        1.310654   1.000000
    2        1.845018   1.000000
    3        1.961204   1.000000
    4        2.376617   1.000000
    5        4.317358   1.000584
    6        9.085250   0.000000
    7       10.099284   0.000000
    8       21.699653   0.000000
    9       23.367978   0.000000
   10       23.372534   0.000000
 
  0.3000000E+00  0.3000000E+00  0.2000000E+00  0.2400000E-01
    1        0.880011   1.000000
    2        1.847106   1.000000
    3        2.767860   1.000000
    4        3.086067   1.000000
    5        3.883885   1.014216
    6        5.347156   0.363282
    7       16.431262   0.000000
    8       17.451939   0.000000
    9       21.280758   0.000000
   10       25.081139   0.000000
 
  0.4000000E+00  0.3000000E+00  0.2000000E+00  0.4800000E-01
    1        0.787629   1.000000
    2        1.916073   1.000000
    3        2.544661   1.000000
    4        2.990800   1.000000
    5        4.369915   1.014872
    6        7.428021  -0.035454
    7       13.604001   0.000000
    8       18.517330   0.000000
    9       21.758089   0.000000
   10       23.497419   0.000000
 
  0.5000000E+00  0.3000000E+00  0.2000000E+00  0.2400000E-01
    1        0.698505   1.000000
    2        2.085271   1.000000
    3        2.250050   1.000000
    4        3.015742   1.000000
    5        4.497014   0.992946
    6       10.394841   0.000000
    7       10.430113   0.000000
    8       19.897621   0.000000
    9       20.371582   0.000000
   10       24.098922   0.000000
 
  0.4000000E+00  0.4000000E+00  0.2000000E+00  0.2400000E-01
    1        0.324410   1.000000
    2        2.082352   1.000000
    3        2.577157   1.000000
    4        2.768626   1.000000
    5        5.817456   0.285932
    6        8.755907  -0.004339
    7       13.637001   0.000000
    8       16.708495   0.000000
    9       19.670817   0.000000
   10       24.320670   0.000000
 
  0.5000000E+00  0.4000000E+00  0.2000000E+00  0.2400000E-01
    1        0.142758   1.000000
    2        2.267698   1.000000
    3        2.358635   1.000000
    4        2.755321   1.000000
    5        6.325042   0.006800
    6       11.067387   0.000000
    7       11.481502   0.000000
    8       16.968278   0.000000
    9       18.352017   0.000000
   10       25.148059   0.000000
 
  0.5000000E+00  0.5000000E+00  0.2000000E+00  0.6000000E-02
    1       -0.059948   1.000000
    2        2.414862   1.000000
    3        2.414862   1.000000
    4        2.515579   1.000000
    5        7.272247   0.000000
    6       11.954131   0.000000
    7       11.954131   0.000000
    8       14.883841   0.000000
    9       17.709036   0.000000
   10       26.023672   0.000000
 
  0.3000000E+00  0.3000000E+00  0.3000000E+00  0.8000000E-02
    1        0.993246   1.000000
    2        2.169010   1.000000
    3        2.169010   1.000000
    4        3.805081   1.002018
    5        3.805081   1.055765
    6        6.247786  -0.019167
    7       17.984762   0.000000
    8       18.111744   0.000000
    9       18.111744   0.000000
   10       25.379423   0.000000
 
  0.4000000E+00  0.3000000E+00  0.3000000E+00  0.2400000E-01
    1        0.858703   1.000000
    2        1.671179   1.000000
    3        2.106237   1.000000
    4        3.835253   1.008740
    5        4.716298   0.911685
    6        8.312516  -0.010451
    7       14.785200   0.000000
    8       18.469459   0.000000
    9       19.805253   0.000000
   10       23.696915   0.000000
 
  0.5000000E+00  0.3000000E+00  0.3000000E+00  0.1200000E-01
    1        0.764329   1.000000
    2        1.487539   1.000000
    3        2.119290   1.000000
    4        3.855058   1.014249
    5        4.952803   0.740696
    6       11.000108   0.000000
    7       11.797238   0.000000
    8       18.669559   0.000000
    9       20.780776   0.000000
   10       22.967196   0.000000
 
  0.4000000E+00  0.4000000E+00  0.3000000E+00  0.2400000E-01
    1        0.587370   1.000000
    2        1.528979   1.000000
    3        1.668316   1.000000
    4        4.281515   1.006975
    5        5.960023   0.123704
    6        9.819189  -0.000006
    7       15.204327   0.000000
    8       16.840434   0.000000
    9       18.650289   0.000000
   10       23.488225   0.000000
 
  0.5000000E+00  0.4000000E+00  0.3000000E+00  0.2400000E-01
    1        0.425653   1.000000
    2        1.413803   1.000000
    3        1.644243   1.000000
    4        4.346101   1.002750
    5        6.490932  -0.027956
    6       12.007505   0.000000
    7       12.991082   0.000000
    8       17.363661   0.000000
    9       17.654261   0.000000
   10       24.353230   0.000000
 
  0.5000000E+00  0.5000000E+00  0.3000000E+00  0.6000000E-02
    1        0.240983   1.000000
    2        1.466499   1.000000
    3        1.466499   1.000000
    4        4.423567   0.980666
    5        7.315620   0.000000
    6       13.553324   0.000000
    7       13.553324   0.000000
    8       15.047324   0.000000
    9       16.736539   0.000000
   10       24.980321   0.000000
 
  0.4000000E+00  0.4000000E+00  0.4000000E+00  0.8000000E-02
    1        0.712097   1.000000
    2        1.055834   1.000000
    3        1.055834   1.000000
    4        6.047472   0.360144
    5        6.047472   0.008759
    6       11.276099   0.000000
    7       16.579424   0.000000
    8       16.579424   0.000000
    9       16.587920   0.000000
   10       23.172913   0.000000
 
  0.5000000E+00  0.4000000E+00  0.4000000E+00  0.1200000E-01
    1        0.613169   1.000000
    2        0.841764   1.000000
    3        1.042481   1.000000
    4        6.077712   0.211786
    5        6.773441  -0.018130
    6       13.175975   0.000000
    7       14.245012   0.000000
    8       16.408304   0.000000
    9       17.179149   0.000000
   10       22.992459   0.000000
 
  0.5000000E+00  0.5000000E+00  0.4000000E+00  0.6000000E-02
    1        0.503670   1.000000
    2        0.830727   1.000000
    3        0.830727   1.000000
    4        6.412156   0.024397
    5        7.350892   0.000000
    6       14.855667   0.000000
    7       14.855667   0.000000
    8       15.249603   0.000000
    9       15.908248   0.000000
   10       23.361681   0.000000
 
  0.5000000E+00  0.5000000E+00  0.5000000E+00  0.1000000E-02
    1        0.609295   1.000000
    2        0.609295   1.000000
    3        0.609295   1.000000
    4        7.364387   0.000000
    5        7.364387   0.000000
    6       15.385784   0.000000
    7       15.385784   0.000000
    8       15.385784   0.000000
    9       15.586512   0.000000
   10       21.724650   0.000000
