<?xml version="1.0" encoding="ISO-8859-1"?>
<modeling>
 <generator>
  <i name="program" type="string">vasp </i>
  <i name="version" type="string">5.4.1  </i>
  <i name="subversion" type="string">05Feb16 (build Mar 02 2016 14:09:44) complex                          parallel </i>
  <i name="platform" type="string">Abel-impi-ifc-cuda </i>
  <i name="date" type="string">2019 09 20 </i>
  <i name="time" type="string">09:57:57 </i>
 </generator>
 <incar>
  <i type="string" name="PREC">normal    ! low/normal/accurate</i>
  <i type="string" name="ALGO"> Fast      ! Algorithm for electronic re</i>
  <i type="int" name="ISPIN">     1</i>
  <i type="int" name="NELMIN">     4</i>
  <i name="EDIFF">      0.00001000</i>
  <i type="int" name="NSW">     0</i>
  <i name="ENCUT">    500.00000000</i>
  <i type="string" name="LREAL"> Auto      ! Projection in reciprocal sp</i>
  <i type="int" name="ISMEAR">    -5</i>
  <i name="SIGMA">      0.20000000</i>
  <i type="logical" name="LWAVE"> F  </i>
  <v type="int" name="KPOINT_BSE">    -1     0     0     0</v>
 </incar>
 <kpoints>
  <generation param="Gamma">
   <v type="int" name="divisions">      10       10       10 </v>
   <v name="usershift">      0.00000000       0.00000000       0.00000000 </v>
   <v name="genvec1">      0.10000000       0.00000000       0.00000000 </v>
   <v name="genvec2">      0.00000000       0.10000000       0.00000000 </v>
   <v name="genvec3">      0.00000000       0.00000000       0.10000000 </v>
   <v name="shift">      0.00000000       0.00000000       0.00000000 </v>
  </generation>
  <varray name="kpointlist" >
   <v>       0.00000000       0.00000000       0.00000000 </v>
   <v>       0.10000000       0.00000000       0.00000000 </v>
   <v>       0.20000000       0.00000000       0.00000000 </v>
   <v>       0.30000000       0.00000000       0.00000000 </v>
   <v>       0.40000000       0.00000000       0.00000000 </v>
   <v>       0.50000000       0.00000000       0.00000000 </v>
   <v>       0.10000000       0.10000000       0.00000000 </v>
   <v>       0.20000000       0.10000000       0.00000000 </v>
   <v>       0.30000000       0.10000000       0.00000000 </v>
   <v>       0.40000000       0.10000000       0.00000000 </v>
   <v>       0.50000000       0.10000000       0.00000000 </v>
   <v>       0.20000000       0.20000000       0.00000000 </v>
   <v>       0.30000000       0.20000000       0.00000000 </v>
   <v>       0.40000000       0.20000000       0.00000000 </v>
   <v>       0.50000000       0.20000000       0.00000000 </v>
   <v>       0.30000000       0.30000000       0.00000000 </v>
   <v>       0.40000000       0.30000000       0.00000000 </v>
   <v>       0.50000000       0.30000000       0.00000000 </v>
   <v>       0.40000000       0.40000000       0.00000000 </v>
   <v>       0.50000000       0.40000000       0.00000000 </v>
   <v>       0.50000000       0.50000000       0.00000000 </v>
   <v>       0.10000000       0.10000000       0.10000000 </v>
   <v>       0.20000000       0.10000000       0.10000000 </v>
   <v>       0.30000000       0.10000000       0.10000000 </v>
   <v>       0.40000000       0.10000000       0.10000000 </v>
   <v>       0.50000000       0.10000000       0.10000000 </v>
   <v>       0.20000000       0.20000000       0.10000000 </v>
   <v>       0.30000000       0.20000000       0.10000000 </v>
   <v>       0.40000000       0.20000000       0.10000000 </v>
   <v>       0.50000000       0.20000000       0.10000000 </v>
   <v>       0.30000000       0.30000000       0.10000000 </v>
   <v>       0.40000000       0.30000000       0.10000000 </v>
   <v>       0.50000000       0.30000000       0.10000000 </v>
   <v>       0.40000000       0.40000000       0.10000000 </v>
   <v>       0.50000000       0.40000000       0.10000000 </v>
   <v>       0.50000000       0.50000000       0.10000000 </v>
   <v>       0.20000000       0.20000000       0.20000000 </v>
   <v>       0.30000000       0.20000000       0.20000000 </v>
   <v>       0.40000000       0.20000000       0.20000000 </v>
   <v>       0.50000000       0.20000000       0.20000000 </v>
   <v>       0.30000000       0.30000000       0.20000000 </v>
   <v>       0.40000000       0.30000000       0.20000000 </v>
   <v>       0.50000000       0.30000000       0.20000000 </v>
   <v>       0.40000000       0.40000000       0.20000000 </v>
   <v>       0.50000000       0.40000000       0.20000000 </v>
   <v>       0.50000000       0.50000000       0.20000000 </v>
   <v>       0.30000000       0.30000000       0.30000000 </v>
   <v>       0.40000000       0.30000000       0.30000000 </v>
   <v>       0.50000000       0.30000000       0.30000000 </v>
   <v>       0.40000000       0.40000000       0.30000000 </v>
   <v>       0.50000000       0.40000000       0.30000000 </v>
   <v>       0.50000000       0.50000000       0.30000000 </v>
   <v>       0.40000000       0.40000000       0.40000000 </v>
   <v>       0.50000000       0.40000000       0.40000000 </v>
   <v>       0.50000000       0.50000000       0.40000000 </v>
   <v>       0.50000000       0.50000000       0.50000000 </v>
  </varray>
  <varray name="weights" >
   <v>       0.00100000 </v>
   <v>       0.00600000 </v>
   <v>       0.00600000 </v>
   <v>       0.00600000 </v>
   <v>       0.00600000 </v>
   <v>       0.00300000 </v>
   <v>       0.01200000 </v>
   <v>       0.02400000 </v>
   <v>       0.02400000 </v>
   <v>       0.02400000 </v>
   <v>       0.01200000 </v>
   <v>       0.01200000 </v>
   <v>       0.02400000 </v>
   <v>       0.02400000 </v>
   <v>       0.01200000 </v>
   <v>       0.01200000 </v>
   <v>       0.02400000 </v>
   <v>       0.01200000 </v>
   <v>       0.01200000 </v>
   <v>       0.01200000 </v>
   <v>       0.00300000 </v>
   <v>       0.00800000 </v>
   <v>       0.02400000 </v>
   <v>       0.02400000 </v>
   <v>       0.02400000 </v>
   <v>       0.01200000 </v>
   <v>       0.02400000 </v>
   <v>       0.04800000 </v>
   <v>       0.04800000 </v>
   <v>       0.02400000 </v>
   <v>       0.02400000 </v>
   <v>       0.04800000 </v>
   <v>       0.02400000 </v>
   <v>       0.02400000 </v>
   <v>       0.02400000 </v>
   <v>       0.00600000 </v>
   <v>       0.00800000 </v>
   <v>       0.02400000 </v>
   <v>       0.02400000 </v>
   <v>       0.01200000 </v>
   <v>       0.02400000 </v>
   <v>       0.04800000 </v>
   <v>       0.02400000 </v>
   <v>       0.02400000 </v>
   <v>       0.02400000 </v>
   <v>       0.00600000 </v>
   <v>       0.00800000 </v>
   <v>       0.02400000 </v>
   <v>       0.01200000 </v>
   <v>       0.02400000 </v>
   <v>       0.02400000 </v>
   <v>       0.00600000 </v>
   <v>       0.00800000 </v>
   <v>       0.01200000 </v>
   <v>       0.00600000 </v>
   <v>       0.00100000 </v>
  </varray>
  <varray name="tetrahedronlist"  type="int" >
   <v type="int" >       12        1        2        2        7 </v>
   <v type="int" >       12        2        2        7        7 </v>
   <v type="int" >       12        2        7        7       22 </v>
   <v type="int" >       12        2        3        7        8 </v>
   <v type="int" >       12        2        7        7        8 </v>
   <v type="int" >       12        7        7        8       22 </v>
   <v type="int" >       12        3        7        8        8 </v>
   <v type="int" >       24        7        8        8       23 </v>
   <v type="int" >       24        7        8       22       23 </v>
   <v type="int" >       12        3        4        8        9 </v>
   <v type="int" >       12        3        8        8        9 </v>
   <v type="int" >       12        8        8        9       23 </v>
   <v type="int" >       12        4        8        9        9 </v>
   <v type="int" >       12        8        9        9       24 </v>
   <v type="int" >       12        8        9       23       24 </v>
   <v type="int" >       12        4        5        9       10 </v>
   <v type="int" >       12        4        9        9       10 </v>
   <v type="int" >       12        9        9       10       24 </v>
   <v type="int" >       12        5        9       10       10 </v>
   <v type="int" >       12        9       10       10       25 </v>
   <v type="int" >       12        9       10       24       25 </v>
   <v type="int" >       12        5        6       10       11 </v>
   <v type="int" >       12        5       10       10       11 </v>
   <v type="int" >       12       10       10       11       25 </v>
   <v type="int" >       12        6       10       11       11 </v>
   <v type="int" >       12       10       11       11       26 </v>
   <v type="int" >       12       10       11       25       26 </v>
   <v type="int" >       12        7        8       12       22 </v>
   <v type="int" >       12        8       12       22       23 </v>
   <v type="int" >       12       12       22       23       27 </v>
   <v type="int" >       12        8        9       13       23 </v>
   <v type="int" >       12        8       12       13       23 </v>
   <v type="int" >       12       12       13       23       27 </v>
   <v type="int" >       12        9       13       23       24 </v>
   <v type="int" >       12       13       23       24       28 </v>
   <v type="int" >       12       13       23       27       28 </v>
   <v type="int" >       12        9       10       14       24 </v>
   <v type="int" >       12        9       13       14       24 </v>
   <v type="int" >       12       13       14       24       28 </v>
   <v type="int" >       12       10       14       24       25 </v>
   <v type="int" >       12       14       24       25       29 </v>
   <v type="int" >       12       14       24       28       29 </v>
   <v type="int" >       12       10       11       15       25 </v>
   <v type="int" >       12       10       14       15       25 </v>
   <v type="int" >       12       14       15       25       29 </v>
   <v type="int" >       12       11       15       25       26 </v>
   <v type="int" >       12       15       25       26       30 </v>
   <v type="int" >       12       15       25       29       30 </v>
   <v type="int" >       12       10       11       14       26 </v>
   <v type="int" >       12       11       14       15       26 </v>
   <v type="int" >       12       14       15       26       30 </v>
   <v type="int" >       12       10       14       25       26 </v>
   <v type="int" >       12       14       25       26       29 </v>
   <v type="int" >       12       14       26       29       30 </v>
   <v type="int" >       12        9       10       13       25 </v>
   <v type="int" >       12       10       13       14       25 </v>
   <v type="int" >       12       13       14       25       29 </v>
   <v type="int" >       12        9       13       24       25 </v>
   <v type="int" >       12       13       24       25       28 </v>
   <v type="int" >       12       13       25       28       29 </v>
   <v type="int" >       12        8        9       12       24 </v>
   <v type="int" >       12        9       12       13       24 </v>
   <v type="int" >       12       12       13       24       28 </v>
   <v type="int" >       12        8       12       23       24 </v>
   <v type="int" >       12       12       23       24       27 </v>
   <v type="int" >       12       12       24       27       28 </v>
   <v type="int" >       12        8        8       12       23 </v>
   <v type="int" >       12        8       12       23       27 </v>
   <v type="int" >       12        8       22       23       23 </v>
   <v type="int" >       12        8       23       23       27 </v>
   <v type="int" >       12        2        3        7       22 </v>
   <v type="int" >       12        3        7        8       22 </v>
   <v type="int" >       12        3        8       22       23 </v>
   <v type="int" >       12       12       13       16       27 </v>
   <v type="int" >       12       13       16       27       28 </v>
   <v type="int" >       12       16       27       28       31 </v>
   <v type="int" >       12       13       14       17       28 </v>
   <v type="int" >       12       13       16       17       28 </v>
   <v type="int" >       12       16       17       28       31 </v>
   <v type="int" >       12       14       17       28       29 </v>
   <v type="int" >       12       17       28       29       32 </v>
   <v type="int" >       12       17       28       31       32 </v>
   <v type="int" >       12       14       15       18       29 </v>
   <v type="int" >       12       14       17       18       29 </v>
   <v type="int" >       12       17       18       29       32 </v>
   <v type="int" >       12       15       18       29       30 </v>
   <v type="int" >       12       18       29       30       33 </v>
   <v type="int" >       12       18       29       32       33 </v>
   <v type="int" >       12       14       15       17       30 </v>
   <v type="int" >       12       15       17       18       30 </v>
   <v type="int" >       12       17       18       30       33 </v>
   <v type="int" >       12       14       17       29       30 </v>
   <v type="int" >       12       17       29       30       32 </v>
   <v type="int" >       12       17       30       32       33 </v>
   <v type="int" >       12       13       14       16       29 </v>
   <v type="int" >       12       14       16       17       29 </v>
   <v type="int" >       12       16       17       29       32 </v>
   <v type="int" >       12       13       16       28       29 </v>
   <v type="int" >       12       16       28       29       31 </v>
   <v type="int" >       12       16       29       31       32 </v>
   <v type="int" >       12       12       13       13       28 </v>
   <v type="int" >       12       13       13       16       28 </v>
   <v type="int" >       12       13       16       28       31 </v>
   <v type="int" >       12       12       13       27       28 </v>
   <v type="int" >       12       13       27       28       28 </v>
   <v type="int" >       12       13       28       28       31 </v>
   <v type="int" >       12        8        9       12       27 </v>
   <v type="int" >       12        9       12       13       27 </v>
   <v type="int" >       12        9       13       27       28 </v>
   <v type="int" >       12        8        9       23       27 </v>
   <v type="int" >       12        9       23       24       27 </v>
   <v type="int" >       12        9       24       27       28 </v>
   <v type="int" >       12        3        4        8       23 </v>
   <v type="int" >       12        4        8        9       23 </v>
   <v type="int" >       12        4        9       23       24 </v>
   <v type="int" >       12       16       17       19       31 </v>
   <v type="int" >       12       17       19       31       32 </v>
   <v type="int" >       12       19       31       32       34 </v>
   <v type="int" >       12       17       18       20       32 </v>
   <v type="int" >       12       17       19       20       32 </v>
   <v type="int" >       12       19       20       32       34 </v>
   <v type="int" >       12       18       20       32       33 </v>
   <v type="int" >       12       20       32       33       35 </v>
   <v type="int" >       12       20       32       34       35 </v>
   <v type="int" >       12       17       18       19       33 </v>
   <v type="int" >       12       18       19       20       33 </v>
   <v type="int" >       12       19       20       33       35 </v>
   <v type="int" >       12       17       19       32       33 </v>
   <v type="int" >       12       19       32       33       34 </v>
   <v type="int" >       12       19       33       34       35 </v>
   <v type="int" >       12       16       17       17       32 </v>
   <v type="int" >       12       17       17       19       32 </v>
   <v type="int" >       12       17       19       32       34 </v>
   <v type="int" >       12       16       17       31       32 </v>
   <v type="int" >       12       17       31       32       32 </v>
   <v type="int" >       12       17       32       32       34 </v>
   <v type="int" >       12       13       14       16       31 </v>
   <v type="int" >       12       14       16       17       31 </v>
   <v type="int" >       12       14       17       31       32 </v>
   <v type="int" >       12       13       14       28       31 </v>
   <v type="int" >       12       14       28       29       31 </v>
   <v type="int" >       12       14       29       31       32 </v>
   <v type="int" >       12        9       10       13       28 </v>
   <v type="int" >       12       10       13       14       28 </v>
   <v type="int" >       12       10       14       28       29 </v>
   <v type="int" >       12        9       10       24       28 </v>
   <v type="int" >       12       10       24       25       28 </v>
   <v type="int" >       12       10       25       28       29 </v>
   <v type="int" >       12        4        5        9       24 </v>
   <v type="int" >       12        5        9       10       24 </v>
   <v type="int" >       12        5       10       24       25 </v>
   <v type="int" >       12       19       20       21       34 </v>
   <v type="int" >       12       20       21       34       35 </v>
   <v type="int" >       12       21       34       35       36 </v>
   <v type="int" >       12       19       20       20       35 </v>
   <v type="int" >       12       20       20       21       35 </v>
   <v type="int" >       12       20       21       35       36 </v>
   <v type="int" >       12       19       20       34       35 </v>
   <v type="int" >       12       20       34       35       35 </v>
   <v type="int" >       12       20       35       35       36 </v>
   <v type="int" >       12       17       18       19       34 </v>
   <v type="int" >       12       18       19       20       34 </v>
   <v type="int" >       12       18       20       34       35 </v>
   <v type="int" >       12       17       18       32       34 </v>
   <v type="int" >       12       18       32       33       34 </v>
   <v type="int" >       12       18       33       34       35 </v>
   <v type="int" >       12       14       15       17       32 </v>
   <v type="int" >       12       15       17       18       32 </v>
   <v type="int" >       12       15       18       32       33 </v>
   <v type="int" >       12       14       15       29       32 </v>
   <v type="int" >       12       15       29       30       32 </v>
   <v type="int" >       12       15       30       32       33 </v>
   <v type="int" >       12       10       11       14       29 </v>
   <v type="int" >       12       11       14       15       29 </v>
   <v type="int" >       12       11       15       29       30 </v>
   <v type="int" >       12       10       11       25       29 </v>
   <v type="int" >       12       11       25       26       29 </v>
   <v type="int" >       12       11       26       29       30 </v>
   <v type="int" >       12        5        6       10       25 </v>
   <v type="int" >       12        6       10       11       25 </v>
   <v type="int" >       12        6       11       25       26 </v>
   <v type="int" >       12       19       20       21       36 </v>
   <v type="int" >       12       19       20       35       36 </v>
   <v type="int" >       12       19       34       35       36 </v>
   <v type="int" >       12       17       18       20       35 </v>
   <v type="int" >       12       17       19       20       35 </v>
   <v type="int" >       12       17       19       34       35 </v>
   <v type="int" >       12       17       18       33       35 </v>
   <v type="int" >       12       17       32       33       35 </v>
   <v type="int" >       12       17       32       34       35 </v>
   <v type="int" >       12       14       15       18       33 </v>
   <v type="int" >       12       14       17       18       33 </v>
   <v type="int" >       12       14       17       32       33 </v>
   <v type="int" >       12       14       15       30       33 </v>
   <v type="int" >       12       14       29       30       33 </v>
   <v type="int" >       12       14       29       32       33 </v>
   <v type="int" >       12       10       11       15       30 </v>
   <v type="int" >       12       10       14       15       30 </v>
   <v type="int" >       12       10       14       29       30 </v>
   <v type="int" >       12       10       11       26       30 </v>
   <v type="int" >       12       10       25       26       30 </v>
   <v type="int" >       12       10       25       29       30 </v>
   <v type="int" >       12        5        6       11       26 </v>
   <v type="int" >       12        5       10       11       26 </v>
   <v type="int" >       12        5       10       25       26 </v>
   <v type="int" >       12       16       17       19       34 </v>
   <v type="int" >       12       16       17       32       34 </v>
   <v type="int" >       12       16       31       32       34 </v>
   <v type="int" >       12       13       14       17       32 </v>
   <v type="int" >       12       13       16       17       32 </v>
   <v type="int" >       12       13       16       31       32 </v>
   <v type="int" >       12       13       14       29       32 </v>
   <v type="int" >       12       13       28       29       32 </v>
   <v type="int" >       12       13       28       31       32 </v>
   <v type="int" >       12        9       10       14       29 </v>
   <v type="int" >       12        9       13       14       29 </v>
   <v type="int" >       12        9       13       28       29 </v>
   <v type="int" >       12        9       10       25       29 </v>
   <v type="int" >       12        9       24       25       29 </v>
   <v type="int" >       12        9       24       28       29 </v>
   <v type="int" >       12        4        5       10       25 </v>
   <v type="int" >       12        4        9       10       25 </v>
   <v type="int" >       12        4        9       24       25 </v>
   <v type="int" >       12       12       13       16       31 </v>
   <v type="int" >       12       12       13       28       31 </v>
   <v type="int" >       12       12       27       28       31 </v>
   <v type="int" >       12        8        9       13       28 </v>
   <v type="int" >       12        8       12       13       28 </v>
   <v type="int" >       12        8       12       27       28 </v>
   <v type="int" >       12        8        9       24       28 </v>
   <v type="int" >       12        8       23       24       28 </v>
   <v type="int" >       12        8       23       27       28 </v>
   <v type="int" >       12        3        4        9       24 </v>
   <v type="int" >       12        3        8        9       24 </v>
   <v type="int" >       12        3        8       23       24 </v>
   <v type="int" >       12        7        8       12       27 </v>
   <v type="int" >       12        7        8       23       27 </v>
   <v type="int" >       12        7       22       23       27 </v>
   <v type="int" >       12        2        3        8       23 </v>
   <v type="int" >       12        2        7        8       23 </v>
   <v type="int" >       12        2        7       22       23 </v>
   <v type="int" >       12        1        2        7       22 </v>
   <v type="int" >       12       22       23       23       27 </v>
   <v type="int" >       12       23       23       27       27 </v>
   <v type="int" >       12       23       27       27       37 </v>
   <v type="int" >       12       23       24       27       28 </v>
   <v type="int" >       12       23       27       27       28 </v>
   <v type="int" >       12       27       27       28       37 </v>
   <v type="int" >       12       24       27       28       28 </v>
   <v type="int" >       24       27       28       28       38 </v>
   <v type="int" >       24       27       28       37       38 </v>
   <v type="int" >       12       24       25       28       29 </v>
   <v type="int" >       12       24       28       28       29 </v>
   <v type="int" >       12       28       28       29       38 </v>
   <v type="int" >       12       25       28       29       29 </v>
   <v type="int" >       12       28       29       29       39 </v>
   <v type="int" >       12       28       29       38       39 </v>
   <v type="int" >       12       25       26       29       30 </v>
   <v type="int" >       12       25       29       29       30 </v>
   <v type="int" >       12       29       29       30       39 </v>
   <v type="int" >       12       26       29       30       30 </v>
   <v type="int" >       12       29       30       30       40 </v>
   <v type="int" >       12       29       30       39       40 </v>
   <v type="int" >       12       27       28       31       37 </v>
   <v type="int" >       12       28       31       37       38 </v>
   <v type="int" >       12       31       37       38       41 </v>
   <v type="int" >       12       28       29       32       38 </v>
   <v type="int" >       12       28       31       32       38 </v>
   <v type="int" >       12       31       32       38       41 </v>
   <v type="int" >       12       29       32       38       39 </v>
   <v type="int" >       12       32       38       39       42 </v>
   <v type="int" >       12       32       38       41       42 </v>
   <v type="int" >       12       29       30       33       39 </v>
   <v type="int" >       12       29       32       33       39 </v>
   <v type="int" >       12       32       33       39       42 </v>
   <v type="int" >       12       30       33       39       40 </v>
   <v type="int" >       12       33       39       40       43 </v>
   <v type="int" >       12       33       39       42       43 </v>
   <v type="int" >       12       29       30       32       40 </v>
   <v type="int" >       12       30       32       33       40 </v>
   <v type="int" >       12       32       33       40       43 </v>
   <v type="int" >       12       29       32       39       40 </v>
   <v type="int" >       12       32       39       40       42 </v>
   <v type="int" >       12       32       40       42       43 </v>
   <v type="int" >       12       28       29       31       39 </v>
   <v type="int" >       12       29       31       32       39 </v>
   <v type="int" >       12       31       32       39       42 </v>
   <v type="int" >       12       28       31       38       39 </v>
   <v type="int" >       12       31       38       39       41 </v>
   <v type="int" >       12       31       39       41       42 </v>
   <v type="int" >       12       28       28       31       38 </v>
   <v type="int" >       12       28       31       38       41 </v>
   <v type="int" >       12       28       37       38       38 </v>
   <v type="int" >       12       28       38       38       41 </v>
   <v type="int" >       12       23       24       27       37 </v>
   <v type="int" >       12       24       27       28       37 </v>
   <v type="int" >       12       24       28       37       38 </v>
   <v type="int" >       12       31       32       34       41 </v>
   <v type="int" >       12       32       34       41       42 </v>
   <v type="int" >       12       34       41       42       44 </v>
   <v type="int" >       12       32       33       35       42 </v>
   <v type="int" >       12       32       34       35       42 </v>
   <v type="int" >       12       34       35       42       44 </v>
   <v type="int" >       12       33       35       42       43 </v>
   <v type="int" >       12       35       42       43       45 </v>
   <v type="int" >       12       35       42       44       45 </v>
   <v type="int" >       12       32       33       34       43 </v>
   <v type="int" >       12       33       34       35       43 </v>
   <v type="int" >       12       34       35       43       45 </v>
   <v type="int" >       12       32       34       42       43 </v>
   <v type="int" >       12       34       42       43       44 </v>
   <v type="int" >       12       34       43       44       45 </v>
   <v type="int" >       12       31       32       32       42 </v>
   <v type="int" >       12       32       32       34       42 </v>
   <v type="int" >       12       32       34       42       44 </v>
   <v type="int" >       12       31       32       41       42 </v>
   <v type="int" >       12       32       41       42       42 </v>
   <v type="int" >       12       32       42       42       44 </v>
   <v type="int" >       12       28       29       31       41 </v>
   <v type="int" >       12       29       31       32       41 </v>
   <v type="int" >       12       29       32       41       42 </v>
   <v type="int" >       12       28       29       38       41 </v>
   <v type="int" >       12       29       38       39       41 </v>
   <v type="int" >       12       29       39       41       42 </v>
   <v type="int" >       12       24       25       28       38 </v>
   <v type="int" >       12       25       28       29       38 </v>
   <v type="int" >       12       25       29       38       39 </v>
   <v type="int" >       12       34       35       36       44 </v>
   <v type="int" >       12       35       36       44       45 </v>
   <v type="int" >       12       36       44       45       46 </v>
   <v type="int" >       12       34       35       35       45 </v>
   <v type="int" >       12       35       35       36       45 </v>
   <v type="int" >       12       35       36       45       46 </v>
   <v type="int" >       12       34       35       44       45 </v>
   <v type="int" >       12       35       44       45       45 </v>
   <v type="int" >       12       35       45       45       46 </v>
   <v type="int" >       12       32       33       34       44 </v>
   <v type="int" >       12       33       34       35       44 </v>
   <v type="int" >       12       33       35       44       45 </v>
   <v type="int" >       12       32       33       42       44 </v>
   <v type="int" >       12       33       42       43       44 </v>
   <v type="int" >       12       33       43       44       45 </v>
   <v type="int" >       12       29       30       32       42 </v>
   <v type="int" >       12       30       32       33       42 </v>
   <v type="int" >       12       30       33       42       43 </v>
   <v type="int" >       12       29       30       39       42 </v>
   <v type="int" >       12       30       39       40       42 </v>
   <v type="int" >       12       30       40       42       43 </v>
   <v type="int" >       12       25       26       29       39 </v>
   <v type="int" >       12       26       29       30       39 </v>
   <v type="int" >       12       26       30       39       40 </v>
   <v type="int" >       12       34       35       36       46 </v>
   <v type="int" >       12       34       35       45       46 </v>
   <v type="int" >       12       34       44       45       46 </v>
   <v type="int" >       12       32       33       35       45 </v>
   <v type="int" >       12       32       34       35       45 </v>
   <v type="int" >       12       32       34       44       45 </v>
   <v type="int" >       12       32       33       43       45 </v>
   <v type="int" >       12       32       42       43       45 </v>
   <v type="int" >       12       32       42       44       45 </v>
   <v type="int" >       12       29       30       33       43 </v>
   <v type="int" >       12       29       32       33       43 </v>
   <v type="int" >       12       29       32       42       43 </v>
   <v type="int" >       12       29       30       40       43 </v>
   <v type="int" >       12       29       39       40       43 </v>
   <v type="int" >       12       29       39       42       43 </v>
   <v type="int" >       12       25       26       30       40 </v>
   <v type="int" >       12       25       29       30       40 </v>
   <v type="int" >       12       25       29       39       40 </v>
   <v type="int" >       12       31       32       34       44 </v>
   <v type="int" >       12       31       32       42       44 </v>
   <v type="int" >       12       31       41       42       44 </v>
   <v type="int" >       12       28       29       32       42 </v>
   <v type="int" >       12       28       31       32       42 </v>
   <v type="int" >       12       28       31       41       42 </v>
   <v type="int" >       12       28       29       39       42 </v>
   <v type="int" >       12       28       38       39       42 </v>
   <v type="int" >       12       28       38       41       42 </v>
   <v type="int" >       12       24       25       29       39 </v>
   <v type="int" >       12       24       28       29       39 </v>
   <v type="int" >       12       24       28       38       39 </v>
   <v type="int" >       12       27       28       31       41 </v>
   <v type="int" >       12       27       28       38       41 </v>
   <v type="int" >       12       27       37       38       41 </v>
   <v type="int" >       12       23       24       28       38 </v>
   <v type="int" >       12       23       27       28       38 </v>
   <v type="int" >       12       23       27       37       38 </v>
   <v type="int" >       12       22       23       27       37 </v>
   <v type="int" >       12       37       38       38       41 </v>
   <v type="int" >       12       38       38       41       41 </v>
   <v type="int" >       12       38       41       41       47 </v>
   <v type="int" >       12       38       39       41       42 </v>
   <v type="int" >       12       38       41       41       42 </v>
   <v type="int" >       12       41       41       42       47 </v>
   <v type="int" >       12       39       41       42       42 </v>
   <v type="int" >       24       41       42       42       48 </v>
   <v type="int" >       24       41       42       47       48 </v>
   <v type="int" >       12       39       40       42       43 </v>
   <v type="int" >       12       39       42       42       43 </v>
   <v type="int" >       12       42       42       43       48 </v>
   <v type="int" >       12       40       42       43       43 </v>
   <v type="int" >       12       42       43       43       49 </v>
   <v type="int" >       12       42       43       48       49 </v>
   <v type="int" >       12       41       42       44       47 </v>
   <v type="int" >       12       42       44       47       48 </v>
   <v type="int" >       12       44       47       48       50 </v>
   <v type="int" >       12       42       43       45       48 </v>
   <v type="int" >       12       42       44       45       48 </v>
   <v type="int" >       12       44       45       48       50 </v>
   <v type="int" >       12       43       45       48       49 </v>
   <v type="int" >       12       45       48       49       51 </v>
   <v type="int" >       12       45       48       50       51 </v>
   <v type="int" >       12       42       43       44       49 </v>
   <v type="int" >       12       43       44       45       49 </v>
   <v type="int" >       12       44       45       49       51 </v>
   <v type="int" >       12       42       44       48       49 </v>
   <v type="int" >       12       44       48       49       50 </v>
   <v type="int" >       12       44       49       50       51 </v>
   <v type="int" >       12       42       42       44       48 </v>
   <v type="int" >       12       42       44       48       50 </v>
   <v type="int" >       12       42       47       48       48 </v>
   <v type="int" >       12       42       48       48       50 </v>
   <v type="int" >       12       38       39       41       47 </v>
   <v type="int" >       12       39       41       42       47 </v>
   <v type="int" >       12       39       42       47       48 </v>
   <v type="int" >       12       44       45       46       50 </v>
   <v type="int" >       12       45       46       50       51 </v>
   <v type="int" >       12       46       50       51       52 </v>
   <v type="int" >       12       44       45       45       51 </v>
   <v type="int" >       12       45       45       46       51 </v>
   <v type="int" >       12       45       46       51       52 </v>
   <v type="int" >       12       44       45       50       51 </v>
   <v type="int" >       12       45       50       51       51 </v>
   <v type="int" >       12       45       51       51       52 </v>
   <v type="int" >       12       42       43       44       50 </v>
   <v type="int" >       12       43       44       45       50 </v>
   <v type="int" >       12       43       45       50       51 </v>
   <v type="int" >       12       42       43       48       50 </v>
   <v type="int" >       12       43       48       49       50 </v>
   <v type="int" >       12       43       49       50       51 </v>
   <v type="int" >       12       39       40       42       48 </v>
   <v type="int" >       12       40       42       43       48 </v>
   <v type="int" >       12       40       43       48       49 </v>
   <v type="int" >       12       44       45       46       52 </v>
   <v type="int" >       12       44       45       51       52 </v>
   <v type="int" >       12       44       50       51       52 </v>
   <v type="int" >       12       42       43       45       51 </v>
   <v type="int" >       12       42       44       45       51 </v>
   <v type="int" >       12       42       44       50       51 </v>
   <v type="int" >       12       42       43       49       51 </v>
   <v type="int" >       12       42       48       49       51 </v>
   <v type="int" >       12       42       48       50       51 </v>
   <v type="int" >       12       39       40       43       49 </v>
   <v type="int" >       12       39       42       43       49 </v>
   <v type="int" >       12       39       42       48       49 </v>
   <v type="int" >       12       41       42       44       50 </v>
   <v type="int" >       12       41       42       48       50 </v>
   <v type="int" >       12       41       47       48       50 </v>
   <v type="int" >       12       38       39       42       48 </v>
   <v type="int" >       12       38       41       42       48 </v>
   <v type="int" >       12       38       41       47       48 </v>
   <v type="int" >       12       37       38       41       47 </v>
   <v type="int" >       12       47       48       48       50 </v>
   <v type="int" >       12       48       48       50       50 </v>
   <v type="int" >       12       48       50       50       53 </v>
   <v type="int" >       12       48       49       50       51 </v>
   <v type="int" >       12       48       50       50       51 </v>
   <v type="int" >       12       50       50       51       53 </v>
   <v type="int" >       12       49       50       51       51 </v>
   <v type="int" >       24       50       51       51       54 </v>
   <v type="int" >       24       50       51       53       54 </v>
   <v type="int" >       12       50       51       52       53 </v>
   <v type="int" >       12       51       52       53       54 </v>
   <v type="int" >       12       52       53       54       55 </v>
   <v type="int" >       12       51       51       52       54 </v>
   <v type="int" >       12       51       52       54       55 </v>
   <v type="int" >       12       51       53       54       54 </v>
   <v type="int" >       12       51       54       54       55 </v>
   <v type="int" >       12       48       49       50       53 </v>
   <v type="int" >       12       49       50       51       53 </v>
   <v type="int" >       12       49       51       53       54 </v>
   <v type="int" >       12       50       51       52       55 </v>
   <v type="int" >       12       50       51       54       55 </v>
   <v type="int" >       12       50       53       54       55 </v>
   <v type="int" >       12       48       49       51       54 </v>
   <v type="int" >       12       48       50       51       54 </v>
   <v type="int" >       12       48       50       53       54 </v>
   <v type="int" >       12       47       48       50       53 </v>
   <v type="int" >       12       53       54       54       55 </v>
   <v type="int" >       12       54       54       55       55 </v>
   <v type="int" >       12       54       55       55       56 </v>
   <v type="int" >       12       53       54       55       56 </v>
  </varray>
  <i name="volumeweight">      0.00016667 </i>
 </kpoints>
 <parameters>
  <separator name="general" >
   <i type="string" name="SYSTEM">unknown system</i>
   <i type="logical" name="LCOMPAT"> F  </i>
  </separator>
  <separator name="electronic" >
   <i type="string" name="PREC">normal</i>
   <i name="ENMAX">    500.00000000</i>
   <i name="ENAUG">    358.96600000</i>
   <i name="EDIFF">      0.00001000</i>
   <i type="int" name="IALGO">    68</i>
   <i type="int" name="IWAVPR">    10</i>
   <i type="int" name="NBANDS">    10</i>
   <i name="NELECT">     10.00000000</i>
   <i type="int" name="TURBO">     0</i>
   <i type="int" name="IRESTART">     0</i>
   <i type="int" name="NREBOOT">     0</i>
   <i type="int" name="NMIN">     0</i>
   <i name="EREF">      0.00000000</i>
   <separator name="electronic smearing" >
    <i type="int" name="ISMEAR">    -5</i>
    <i name="SIGMA">      0.20000000</i>
    <i name="KSPACING">      0.50000000</i>
    <i type="logical" name="KGAMMA"> T  </i>
   </separator>
   <separator name="electronic projectors" >
    <i type="logical" name="LREAL"> T  </i>
    <v name="ROPT">     -0.00050000</v>
    <i type="int" name="LMAXPAW">  -100</i>
    <i type="int" name="LMAXMIX">     2</i>
    <i type="logical" name="NLSPLINE"> F  </i>
   </separator>
   <separator name="electronic startup" >
    <i type="int" name="ISTART">     0</i>
    <i type="int" name="ICHARG">     2</i>
    <i type="int" name="INIWAV">     1</i>
   </separator>
   <separator name="electronic spin" >
    <i type="int" name="ISPIN">     1</i>
    <i type="logical" name="LNONCOLLINEAR"> F  </i>
    <v name="MAGMOM">      1.00000000</v>
    <i name="NUPDOWN">     -1.00000000</i>
    <i type="logical" name="LSORBIT"> F  </i>
    <v name="SAXIS">      0.00000000      0.00000000      1.00000000</v>
    <i type="logical" name="LSPIRAL"> F  </i>
    <v name="QSPIRAL">      0.00000000      0.00000000      0.00000000</v>
    <i type="logical" name="LZEROZ"> F  </i>
   </separator>
   <separator name="electronic exchange-correlation" >
    <i type="logical" name="LASPH"> F  </i>
    <i type="logical" name="LMETAGGA"> F  </i>
   </separator>
   <separator name="electronic convergence" >
    <i type="int" name="NELM">    60</i>
    <i type="int" name="NELMDL">    -5</i>
    <i type="int" name="NELMIN">     4</i>
    <i name="ENINI">    500.00000000</i>
    <separator name="electronic convergence detail" >
     <i type="logical" name="LDIAG"> T  </i>
     <i type="logical" name="LSUBROT"> F  </i>
     <i name="WEIMIN">      0.00000000</i>
     <i name="EBREAK">      0.00000025</i>
     <i name="DEPER">      0.30000000</i>
     <i type="int" name="NRMM">     4</i>
     <i name="TIME">      0.40000000</i>
    </separator>
   </separator>
   <separator name="electronic mixer" >
    <i name="AMIX">      0.40000000</i>
    <i name="BMIX">      1.00000000</i>
    <i name="AMIN">      0.10000000</i>
    <i name="AMIX_MAG">      1.60000000</i>
    <i name="BMIX_MAG">      1.00000000</i>
    <separator name="electronic mixer details" >
     <i type="int" name="IMIX">     4</i>
     <i type="logical" name="MIXFIRST"> F  </i>
     <i type="int" name="MAXMIX">   -45</i>
     <i name="WC">    100.00000000</i>
     <i type="int" name="INIMIX">     1</i>
     <i type="int" name="MIXPRE">     1</i>
     <i type="int" name="MREMOVE">     5</i>
    </separator>
   </separator>
   <separator name="electronic dipolcorrection" >
    <i type="logical" name="LDIPOL"> F  </i>
    <i type="logical" name="LMONO"> F  </i>
    <i type="int" name="IDIPOL">     0</i>
    <i name="EPSILON">      1.00000000</i>
    <v name="DIPOL">   -100.00000000   -100.00000000   -100.00000000</v>
    <i name="EFIELD">      0.00000000</i>
   </separator>
  </separator>
  <separator name="grids" >
   <i type="int" name="NGX">    14</i>
   <i type="int" name="NGY">    14</i>
   <i type="int" name="NGZ">    14</i>
   <i type="int" name="NGXF">    28</i>
   <i type="int" name="NGYF">    28</i>
   <i type="int" name="NGZF">    28</i>
   <i type="logical" name="ADDGRID"> F  </i>
  </separator>
  <separator name="ionic" >
   <i type="int" name="NSW">     0</i>
   <i type="int" name="IBRION">    -1</i>
   <i type="int" name="ISIF">     2</i>
   <i name="PSTRESS">      0.00000000</i>
   <i name="EDIFFG">      0.00010000</i>
   <i type="int" name="NFREE">     0</i>
   <i name="POTIM">      0.50000000</i>
   <i name="SMASS">     -3.00000000</i>
   <i name="SCALEE">      1.00000000</i>
  </separator>
  <separator name="ionic md" >
   <i name="TEBEG">      0.00010000</i>
   <i name="TEEND">      0.00010000</i>
   <i type="int" name="NBLOCK">     1</i>
   <i type="int" name="KBLOCK">     1</i>
   <i type="int" name="NPACO">   256</i>
   <i name="APACO">     16.00000000</i>
  </separator>
  <separator name="symmetry" >
   <i type="int" name="ISYM">     2</i>
   <i name="SYMPREC">      0.00001000</i>
  </separator>
  <separator name="dos" >
   <i type="logical" name="LORBIT"> F  </i>
   <v name="RWIGS">     -1.00000000</v>
   <i type="int" name="NEDOS">   301</i>
   <i name="EMIN">     10.00000000</i>
   <i name="EMAX">    -10.00000000</i>
   <i name="EFERMI">      0.00000000</i>
  </separator>
  <separator name="writing" >
   <i type="int" name="NWRITE">     2</i>
   <i type="logical" name="LWAVE"> F  </i>
   <i type="logical" name="LCHARG"> T  </i>
   <i type="logical" name="LPARD"> F  </i>
   <i type="logical" name="LVTOT"> F  </i>
   <i type="logical" name="LVHAR"> F  </i>
   <i type="logical" name="LELF"> F  </i>
   <i type="logical" name="LOPTICS"> F  </i>
   <v name="STM">      0.00000000      0.00000000      0.00000000      0.00000000      0.00000000      0.00000000      0.00000000</v>
  </separator>
  <separator name="performance" >
   <i type="int" name="NPAR">     2</i>
   <i type="int" name="NSIM">     4</i>
   <i type="int" name="NBLK">    -1</i>
   <i type="logical" name="LPLANE"> T  </i>
   <i type="logical" name="LSCALAPACK"> F  </i>
   <i type="logical" name="LSCAAWARE"> F  </i>
   <i type="logical" name="LSCALU"> F  </i>
   <i type="logical" name="LASYNC"> F  </i>
   <i type="logical" name="LORBITALREAL"> F  </i>
  </separator>
  <separator name="miscellaneous" >
   <i type="int" name="IDIOT">     3</i>
   <i type="logical" name="LMUSIC"> F  </i>
   <v name="POMASS">    195.08000000</v>
   <v name="DARWINR">      0.00000000</v>
   <v name="DARWINV">      1.00000000</v>
   <i type="logical" name="LCORR"> T  </i>
  </separator>
  <i type="logical" name="GGA_COMPAT"> T  </i>
  <i type="logical" name="LBERRY"> F  </i>
  <i type="int" name="ICORELEVEL">     0</i>
  <i type="logical" name="LDAU"> F  </i>
  <i type="int" name="I_CONSTRAINED_M">     0</i>
  <separator name="electronic exchange-correlation" >
   <i type="string" name="GGA">--</i>
   <i type="int" name="VOSKOWN">     0</i>
   <i type="logical" name="LHFCALC"> F  </i>
   <i type="string" name="PRECFOCK"></i>
   <i type="logical" name="LSYMGRAD"> F  </i>
   <i type="logical" name="LHFONE"> F  </i>
   <i type="logical" name="LRHFCALC"> F  </i>
   <i type="logical" name="LTHOMAS"> F  </i>
   <i type="logical" name="LMODELHF"> F  </i>
   <i name="ENCUT4O">     -1.00000000</i>
   <i type="int" name="EXXOEP">     0</i>
   <i type="int" name="FOURORBIT">     0</i>
   <i name="AEXX">      0.00000000</i>
   <i name="HFALPHA">      0.00000000</i>
   <i name="MCALPHA">      0.00000000</i>
   <i name="ALDAX">      1.00000000</i>
   <i name="AGGAX">      1.00000000</i>
   <i name="ALDAC">      1.00000000</i>
   <i name="AGGAC">      1.00000000</i>
   <i type="int" name="NKREDX">     1</i>
   <i type="int" name="NKREDY">     1</i>
   <i type="int" name="NKREDZ">     1</i>
   <i type="logical" name="SHIFTRED"> F  </i>
   <i type="logical" name="ODDONLY"> F  </i>
   <i type="logical" name="EVENONLY"> F  </i>
   <i type="int" name="LMAXFOCK">     0</i>
   <i type="int" name="NMAXFOCKAE">     0</i>
   <i type="logical" name="LFOCKAEDFT"> F  </i>
   <i name="HFSCREEN">      0.00000000</i>
   <i name="HFSCREENC">      0.00000000</i>
   <i type="int" name="NBANDSGWLOW">     0</i>
  </separator>
  <separator name="vdW DFT" >
   <i type="logical" name="LUSE_VDW"> F  </i>
   <i name="Zab_VDW">     -0.84910000</i>
   <i name="PARAM1">      0.12340000</i>
   <i name="PARAM2">      1.00000000</i>
   <i name="PARAM3">      0.00000000</i>
  </separator>
  <separator name="model GW" >
   <i type="int" name="MODEL_GW">     0</i>
   <i name="MODEL_EPS0">     10.89371183</i>
   <i name="MODEL_ALPHA">      1.00000000</i>
  </separator>
  <separator name="linear response parameters" >
   <i type="logical" name="LEPSILON"> F  </i>
   <i type="logical" name="LRPA"> F  </i>
   <i type="logical" name="LNABLA"> F  </i>
   <i type="logical" name="LVEL"> F  </i>
   <i type="int" name="KINTER">     0</i>
   <i name="CSHIFT">      0.10000000</i>
   <i name="OMEGAMAX">     -1.00000000</i>
   <i name="DEG_THRESHOLD">      0.00200000</i>
  </separator>
  <separator name="orbital magnetization" >
   <i type="logical" name="NUCIND"> F  </i>
   <v name="MAGPOS">      0.00000000      0.00000000      0.00000000</v>
   <i type="logical" name="LNICSALL"> T  </i>
   <i type="logical" name="ORBITALMAG"> F  </i>
   <i type="logical" name="LMAGBLOCH"> F  </i>
   <i type="logical" name="LCHIMAG"> F  </i>
   <i type="logical" name="LGAUGE"> T  </i>
   <i type="int" name="MAGATOM">     0</i>
   <v name="MAGDIPOL">      0.00000000      0.00000000      0.00000000</v>
   <v name="AVECCONST">      0.00000000      0.00000000      0.00000000</v>
  </separator>
  <separator name="response functions" >
   <i type="logical" name="LADDER"> F  </i>
   <i type="logical" name="LFXC"> F  </i>
   <i type="logical" name="LHARTREE"> T  </i>
   <i type="int" name="IBSE">     0</i>
   <v type="int" name="KPOINT">    -1     0     0     0</v>
   <i type="logical" name="LTCTE"> F  </i>
   <i type="logical" name="LTETE"> F  </i>
   <i type="logical" name="LTRIPLET"> F  </i>
   <i type="logical" name="LFXCEPS"> F  </i>
   <i type="logical" name="LFXHEG"> F  </i>
   <i type="int" name="NATURALO">     0</i>
   <i type="logical" name="L2ORDER"> F  </i>
   <i type="logical" name="LUSEW"> F  </i>
   <i name="ENCUTGW">     -2.00000000</i>
   <i name="ENCUTGWSOFT">     -2.00000000</i>
   <i name="ENCUTLF">     -1.00000000</i>
   <i type="int" name="LMAXMP2">    -1</i>
   <i name="SCISSOR">      0.00000000</i>
   <i type="int" name="NOMEGA">     0</i>
   <i type="int" name="NOMEGAR">     0</i>
   <i type="int" name="NBANDSGW">    -1</i>
   <i type="int" name="NBANDSO">    -1</i>
   <i type="int" name="NBANDSV">    -1</i>
   <i type="int" name="NELM">     1</i>
   <i type="int" name="NELMHF">     1</i>
   <i type="int" name="DIM">     3</i>
   <i type="int" name="ANTIRES">     0</i>
   <i name="OMEGAMAX">    -30.00000000</i>
   <i name="OMEGAMIN">    -30.00000000</i>
   <i name="OMEGATL">   -200.00000000</i>
   <i type="int" name="OMEGAGRID">     0</i>
   <i name="CSHIFT">     -0.10000000</i>
   <i type="logical" name="SELFENERGY"> F  </i>
   <i type="logical" name="LSPECTRAL"> F  </i>
   <i type="logical" name="LSPECTRALGW"> F  </i>
   <i type="logical" name="LSINGLES"> F  </i>
   <i type="logical" name="LFERMIGW"> F  </i>
   <i type="logical" name="ODDONLYGW"> F  </i>
   <i type="logical" name="EVENONLYGW"> F  </i>
   <i type="int" name="NKREDLFX">     1</i>
   <i type="int" name="NKREDLFY">     1</i>
   <i type="int" name="NKREDLFZ">     1</i>
   <i type="int" name="MAXMEM">  1800</i>
   <i type="int" name="TELESCOPE">     0</i>
   <i type="int" name="TAUPAR">     1</i>
   <i type="int" name="OMEGAPAR">    -1</i>
   <i name="LAMBDA">      1.00000000</i>
  </separator>
  <separator name="External order field" >
   <i name="OFIELD_KAPPA">      0.00000000</i>
   <v name="OFIELD_K">      0.00000000      0.00000000      0.00000000</v>
   <i name="OFIELD_Q6_NEAR">      0.00000000</i>
   <i name="OFIELD_Q6_FAR">      0.00000000</i>
   <i name="OFIELD_A">      0.00000000</i>
  </separator>
 </parameters>
 <atominfo>
  <atoms>       1 </atoms>
  <types>       1 </types>
  <array name="atoms" >
   <dimension dim="1">ion</dimension>
   <field type="string">element</field>
   <field type="int">atomtype</field>
   <set>
    <rc><c>Pt</c><c>   1</c></rc>
   </set>
  </array>
  <array name="atomtypes" >
   <dimension dim="1">type</dimension>
   <field type="int">atomspertype</field>
   <field type="string">element</field>
   <field>mass</field>
   <field>valence</field>
   <field type="string">pseudopotential</field>
   <set>
    <rc><c>   1</c><c>Pt</c><c>    195.08000000</c><c>     10.00000000</c><c> PAW_PBE Pt 05Jan2001                   </c></rc>
   </set>
  </array>
 </atominfo>
 <structure name="initialpos" >
  <crystal>
   <varray name="basis" >
    <v>       2.62829965       0.00000000       0.00000000 </v>
    <v>       0.00000000       2.62829965       0.00000000 </v>
    <v>       0.00000000       0.00000000       2.62829965 </v>
   </varray>
   <i name="volume">     18.15618639 </i>
   <varray name="rec_basis" >
    <v>       0.38047412       0.00000000       0.00000000 </v>
    <v>       0.00000000       0.38047412       0.00000000 </v>
    <v>       0.00000000       0.00000000       0.38047412 </v>
   </varray>
  </crystal>
  <varray name="positions" >
   <v>       0.00000000       0.00000000       0.00000000 </v>
  </varray>
 </structure>
 <calculation>
  <scstep>
   <time name="dav">    0.18    0.18</time>
   <time name="total">    0.20    0.24</time>
   <energy>
    <i name="alphaZ">     80.13537472 </i>
    <i name="ewald">   -777.24166616 </i>
    <i name="hartreedc">    -99.87641110 </i>
    <i name="XCdc">      3.31415030 </i>
    <i name="pawpsdc">    573.24549325 </i>
    <i name="pawaedc">   -544.96212058 </i>
    <i name="eentropy">      0.00000000 </i>
    <i name="bandstr">     99.31399653 </i>
    <i name="atom">    729.11316681 </i>
    <i name="e_fr_energy">     63.04198377 </i>
    <i name="e_wo_entrp">     63.04198377 </i>
    <i name="e_0_energy">     63.04198377 </i>
   </energy>
  </scstep>
  <scstep>
   <time name="dav">    0.17    0.17</time>
   <time name="total">    0.18    0.19</time>
   <energy>
    <i name="e_fr_energy">     -4.58158547 </i>
    <i name="e_wo_entrp">     -4.58158547 </i>
    <i name="e_0_energy">     -4.58158547 </i>
   </energy>
  </scstep>
  <scstep>
   <time name="dav">    0.20    0.20</time>
   <time name="total">    0.21    0.23</time>
   <energy>
    <i name="e_fr_energy">     -5.93448238 </i>
    <i name="e_wo_entrp">     -5.93448238 </i>
    <i name="e_0_energy">     -5.93448238 </i>
   </energy>
  </scstep>
  <scstep>
   <time name="dav">    0.19    0.19</time>
   <time name="total">    0.21    0.21</time>
   <energy>
    <i name="e_fr_energy">     -5.94806572 </i>
    <i name="e_wo_entrp">     -5.94806572 </i>
    <i name="e_0_energy">     -5.94806572 </i>
   </energy>
  </scstep>
  <scstep>
   <time name="dav">    0.19    0.20</time>
   <time name="total">    0.21    0.22</time>
   <energy>
    <i name="e_fr_energy">     -5.94841825 </i>
    <i name="e_wo_entrp">     -5.94841825 </i>
    <i name="e_0_energy">     -5.94841825 </i>
   </energy>
  </scstep>
  <scstep>
   <time name="diag">    0.02    0.03</time>
   <time name="diis">    0.09    0.09</time>
   <time name="orth">    0.00    0.00</time>
   <time name="total">    0.15    0.16</time>
   <energy>
    <i name="e_fr_energy">     -5.63470280 </i>
    <i name="e_wo_entrp">     -5.63470280 </i>
    <i name="e_0_energy">     -5.63470280 </i>
   </energy>
  </scstep>
  <scstep>
   <time name="diag">    0.02    0.03</time>
   <time name="diis">    0.10    0.10</time>
   <time name="orth">    0.00    0.00</time>
   <time name="total">    0.15    0.15</time>
   <energy>
    <i name="e_fr_energy">     -5.61505781 </i>
    <i name="e_wo_entrp">     -5.61505781 </i>
    <i name="e_0_energy">     -5.61505781 </i>
   </energy>
  </scstep>
  <scstep>
   <time name="diag">    0.02    0.03</time>
   <time name="diis">    0.10    0.10</time>
   <time name="orth">    0.00    0.00</time>
   <time name="total">    0.16    0.17</time>
   <energy>
    <i name="e_fr_energy">     -5.61193302 </i>
    <i name="e_wo_entrp">     -5.61193302 </i>
    <i name="e_0_energy">     -5.61193302 </i>
   </energy>
  </scstep>
  <scstep>
   <time name="diag">    0.02    0.03</time>
   <time name="diis">    0.12    0.12</time>
   <time name="orth">    0.00    0.00</time>
   <time name="total">    0.17    0.17</time>
   <energy>
    <i name="e_fr_energy">     -5.61193491 </i>
    <i name="e_wo_entrp">     -5.61193491 </i>
    <i name="e_0_energy">     -5.61193491 </i>
   </energy>
  </scstep>
  <scstep>
   <time name="diag">    0.02    0.03</time>
   <time name="diis">    0.08    0.08</time>
   <time name="orth">    0.00    0.00</time>
   <time name="total">    0.13    0.14</time>
   <energy>
    <i name="e_fr_energy">     -5.61194814 </i>
    <i name="e_wo_entrp">     -5.61194814 </i>
    <i name="e_0_energy">     -5.61194814 </i>
   </energy>
  </scstep>
  <scstep>
   <time name="diag">    0.02    0.03</time>
   <time name="diis">    0.07    0.07</time>
   <time name="orth">    0.00    0.00</time>
   <time name="total">    0.12    0.12</time>
   <energy>
    <i name="alphaZ">     80.13537472 </i>
    <i name="ewald">   -777.24166616 </i>
    <i name="hartreedc">    -90.07233762 </i>
    <i name="XCdc">      2.98142705 </i>
    <i name="pawpsdc">    597.53099648 </i>
    <i name="pawaedc">   -571.70143631 </i>
    <i name="eentropy">      0.00000000 </i>
    <i name="bandstr">     23.64253403 </i>
    <i name="atom">    729.11316681 </i>
    <i name="e_fr_energy">     -5.61194100 </i>
    <i name="e_wo_entrp">     -5.61194100 </i>
    <i name="e_0_energy">     -5.61194100 </i>
   </energy>
  </scstep>
  <structure>
   <crystal>
    <varray name="basis" >
     <v>       2.62829965       0.00000000       0.00000000 </v>
     <v>       0.00000000       2.62829965       0.00000000 </v>
     <v>       0.00000000       0.00000000       2.62829965 </v>
    </varray>
    <i name="volume">     18.15618639 </i>
    <varray name="rec_basis" >
     <v>       0.38047412       0.00000000       0.00000000 </v>
     <v>       0.00000000       0.38047412       0.00000000 </v>
     <v>       0.00000000       0.00000000       0.38047412 </v>
    </varray>
   </crystal>
   <varray name="positions" >
    <v>       0.00000000       0.00000000       0.00000000 </v>
   </varray>
  </structure>
  <varray name="forces" >
   <v>       0.00000000       0.00000000       0.00000000 </v>
  </varray>
  <varray name="stress" >
   <v>      -0.86291009       0.00000000      -0.00000000 </v>
   <v>       0.00000000      -0.86291009      -0.00000000 </v>
   <v>       0.00000000      -0.00000000      -0.86291009 </v>
  </varray>
  <energy>
   <i name="e_fr_energy">     -5.61194100 </i>
   <i name="e_wo_entrp">     -5.61194100 </i>
   <i name="e_0_energy">      0.00000000 </i>
  </energy>
  <time name="totalsc">    2.12    2.27</time>
  <eigenvalues>
   <array>
    <dimension dim="1">band</dimension>
    <dimension dim="2">kpoint</dimension>
    <dimension dim="3">spin</dimension>
    <field>eigene</field>
    <field>occ</field>
    <set>
     <set comment="spin 1">
      <set comment="kpoint 1">
       <r>   -2.9965    1.0000 </r>
       <r>   -0.2388    1.0000 </r>
       <r>   -0.2388    1.0000 </r>
       <r>    5.6475   -0.1518 </r>
       <r>    5.6475   -0.1895 </r>
       <r>    5.6475   -0.0313 </r>
       <r>   20.7630    0.0000 </r>
       <r>   20.7630    0.0000 </r>
       <r>   20.7630    0.0000 </r>
       <r>   26.1698    0.0000 </r>
      </set>
      <set comment="kpoint 2">
       <r>   -2.7213    1.0000 </r>
       <r>   -0.1877    1.0000 </r>
       <r>    0.0128    1.0000 </r>
       <r>    5.4052    0.8037 </r>
       <r>    5.4052    0.4774 </r>
       <r>    5.6668   -0.0656 </r>
       <r>   18.9420    0.0000 </r>
       <r>   21.2510    0.0000 </r>
       <r>   21.2510    0.0000 </r>
       <r>   27.0639    0.0000 </r>
      </set>
      <set comment="kpoint 3">
       <r>   -2.0282    1.0000 </r>
       <r>   -0.0510    1.0000 </r>
       <r>    0.8139    1.0000 </r>
       <r>    4.8208    1.0008 </r>
       <r>    4.8208    1.0197 </r>
       <r>    5.7177   -0.0931 </r>
       <r>   15.9666    0.0000 </r>
       <r>   22.5417    0.0000 </r>
       <r>   22.5417    0.0000 </r>
       <r>   25.7591    0.0000 </r>
      </set>
      <set comment="kpoint 4">
       <r>   -1.2370    1.0000 </r>
       <r>    0.1241    1.0000 </r>
       <r>    2.2040    1.0000 </r>
       <r>    4.1769    1.0000 </r>
       <r>    4.1769    1.0000 </r>
       <r>    5.7812   -0.0488 </r>
       <r>   13.1625    0.0000 </r>
       <r>   24.0433    0.0000 </r>
       <r>   24.2597    0.0000 </r>
       <r>   24.2597    0.0000 </r>
      </set>
      <set comment="kpoint 5">
       <r>   -0.6334    1.0000 </r>
       <r>    0.2712    1.0000 </r>
       <r>    3.7048    1.0000 </r>
       <r>    3.7048    1.0000 </r>
       <r>    3.9053    1.0542 </r>
       <r>    5.8331   -0.0081 </r>
       <r>   10.8480    0.0000 </r>
       <r>   22.9100    0.0000 </r>
       <r>   25.9527    0.0000 </r>
       <r>   26.0627    0.0000 </r>
      </set>
      <set comment="kpoint 6">
       <r>   -0.4045    1.0000 </r>
       <r>    0.3288    1.0000 </r>
       <r>    3.5340    1.0000 </r>
       <r>    3.5340    1.0000 </r>
       <r>    4.8858    1.0975 </r>
       <r>    5.8531    0.0000 </r>
       <r>    9.7278    0.0000 </r>
       <r>   22.5156    0.0000 </r>
       <r>   25.5380    0.0000 </r>
       <r>   26.7946    0.0000 </r>
      </set>
      <set comment="kpoint 7">
       <r>   -2.4419    1.0000 </r>
       <r>   -0.0328    1.0000 </r>
       <r>    0.1558    1.0000 </r>
       <r>    5.1497    1.0163 </r>
       <r>    5.3894    0.7439 </r>
       <r>    5.4652    0.1565 </r>
       <r>   19.0989    0.0000 </r>
       <r>   19.6810    0.0000 </r>
       <r>   21.7421    0.0000 </r>
       <r>   27.2092    0.0000 </r>
      </set>
      <set comment="kpoint 8">
       <r>   -1.7459    1.0000 </r>
       <r>    0.1490    1.0000 </r>
       <r>    0.8991    1.0000 </r>
       <r>    4.5509    1.0004 </r>
       <r>    4.8434    1.0215 </r>
       <r>    5.4904    0.2688 </r>
       <r>   16.3649    0.0000 </r>
       <r>   20.4827    0.0000 </r>
       <r>   23.0437    0.0000 </r>
       <r>   26.0074    0.0000 </r>
      </set>
      <set comment="kpoint 9">
       <r>   -0.9646    1.0000 </r>
       <r>    0.3398    1.0000 </r>
       <r>    2.1550    1.0000 </r>
       <r>    4.0399    1.0000 </r>
       <r>    4.2072    1.0000 </r>
       <r>    5.5595    0.1324 </r>
       <r>   13.5151    0.0000 </r>
       <r>   21.7663    0.0000 </r>
       <r>   24.5801    0.0000 </r>
       <r>   24.7867    0.0000 </r>
      </set>
      <set comment="kpoint 10">
       <r>   -0.3695    1.0000 </r>
       <r>    0.5112    1.0000 </r>
       <r>    2.7267    1.0000 </r>
       <r>    3.7392    1.0000 </r>
       <r>    4.7779    1.0442 </r>
       <r>    5.6167    0.0165 </r>
       <r>   11.0580    0.0000 </r>
       <r>   22.6246    0.0000 </r>
       <r>   24.0398    0.0000 </r>
       <r>   26.5449    0.0000 </r>
      </set>
      <set comment="kpoint 11">
       <r>   -0.1425    1.0000 </r>
       <r>    0.5881    1.0000 </r>
       <r>    2.6397    1.0000 </r>
       <r>    3.5697    1.0000 </r>
       <r>    5.6388    0.4401 </r>
       <r>    5.8237    0.0000 </r>
       <r>    9.7494    0.0000 </r>
       <r>   22.6011    0.0000 </r>
       <r>   25.0112    0.0000 </r>
       <r>   25.0858    0.0000 </r>
      </set>
      <set comment="kpoint 12">
       <r>   -1.0867    1.0000 </r>
       <r>    0.6516    1.0000 </r>
       <r>    1.3109    1.0000 </r>
       <r>    3.9634    1.0000 </r>
       <r>    4.8347    1.0001 </r>
       <r>    5.0075    1.0707 </r>
       <r>   17.3291    0.0000 </r>
       <r>   17.4279    0.0000 </r>
       <r>   24.3757    0.0000 </r>
       <r>   25.6831    0.0000 </r>
      </set>
      <set comment="kpoint 13">
       <r>   -0.4302    1.0000 </r>
       <r>    0.9983    1.0000 </r>
       <r>    2.1405    1.0000 </r>
       <r>    3.8713    1.0000 </r>
       <r>    4.2855    1.0000 </r>
       <r>    5.0204    0.9576 </r>
       <r>   14.3662    0.0000 </r>
       <r>   18.7429    0.0000 </r>
       <r>   24.7016    0.0000 </r>
       <r>   26.1653    0.0000 </r>
      </set>
      <set comment="kpoint 14">
       <r>    0.0369    1.0000 </r>
       <r>    1.2522    1.0000 </r>
       <r>    1.9997    1.0000 </r>
       <r>    3.8305    1.0000 </r>
       <r>    5.0869    1.0027 </r>
       <r>    5.5673    0.1146 </r>
       <r>   11.6002    0.0000 </r>
       <r>   20.2918    0.0000 </r>
       <r>   23.5157    0.0000 </r>
       <r>   26.0705    0.0000 </r>
      </set>
      <set comment="kpoint 15">
       <r>    0.2142    1.0000 </r>
       <r>    1.4447    1.0000 </r>
       <r>    1.7238    1.0000 </r>
       <r>    3.6645    1.0000 </r>
       <r>    5.1134    1.0093 </r>
       <r>    7.1738    0.0000 </r>
       <r>    9.8055    0.0000 </r>
       <r>   21.9502    0.0000 </r>
       <r>   22.0569    0.0000 </r>
       <r>   24.9414    0.0000 </r>
      </set>
      <set comment="kpoint 16">
       <r>    0.0011    1.0000 </r>
       <r>    1.0416    1.0000 </r>
       <r>    3.1361    1.0000 </r>
       <r>    4.2111    1.0000 </r>
       <r>    4.3255    1.0071 </r>
       <r>    4.4768    0.8908 </r>
       <r>   14.5974    0.0000 </r>
       <r>   16.7343    0.0000 </r>
       <r>   23.8172    0.0000 </r>
       <r>   27.8512    0.0000 </r>
      </set>
      <set comment="kpoint 17">
       <r>    0.2994    1.0000 </r>
       <r>    0.6964    1.0000 </r>
       <r>    3.6056    1.0000 </r>
       <r>    3.9453    1.0000 </r>
       <r>    4.4924    1.0203 </r>
       <r>    6.2476   -0.0030 </r>
       <r>   12.1707    0.0000 </r>
       <r>   17.7006    0.0000 </r>
       <r>   22.0031    0.0000 </r>
       <r>   26.5555    0.0000 </r>
      </set>
      <set comment="kpoint 18">
       <r>    0.4715    1.0000 </r>
       <r>    0.4876    1.0000 </r>
       <r>    3.6831    1.0000 </r>
       <r>    3.7845    1.0000 </r>
       <r>    4.5225    1.0273 </r>
       <r>    8.4457    0.0000 </r>
       <r>    9.8696    0.0000 </r>
       <r>   18.8636    0.0000 </r>
       <r>   20.5695    0.0000 </r>
       <r>   25.9244    0.0000 </r>
      </set>
      <set comment="kpoint 19">
       <r>    0.0325    1.0000 </r>
       <r>    0.6218    1.0000 </r>
       <r>    4.0189    1.0000 </r>
       <r>    4.0719    1.0000 </r>
       <r>    5.4386    0.5222 </r>
       <r>    7.3333   -0.0175 </r>
       <r>   11.7947    0.0000 </r>
       <r>   16.1699    0.0000 </r>
       <r>   20.1551    0.0000 </r>
       <r>   27.3666    0.0000 </r>
      </set>
      <set comment="kpoint 20">
       <r>   -0.1548    1.0000 </r>
       <r>    0.6943    1.0000 </r>
       <r>    3.8839    1.0000 </r>
       <r>    4.0827    1.0000 </r>
       <r>    5.9443    0.1003 </r>
       <r>    9.4453    0.0000 </r>
       <r>    9.8929    0.0000 </r>
       <r>   16.1034    0.0000 </r>
       <r>   19.2168    0.0000 </r>
       <r>   27.1479    0.0000 </r>
      </set>
      <set comment="kpoint 21">
       <r>   -0.3705    1.0000 </r>
       <r>    0.7736    1.0000 </r>
       <r>    3.9224    1.0000 </r>
       <r>    3.9224    1.0000 </r>
       <r>    7.2242    0.0000 </r>
       <r>    9.8516    0.0000 </r>
       <r>    9.8516    0.0000 </r>
       <r>   14.7346    0.0000 </r>
       <r>   18.6664    0.0000 </r>
       <r>   27.7561    0.0000 </r>
      </set>
      <set comment="kpoint 22">
       <r>   -2.1559    1.0000 </r>
       <r>    0.2066    1.0000 </r>
       <r>    0.2066    1.0000 </r>
       <r>    5.1142    1.0079 </r>
       <r>    5.2055    1.0362 </r>
       <r>    5.2055    0.8739 </r>
       <r>   19.2275    0.0000 </r>
       <r>   20.1393    0.0000 </r>
       <r>   20.1393    0.0000 </r>
       <r>   28.8042    0.0000 </r>
      </set>
      <set comment="kpoint 23">
       <r>   -1.4487    1.0000 </r>
       <r>    0.3439    1.0000 </r>
       <r>    0.9727    1.0000 </r>
       <r>    4.5788    1.0003 </r>
       <r>    4.5809    1.0054 </r>
       <r>    5.2461    0.8713 </r>
       <r>   16.7563    0.0000 </r>
       <r>   20.5658    0.0000 </r>
       <r>   21.2830    0.0000 </r>
       <r>   27.1687    0.0000 </r>
      </set>
      <set comment="kpoint 24">
       <r>   -0.6615    1.0000 </r>
       <r>    0.5240    1.0000 </r>
       <r>    2.1271    1.0000 </r>
       <r>    3.8917    1.0000 </r>
       <r>    4.2332    1.0000 </r>
       <r>    5.3241    0.5783 </r>
       <r>   13.8774    0.0000 </r>
       <r>   21.7847    0.0000 </r>
       <r>   22.4848    0.0000 </r>
       <r>   25.9771    0.0000 </r>
      </set>
      <set comment="kpoint 25">
       <r>   -0.0404    1.0000 </r>
       <r>    0.6813    1.0000 </r>
       <r>    2.4923    1.0000 </r>
       <r>    3.3804    1.0000 </r>
       <r>    5.2770    0.9742 </r>
       <r>    5.4071    0.1377 </r>
       <r>   11.2962    0.0000 </r>
       <r>   22.8658    0.0000 </r>
       <r>   23.1277    0.0000 </r>
       <r>   26.0003    0.0000 </r>
      </set>
      <set comment="kpoint 26">
       <r>    0.2173    1.0000 </r>
       <r>    0.7453    1.0000 </r>
       <r>    2.3832    1.0000 </r>
       <r>    3.1927    1.0000 </r>
       <r>    5.4095    0.8169 </r>
       <r>    6.5490    0.0000 </r>
       <r>    9.7874    0.0000 </r>
       <r>   22.7877    0.0000 </r>
       <r>   24.4341    0.0000 </r>
       <r>   25.0130    0.0000 </r>
      </set>
      <set comment="kpoint 27">
       <r>   -0.7573    1.0000 </r>
       <r>    0.8313    1.0000 </r>
       <r>    1.3548    1.0000 </r>
       <r>    3.9989    1.0000 </r>
       <r>    4.6180    1.0000 </r>
       <r>    4.7134    1.0496 </r>
       <r>   17.7100    0.0000 </r>
       <r>   17.8166    0.0000 </r>
       <r>   22.0100    0.0000 </r>
       <r>   27.3701    0.0000 </r>
      </set>
      <set comment="kpoint 28">
       <r>   -0.0745    1.0000 </r>
       <r>    1.1237    1.0000 </r>
       <r>    2.1554    1.0000 </r>
       <r>    3.6447    1.0000 </r>
       <r>    4.3452    1.0000 </r>
       <r>    4.7780    0.9759 </r>
       <r>   14.7623    0.0000 </r>
       <r>   19.0672    0.0000 </r>
       <r>   23.1318    0.0000 </r>
       <r>   26.2735    0.0000 </r>
      </set>
      <set comment="kpoint 29">
       <r>    0.4389    1.0000 </r>
       <r>    1.3241    1.0000 </r>
       <r>    2.0238    1.0000 </r>
       <r>    3.3054    1.0000 </r>
       <r>    4.8253    1.0095 </r>
       <r>    6.0103   -0.0018 </r>
       <r>   11.9089    0.0000 </r>
       <r>   20.5732    0.0000 </r>
       <r>   23.5741    0.0000 </r>
       <r>   24.8489    0.0000 </r>
      </set>
      <set comment="kpoint 30">
       <r>    0.6588    1.0000 </r>
       <r>    1.4562    1.0000 </r>
       <r>    1.7747    1.0000 </r>
       <r>    3.1317    1.0000 </r>
       <r>    4.8624    1.0082 </r>
       <r>    7.8191    0.0000 </r>
       <r>    9.8877    0.0000 </r>
       <r>   22.1974    0.0000 </r>
       <r>   22.4317    0.0000 </r>
       <r>   24.1359    0.0000 </r>
      </set>
      <set comment="kpoint 31">
       <r>    0.3506    1.0000 </r>
       <r>    1.1691    1.0000 </r>
       <r>    3.0817    1.0000 </r>
       <r>    3.6331    1.0000 </r>
       <r>    4.2362    1.0082 </r>
       <r>    4.8086    0.7045 </r>
       <r>   15.1171    0.0000 </r>
       <r>   16.9481    0.0000 </r>
       <r>   23.9175    0.0000 </r>
       <r>   24.8319    0.0000 </r>
      </set>
      <set comment="kpoint 32">
       <r>    0.5563    1.0000 </r>
       <r>    0.9327    1.0000 </r>
       <r>    3.4102    1.0000 </r>
       <r>    3.4492    1.0000 </r>
       <r>    4.3917    1.0212 </r>
       <r>    6.6742   -0.0362 </r>
       <r>   12.5882    0.0000 </r>
       <r>   17.9639    0.0000 </r>
       <r>   22.1430    0.0000 </r>
       <r>   25.0370    0.0000 </r>
      </set>
      <set comment="kpoint 33">
       <r>    0.5371    1.0000 </r>
       <r>    0.9258    1.0000 </r>
       <r>    3.2549    1.0000 </r>
       <r>    3.4998    1.0000 </r>
       <r>    4.4603    1.0209 </r>
       <r>    9.0766    0.0000 </r>
       <r>   10.0332    0.0000 </r>
       <r>   19.2842    0.0000 </r>
       <r>   20.4648    0.0000 </r>
       <r>   25.1628    0.0000 </r>
      </set>
      <set comment="kpoint 34">
       <r>    0.1137    1.0000 </r>
       <r>    1.0547    1.0000 </r>
       <r>    3.5093    1.0000 </r>
       <r>    3.5537    1.0000 </r>
       <r>    5.6088    0.4218 </r>
       <r>    7.8163   -0.0145 </r>
       <r>   12.3308    0.0000 </r>
       <r>   16.3452    0.0000 </r>
       <r>   20.0640    0.0000 </r>
       <r>   26.0177    0.0000 </r>
      </set>
      <set comment="kpoint 35">
       <r>   -0.0747    1.0000 </r>
       <r>    1.1387    1.0000 </r>
       <r>    3.3755    1.0000 </r>
       <r>    3.5782    1.0000 </r>
       <r>    6.1083    0.0559 </r>
       <r>   10.0862    0.0000 </r>
       <r>   10.2537    0.0000 </r>
       <r>   16.3353    0.0000 </r>
       <r>   19.0072    0.0000 </r>
       <r>   26.4173    0.0000 </r>
      </set>
      <set comment="kpoint 36">
       <r>   -0.2872    1.0000 </r>
       <r>    1.2248    1.0000 </r>
       <r>    3.4238    1.0000 </r>
       <r>    3.4238    1.0000 </r>
       <r>    7.2374    0.0000 </r>
       <r>   10.5042    0.0000 </r>
       <r>   10.5042    0.0000 </r>
       <r>   14.7739    0.0000 </r>
       <r>   18.4201    0.0000 </r>
       <r>   27.7130    0.0000 </r>
      </set>
      <set comment="kpoint 37">
       <r>   -0.0193    1.0000 </r>
       <r>    1.4756    1.0000 </r>
       <r>    1.4756    1.0000 </r>
       <r>    4.0165    1.0000 </r>
       <r>    4.0165    1.0000 </r>
       <r>    4.2729    1.0112 </r>
       <r>   18.2880    0.0000 </r>
       <r>   19.0592    0.0000 </r>
       <r>   19.0592    0.0000 </r>
       <r>   29.1596    0.0000 </r>
      </set>
      <set comment="kpoint 38">
       <r>    0.6143    1.0000 </r>
       <r>    1.6452    1.0000 </r>
       <r>    2.2243    1.0000 </r>
       <r>    3.2510    1.0000 </r>
       <r>    4.0653    1.0000 </r>
       <r>    4.6875    0.8655 </r>
       <r>   15.7324    0.0000 </r>
       <r>   19.5135    0.0000 </r>
       <r>   20.6367    0.0000 </r>
       <r>   27.2342    0.0000 </r>
      </set>
      <set comment="kpoint 39">
       <r>    1.0713    1.0000 </r>
       <r>    1.8325    1.0000 </r>
       <r>    2.0684    1.0000 </r>
       <r>    2.6502    1.0000 </r>
       <r>    4.2633    1.0003 </r>
       <r>    6.6978   -0.0542 </r>
       <r>   12.6877    0.0000 </r>
       <r>   20.6917    0.0000 </r>
       <r>   22.2225    0.0000 </r>
       <r>   24.9861    0.0000 </r>
      </set>
      <set comment="kpoint 40">
       <r>    1.3107    1.0000 </r>
       <r>    1.8450    1.0000 </r>
       <r>    1.9612    1.0000 </r>
       <r>    2.3766    1.0000 </r>
       <r>    4.3174    1.0006 </r>
       <r>    9.0853    0.0000 </r>
       <r>   10.0993    0.0000 </r>
       <r>   21.6997    0.0000 </r>
       <r>   23.3680    0.0000 </r>
       <r>   23.3725    0.0000 </r>
      </set>
      <set comment="kpoint 41">
       <r>    0.8800    1.0000 </r>
       <r>    1.8471    1.0000 </r>
       <r>    2.7679    1.0000 </r>
       <r>    3.0861    1.0000 </r>
       <r>    3.8839    1.0142 </r>
       <r>    5.3472    0.3633 </r>
       <r>   16.4313    0.0000 </r>
       <r>   17.4519    0.0000 </r>
       <r>   21.2808    0.0000 </r>
       <r>   25.0811    0.0000 </r>
      </set>
      <set comment="kpoint 42">
       <r>    0.7876    1.0000 </r>
       <r>    1.9161    1.0000 </r>
       <r>    2.5447    1.0000 </r>
       <r>    2.9908    1.0000 </r>
       <r>    4.3699    1.0149 </r>
       <r>    7.4280   -0.0355 </r>
       <r>   13.6040    0.0000 </r>
       <r>   18.5173    0.0000 </r>
       <r>   21.7581    0.0000 </r>
       <r>   23.4974    0.0000 </r>
      </set>
      <set comment="kpoint 43">
       <r>    0.6985    1.0000 </r>
       <r>    2.0853    1.0000 </r>
       <r>    2.2501    1.0000 </r>
       <r>    3.0157    1.0000 </r>
       <r>    4.4970    0.9929 </r>
       <r>   10.3948    0.0000 </r>
       <r>   10.4301    0.0000 </r>
       <r>   19.8976    0.0000 </r>
       <r>   20.3716    0.0000 </r>
       <r>   24.0989    0.0000 </r>
      </set>
      <set comment="kpoint 44">
       <r>    0.3244    1.0000 </r>
       <r>    2.0824    1.0000 </r>
       <r>    2.5772    1.0000 </r>
       <r>    2.7686    1.0000 </r>
       <r>    5.8175    0.2859 </r>
       <r>    8.7559   -0.0043 </r>
       <r>   13.6370    0.0000 </r>
       <r>   16.7085    0.0000 </r>
       <r>   19.6708    0.0000 </r>
       <r>   24.3207    0.0000 </r>
      </set>
      <set comment="kpoint 45">
       <r>    0.1428    1.0000 </r>
       <r>    2.2677    1.0000 </r>
       <r>    2.3586    1.0000 </r>
       <r>    2.7553    1.0000 </r>
       <r>    6.3250    0.0068 </r>
       <r>   11.0674    0.0000 </r>
       <r>   11.4815    0.0000 </r>
       <r>   16.9683    0.0000 </r>
       <r>   18.3520    0.0000 </r>
       <r>   25.1481    0.0000 </r>
      </set>
      <set comment="kpoint 46">
       <r>   -0.0599    1.0000 </r>
       <r>    2.4149    1.0000 </r>
       <r>    2.4149    1.0000 </r>
       <r>    2.5156    1.0000 </r>
       <r>    7.2722    0.0000 </r>
       <r>   11.9541    0.0000 </r>
       <r>   11.9541    0.0000 </r>
       <r>   14.8838    0.0000 </r>
       <r>   17.7090    0.0000 </r>
       <r>   26.0237    0.0000 </r>
      </set>
      <set comment="kpoint 47">
       <r>    0.9932    1.0000 </r>
       <r>    2.1690    1.0000 </r>
       <r>    2.1690    1.0000 </r>
       <r>    3.8051    1.0020 </r>
       <r>    3.8051    1.0558 </r>
       <r>    6.2478   -0.0192 </r>
       <r>   17.9848    0.0000 </r>
       <r>   18.1117    0.0000 </r>
       <r>   18.1117    0.0000 </r>
       <r>   25.3794    0.0000 </r>
      </set>
      <set comment="kpoint 48">
       <r>    0.8587    1.0000 </r>
       <r>    1.6712    1.0000 </r>
       <r>    2.1062    1.0000 </r>
       <r>    3.8353    1.0087 </r>
       <r>    4.7163    0.9117 </r>
       <r>    8.3125   -0.0105 </r>
       <r>   14.7852    0.0000 </r>
       <r>   18.4695    0.0000 </r>
       <r>   19.8053    0.0000 </r>
       <r>   23.6969    0.0000 </r>
      </set>
      <set comment="kpoint 49">
       <r>    0.7643    1.0000 </r>
       <r>    1.4875    1.0000 </r>
       <r>    2.1193    1.0000 </r>
       <r>    3.8551    1.0142 </r>
       <r>    4.9528    0.7407 </r>
       <r>   11.0001    0.0000 </r>
       <r>   11.7972    0.0000 </r>
       <r>   18.6696    0.0000 </r>
       <r>   20.7808    0.0000 </r>
       <r>   22.9672    0.0000 </r>
      </set>
      <set comment="kpoint 50">
       <r>    0.5874    1.0000 </r>
       <r>    1.5290    1.0000 </r>
       <r>    1.6683    1.0000 </r>
       <r>    4.2815    1.0070 </r>
       <r>    5.9600    0.1237 </r>
       <r>    9.8192   -0.0000 </r>
       <r>   15.2043    0.0000 </r>
       <r>   16.8404    0.0000 </r>
       <r>   18.6503    0.0000 </r>
       <r>   23.4882    0.0000 </r>
      </set>
      <set comment="kpoint 51">
       <r>    0.4257    1.0000 </r>
       <r>    1.4138    1.0000 </r>
       <r>    1.6442    1.0000 </r>
       <r>    4.3461    1.0028 </r>
       <r>    6.4909   -0.0280 </r>
       <r>   12.0075    0.0000 </r>
       <r>   12.9911    0.0000 </r>
       <r>   17.3637    0.0000 </r>
       <r>   17.6543    0.0000 </r>
       <r>   24.3532    0.0000 </r>
      </set>
      <set comment="kpoint 52">
       <r>    0.2410    1.0000 </r>
       <r>    1.4665    1.0000 </r>
       <r>    1.4665    1.0000 </r>
       <r>    4.4236    0.9807 </r>
       <r>    7.3156    0.0000 </r>
       <r>   13.5533    0.0000 </r>
       <r>   13.5533    0.0000 </r>
       <r>   15.0473    0.0000 </r>
       <r>   16.7365    0.0000 </r>
       <r>   24.9803    0.0000 </r>
      </set>
      <set comment="kpoint 53">
       <r>    0.7121    1.0000 </r>
       <r>    1.0558    1.0000 </r>
       <r>    1.0558    1.0000 </r>
       <r>    6.0475    0.3601 </r>
       <r>    6.0475    0.0088 </r>
       <r>   11.2761    0.0000 </r>
       <r>   16.5794    0.0000 </r>
       <r>   16.5794    0.0000 </r>
       <r>   16.5879    0.0000 </r>
       <r>   23.1729    0.0000 </r>
      </set>
      <set comment="kpoint 54">
       <r>    0.6132    1.0000 </r>
       <r>    0.8418    1.0000 </r>
       <r>    1.0425    1.0000 </r>
       <r>    6.0777    0.2118 </r>
       <r>    6.7734   -0.0181 </r>
       <r>   13.1760    0.0000 </r>
       <r>   14.2450    0.0000 </r>
       <r>   16.4083    0.0000 </r>
       <r>   17.1791    0.0000 </r>
       <r>   22.9925    0.0000 </r>
      </set>
      <set comment="kpoint 55">
       <r>    0.5037    1.0000 </r>
       <r>    0.8307    1.0000 </r>
       <r>    0.8307    1.0000 </r>
       <r>    6.4122    0.0244 </r>
       <r>    7.3509    0.0000 </r>
       <r>   14.8557    0.0000 </r>
       <r>   14.8557    0.0000 </r>
       <r>   15.2496    0.0000 </r>
       <r>   15.9082    0.0000 </r>
       <r>   23.3617    0.0000 </r>
      </set>
      <set comment="kpoint 56">
       <r>    0.6093    1.0000 </r>
       <r>    0.6093    1.0000 </r>
       <r>    0.6093    1.0000 </r>
       <r>    7.3644    0.0000 </r>
       <r>    7.3644    0.0000 </r>
       <r>   15.3858    0.0000 </r>
       <r>   15.3858    0.0000 </r>
       <r>   15.3858    0.0000 </r>
       <r>   15.5865    0.0000 </r>
       <r>   21.7246    0.0000 </r>
      </set>
     </set>
    </set>
   </array>
  </eigenvalues>
  <separator name="orbital magnetization" >
   <v name="MAGDIPOLOUT">      0.00000000      0.00000000      0.00000000</v>
  </separator>
  <dos>
   <i name="efermi">      5.37298743 </i>
   <total>
    <array>
     <dimension dim="1">gridpoints</dimension>
     <dimension dim="2">spin</dimension>
     <field>energy</field>
     <field>total</field>
     <field>integrated</field>
     <set>
      <set comment="spin 1">
       <r>    -4.9965     0.0000     0.0000 </r>
       <r>    -4.8760     0.0000     0.0000 </r>
       <r>    -4.7554     0.0000     0.0000 </r>
       <r>    -4.6349     0.0000     0.0000 </r>
       <r>    -4.5144     0.0000     0.0000 </r>
       <r>    -4.3939     0.0000     0.0000 </r>
       <r>    -4.2734     0.0000     0.0000 </r>
       <r>    -4.1528     0.0000     0.0000 </r>
       <r>    -4.0323     0.0000     0.0000 </r>
       <r>    -3.9118     0.0000     0.0000 </r>
       <r>    -3.7913     0.0000     0.0000 </r>
       <r>    -3.6708     0.0000     0.0000 </r>
       <r>    -3.5502     0.0000     0.0000 </r>
       <r>    -3.4297     0.0000     0.0000 </r>
       <r>    -3.3092     0.0000     0.0000 </r>
       <r>    -3.1887     0.0000     0.0000 </r>
       <r>    -3.0682     0.0000     0.0000 </r>
       <r>    -2.9476     0.0009     0.0000 </r>
       <r>    -2.8271     0.0109     0.0006 </r>
       <r>    -2.7066     0.0317     0.0031 </r>
       <r>    -2.5861     0.0509     0.0081 </r>
       <r>    -2.4656     0.0616     0.0150 </r>
       <r>    -2.3450     0.0678     0.0228 </r>
       <r>    -2.2245     0.0767     0.0315 </r>
       <r>    -2.1040     0.0882     0.0414 </r>
       <r>    -1.9835     0.1004     0.0527 </r>
       <r>    -1.8630     0.1123     0.0656 </r>
       <r>    -1.7424     0.1236     0.0798 </r>
       <r>    -1.6219     0.1359     0.0954 </r>
       <r>    -1.5014     0.1494     0.1126 </r>
       <r>    -1.3809     0.1638     0.1315 </r>
       <r>    -1.2604     0.1786     0.1521 </r>
       <r>    -1.1398     0.1951     0.1746 </r>
       <r>    -1.0193     0.2164     0.1993 </r>
       <r>    -0.8988     0.2453     0.2271 </r>
       <r>    -0.7783     0.2763     0.2585 </r>
       <r>    -0.6578     0.3077     0.2937 </r>
       <r>    -0.5372     0.3467     0.3329 </r>
       <r>    -0.4167     0.4130     0.3784 </r>
       <r>    -0.2962     0.5335     0.4344 </r>
       <r>    -0.1757     0.8241     0.5132 </r>
       <r>    -0.0552     1.1523     0.6328 </r>
       <r>     0.0654     1.4931     0.7900 </r>
       <r>     0.1859     1.8026     0.9916 </r>
       <r>     0.3064     2.1229     1.2276 </r>
       <r>     0.4269     2.3189     1.4971 </r>
       <r>     0.5474     2.5886     1.7948 </r>
       <r>     0.6680     2.3578     2.0963 </r>
       <r>     0.7885     2.5487     2.3950 </r>
       <r>     0.9090     2.3095     2.7009 </r>
       <r>     1.0295     2.1619     2.9630 </r>
       <r>     1.1500     1.7560     3.2024 </r>
       <r>     1.2706     1.4951     3.3976 </r>
       <r>     1.3911     1.3318     3.5674 </r>
       <r>     1.5116     1.3040     3.7249 </r>
       <r>     1.6321     1.3468     3.8846 </r>
       <r>     1.7526     1.5459     4.0572 </r>
       <r>     1.8732     1.8476     4.2634 </r>
       <r>     1.9937     1.5958     4.4679 </r>
       <r>     2.1142     2.2606     4.6899 </r>
       <r>     2.2347     1.7304     4.9296 </r>
       <r>     2.3552     1.3767     5.1168 </r>
       <r>     2.4758     1.1123     5.2651 </r>
       <r>     2.5963     0.9583     5.3890 </r>
       <r>     2.7168     0.8539     5.4989 </r>
       <r>     2.8373     0.9861     5.6071 </r>
       <r>     2.9578     1.2494     5.7408 </r>
       <r>     3.0784     1.4738     5.9061 </r>
       <r>     3.1989     1.6552     6.0944 </r>
       <r>     3.3194     1.7707     6.2998 </r>
       <r>     3.4399     2.0205     6.5259 </r>
       <r>     3.5605     2.2391     6.7819 </r>
       <r>     3.6810     2.1388     7.0498 </r>
       <r>     3.8015     1.8791     7.2917 </r>
       <r>     3.9220     1.5667     7.5032 </r>
       <r>     4.0425     1.0833     7.6631 </r>
       <r>     4.1631     1.0350     7.7838 </r>
       <r>     4.2836     1.8791     7.9424 </r>
       <r>     4.4041     2.4663     8.2417 </r>
       <r>     4.5246     2.2318     8.5232 </r>
       <r>     4.6451     1.9946     8.7807 </r>
       <r>     4.7657     2.0538     9.0228 </r>
       <r>     4.8862     1.8181     9.2531 </r>
       <r>     5.0067     1.6649     9.4630 </r>
       <r>     5.1272     1.4939     9.6507 </r>
       <r>     5.2477     1.4157     9.8251 </r>
       <r>     5.3683     1.4013     9.9934 </r>
       <r>     5.4888     1.4009    10.1672 </r>
       <r>     5.6093     1.2072    10.3274 </r>
       <r>     5.7298     0.8634    10.4500 </r>
       <r>     5.8503     0.6670    10.5448 </r>
       <r>     5.9709     0.6228    10.6221 </r>
       <r>     6.0914     0.6225    10.6965 </r>
       <r>     6.2119     0.5880    10.7694 </r>
       <r>     6.3324     0.5504    10.8381 </r>
       <r>     6.4529     0.5098    10.9018 </r>
       <r>     6.5735     0.4730    10.9611 </r>
       <r>     6.6940     0.4383    11.0159 </r>
       <r>     6.8145     0.4065    11.0669 </r>
       <r>     6.9350     0.3727    11.1138 </r>
       <r>     7.0555     0.3366    11.1566 </r>
       <r>     7.1761     0.2982    11.1949 </r>
       <r>     7.2966     0.2632    11.2286 </r>
       <r>     7.4171     0.2313    11.2581 </r>
       <r>     7.5376     0.2261    11.2857 </r>
       <r>     7.6581     0.2217    11.3126 </r>
       <r>     7.7787     0.2179    11.3391 </r>
       <r>     7.8992     0.2146    11.3652 </r>
       <r>     8.0197     0.2114    11.3908 </r>
       <r>     8.1402     0.2081    11.4161 </r>
       <r>     8.2607     0.2048    11.4410 </r>
       <r>     8.3813     0.2013    11.4655 </r>
       <r>     8.5018     0.1978    11.4895 </r>
       <r>     8.6223     0.1942    11.5131 </r>
       <r>     8.7428     0.1905    11.5363 </r>
       <r>     8.8633     0.1867    11.5590 </r>
       <r>     8.9839     0.1829    11.5813 </r>
       <r>     9.1044     0.1791    11.6031 </r>
       <r>     9.2249     0.1752    11.6245 </r>
       <r>     9.3454     0.1710    11.6453 </r>
       <r>     9.4659     0.1681    11.6657 </r>
       <r>     9.5865     0.1700    11.6861 </r>
       <r>     9.7070     0.1681    11.7065 </r>
       <r>     9.8275     0.2473    11.7308 </r>
       <r>     9.9480     0.3537    11.7676 </r>
       <r>    10.0685     0.3994    11.8132 </r>
       <r>    10.1891     0.4257    11.8630 </r>
       <r>    10.3096     0.4361    11.9153 </r>
       <r>    10.4301     0.4329    11.9677 </r>
       <r>    10.5506     0.4303    12.0197 </r>
       <r>    10.6711     0.4288    12.0714 </r>
       <r>    10.7917     0.4270    12.1230 </r>
       <r>    10.9122     0.4243    12.1743 </r>
       <r>    11.0327     0.4168    12.2251 </r>
       <r>    11.1532     0.4077    12.2747 </r>
       <r>    11.2737     0.4006    12.3234 </r>
       <r>    11.3943     0.3945    12.3713 </r>
       <r>    11.5148     0.3874    12.4185 </r>
       <r>    11.6353     0.3791    12.4647 </r>
       <r>    11.7558     0.3710    12.5099 </r>
       <r>    11.8763     0.3643    12.5541 </r>
       <r>    11.9969     0.3622    12.5979 </r>
       <r>    12.1174     0.3656    12.6417 </r>
       <r>    12.2379     0.3642    12.6858 </r>
       <r>    12.3584     0.3590    12.7294 </r>
       <r>    12.4789     0.3503    12.7722 </r>
       <r>    12.5995     0.3364    12.8136 </r>
       <r>    12.7200     0.3330    12.8539 </r>
       <r>    12.8405     0.3296    12.8938 </r>
       <r>    12.9610     0.3263    12.9334 </r>
       <r>    13.0815     0.3235    12.9725 </r>
       <r>    13.2021     0.3208    13.0113 </r>
       <r>    13.3226     0.3177    13.0498 </r>
       <r>    13.4431     0.3141    13.0879 </r>
       <r>    13.5636     0.3103    13.1255 </r>
       <r>    13.6841     0.3042    13.1625 </r>
       <r>    13.8047     0.2995    13.1989 </r>
       <r>    13.9252     0.2948    13.2347 </r>
       <r>    14.0457     0.2901    13.2700 </r>
       <r>    14.1662     0.2852    13.3046 </r>
       <r>    14.2867     0.2819    13.3388 </r>
       <r>    14.4073     0.2906    13.3729 </r>
       <r>    14.5278     0.3032    13.4089 </r>
       <r>    14.6483     0.2949    13.4451 </r>
       <r>    14.7688     0.2844    13.4800 </r>
       <r>    14.8893     0.2749    13.5137 </r>
       <r>    15.0099     0.2636    13.5461 </r>
       <r>    15.1304     0.2517    13.5772 </r>
       <r>    15.2509     0.2432    13.6068 </r>
       <r>    15.3714     0.2560    13.6370 </r>
       <r>    15.4920     0.2599    13.6681 </r>
       <r>    15.6125     0.2640    13.6997 </r>
       <r>    15.7330     0.2704    13.7319 </r>
       <r>    15.8535     0.2811    13.7651 </r>
       <r>    15.9740     0.2900    13.7996 </r>
       <r>    16.0946     0.2961    13.8349 </r>
       <r>    16.2151     0.3571    13.8756 </r>
       <r>    16.3356     0.3563    13.9189 </r>
       <r>    16.4561     0.3482    13.9594 </r>
       <r>    16.5766     0.3816    14.0033 </r>
       <r>    16.6972     0.4170    14.0514 </r>
       <r>    16.8177     0.4607    14.1042 </r>
       <r>    16.9382     0.4961    14.1622 </r>
       <r>    17.0587     0.5051    14.2227 </r>
       <r>    17.1792     0.5056    14.2837 </r>
       <r>    17.2998     0.4925    14.3438 </r>
       <r>    17.4203     0.4893    14.4026 </r>
       <r>    17.5408     0.5083    14.4626 </r>
       <r>    17.6613     0.5312    14.5252 </r>
       <r>    17.7818     0.5381    14.5899 </r>
       <r>    17.9024     0.5394    14.6549 </r>
       <r>    18.0229     0.5447    14.7201 </r>
       <r>    18.1434     0.5540    14.7863 </r>
       <r>    18.2639     0.5633    14.8536 </r>
       <r>    18.3844     0.5724    14.9220 </r>
       <r>    18.5050     0.5334    14.9907 </r>
       <r>    18.6255     0.5354    15.0543 </r>
       <r>    18.7460     0.5553    15.1201 </r>
       <r>    18.8665     0.5616    15.1874 </r>
       <r>    18.9870     0.6017    15.2562 </r>
       <r>    19.1076     0.5935    15.3298 </r>
       <r>    19.2281     0.5362    15.3972 </r>
       <r>    19.3486     0.5206    15.4609 </r>
       <r>    19.4691     0.4990    15.5224 </r>
       <r>    19.5896     0.4860    15.5815 </r>
       <r>    19.7102     0.4841    15.6398 </r>
       <r>    19.8307     0.4940    15.6987 </r>
       <r>    19.9512     0.5048    15.7589 </r>
       <r>    20.0717     0.5156    15.8204 </r>
       <r>    20.1922     0.5244    15.8831 </r>
       <r>    20.3128     0.5315    15.9467 </r>
       <r>    20.4333     0.5414    16.0113 </r>
       <r>    20.5538     0.5041    16.0756 </r>
       <r>    20.6743     0.5005    16.1356 </r>
       <r>    20.7948     0.5097    16.1965 </r>
       <r>    20.9154     0.5179    16.2584 </r>
       <r>    21.0359     0.5260    16.3213 </r>
       <r>    21.1564     0.5338    16.3852 </r>
       <r>    21.2769     0.5424    16.4500 </r>
       <r>    21.3974     0.5514    16.5160 </r>
       <r>    21.5180     0.5572    16.5828 </r>
       <r>    21.6385     0.5597    16.6501 </r>
       <r>    21.7590     0.5600    16.7176 </r>
       <r>    21.8795     0.5471    16.7845 </r>
       <r>    22.0000     0.5353    16.8496 </r>
       <r>    22.1206     0.5366    16.9140 </r>
       <r>    22.2411     0.5487    16.9794 </r>
       <r>    22.3616     0.5597    17.0462 </r>
       <r>    22.4821     0.5700    17.1143 </r>
       <r>    22.6026     0.7664    17.1893 </r>
       <r>    22.7232     0.7119    17.2828 </r>
       <r>    22.8437     0.5260    17.3572 </r>
       <r>    22.9642     0.4814    17.4160 </r>
       <r>    23.0847     0.5582    17.4779 </r>
       <r>    23.2052     0.6188    17.5493 </r>
       <r>    23.3258     0.6335    17.6252 </r>
       <r>    23.4463     0.6436    17.7016 </r>
       <r>    23.5668     0.7892    17.7863 </r>
       <r>    23.6873     0.7844    17.8839 </r>
       <r>    23.8078     0.7234    17.9744 </r>
       <r>    23.9284     0.6786    18.0586 </r>
       <r>    24.0489     0.6450    18.1384 </r>
       <r>    24.1694     0.6157    18.2141 </r>
       <r>    24.2899     0.5936    18.2870 </r>
       <r>    24.4104     0.5692    18.3571 </r>
       <r>    24.5310     0.5390    18.4240 </r>
       <r>    24.6515     0.5220    18.4873 </r>
       <r>    24.7720     0.5424    18.5512 </r>
       <r>    24.8925     0.6334    18.6202 </r>
       <r>    25.0130     0.6545    18.6995 </r>
       <r>    25.1336     0.6210    18.7758 </r>
       <r>    25.2541     0.6268    18.8509 </r>
       <r>    25.3746     0.6362    18.9270 </r>
       <r>    25.4951     0.6459    19.0042 </r>
       <r>    25.6156     0.6551    19.0826 </r>
       <r>    25.7362     0.6658    19.1622 </r>
       <r>    25.8567     0.6870    19.2436 </r>
       <r>    25.9772     0.7198    19.3282 </r>
       <r>    26.0977     0.7978    19.4214 </r>
       <r>    26.2182     0.6720    19.5116 </r>
       <r>    26.3388     0.5440    19.5844 </r>
       <r>    26.4593     0.4527    19.6441 </r>
       <r>    26.5798     0.3976    19.6949 </r>
       <r>    26.7003     0.3635    19.7407 </r>
       <r>    26.8208     0.3354    19.7828 </r>
       <r>    26.9414     0.3097    19.8217 </r>
       <r>    27.0619     0.2848    19.8575 </r>
       <r>    27.1824     0.2652    19.8927 </r>
       <r>    27.3029     0.2013    19.9203 </r>
       <r>    27.4234     0.1408    19.9401 </r>
       <r>    27.5440     0.1116    19.9554 </r>
       <r>    27.6645     0.0812    19.9670 </r>
       <r>    27.7850     0.0578    19.9751 </r>
       <r>    27.9055     0.0472    19.9814 </r>
       <r>    28.0261     0.0379    19.9865 </r>
       <r>    28.1466     0.0297    19.9906 </r>
       <r>    28.2671     0.0225    19.9937 </r>
       <r>    28.3876     0.0163    19.9961 </r>
       <r>    28.5081     0.0112    19.9977 </r>
       <r>    28.6287     0.0071    19.9988 </r>
       <r>    28.7492     0.0041    19.9994 </r>
       <r>    28.8697     0.0020    19.9998 </r>
       <r>    28.9902     0.0007    20.0000 </r>
       <r>    29.1107     0.0001    20.0000 </r>
       <r>    29.2313     0.0000    20.0000 </r>
       <r>    29.3518     0.0000    20.0000 </r>
       <r>    29.4723     0.0000    20.0000 </r>
       <r>    29.5928     0.0000    20.0000 </r>
       <r>    29.7133     0.0000    20.0000 </r>
       <r>    29.8339     0.0000    20.0000 </r>
       <r>    29.9544     0.0000    20.0000 </r>
       <r>    30.0749     0.0000    20.0000 </r>
       <r>    30.1954     0.0000    20.0000 </r>
       <r>    30.3159     0.0000    20.0000 </r>
       <r>    30.4365     0.0000    20.0000 </r>
       <r>    30.5570     0.0000    20.0000 </r>
       <r>    30.6775     0.0000    20.0000 </r>
       <r>    30.7980     0.0000    20.0000 </r>
       <r>    30.9185     0.0000    20.0000 </r>
       <r>    31.0391     0.0000    20.0000 </r>
       <r>    31.1596     0.0000    20.0000 </r>
      </set>
     </set>
    </array>
   </total>
  </dos>
 </calculation>
 <structure name="finalpos" >
  <crystal>
   <varray name="basis" >
    <v>       2.62829965       0.00000000       0.00000000 </v>
    <v>       0.00000000       2.62829965       0.00000000 </v>
    <v>       0.00000000       0.00000000       2.62829965 </v>
   </varray>
   <i name="volume">     18.15618639 </i>
   <varray name="rec_basis" >
    <v>       0.38047412       0.00000000       0.00000000 </v>
    <v>       0.00000000       0.38047412       0.00000000 </v>
    <v>       0.00000000       0.00000000       0.38047412 </v>
   </varray>
  </crystal>
  <varray name="positions" >
   <v>       0.00000000       0.00000000       0.00000000 </v>
  </varray>
 </structure>
</modeling>
