unknown system                          
   1.00000000000000     
     3.905268    0.000000    0.000000
     0.000000    3.905268    0.000000
     0.000000    0.000000    3.905268
   Sr   Ti   O 
     1     1     3
Direct
  0.000000  0.000000  0.000000
  0.500000  0.500000  0.500000
  0.500000  0.500000  0.000000
  0.500000  0.000000  0.500000
  0.000000  0.500000  0.500000
 
   48   48   48
  193.35      193.37      192.93      190.78      185.37      175.47      160.60      141.25      118.79      95.201    
  72.582      52.711      36.664      24.699      16.384      10.891      7.3750      5.1883      3.8510      3.0397    
  2.5522      2.2659      2.1059      2.0268      2.0031      2.0268      2.1059      2.2659      2.5522      3.0397    
  3.8510      5.1883      7.3750      10.891      16.384      24.699      36.664      52.711      72.582      95.201    
  118.79      141.25      160.60      175.47      185.37      190.78      192.93      193.37      193.37      193.30    
  192.63      190.16      184.41      174.22      159.16      139.74      117.34      93.912      71.523      51.906    
  36.099      24.331      16.162      10.766      7.3114      5.1631      3.8489      3.0516      2.5724      2.2911    
  2.1341      2.0565      2.0333      2.0565      2.1341      2.2911      2.5724      3.0516      3.8489      5.1631    
  7.3114      10.766      16.162      24.331      36.099      51.906      71.523      93.912      117.34      139.74    
  159.16      174.22      184.41      190.16      192.63      193.30      192.93      192.63      191.33      187.98    
  181.31      170.33      154.77      135.21      113.03      90.115      68.422      49.562      34.458      23.268    
  15.522      10.406      7.1319      5.0956      3.8495      3.0934      2.6397      2.3740      2.2263      2.1536    
  2.1320      2.1536      2.2263      2.3740      2.6397      3.0934      3.8495      5.0956      7.1319      10.406    
  15.522      23.268      34.458      49.562      68.422      90.115      113.03      135.21      154.77      170.33    
  181.31      187.98      191.33      192.63      190.78      190.16      187.98      183.41      175.48      163.47    
  147.32      127.72      106.02      84.020      63.501      45.876      31.901      21.625      14.539      9.8606    
  6.8684      5.0080      3.8698      3.1804      2.7685      2.5293      2.3979      2.3340      2.3152      2.3340    
  2.3979      2.5293      2.7685      3.1804      3.8698      5.0080      6.8684      9.8606      14.539      21.625    
  31.901      45.876      63.501      84.020      106.02      127.72      147.32      163.47      175.48      183.41    
  187.98      190.16      185.37      184.41      181.31      175.48      166.27      153.31      136.76      117.42    
  96.617      75.996      57.124      41.165      28.673      19.572      13.325      9.2003      6.5670      4.9317    
  3.9333      3.3318      2.9765      2.7741      2.6658      2.6147      2.5999      2.6147      2.6658      2.7741    
  2.9765      3.3318      3.9333      4.9317      6.5670      9.2003      13.325      19.572      28.673      41.165    
  57.124      75.996      96.617      117.42      136.76      153.31      166.27      175.48      181.31      184.41    
  175.47      174.22      170.33      163.47      153.31      139.80      123.30      104.71      85.319      66.570    
  49.775      35.828      25.069      17.312      12.008      8.5088      6.2831      4.9062      4.0718      3.5767    
  3.2923      3.1376      3.0602      3.0265      3.0173      3.0265      3.0602      3.1376      3.2923      3.5767    
  4.0718      4.9062      6.2831      8.5088      12.008      17.312      25.069      35.828      49.775      66.570    
  85.319      104.71      123.30      139.80      153.31      163.47      170.33      174.22      160.60      159.16    
  154.77      147.32      136.76      123.30      107.49      90.272      72.830      56.401      42.015      30.298    
  21.400      15.049      10.717      7.8730      6.0777      4.9803      4.3304      3.9615      3.7663      3.6748    
  3.6401      3.6312      3.6303      3.6312      3.6401      3.6748      3.7663      3.9615      4.3304      4.9803    
  6.0777      7.8730      10.717      15.049      21.400      30.298      42.015      56.401      72.830      90.272    
  107.49      123.30      136.76      147.32      154.77      159.16      141.25      139.74      135.21      127.72    
  117.42      104.71      90.272      75.017      59.996      46.209      34.411      24.991      17.945      12.958    
  9.5714      7.3757      6.0153      5.2126      4.7698      4.5531      4.4729      4.4676      4.4937      4.5213    
  4.5324      4.5213      4.4937      4.4676      4.4729      4.5531      4.7698      5.2126      6.0153      7.3757    
  9.5714      12.958      17.945      24.991      34.411      46.209      59.996      75.017      90.272      104.71    
  117.42      127.72      135.21      139.74      118.79      117.34      113.03      106.02      96.617      85.319    
  72.830      59.996      47.692      36.675      27.459      20.239      14.914      11.172      8.6707      7.0928    
  6.1646      5.6740      5.4681      5.4393      5.5103      5.6239      5.7367      5.8171      5.8461      5.8171    
  5.7367      5.6239      5.5103      5.4393      5.4681      5.6740      6.1646      7.0928      8.6707      11.172    
  14.914      20.239      27.459      36.675      47.692      59.996      72.830      85.319      96.617      106.02    
  113.03      117.34      95.201      93.912      90.115      84.020      75.996      66.570      56.401      46.209    
  36.675      28.339      21.511      16.258      12.431      9.7899      8.0904      7.0946      6.6004      6.4500    
  6.5251      6.7353      7.0095      7.2888      7.5255      7.6829      7.7381      7.6829      7.5255      7.2888    
  7.0095      6.7353      6.5251      6.4500      6.6004      7.0946      8.0904      9.7899      12.431      16.258    
  21.511      28.339      36.675      46.209      56.401      66.570      75.996      84.020      90.115      93.912    
  72.582      71.523      68.422      63.501      57.124      49.775      42.015      34.411      27.459      21.511    
  16.737      13.126      10.554      8.8659      7.8865      7.4473      7.4052      7.6432      8.0660      8.5916    
  9.1464      9.6629      10.081      10.354      10.448      10.354      10.081      9.6629      9.1464      8.5916    
  8.0660      7.6432      7.4052      7.4473      7.8865      8.8659      10.554      13.126      16.737      21.511    
  27.459      34.411      42.015      49.775      57.124      63.501      68.422      71.523      52.711      51.906    
  49.562      45.876      41.165      35.828      30.298      24.991      20.239      16.258      13.126      10.825    
  9.2917      8.4218      8.0997      8.2149      8.6687      9.3731      10.246      11.204      12.161      13.031    
  13.728      14.179      14.335      14.179      13.728      13.031      12.161      11.204      10.246      9.3731    
  8.6687      8.2149      8.0997      8.4218      9.2917      10.825      13.126      16.258      20.239      24.991    
  30.298      35.828      41.165      45.876      49.562      51.906      36.664      36.099      34.458      31.901    
  28.673      25.069      21.400      17.945      14.914      12.431      10.554      9.2917      8.6112      8.4557    
  8.7603      9.4596      10.490      11.783      13.266      14.845      16.410      17.833      18.977      19.721    
  19.980      19.721      18.977      17.833      16.410      14.845      13.266      11.783      10.490      9.4596    
  8.7603      8.4557      8.6112      9.2917      10.554      12.431      14.914      17.945      21.400      25.069    
  28.673      31.901      34.458      36.099      24.699      24.331      23.268      21.625      19.572      17.312    
  15.049      12.958      11.172      9.7899      8.8659      8.4218      8.4557      8.9529      9.8916      11.246    
  12.985      15.064      17.417      19.934      22.458      24.783      26.676      27.918      28.352      27.918    
  26.676      24.783      22.458      19.934      17.417      15.064      12.985      11.246      9.8916      8.9529    
  8.4557      8.4218      8.8659      9.7899      11.172      12.958      15.049      17.312      19.572      21.625    
  23.268      24.331      16.384      16.162      15.522      14.539      13.325      12.008      10.717      9.5714    
  8.6707      8.0904      7.8865      8.0997      8.7603      9.8916      11.514      13.648      16.306      19.483    
  23.128      27.106      31.178      34.996      38.146      40.232      40.963      40.232      38.146      34.996    
  31.178      27.106      23.128      19.483      16.306      13.648      11.514      9.8916      8.7603      8.0997    
  7.8865      8.0904      8.6707      9.5714      10.717      12.008      13.325      14.539      15.522      16.162    
  10.891      10.766      10.406      9.8606      9.2003      8.5088      7.8730      7.3757      7.0928      7.0946    
  7.4473      8.2149      9.4596      11.246      13.648      16.750      20.645      25.396      30.984      37.234    
  43.764      49.981      55.164      58.616      59.829      58.616      55.164      49.981      43.764      37.234    
  30.984      25.396      20.645      16.750      13.648      11.246      9.4596      8.2149      7.4473      7.0946    
  7.0928      7.3757      7.8730      8.5088      9.2003      9.8606      10.406      10.766      7.3750      7.3114    
  7.1319      6.8684      6.5670      6.2831      6.0777      6.0153      6.1646      6.6004      7.4052      8.6687    
  10.490      12.985      16.306      20.645      26.221      33.214      41.659      51.310      61.540      71.386    
  79.763      85.463      87.492      85.463      79.763      71.386      61.540      51.310      41.659      33.214    
  26.221      20.645      16.306      12.985      10.490      8.6687      7.4052      6.6004      6.1646      6.0153    
  6.0777      6.2831      6.5670      6.8684      7.1319      7.3114      5.1883      5.1631      5.0956      5.0080    
  4.9317      4.9062      4.9803      5.2126      5.6740      6.4500      7.6432      9.3731      11.783      15.064    
  19.483      25.396      33.214      43.290      55.723      70.135      85.874      101.75      115.67      125.26    
  128.69      125.26      115.67      101.75      85.874      70.135      55.723      43.290      33.214      25.396    
  19.483      15.064      11.783      9.3731      7.6432      6.4500      5.6740      5.2126      4.9803      4.9062    
  4.9317      5.0080      5.0956      5.1631      3.8510      3.8489      3.8495      3.8698      3.9333      4.0718    
  4.3304      4.7698      5.4681      6.5251      8.0660      10.246      13.266      17.417      23.128      30.984    
  41.659      55.723      73.346      94.677      119.09      144.10      165.99      180.96      186.28      180.96    
  165.99      144.10      119.09      94.677      73.346      55.723      41.659      30.984      23.128      17.417    
  13.266      10.246      8.0660      6.5251      5.4681      4.7698      4.3304      4.0718      3.9333      3.8698    
  3.8495      3.8489      3.0397      3.0516      3.0934      3.1804      3.3318      3.5767      3.9615      4.5531    
  5.4393      6.7353      8.5916      11.204      14.845      19.934      27.106      37.234      51.310      70.135    
  94.677      125.73      161.54      197.78      228.86      249.72      257.04      249.72      228.86      197.78    
  161.54      125.73      94.677      70.135      51.310      37.234      27.106      19.934      14.845      11.204    
  8.5916      6.7353      5.4393      4.5531      3.9615      3.5767      3.3318      3.1804      3.0934      3.0516    
  2.5522      2.5724      2.6397      2.7685      2.9765      3.2923      3.7663      4.4729      5.5103      7.0095    
  9.1464      12.161      16.410      22.458      31.178      43.764      61.540      85.874      119.09      161.54    
  209.77      257.26      296.74      322.51      331.42      322.51      296.74      257.26      209.77      161.54    
  119.09      85.874      61.540      43.764      31.178      22.458      16.410      12.161      9.1464      7.0095    
  5.5103      4.4729      3.7663      3.2923      2.9765      2.7685      2.6397      2.5724      2.2659      2.2911    
  2.3740      2.5293      2.7741      3.1376      3.6748      4.4676      5.6239      7.2888      9.6629      13.031    
  17.833      24.783      34.996      49.981      71.386      101.75      144.10      197.78      257.26      313.84    
  359.10      387.62      397.26      387.62      359.10      313.84      257.26      197.78      144.10      101.75    
  71.386      49.981      34.996      24.783      17.833      13.031      9.6629      7.2888      5.6239      4.4676    
  3.6748      3.1376      2.7741      2.5293      2.3740      2.2911      2.1059      2.1341      2.2263      2.3979    
  2.6658      3.0602      3.6401      4.4937      5.7367      7.5255      10.081      13.728      18.977      26.676    
  38.146      55.164      79.763      115.67      165.99      228.86      296.74      359.10      406.99      435.98    
  445.53      435.98      406.99      359.10      296.74      228.86      165.99      115.67      79.763      55.164    
  38.146      26.676      18.977      13.728      10.081      7.5255      5.7367      4.4937      3.6401      3.0602    
  2.6658      2.3979      2.2263      2.1341      2.0268      2.0565      2.1536      2.3340      2.6147      3.0265    
  3.6312      4.5213      5.8171      7.6829      10.354      14.179      19.721      27.918      40.232      58.616    
  85.463      125.26      180.96      249.72      322.51      387.62      435.98      464.25      473.33      464.25    
  435.98      387.62      322.51      249.72      180.96      125.26      85.463      58.616      40.232      27.918    
  19.721      14.179      10.354      7.6829      5.8171      4.5213      3.6312      3.0265      2.6147      2.3340    
  2.1536      2.0565      2.0031      2.0333      2.1320      2.3152      2.5999      3.0173      3.6303      4.5324    
  5.8461      7.7381      10.448      14.335      19.980      28.352      40.963      59.829      87.492      128.69    
  186.28      257.04      331.42      397.26      445.53      473.33      482.17      473.33      445.53      397.26    
  331.42      257.04      186.28      128.69      87.492      59.829      40.963      28.352      19.980      14.335    
  10.448      7.7381      5.8461      4.5324      3.6303      3.0173      2.5999      2.3152      2.1320      2.0333    
  2.0268      2.0565      2.1536      2.3340      2.6147      3.0265      3.6312      4.5213      5.8171      7.6829    
  10.354      14.179      19.721      27.918      40.232      58.616      85.463      125.26      180.96      249.72    
  322.51      387.62      435.98      464.25      473.33      464.25      435.98      387.62      322.51      249.72    
  180.96      125.26      85.463      58.616      40.232      27.918      19.721      14.179      10.354      7.6829    
  5.8171      4.5213      3.6312      3.0265      2.6147      2.3340      2.1536      2.0565      2.1059      2.1341    
  2.2263      2.3979      2.6658      3.0602      3.6401      4.4937      5.7367      7.5255      10.081      13.728    
  18.977      26.676      38.146      55.164      79.763      115.67      165.99      228.86      296.74      359.10    
  406.99      435.98      445.53      435.98      406.99      359.10      296.74      228.86      165.99      115.67    
  79.763      55.164      38.146      26.676      18.977      13.728      10.081      7.5255      5.7367      4.4937    
  3.6401      3.0602      2.6658      2.3979      2.2263      2.1341      2.2659      2.2911      2.3740      2.5293    
  2.7741      3.1376      3.6748      4.4676      5.6239      7.2888      9.6629      13.031      17.833      24.783    
  34.996      49.981      71.386      101.75      144.10      197.78      257.26      313.84      359.10      387.62    
  397.26      387.62      359.10      313.84      257.26      197.78      144.10      101.75      71.386      49.981    
  34.996      24.783      17.833      13.031      9.6629      7.2888      5.6239      4.4676      3.6748      3.1376    
  2.7741      2.5293      2.3740      2.2911      2.5522      2.5724      2.6397      2.7685      2.9765      3.2923    
  3.7663      4.4729      5.5103      7.0095      9.1464      12.161      16.410      22.458      31.178      43.764    
  61.540      85.874      119.09      161.54      209.77      257.26      296.74      322.51      331.42      322.51    
  296.74      257.26      209.77      161.54      119.09      85.874      61.540      43.764      31.178      22.458    
  16.410      12.161      9.1464      7.0095      5.5103      4.4729      3.7663      3.2923      2.9765      2.7685    
  2.6397      2.5724      3.0397      3.0516      3.0934      3.1804      3.3318      3.5767      3.9615      4.5531    
  5.4393      6.7353      8.5916      11.204      14.845      19.934      27.106      37.234      51.310      70.135    
  94.677      125.73      161.54      197.78      228.86      249.72      257.04      249.72      228.86      197.78    
  161.54      125.73      94.677      70.135      51.310      37.234      27.106      19.934      14.845      11.204    
  8.5916      6.7353      5.4393      4.5531      3.9615      3.5767      3.3318      3.1804      3.0934      3.0516    
  3.8510      3.8489      3.8495      3.8698      3.9333      4.0718      4.3304      4.7698      5.4681      6.5251    
  8.0660      10.246      13.266      17.417      23.128      30.984      41.659      55.723      73.346      94.677    
  119.09      144.10      165.99      180.96      186.28      180.96      165.99      144.10      119.09      94.677    
  73.346      55.723      41.659      30.984      23.128      17.417      13.266      10.246      8.0660      6.5251    
  5.4681      4.7698      4.3304      4.0718      3.9333      3.8698      3.8495      3.8489      5.1883      5.1631    
  5.0956      5.0080      4.9317      4.9062      4.9803      5.2126      5.6740      6.4500      7.6432      9.3731    
  11.783      15.064      19.483      25.396      33.214      43.290      55.723      70.135      85.874      101.75    
  115.67      125.26      128.69      125.26      115.67      101.75      85.874      70.135      55.723      43.290    
  33.214      25.396      19.483      15.064      11.783      9.3731      7.6432      6.4500      5.6740      5.2126    
  4.9803      4.9062      4.9317      5.0080      5.0956      5.1631      7.3750      7.3114      7.1319      6.8684    
  6.5670      6.2831      6.0777      6.0153      6.1646      6.6004      7.4052      8.6687      10.490      12.985    
  16.306      20.645      26.221      33.214      41.659      51.310      61.540      71.386      79.763      85.463    
  87.492      85.463      79.763      71.386      61.540      51.310      41.659      33.214      26.221      20.645    
  16.306      12.985      10.490      8.6687      7.4052      6.6004      6.1646      6.0153      6.0777      6.2831    
  6.5670      6.8684      7.1319      7.3114      10.891      10.766      10.406      9.8606      9.2003      8.5088    
  7.8730      7.3757      7.0928      7.0946      7.4473      8.2149      9.4596      11.246      13.648      16.750    
  20.645      25.396      30.984      37.234      43.764      49.981      55.164      58.616      59.829      58.616    
  55.164      49.981      43.764      37.234      30.984      25.396      20.645      16.750      13.648      11.246    
  9.4596      8.2149      7.4473      7.0946      7.0928      7.3757      7.8730      8.5088      9.2003      9.8606    
  10.406      10.766      16.384      16.162      15.522      14.539      13.325      12.008      10.717      9.5714    
  8.6707      8.0904      7.8865      8.0997      8.7603      9.8916      11.514      13.648      16.306      19.483    
  23.128      27.106      31.178      34.996      38.146      40.232      40.963      40.232      38.146      34.996    
  31.178      27.106      23.128      19.483      16.306      13.648      11.514      9.8916      8.7603      8.0997    
  7.8865      8.0904      8.6707      9.5714      10.717      12.008      13.325      14.539      15.522      16.162    
  24.699      24.331      23.268      21.625      19.572      17.312      15.049      12.958      11.172      9.7899    
  8.8659      8.4218      8.4557      8.9529      9.8916      11.246      12.985      15.064      17.417      19.934    
  22.458      24.783      26.676      27.918      28.352      27.918      26.676      24.783      22.458      19.934    
  17.417      15.064      12.985      11.246      9.8916      8.9529      8.4557      8.4218      8.8659      9.7899    
  11.172      12.958      15.049      17.312      19.572      21.625      23.268      24.331      36.664      36.099    
  34.458      31.901      28.673      25.069      21.400      17.945      14.914      12.431      10.554      9.2917    
  8.6112      8.4557      8.7603      9.4596      10.490      11.783      13.266      14.845      16.410      17.833    
  18.977      19.721      19.980      19.721      18.977      17.833      16.410      14.845      13.266      11.783    
  10.490      9.4596      8.7603      8.4557      8.6112      9.2917      10.554      12.431      14.914      17.945    
  21.400      25.069      28.673      31.901      34.458      36.099      52.711      51.906      49.562      45.876    
  41.165      35.828      30.298      24.991      20.239      16.258      13.126      10.825      9.2917      8.4218    
  8.0997      8.2149      8.6687      9.3731      10.246      11.204      12.161      13.031      13.728      14.179    
  14.335      14.179      13.728      13.031      12.161      11.204      10.246      9.3731      8.6687      8.2149    
  8.0997      8.4218      9.2917      10.825      13.126      16.258      20.239      24.991      30.298      35.828    
  41.165      45.876      49.562      51.906      72.582      71.523      68.422      63.501      57.124      49.775    
  42.015      34.411      27.459      21.511      16.737      13.126      10.554      8.8659      7.8865      7.4473    
  7.4052      7.6432      8.0660      8.5916      9.1464      9.6629      10.081      10.354      10.448      10.354    
  10.081      9.6629      9.1464      8.5916      8.0660      7.6432      7.4052      7.4473      7.8865      8.8659    
  10.554      13.126      16.737      21.511      27.459      34.411      42.015      49.775      57.124      63.501    
  68.422      71.523      95.201      93.912      90.115      84.020      75.996      66.570      56.401      46.209    
  36.675      28.339      21.511      16.258      12.431      9.7899      8.0904      7.0946      6.6004      6.4500    
  6.5251      6.7353      7.0095      7.2888      7.5255      7.6829      7.7381      7.6829      7.5255      7.2888    
  7.0095      6.7353      6.5251      6.4500      6.6004      7.0946      8.0904      9.7899      12.431      16.258    
  21.511      28.339      36.675      46.209      56.401      66.570      75.996      84.020      90.115      93.912    
  118.79      117.34      113.03      106.02      96.617      85.319      72.830      59.996      47.692      36.675    
  27.459      20.239      14.914      11.172      8.6707      7.0928      6.1646      5.6740      5.4681      5.4393    
  5.5103      5.6239      5.7367      5.8171      5.8461      5.8171      5.7367      5.6239      5.5103      5.4393    
  5.4681      5.6740      6.1646      7.0928      8.6707      11.172      14.914      20.239      27.459      36.675    
  47.692      59.996      72.830      85.319      96.617      106.02      113.03      117.34      141.25      139.74    
  135.21      127.72      117.42      104.71      90.272      75.017      59.996      46.209      34.411      24.991    
  17.945      12.958      9.5714      7.3757      6.0153      5.2126      4.7698      4.5531      4.4729      4.4676    
  4.4937      4.5213      4.5324      4.5213      4.4937      4.4676      4.4729      4.5531      4.7698      5.2126    
  6.0153      7.3757      9.5714      12.958      17.945      24.991      34.411      46.209      59.996      75.017    
  90.272      104.71      117.42      127.72      135.21      139.74      160.60      159.16      154.77      147.32    
  136.76      123.30      107.49      90.272      72.830      56.401      42.015      30.298      21.400      15.049    
  10.717      7.8730      6.0777      4.9803      4.3304      3.9615      3.7663      3.6748      3.6401      3.6312    
  3.6303      3.6312      3.6401      3.6748      3.7663      3.9615      4.3304      4.9803      6.0777      7.8730    
  10.717      15.049      21.400      30.298      42.015      56.401      72.830      90.272      107.49      123.30    
  136.76      147.32      154.77      159.16      175.47      174.22      170.33      163.47      153.31      139.80    
  123.30      104.71      85.319      66.570      49.775      35.828      25.069      17.312      12.008      8.5088    
  6.2831      4.9062      4.0718      3.5767      3.2923      3.1376      3.0602      3.0265      3.0173      3.0265    
  3.0602      3.1376      3.2923      3.5767      4.0718      4.9062      6.2831      8.5088      12.008      17.312    
  25.069      35.828      49.775      66.570      85.319      104.71      123.30      139.80      153.31      163.47    
  170.33      174.22      185.37      184.41      181.31      175.48      166.27      153.31      136.76      117.42    
  96.617      75.996      57.124      41.165      28.673      19.572      13.325      9.2003      6.5670      4.9317    
  3.9333      3.3318      2.9765      2.7741      2.6658      2.6147      2.5999      2.6147      2.6658      2.7741    
  2.9765      3.3318      3.9333      4.9317      6.5670      9.2003      13.325      19.572      28.673      41.165    
  57.124      75.996      96.617      117.42      136.76      153.31      166.27      175.48      181.31      184.41    
  190.78      190.16      187.98      183.41      175.48      163.47      147.32      127.72      106.02      84.020    
  63.501      45.876      31.901      21.625      14.539      9.8606      6.8684      5.0080      3.8698      3.1804    
  2.7685      2.5293      2.3979      2.3340      2.3152      2.3340      2.3979      2.5293      2.7685      3.1804    
  3.8698      5.0080      6.8684      9.8606      14.539      21.625      31.901      45.876      63.501      84.020    
  106.02      127.72      147.32      163.47      175.48      183.41      187.98      190.16      192.93      192.63    
  191.33      187.98      181.31      170.33      154.77      135.21      113.03      90.115      68.422      49.562    
  34.458      23.268      15.522      10.406      7.1319      5.0956      3.8495      3.0934      2.6397      2.3740    
  2.2263      2.1536      2.1320      2.1536      2.2263      2.3740      2.6397      3.0934      3.8495      5.0956    
  7.1319      10.406      15.522      23.268      34.458      49.562      68.422      90.115      113.03      135.21    
  154.77      170.33      181.31      187.98      191.33      192.63      193.37      193.30      192.63      190.16    
  184.41      174.22      159.16      139.74      117.34      93.912      71.523      51.906      36.099      24.331    
  16.162      10.766      7.3114      5.1631      3.8489      3.0516      2.5724      2.2911      2.1341      2.0565    
  2.0333      2.0565      2.1341      2.2911      2.5724      3.0516      3.8489      5.1631      7.3114      10.766    
  16.162      24.331      36.099      51.906      71.523      93.912      117.34      139.74      159.16      174.22    
  184.41      190.16      192.63      193.30      193.37      193.30      192.63      190.16      184.41      174.22    
  159.16      139.74      117.34      93.912      71.523      51.906      36.099      24.331      16.162      10.766    
  7.3114      5.1631      3.8489      3.0516      2.5724      2.2911      2.1341      2.0565      2.0333      2.0565    
  2.1341      2.2911      2.5724      3.0516      3.8489      5.1631      7.3114      10.766      16.162      24.331    
  36.099      51.906      71.523      93.912      117.34      139.74      159.16      174.22      184.41      190.16    
  192.63      193.30      193.30      193.15      192.27      189.49      183.41      172.94      157.70      138.23    
  115.90      92.635      70.477      51.113      35.542      23.970      15.943      10.642      7.2487      5.1381    
  3.8468      3.0631      2.5923      2.3159      2.1618      2.0857      2.0630      2.0857      2.1618      2.3159    
  2.5923      3.0631      3.8468      5.1381      7.2487      10.642      15.943      23.970      35.542      51.113    
  70.477      92.635      115.90      138.23      157.70      172.94      183.41      189.49      192.27      193.15    
  192.63      192.27      190.78      187.16      180.20      168.99      153.29      133.71      111.61      88.871    
  67.412      48.801      33.927      22.925      15.314      10.288      7.0719      5.0714      3.8470      3.1041    
  2.6583      2.3974      2.2525      2.1813      2.1602      2.1813      2.2525      2.3974      2.6583      3.1041    
  3.8470      5.0714      7.0719      10.288      15.314      22.925      33.927      48.801      67.412      88.871    