unknown system                          
   1.00000000000000     
     3.905268    0.000000    0.000000
     0.000000    3.905268    0.000000
     0.000000    0.000000    3.905268
   Sr   Ti   O 
     1     1     3
Direct
  0.000000  0.000000  0.000000
  0.500000  0.500000  0.500000
  0.500000  0.500000  0.000000
  0.500000  0.000000  0.500000
  0.000000  0.500000  0.500000
 
   48   48   48
 0.19335038235E+03 0.19336660823E+03 0.19292914189E+03 0.19077598083E+03 0.18536697942E+03
 0.17546695959E+03 0.16059945966E+03 0.14124931318E+03 0.11879334310E+03 0.95200543776E+02
 0.72581796845E+02 0.52710668264E+02 0.36663972280E+02 0.24698830423E+02 0.16383682231E+02
 0.10891349932E+02 0.73749971676E+01 0.51883214347E+01 0.38509909955E+01 0.30397374445E+01
 0.25522479444E+01 0.22658562441E+01 0.21058902114E+01 0.20267661140E+01 0.20031349648E+01
 0.20267661140E+01 0.21058902114E+01 0.22658562440E+01 0.25522479444E+01 0.30397374445E+01
 0.38509909955E+01 0.51883214347E+01 0.73749971676E+01 0.10891349932E+02 0.16383682231E+02
 0.24698830423E+02 0.36663972280E+02 0.52710668264E+02 0.72581796845E+02 0.95200543776E+02
 0.11879334310E+03 0.14124931318E+03 0.16059945966E+03 0.17546695959E+03 0.18536697942E+03
 0.19077598083E+03 0.19292914189E+03 0.19336660823E+03 0.19336660823E+03 0.19329946298E+03
 0.19263254909E+03 0.19015875089E+03 0.18440940392E+03 0.17421763458E+03 0.15915753578E+03
 0.13973988944E+03 0.11734217680E+03 0.93912022956E+02 0.71523317622E+02 0.51906314643E+02
 0.36098730493E+02 0.24331203154E+02 0.16161533764E+02 0.10765764759E+02 0.73113503177E+01
 0.51630736390E+01 0.38489154127E+01 0.30515567451E+01 0.25724433265E+01 0.22910975418E+01
 0.21340698014E+01 0.20564616014E+01 0.20332950124E+01 0.20564616014E+01 0.21340698014E+01
 0.22910975418E+01 0.25724433265E+01 0.30515567451E+01 0.38489154127E+01 0.51630736390E+01
 0.73113503177E+01 0.10765764759E+02 0.16161533764E+02 0.24331203154E+02 0.36098730493E+02
 0.51906314643E+02 0.71523317622E+02 0.93912022956E+02 0.11734217680E+03 0.13973988944E+03
 0.15915753578E+03 0.17421763458E+03 0.18440940392E+03 0.19015875089E+03 0.19263254909E+03
 0.19329946298E+03 0.19292914189E+03 0.19263254909E+03 0.19133490686E+03 0.18798229795E+03
 0.18130600405E+03 0.17033073065E+03 0.15477255759E+03 0.13521452957E+03 0.11303390881E+03
 0.90114643112E+02 0.68422274090E+02 0.49561526565E+02 0.34458159437E+02 0.23268387675E+02
 0.15521720149E+02 0.10406123252E+02 0.71318898023E+01 0.50956029785E+01 0.38494818620E+01
 0.30934227167E+01 0.26396653257E+01 0.23739548478E+01 0.22262689760E+01 0.21535967141E+01
 0.21319659704E+01 0.21535967141E+01 0.22262689760E+01 0.23739548478E+01 0.26396653257E+01
 0.30934227167E+01 0.38494818620E+01 0.50956029785E+01 0.71318898023E+01 0.10406123252E+02
 0.15521720149E+02 0.23268387675E+02 0.34458159437E+02 0.49561526565E+02 0.68422274090E+02
 0.90114643112E+02 0.11303390881E+03 0.13521452957E+03 0.15477255759E+03 0.17033073065E+03
 0.18130600405E+03 0.18798229795E+03 0.19133490686E+03 0.19263254909E+03 0.19077598083E+03
 0.19015875089E+03 0.18798229795E+03 0.18341413605E+03 0.17547567387E+03 0.16347080578E+03
 0.14732256649E+03 0.12771674700E+03 0.10602288103E+03 0.84019873816E+02 0.63501075716E+02
 0.45876196635E+02 0.31901427031E+02 0.21624706208E+02 0.14539451830E+02 0.98605992679E+01
 0.68683752023E+01 0.50080131054E+01 0.38698177856E+01 0.31803781933E+01 0.27684829810E+01
 0.25292964818E+01 0.23979030711E+01 0.23340497355E+01 0.23152040432E+01 0.23340497355E+01
 0.23979030711E+01 0.25292964818E+01 0.27684829810E+01 0.31803781933E+01 0.38698177856E+01
 0.50080131054E+01 0.68683752023E+01 0.98605992679E+01 0.14539451830E+02 0.21624706208E+02
 0.31901427031E+02 0.45876196635E+02 0.63501075716E+02 0.84019873816E+02 0.10602288103E+03
 0.12771674700E+03 0.14732256649E+03 0.16347080578E+03 0.17547567387E+03 0.18341413605E+03
 0.18798229795E+03 0.19015875089E+03 0.18536697942E+03 0.18440940392E+03 0.18130600405E+03
 0.17547567387E+03 0.16627065580E+03 0.15331428212E+03 0.13676478721E+03 0.11741780332E+03
 0.96617013863E+02 0.75996014180E+02 0.57123812217E+02 0.41165354642E+02 0.28672603363E+02
 0.19571684875E+02 0.13325475330E+02 0.92002648116E+01 0.65670126783E+01 0.49317357379E+01
 0.39333260603E+01 0.33318365627E+01 0.29765310137E+01 0.27740912149E+01 0.26657828480E+01
 0.26146548940E+01 0.25998713379E+01 0.26146548940E+01 0.26657828480E+01 0.27740912149E+01
 0.29765310137E+01 0.33318365627E+01 0.39333260603E+01 0.49317357379E+01 0.65670126783E+01
 0.92002648116E+01 0.13325475330E+02 0.19571684875E+02 0.28672603363E+02 0.41165354642E+02
 0.57123812217E+02 0.75996014180E+02 0.96617013863E+02 0.11741780332E+03 0.13676478721E+03
 0.15331428212E+03 0.16627065580E+03 0.17547567387E+03 0.18130600405E+03 0.18440940392E+03
 0.17546695959E+03 0.17421763458E+03 0.17033073065E+03 0.16347080578E+03 0.15331428212E+03
 0.13979677014E+03 0.12330085108E+03 0.10471249504E+03 0.85318957891E+02 0.66570412392E+02
 0.49774930400E+02 0.35827744436E+02 0.25069072295E+02 0.17312004739E+02 0.12007835072E+02
 0.85088373479E+01 0.62831433363E+01 0.49062437718E+01 0.40717878017E+01 0.35766898853E+01
 0.32923335573E+01 0.31376010377E+01 0.30601786001E+01 0.30264711779E+01 0.30173206252E+01
 0.30264711779E+01 0.30601786001E+01 0.31376010377E+01 0.32923335573E+01 0.35766898853E+01
 0.40717878017E+01 0.49062437718E+01 0.62831433363E+01 0.85088373479E+01 0.12007835072E+02
 0.17312004739E+02 0.25069072295E+02 0.35827744436E+02 0.49774930400E+02 0.66570412392E+02
 0.85318957891E+02 0.10471249504E+03 0.12330085108E+03 0.13979677014E+03 0.15331428212E+03
 0.16347080578E+03 0.17033073065E+03 0.17421763458E+03 0.16059945966E+03 0.15915753578E+03
 0.15477255759E+03 0.14732256649E+03 0.13676478721E+03 0.12330085108E+03 0.10749244356E+03
 0.90272205549E+02 0.72830339645E+02 0.56401155749E+02 0.42014614683E+02 0.30298477384E+02
 0.21400492284E+02 0.15048929815E+02 0.10716676481E+02 0.78730449131E+01 0.60777103935E+01
 0.49802524214E+01 0.43303727935E+01 0.39615472921E+01 0.37663492042E+01 0.36748079395E+01
 0.36400961989E+01 0.36312379552E+01 0.36302566908E+01 0.36312379552E+01 0.36400961989E+01
 0.36748079395E+01 0.37663492042E+01 0.39615472921E+01 0.43303727935E+01 0.49802524214E+01
 0.60777103935E+01 0.78730449131E+01 0.10716676481E+02 0.15048929815E+02 0.21400492284E+02
 0.30298477384E+02 0.42014614683E+02 0.56401155749E+02 0.72830339645E+02 0.90272205549E+02
 0.10749244356E+03 0.12330085108E+03 0.13676478721E+03 0.14732256649E+03 0.15477255759E+03
 0.15915753578E+03 0.14124931318E+03 0.13973988944E+03 0.13521452957E+03 0.12771674700E+03
 0.11741780332E+03 0.10471249504E+03 0.90272205549E+02 0.75016879211E+02 0.59996470461E+02
 0.46208707389E+02 0.34410707422E+02 0.24990879635E+02 0.17945254756E+02 0.12957716095E+02
 0.95713968700E+01 0.73756949327E+01 0.60153309626E+01 0.52126367817E+01 0.47698254870E+01
 0.45531189129E+01 0.44729059265E+01 0.44676040704E+01 0.44937119569E+01 0.45212622310E+01
 0.45324246332E+01 0.45212622310E+01 0.44937119569E+01 0.44676040704E+01 0.44729059265E+01
 0.45531189129E+01 0.47698254870E+01 0.52126367817E+01 0.60153309626E+01 0.73756949327E+01
 0.95713968700E+01 0.12957716095E+02 0.17945254756E+02 0.24990879635E+02 0.34410707422E+02
 0.46208707389E+02 0.59996470461E+02 0.75016879211E+02 0.90272205549E+02 0.10471249504E+03
 0.11741780332E+03 0.12771674700E+03 0.13521452957E+03 0.13973988944E+03 0.11879334310E+03
 0.11734217680E+03 0.11303390881E+03 0.10602288103E+03 0.96617013863E+02 0.85318957891E+02
 0.72830339645E+02 0.59996470461E+02 0.47692021172E+02 0.36675412212E+02 0.27458775305E+02
 0.20239318307E+02 0.14914088830E+02 0.11172326930E+02 0.86706739160E+01 0.70928299865E+01
 0.61645990545E+01 0.56740150576E+01 0.54681335331E+01 0.54392701226E+01 0.55103134147E+01
 0.56239125672E+01 0.57366534350E+01 0.58171454880E+01 0.58461441214E+01 0.58171454880E+01
 0.57366534350E+01 0.56239125672E+01 0.55103134147E+01 0.54392701226E+01 0.54681335331E+01
 0.56740150576E+01 0.61645990545E+01 0.70928299865E+01 0.86706739160E+01 0.11172326930E+02
 0.14914088830E+02 0.20239318307E+02 0.27458775305E+02 0.36675412212E+02 0.47692021172E+02
 0.59996470461E+02 0.72830339645E+02 0.85318957891E+02 0.96617013863E+02 0.10602288103E+03
 0.11303390881E+03 0.11734217680E+03 0.95200543776E+02 0.93912022956E+02 0.90114643112E+02
 0.84019873816E+02 0.75996014180E+02 0.66570412392E+02 0.56401155749E+02 0.46208707389E+02
 0.36675412212E+02 0.28338561509E+02 0.21511236081E+02 0.16257790178E+02 0.12430927187E+02
 0.97899014379E+01 0.80903848280E+01 0.70945931211E+01 0.66003541716E+01 0.64500265096E+01
 0.65250557305E+01 0.67353256858E+01 0.70094589772E+01 0.72888239920E+01 0.75254838262E+01
 0.76829354209E+01 0.77380653590E+01 0.76829354209E+01 0.75254838262E+01 0.72888239920E+01
 0.70094589772E+01 0.67353256858E+01 0.65250557305E+01 0.64500265096E+01 0.66003541716E+01
 0.70945931211E+01 0.80903848280E+01 0.97899014379E+01 0.12430927187E+02 0.16257790178E+02
 0.21511236081E+02 0.28338561509E+02 0.36675412212E+02 0.46208707389E+02 0.56401155749E+02
 0.66570412392E+02 0.75996014180E+02 0.84019873816E+02 0.90114643112E+02 0.93912022956E+02
 0.72581796845E+02 0.71523317622E+02 0.68422274090E+02 0.63501075716E+02 0.57123812217E+02
 0.49774930400E+02 0.42014614683E+02 0.34410707422E+02 0.27458775305E+02 0.21511236081E+02
 0.16737284189E+02 0.13125948422E+02 0.10553716900E+02 0.88659302250E+01 0.78864720263E+01
 0.74473499966E+01 0.74051555473E+01 0.76432092684E+01 0.80659674343E+01 0.85915861144E+01
 0.91464008622E+01 0.96629244916E+01 0.10081352454E+02 0.10353555188E+02 0.10447966512E+02
 0.10353555188E+02 0.10081352454E+02 0.96629244916E+01 0.91464008622E+01 0.85915861144E+01
 0.80659674343E+01 0.76432092684E+01 0.74051555473E+01 0.74473499966E+01 0.78864720263E+01
 0.88659302250E+01 0.10553716900E+02 0.13125948422E+02 0.16737284189E+02 0.21511236081E+02
 0.27458775305E+02 0.34410707422E+02 0.42014614683E+02 0.49774930400E+02 0.57123812217E+02
 0.63501075716E+02 0.68422274090E+02 0.71523317622E+02 0.52710668264E+02 0.51906314643E+02
 0.49561526565E+02 0.45876196635E+02 0.41165354642E+02 0.35827744436E+02 0.30298477384E+02
 0.24990879635E+02 0.20239318307E+02 0.16257790178E+02 0.13125948422E+02 0.10825361220E+02
 0.92916703601E+01 0.84217554635E+01 0.80997087246E+01 0.82149017791E+01 0.86686937448E+01
 0.93730889275E+01 0.10245555696E+02 0.11203565775E+02 0.12161434014E+02 0.13031140998E+02
 0.13727785138E+02 0.14178882903E+02 0.14335099072E+02 0.14178882903E+02 0.13727785138E+02
 0.13031140998E+02 0.12161434014E+02 0.11203565775E+02 0.10245555696E+02 0.93730889275E+01
 0.86686937448E+01 0.82149017791E+01 0.80997087246E+01 0.84217554635E+01 0.92916703601E+01
 0.10825361220E+02 0.13125948422E+02 0.16257790178E+02 0.20239318307E+02 0.24990879635E+02
 0.30298477384E+02 0.35827744436E+02 0.41165354642E+02 0.45876196635E+02 0.49561526565E+02
 0.51906314643E+02 0.36663972280E+02 0.36098730493E+02 0.34458159437E+02 0.31901427031E+02
 0.28672603363E+02 0.25069072295E+02 0.21400492284E+02 0.17945254756E+02 0.14914088830E+02
 0.12430927187E+02 0.10553716900E+02 0.92916703601E+01 0.86112439767E+01 0.84557320154E+01
 0.87602544260E+01 0.94595965599E+01 0.10489529761E+02 0.11783343426E+02 0.13265508882E+02
 0.14844796437E+02 0.16410074292E+02 0.17832540707E+02 0.18976981256E+02 0.19721360534E+02
 0.19979824517E+02 0.19721360534E+02 0.18976981256E+02 0.17832540707E+02 0.16410074292E+02
 0.14844796437E+02 0.13265508882E+02 0.11783343426E+02 0.10489529761E+02 0.94595965599E+01
 0.87602544260E+01 0.84557320154E+01 0.86112439767E+01 0.92916703601E+01 0.10553716900E+02
 0.12430927187E+02 0.14914088830E+02 0.17945254756E+02 0.21400492284E+02 0.25069072295E+02
 0.28672603363E+02 0.31901427031E+02 0.34458159437E+02 0.36098730493E+02 0.24698830423E+02
 0.24331203154E+02 0.23268387675E+02 0.21624706208E+02 0.19571684875E+02 0.17312004739E+02
 0.15048929815E+02 0.12957716095E+02 0.11172326930E+02 0.97899014379E+01 0.88659302250E+01
 0.84217554635E+01 0.84557320154E+01 0.89529365455E+01 0.98916368008E+01 0.11246040772E+02
 0.12984813661E+02 0.15064345204E+02 0.17416517306E+02 0.19933721995E+02 0.22457961103E+02
 0.24783032214E+02 0.26676230805E+02 0.27918388462E+02 0.28351647412E+02 0.27918388462E+02
 0.26676230805E+02 0.24783032214E+02 0.22457961103E+02 0.19933721995E+02 0.17416517306E+02
 0.15064345204E+02 0.12984813661E+02 0.11246040772E+02 0.98916368008E+01 0.89529365455E+01
 0.84557320154E+01 0.84217554635E+01 0.88659302250E+01 0.97899014379E+01 0.11172326930E+02
 0.12957716095E+02 0.15048929815E+02 0.17312004739E+02 0.19571684875E+02 0.21624706208E+02
 0.23268387675E+02 0.24331203154E+02 0.16383682231E+02 0.16161533764E+02 0.15521720149E+02
 0.14539451830E+02 0.13325475330E+02 0.12007835072E+02 0.10716676481E+02 0.95713968700E+01
 0.86706739160E+01 0.80903848280E+01 0.78864720263E+01 0.80997087246E+01 0.87602544260E+01
 0.98916368008E+01 0.11514337331E+02 0.13647615134E+02 0.16305663905E+02 0.19483113779E+02
 0.23127807681E+02 0.27106459153E+02 0.31178204917E+02 0.34995597492E+02 0.38146310933E+02
 0.40232142890E+02 0.40962889935E+02 0.40232142890E+02 0.38146310933E+02 0.34995597492E+02
 0.31178204917E+02 0.27106459153E+02 0.23127807681E+02 0.19483113779E+02 0.16305663905E+02
 0.13647615134E+02 0.11514337331E+02 0.98916368008E+01 0.87602544260E+01 0.80997087246E+01
 0.78864720263E+01 0.80903848280E+01 0.86706739160E+01 0.95713968700E+01 0.10716676481E+02
 0.12007835072E+02 0.13325475330E+02 0.14539451830E+02 0.15521720149E+02 0.16161533764E+02
 0.10891349932E+02 0.10765764759E+02 0.10406123252E+02 0.98605992679E+01 0.92002648116E+01
 0.85088373479E+01 0.78730449131E+01 0.73756949327E+01 0.70928299865E+01 0.70945931211E+01
 0.74473499966E+01 0.82149017791E+01 0.94595965599E+01 0.11246040772E+02 0.13647615134E+02
 0.16750474811E+02 0.20645209621E+02 0.25396012755E+02 0.30983714843E+02 0.37234329871E+02
 0.43764089687E+02 0.49980617003E+02 0.55164101417E+02 0.58616032692E+02 0.59828567847E+02
 0.58616032692E+02 0.55164101417E+02 0.49980617003E+02 0.43764089687E+02 0.37234329871E+02
 0.30983714843E+02 0.25396012755E+02 0.20645209621E+02 0.16750474811E+02 0.13647615134E+02
 0.11246040772E+02 0.94595965599E+01 0.82149017791E+01 0.74473499966E+01 0.70945931211E+01
 0.70928299865E+01 0.73756949327E+01 0.78730449131E+01 0.85088373479E+01 0.92002648116E+01
 0.98605992679E+01 0.10406123252E+02 0.10765764759E+02 0.73749971676E+01 0.73113503177E+01
 0.71318898023E+01 0.68683752023E+01 0.65670126783E+01 0.62831433363E+01 0.60777103935E+01
 0.60153309626E+01 0.61645990545E+01 0.66003541716E+01 0.74051555473E+01 0.86686937448E+01
 0.10489529761E+02 0.12984813661E+02 0.16305663905E+02 0.20645209621E+02 0.26220877051E+02
 0.33213730945E+02 0.41658842370E+02 0.51309853603E+02 0.61540422215E+02 0.71385501429E+02
 0.79762577757E+02 0.85463484731E+02 0.87491817713E+02 0.85463484731E+02 0.79762577757E+02
 0.71385501429E+02 0.61540422215E+02 0.51309853603E+02 0.41658842370E+02 0.33213730945E+02
 0.26220877051E+02 0.20645209621E+02 0.16305663905E+02 0.12984813661E+02 0.10489529761E+02
 0.86686937448E+01 0.74051555473E+01 0.66003541716E+01 0.61645990545E+01 0.60153309626E+01
 0.60777103935E+01 0.62831433363E+01 0.65670126783E+01 0.68683752023E+01 0.71318898023E+01
 0.73113503177E+01 0.51883214347E+01 0.51630736390E+01 0.50956029785E+01 0.50080131054E+01
 0.49317357379E+01 0.49062437718E+01 0.49802524214E+01 0.52126367817E+01 0.56740150576E+01
 0.64500265096E+01 0.76432092684E+01 0.93730889275E+01 0.11783343426E+02 0.15064345204E+02
 0.19483113779E+02 0.25396012755E+02 0.33213730945E+02 0.43289878421E+02 0.55723020970E+02
 0.70134982339E+02 0.85873978637E+02 0.10175307020E+03 0.11567414541E+03 0.12526499507E+03
 0.12869047575E+03 0.12526499507E+03 0.11567414541E+03 0.10175307020E+03 0.85873978637E+02
 0.70134982339E+02 0.55723020970E+02 0.43289878421E+02 0.33213730945E+02 0.25396012755E+02
 0.19483113779E+02 0.15064345204E+02 0.11783343426E+02 0.93730889275E+01 0.76432092684E+01
 0.64500265096E+01 0.56740150576E+01 0.52126367817E+01 0.49802524214E+01 0.49062437718E+01
 0.49317357379E+01 0.50080131054E+01 0.50956029785E+01 0.51630736390E+01 0.38509909955E+01
 0.38489154127E+01 0.38494818620E+01 0.38698177856E+01 0.39333260603E+01 0.40717878017E+01
 0.43303727935E+01 0.47698254870E+01 0.54681335331E+01 0.65250557305E+01 0.80659674343E+01
 0.10245555696E+02 0.13265508882E+02 0.17416517306E+02 0.23127807681E+02 0.30983714843E+02
 0.41658842370E+02 0.55723020970E+02 0.73346402737E+02 0.94677243946E+02 0.11908773747E+03
 0.14410126867E+03 0.16599070439E+03 0.18096158676E+03 0.18627958446E+03 0.18096158676E+03
 0.16599070439E+03 0.14410126867E+03 0.11908773747E+03 0.94677243946E+02 0.73346402737E+02
 0.55723020970E+02 0.41658842370E+02 0.30983714843E+02 0.23127807681E+02 0.17416517306E+02
 0.13265508882E+02 0.10245555696E+02 0.80659674343E+01 0.65250557305E+01 0.54681335331E+01
 0.47698254870E+01 0.43303727935E+01 0.40717878017E+01 0.39333260603E+01 0.38698177856E+01
 0.38494818620E+01 0.38489154127E+01 0.30397374445E+01 0.30515567451E+01 0.30934227167E+01
 0.31803781933E+01 0.33318365627E+01 0.35766898853E+01 0.39615472921E+01 0.45531189129E+01
 0.54392701226E+01 0.67353256858E+01 0.85915861144E+01 0.11203565775E+02 0.14844796437E+02
 0.19933721995E+02 0.27106459153E+02 0.37234329871E+02 0.51309853603E+02 0.70134982339E+02
 0.94677243946E+02 0.12572533091E+03 0.16153705850E+03 0.19777596897E+03 0.22885747236E+03
 0.24971758197E+03 0.25704448705E+03 0.24971758197E+03 0.22885747236E+03 0.19777596897E+03
 0.16153705850E+03 0.12572533091E+03 0.94677243946E+02 0.70134982339E+02 0.51309853603E+02
 0.37234329871E+02 0.27106459153E+02 0.19933721995E+02 0.14844796437E+02 0.11203565775E+02
 0.85915861144E+01 0.67353256858E+01 0.54392701226E+01 0.45531189129E+01 0.39615472921E+01
 0.35766898853E+01 0.33318365627E+01 0.31803781933E+01 0.30934227167E+01 0.30515567451E+01
 0.25522479444E+01 0.25724433265E+01 0.26396653257E+01 0.27684829810E+01 0.29765310137E+01
 0.32923335573E+01 0.37663492042E+01 0.44729059265E+01 0.55103134147E+01 0.70094589772E+01
 0.91464008622E+01 0.12161434014E+02 0.16410074292E+02 0.22457961103E+02 0.31178204917E+02
 0.43764089687E+02 0.61540422215E+02 0.85873978637E+02 0.11908773747E+03 0.16153705850E+03
 0.20976769871E+03 0.25725669528E+03 0.29673535527E+03 0.32251039226E+03 0.33141615702E+03
 0.32251039226E+03 0.29673535527E+03 0.25725669528E+03 0.20976769871E+03 0.16153705850E+03
 0.11908773747E+03 0.85873978637E+02 0.61540422215E+02 0.43764089687E+02 0.31178204917E+02
 0.22457961103E+02 0.16410074292E+02 0.12161434014E+02 0.91464008622E+01 0.70094589772E+01
 0.55103134147E+01 0.44729059265E+01 0.37663492042E+01 0.32923335573E+01 0.29765310137E+01
 0.27684829810E+01 0.26396653257E+01 0.25724433265E+01 0.22658562440E+01 0.22910975418E+01
 0.23739548478E+01 0.25292964818E+01 0.27740912149E+01 0.31376010377E+01 0.36748079395E+01
 0.44676040704E+01 0.56239125672E+01 0.72888239920E+01 0.96629244916E+01 0.13031140998E+02
 0.17832540707E+02 0.24783032214E+02 0.34995597492E+02 0.49980617003E+02 0.71385501429E+02
 0.10175307020E+03 0.14410126867E+03 0.19777596897E+03 0.25725669528E+03 0.31384087887E+03
 0.35910004544E+03 0.38762254359E+03 0.39726413674E+03 0.38762254359E+03 0.35910004544E+03
 0.31384087887E+03 0.25725669528E+03 0.19777596897E+03 0.14410126867E+03 0.10175307020E+03
 0.71385501429E+02 0.49980617003E+02 0.34995597492E+02 0.24783032214E+02 0.17832540707E+02
 0.13031140998E+02 0.96629244916E+01 0.72888239920E+01 0.56239125672E+01 0.44676040704E+01
 0.36748079395E+01 0.31376010377E+01 0.27740912149E+01 0.25292964818E+01 0.23739548478E+01
 0.22910975418E+01 0.21058902114E+01 0.21340698014E+01 0.22262689760E+01 0.23979030711E+01
 0.26657828480E+01 0.30601786001E+01 0.36400961989E+01 0.44937119569E+01 0.57366534350E+01
 0.75254838262E+01 0.10081352454E+02 0.13727785138E+02 0.18976981256E+02 0.26676230805E+02
 0.38146310933E+02 0.55164101417E+02 0.79762577757E+02 0.11567414541E+03 0.16599070439E+03
 0.22885747236E+03 0.29673535527E+03 0.35910004544E+03 0.40698613928E+03 0.43597932077E+03
 0.44552566124E+03 0.43597932077E+03 0.40698613928E+03 0.35910004544E+03 0.29673535527E+03
 0.22885747236E+03 0.16599070439E+03 0.11567414541E+03 0.79762577757E+02 0.55164101417E+02
 0.38146310933E+02 0.26676230805E+02 0.18976981256E+02 0.13727785138E+02 0.10081352454E+02
 0.75254838262E+01 0.57366534350E+01 0.44937119569E+01 0.36400961989E+01 0.30601786001E+01
 0.26657828480E+01 0.23979030711E+01 0.22262689760E+01 0.21340698014E+01 0.20267661140E+01
 0.20564616014E+01 0.21535967141E+01 0.23340497355E+01 0.26146548940E+01 0.30264711779E+01
 0.36312379552E+01 0.45212622310E+01 0.58171454880E+01 0.76829354209E+01 0.10353555188E+02
 0.14178882903E+02 0.19721360534E+02 0.27918388462E+02 0.40232142890E+02 0.58616032692E+02
 0.85463484731E+02 0.12526499507E+03 0.18096158676E+03 0.24971758197E+03 0.32251039226E+03
 0.38762254359E+03 0.43597932077E+03 0.46424778961E+03 0.47333013936E+03 0.46424778961E+03
 0.43597932077E+03 0.38762254359E+03 0.32251039226E+03 0.24971758197E+03 0.18096158676E+03
 0.12526499507E+03 0.85463484731E+02 0.58616032692E+02 0.40232142890E+02 0.27918388462E+02
 0.19721360534E+02 0.14178882903E+02 0.10353555188E+02 0.76829354209E+01 0.58171454880E+01
 0.45212622310E+01 0.36312379552E+01 0.30264711779E+01 0.26146548940E+01 0.23340497355E+01
 0.21535967141E+01 0.20564616014E+01 0.20031349648E+01 0.20332950124E+01 0.21319659704E+01
 0.23152040432E+01 0.25998713379E+01 0.30173206252E+01 0.36302566908E+01 0.45324246332E+01
 0.58461441214E+01 0.77380653590E+01 0.10447966512E+02 0.14335099072E+02 0.19979824517E+02
 0.28351647412E+02 0.40962889935E+02 0.59828567847E+02 0.87491817713E+02 0.12869047575E+03
 0.18627958446E+03 0.25704448705E+03 0.33141615702E+03 0.39726413674E+03 0.44552566124E+03
 0.47333013936E+03 0.48216905250E+03 0.47333013936E+03 0.44552566124E+03 0.39726413674E+03
 0.33141615702E+03 0.25704448705E+03 0.18627958446E+03 0.12869047575E+03 0.87491817713E+02
 0.59828567847E+02 0.40962889935E+02 0.28351647412E+02 0.19979824517E+02 0.14335099072E+02
 0.10447966512E+02 0.77380653590E+01 0.58461441214E+01 0.45324246332E+01 0.36302566908E+01
 0.30173206252E+01 0.25998713379E+01 0.23152040432E+01 0.21319659704E+01 0.20332950124E+01
 0.20267661140E+01 0.20564616014E+01 0.21535967141E+01 0.23340497355E+01 0.26146548940E+01
 0.30264711779E+01 0.36312379552E+01 0.45212622310E+01 0.58171454880E+01 0.76829354209E+01
 0.10353555188E+02 0.14178882903E+02 0.19721360534E+02 0.27918388462E+02 0.40232142890E+02
 0.58616032692E+02 0.85463484731E+02 0.12526499507E+03 0.18096158676E+03 0.24971758197E+03
 0.32251039226E+03 0.38762254359E+03 0.43597932077E+03 0.46424778961E+03 0.47333013936E+03
 0.46424778961E+03 0.43597932077E+03 0.38762254359E+03 0.32251039226E+03 0.24971758197E+03
 0.18096158676E+03 0.12526499507E+03 0.85463484731E+02 0.58616032692E+02 0.40232142890E+02
 0.27918388462E+02 0.19721360534E+02 0.14178882903E+02 0.10353555188E+02 0.76829354209E+01
 0.58171454880E+01 0.45212622310E+01 0.36312379552E+01 0.30264711779E+01 0.26146548940E+01
 0.23340497355E+01 0.21535967141E+01 0.20564616014E+01 0.21058902114E+01 0.21340698014E+01
 0.22262689760E+01 0.23979030711E+01 0.26657828480E+01 0.30601786001E+01 0.36400961989E+01
 0.44937119569E+01 0.57366534350E+01 0.75254838262E+01 0.10081352454E+02 0.13727785138E+02
 0.18976981256E+02 0.26676230805E+02 0.38146310933E+02 0.55164101417E+02 0.79762577757E+02
 0.11567414541E+03 0.16599070439E+03 0.22885747236E+03 0.29673535527E+03 0.35910004544E+03
 0.40698613928E+03 0.43597932077E+03 0.44552566124E+03 0.43597932077E+03 0.40698613928E+03
 0.35910004544E+03 0.29673535527E+03 0.22885747236E+03 0.16599070439E+03 0.11567414541E+03
 0.79762577757E+02 0.55164101417E+02 0.38146310933E+02 0.26676230805E+02 0.18976981256E+02
 0.13727785138E+02 0.10081352454E+02 0.75254838262E+01 0.57366534350E+01 0.44937119569E+01
 0.36400961989E+01 0.30601786001E+01 0.26657828480E+01 0.23979030711E+01 0.22262689760E+01
 0.21340698014E+01 0.22658562440E+01 0.22910975418E+01 0.23739548478E+01 0.25292964818E+01
 0.27740912149E+01 0.31376010377E+01 0.36748079395E+01 0.44676040704E+01 0.56239125672E+01
 0.72888239920E+01 0.96629244916E+01 0.13031140998E+02 0.17832540707E+02 0.24783032214E+02
 0.34995597492E+02 0.49980617003E+02 0.71385501429E+02 0.10175307020E+03 0.14410126867E+03
 0.19777596897E+03 0.25725669528E+03 0.31384087887E+03 0.35910004544E+03 0.38762254359E+03
 0.39726413674E+03 0.38762254359E+03 0.35910004544E+03 0.31384087887E+03 0.25725669528E+03
 0.19777596897E+03 0.14410126867E+03 0.10175307020E+03 0.71385501429E+02 0.49980617003E+02
 0.34995597492E+02 0.24783032214E+02 0.17832540707E+02 0.13031140998E+02 0.96629244916E+01
 0.72888239920E+01 0.56239125672E+01 0.44676040704E+01 0.36748079395E+01 0.31376010377E+01
 0.27740912149E+01 0.25292964818E+01 0.23739548478E+01 0.22910975418E+01 0.25522479444E+01
 0.25724433265E+01 0.26396653257E+01 0.27684829810E+01 0.29765310137E+01 0.32923335573E+01
 0.37663492042E+01 0.44729059265E+01 0.55103134147E+01 0.70094589772E+01 0.91464008622E+01
 0.12161434014E+02 0.16410074292E+02 0.22457961103E+02 0.31178204917E+02 0.43764089687E+02
 0.61540422215E+02 0.85873978637E+02 0.11908773747E+03 0.16153705850E+03 0.20976769871E+03
 0.25725669528E+03 0.29673535527E+03 0.32251039226E+03 0.33141615702E+03 0.32251039226E+03
 0.29673535527E+03 0.25725669528E+03 0.20976769871E+03 0.16153705850E+03 0.11908773747E+03
 0.85873978637E+02 0.61540422215E+02 0.43764089687E+02 0.31178204917E+02 0.22457961103E+02
 0.16410074292E+02 0.12161434014E+02 0.91464008622E+01 0.70094589772E+01 0.55103134147E+01
 0.44729059265E+01 0.37663492042E+01 0.32923335573E+01 0.29765310137E+01 0.27684829810E+01
 0.26396653257E+01 0.25724433265E+01 0.30397374445E+01 0.30515567451E+01 0.30934227167E+01
 0.31803781933E+01 0.33318365627E+01 0.35766898853E+01 0.39615472921E+01 0.45531189129E+01
 0.54392701226E+01 0.67353256858E+01 0.85915861144E+01 0.11203565775E+02 0.14844796437E+02
 0.19933721995E+02 0.27106459153E+02 0.37234329871E+02 0.51309853603E+02 0.70134982339E+02
 0.94677243946E+02 0.12572533091E+03 0.16153705850E+03 0.19777596897E+03 0.22885747236E+03
 0.24971758197E+03 0.25704448705E+03 0.24971758197E+03 0.22885747236E+03 0.19777596897E+03
 0.16153705850E+03 0.12572533091E+03 0.94677243946E+02 0.70134982339E+02 0.51309853603E+02
 0.37234329871E+02 0.27106459153E+02 0.19933721995E+02 0.14844796437E+02 0.11203565775E+02
 0.85915861144E+01 0.67353256858E+01 0.54392701226E+01 0.45531189129E+01 0.39615472921E+01
 0.35766898853E+01 0.33318365627E+01 0.31803781933E+01 0.30934227167E+01 0.30515567451E+01
 0.38509909955E+01 0.38489154127E+01 0.38494818620E+01 0.38698177856E+01 0.39333260603E+01
 0.40717878017E+01 0.43303727935E+01 0.47698254870E+01 0.54681335331E+01 0.65250557305E+01
 0.80659674343E+01 0.10245555696E+02 0.13265508882E+02 0.17416517306E+02 0.23127807681E+02
 0.30983714843E+02 0.41658842370E+02 0.55723020970E+02 0.73346402737E+02 0.94677243946E+02
 0.11908773747E+03 0.14410126867E+03 0.16599070439E+03 0.18096158676E+03 0.18627958446E+03
 0.18096158676E+03 0.16599070439E+03 0.14410126867E+03 0.11908773747E+03 0.94677243946E+02
 0.73346402737E+02 0.55723020970E+02 0.41658842370E+02 0.30983714843E+02 0.23127807681E+02
 0.17416517306E+02 0.13265508882E+02 0.10245555696E+02 0.80659674343E+01 0.65250557305E+01
 0.54681335331E+01 0.47698254870E+01 0.43303727935E+01 0.40717878017E+01 0.39333260603E+01
 0.38698177856E+01 0.38494818620E+01 0.38489154127E+01 0.51883214347E+01 0.51630736390E+01
 0.50956029785E+01 0.50080131054E+01 0.49317357379E+01 0.49062437718E+01 0.49802524214E+01
 0.52126367817E+01 0.56740150576E+01 0.64500265096E+01 0.76432092684E+01 0.93730889275E+01
 0.11783343426E+02 0.15064345204E+02 0.19483113779E+02 0.25396012755E+02 0.33213730945E+02
 0.43289878421E+02 0.55723020970E+02 0.70134982339E+02 0.85873978637E+02 0.10175307020E+03
 0.11567414541E+03 0.12526499507E+03 0.12869047575E+03 0.12526499507E+03 0.11567414541E+03
 0.10175307020E+03 0.85873978637E+02 0.70134982339E+02 0.55723020970E+02 0.43289878421E+02
 0.33213730945E+02 0.25396012755E+02 0.19483113779E+02 0.15064345204E+02 0.11783343426E+02
 0.93730889275E+01 0.76432092684E+01 0.64500265096E+01 0.56740150576E+01 0.52126367817E+01
 0.49802524214E+01 0.49062437718E+01 0.49317357379E+01 0.50080131054E+01 0.50956029785E+01
 0.51630736390E+01 0.73749971676E+01 0.73113503177E+01 0.71318898023E+01 0.68683752023E+01
 0.65670126783E+01 0.62831433363E+01 0.60777103935E+01 0.60153309626E+01 0.61645990545E+01
 0.66003541716E+01 0.74051555473E+01 0.86686937448E+01 0.10489529761E+02 0.12984813661E+02
 0.16305663905E+02 0.20645209621E+02 0.26220877051E+02 0.33213730945E+02 0.41658842370E+02
 0.51309853603E+02 0.61540422215E+02 0.71385501429E+02 0.79762577757E+02 0.85463484731E+02
 0.87491817713E+02 0.85463484731E+02 0.79762577757E+02 0.71385501429E+02 0.61540422215E+02
 0.51309853603E+02 0.41658842370E+02 0.33213730945E+02 0.26220877051E+02 0.20645209621E+02
 0.16305663905E+02 0.12984813661E+02 0.10489529761E+02 0.86686937448E+01 0.74051555473E+01
 0.66003541716E+01 0.61645990545E+01 0.60153309626E+01 0.60777103935E+01 0.62831433363E+01
 0.65670126783E+01 0.68683752023E+01 0.71318898023E+01 0.73113503177E+01 0.10891349932E+02
 0.10765764759E+02 0.10406123252E+02 0.98605992679E+01 0.92002648116E+01 0.85088373479E+01
 0.78730449131E+01 0.73756949327E+01 0.70928299865E+01 0.70945931211E+01 0.74473499966E+01
 0.82149017791E+01 0.94595965599E+01 0.11246040772E+02 0.13647615134E+02 0.16750474811E+02
 0.20645209621E+02 0.25396012755E+02 0.30983714843E+02 0.37234329871E+02 0.43764089687E+02
 0.49980617003E+02 0.55164101417E+02 0.58616032692E+02 0.59828567847E+02 0.58616032692E+02
 0.55164101417E+02 0.49980617003E+02 0.43764089687E+02 0.37234329871E+02 0.30983714843E+02
 0.25396012755E+02 0.20645209621E+02 0.16750474811E+02 0.13647615134E+02 0.11246040772E+02
 0.94595965599E+01 0.82149017791E+01 0.74473499966E+01 0.70945931211E+01 0.70928299865E+01