   5   5   0   0
  0.1191194E+02  0.3905268E-09  0.3905268E-09  0.3905268E-09  0.5000000E-15
  1.000000000000000E-004
  CAR 
 unknown system                          
     12.62412134    -32.11315293  301      2.55823463      1.00000000
    -32.113  0.0000E+00  0.0000E+00
    -31.964  0.0000E+00  0.0000E+00
    -31.815  0.0000E+00  0.0000E+00
    -31.666  0.0000E+00  0.0000E+00
    -31.517  0.0000E+00  0.0000E+00
    -31.368  0.0000E+00  0.0000E+00
    -31.218  0.0000E+00  0.0000E+00
    -31.069  0.0000E+00  0.0000E+00
    -30.920  0.0000E+00  0.0000E+00
    -30.771  0.0000E+00  0.0000E+00
    -30.622  0.0000E+00  0.0000E+00
    -30.473  0.0000E+00  0.0000E+00
    -30.324  0.0000E+00  0.0000E+00
    -30.175  0.0000E+00  0.0000E+00
    -30.025  0.1333E+02  0.1959E+01
    -29.876  0.0000E+00  0.2000E+01
    -29.727  0.0000E+00  0.2000E+01
    -29.578  0.0000E+00  0.2000E+01
    -29.429  0.0000E+00  0.2000E+01
    -29.280  0.0000E+00  0.2000E+01
    -29.131  0.0000E+00  0.2000E+01
    -28.982  0.0000E+00  0.2000E+01
    -28.832  0.0000E+00  0.2000E+01
    -28.683  0.0000E+00  0.2000E+01
    -28.534  0.0000E+00  0.2000E+01
    -28.385  0.0000E+00  0.2000E+01
    -28.236  0.0000E+00  0.2000E+01
    -28.087  0.0000E+00  0.2000E+01
    -27.938  0.0000E+00  0.2000E+01
    -27.789  0.0000E+00  0.2000E+01
    -27.639  0.0000E+00  0.2000E+01
    -27.490  0.0000E+00  0.2000E+01
    -27.341  0.0000E+00  0.2000E+01
    -27.192  0.0000E+00  0.2000E+01
    -27.043  0.0000E+00  0.2000E+01
    -26.894  0.0000E+00  0.2000E+01
    -26.745  0.0000E+00  0.2000E+01
    -26.596  0.0000E+00  0.2000E+01
    -26.446  0.0000E+00  0.2000E+01
    -26.297  0.0000E+00  0.2000E+01
    -26.148  0.0000E+00  0.2000E+01
    -25.999  0.0000E+00  0.2000E+01
    -25.850  0.0000E+00  0.2000E+01
    -25.701  0.0000E+00  0.2000E+01
    -25.552  0.0000E+00  0.2000E+01
    -25.403  0.0000E+00  0.2000E+01
    -25.253  0.0000E+00  0.2000E+01
    -25.104  0.0000E+00  0.2000E+01
    -24.955  0.0000E+00  0.2000E+01
    -24.806  0.0000E+00  0.2000E+01
    -24.657  0.0000E+00  0.2000E+01
    -24.508  0.0000E+00  0.2000E+01
    -24.359  0.0000E+00  0.2000E+01
    -24.210  0.0000E+00  0.2000E+01
    -24.060  0.0000E+00  0.2000E+01
    -23.911  0.0000E+00  0.2000E+01
    -23.762  0.0000E+00  0.2000E+01
    -23.613  0.0000E+00  0.2000E+01
    -23.464  0.0000E+00  0.2000E+01
    -23.315  0.0000E+00  0.2000E+01
    -23.166  0.0000E+00  0.2000E+01
    -23.017  0.0000E+00  0.2000E+01
    -22.867  0.0000E+00  0.2000E+01
    -22.718  0.0000E+00  0.2000E+01
    -22.569  0.0000E+00  0.2000E+01
    -22.420  0.0000E+00  0.2000E+01
    -22.271  0.0000E+00  0.2000E+01
    -22.122  0.0000E+00  0.2000E+01
    -21.973  0.0000E+00  0.2000E+01
    -21.824  0.0000E+00  0.2000E+01
    -21.674  0.0000E+00  0.2000E+01
    -21.525  0.0000E+00  0.2000E+01
    -21.376  0.0000E+00  0.2000E+01
    -21.227  0.0000E+00  0.2000E+01
    -21.078  0.0000E+00  0.2000E+01
    -20.929  0.0000E+00  0.2000E+01
    -20.780  0.0000E+00  0.2000E+01
    -20.631  0.0000E+00  0.2000E+01
    -20.481  0.0000E+00  0.2000E+01
    -20.332  0.0000E+00  0.2000E+01
    -20.183  0.0000E+00  0.2000E+01
    -20.034  0.0000E+00  0.2000E+01
    -19.885  0.0000E+00  0.2000E+01
    -19.736  0.0000E+00  0.2000E+01
    -19.587  0.0000E+00  0.2000E+01
    -19.438  0.0000E+00  0.2000E+01
    -19.288  0.0000E+00  0.2000E+01
    -19.139  0.0000E+00  0.2000E+01
    -18.990  0.0000E+00  0.2000E+01
    -18.841  0.0000E+00  0.2000E+01
    -18.692  0.0000E+00  0.2000E+01
    -18.543  0.0000E+00  0.2000E+01
    -18.394  0.0000E+00  0.2000E+01
    -18.245  0.0000E+00  0.2000E+01
    -18.095  0.0000E+00  0.2000E+01
    -17.946  0.0000E+00  0.2000E+01
    -17.797  0.0000E+00  0.2000E+01
    -17.648  0.0000E+00  0.2000E+01
    -17.499  0.0000E+00  0.2000E+01
    -17.350  0.0000E+00  0.2000E+01
    -17.201  0.0000E+00  0.2000E+01
    -17.052  0.0000E+00  0.2000E+01
    -16.902  0.0000E+00  0.2000E+01
    -16.753  0.0000E+00  0.2000E+01
    -16.604  0.0000E+00  0.2000E+01
    -16.455  0.0000E+00  0.2000E+01
    -16.306  0.0000E+00  0.2000E+01
    -16.157  0.0000E+00  0.2000E+01
    -16.008  0.0000E+00  0.2000E+01
    -15.859  0.0000E+00  0.2000E+01
    -15.709  0.0000E+00  0.2000E+01
    -15.560  0.0000E+00  0.2000E+01
    -15.411  0.0000E+00  0.2000E+01
    -15.262  0.0000E+00  0.2000E+01
    -15.113  0.0000E+00  0.2000E+01
    -14.964  0.3164E+00  0.2005E+01
    -14.815  0.6470E+01  0.2325E+01
    -14.666  0.2693E+01  0.2955E+01
    -14.516  0.2125E+01  0.3299E+01
    -14.367  0.1892E+01  0.3613E+01
    -14.218  0.8628E+00  0.3814E+01
    -14.069  0.5433E+00  0.3918E+01
    -13.920  0.5378E+01  0.4301E+01
    -13.771  0.1670E+02  0.6453E+01
    -13.622  0.0000E+00  0.8000E+01
    -13.473  0.0000E+00  0.8000E+01
    -13.323  0.0000E+00  0.8000E+01
    -13.174  0.0000E+00  0.8000E+01
    -13.025  0.0000E+00  0.8000E+01
    -12.876  0.0000E+00  0.8000E+01
    -12.727  0.0000E+00  0.8000E+01
    -12.578  0.0000E+00  0.8000E+01
    -12.429  0.0000E+00  0.8000E+01
    -12.280  0.1811E+01  0.8067E+01
    -12.131  0.1538E+02  0.8985E+01
    -11.981  0.9197E+01  0.1094E+02
    -11.832  0.8569E+01  0.1244E+02
    -11.683  0.4657E+01  0.1385E+02
    -11.534  0.0000E+00  0.1400E+02
    -11.385  0.0000E+00  0.1400E+02
    -11.236  0.0000E+00  0.1400E+02
    -11.087  0.0000E+00  0.1400E+02
    -10.938  0.0000E+00  0.1400E+02
    -10.788  0.0000E+00  0.1400E+02
    -10.639  0.0000E+00  0.1400E+02
    -10.490  0.0000E+00  0.1400E+02
    -10.341  0.0000E+00  0.1400E+02
    -10.192  0.0000E+00  0.1400E+02
    -10.043  0.0000E+00  0.1400E+02
     -9.894  0.0000E+00  0.1400E+02
     -9.745  0.0000E+00  0.1400E+02
     -9.595  0.0000E+00  0.1400E+02
     -9.446  0.0000E+00  0.1400E+02
     -9.297  0.0000E+00  0.1400E+02
     -9.148  0.0000E+00  0.1400E+02
     -8.999  0.0000E+00  0.1400E+02
     -8.850  0.0000E+00  0.1400E+02
     -8.701  0.0000E+00  0.1400E+02
     -8.552  0.0000E+00  0.1400E+02
     -8.402  0.0000E+00  0.1400E+02
     -8.253  0.0000E+00  0.1400E+02
     -8.104  0.0000E+00  0.1400E+02
     -7.955  0.0000E+00  0.1400E+02
     -7.806  0.0000E+00  0.1400E+02
     -7.657  0.0000E+00  0.1400E+02
     -7.508  0.0000E+00  0.1400E+02
     -7.359  0.0000E+00  0.1400E+02
     -7.209  0.0000E+00  0.1400E+02
     -7.060  0.0000E+00  0.1400E+02
     -6.911  0.0000E+00  0.1400E+02
     -6.762  0.0000E+00  0.1400E+02
     -6.613  0.0000E+00  0.1400E+02
     -6.464  0.0000E+00  0.1400E+02
     -6.315  0.0000E+00  0.1400E+02
     -6.166  0.0000E+00  0.1400E+02
     -6.016  0.0000E+00  0.1400E+02
     -5.867  0.0000E+00  0.1400E+02
     -5.718  0.0000E+00  0.1400E+02
     -5.569  0.0000E+00  0.1400E+02
     -5.420  0.0000E+00  0.1400E+02
     -5.271  0.0000E+00  0.1400E+02
     -5.122  0.0000E+00  0.1400E+02
     -4.973  0.0000E+00  0.1400E+02
     -4.823  0.0000E+00  0.1400E+02
     -4.674  0.0000E+00  0.1400E+02
     -4.525  0.0000E+00  0.1400E+02
     -4.376  0.0000E+00  0.1400E+02
     -4.227  0.0000E+00  0.1400E+02
     -4.078  0.0000E+00  0.1400E+02
     -3.929  0.0000E+00  0.1400E+02
     -3.780  0.0000E+00  0.1400E+02
     -3.630  0.0000E+00  0.1400E+02
     -3.481  0.0000E+00  0.1400E+02
     -3.332  0.0000E+00  0.1400E+02
     -3.183  0.0000E+00  0.1400E+02
     -3.034  0.0000E+00  0.1400E+02
     -2.885  0.0000E+00  0.1400E+02
     -2.736  0.0000E+00  0.1400E+02
     -2.587  0.0000E+00  0.1400E+02
     -2.437  0.0000E+00  0.1400E+02
     -2.288  0.0000E+00  0.1400E+02
     -2.139  0.0000E+00  0.1400E+02
     -1.990  0.0000E+00  0.1400E+02
     -1.841  0.9440E+00  0.1400E+02
     -1.692  0.4907E+01  0.1464E+02
     -1.543  0.2812E+01  0.1542E+02
     -1.394  0.3997E+01  0.1627E+02
     -1.244  0.3620E+01  0.1684E+02
     -1.095  0.3571E+01  0.1739E+02
     -0.946  0.3990E+01  0.1802E+02
     -0.797  0.4270E+01  0.1863E+02
     -0.648  0.5524E+01  0.1933E+02
     -0.499  0.7290E+01  0.2033E+02
     -0.350  0.7307E+01  0.2142E+02
     -0.201  0.3616E+01  0.2241E+02
     -0.051  0.3430E+01  0.2294E+02
      0.098  0.2986E+01  0.2343E+02
      0.247  0.2838E+01  0.2386E+02
      0.396  0.3048E+01  0.2425E+02
      0.545  0.3202E+01  0.2473E+02
      0.694  0.3309E+01  0.2521E+02
      0.843  0.1999E+01  0.2559E+02
      0.992  0.1253E+01  0.2583E+02
      1.142  0.1971E+01  0.2605E+02
      1.291  0.3265E+01  0.2646E+02
      1.440  0.5250E+01  0.2721E+02
      1.589  0.7793E+01  0.2811E+02
      1.738  0.3608E+01  0.2910E+02
      1.887  0.6828E+01  0.3018E+02
      2.036  0.3441E+01  0.3088E+02
      2.185  0.2311E+01  0.3130E+02
      2.335  0.1706E+01  0.3160E+02
      2.484  0.1319E+01  0.3196E+02
      2.633  0.0000E+00  0.3200E+02
      2.782  0.0000E+00  0.3200E+02
      2.931  0.0000E+00  0.3200E+02
      3.080  0.0000E+00  0.3200E+02
      3.229  0.0000E+00  0.3200E+02
      3.378  0.0000E+00  0.3200E+02
      3.528  0.0000E+00  0.3200E+02
      3.677  0.0000E+00  0.3200E+02
      3.826  0.0000E+00  0.3200E+02
      3.975  0.0000E+00  0.3200E+02
      4.124  0.0000E+00  0.3200E+02
      4.273  0.0000E+00  0.3200E+02
      4.422  0.1536E+00  0.3201E+02
      4.571  0.3656E+00  0.3204E+02
      4.721  0.6294E+00  0.3212E+02
      4.870  0.8980E+00  0.3223E+02
      5.019  0.1171E+01  0.3239E+02
      5.168  0.2299E+01  0.3261E+02
      5.317  0.2265E+01  0.3295E+02
      5.466  0.2282E+01  0.3329E+02
      5.615  0.2355E+01  0.3364E+02
      5.764  0.2647E+01  0.3401E+02
      5.914  0.2955E+01  0.3443E+02
      6.063  0.3278E+01  0.3489E+02
      6.212  0.7416E+01  0.3615E+02
      6.361  0.3612E+01  0.3693E+02
      6.510  0.2970E+01  0.3742E+02
      6.659  0.1905E+01  0.3787E+02
      6.808  0.0000E+00  0.3800E+02
      6.957  0.0000E+00  0.3800E+02
      7.107  0.0000E+00  0.3800E+02
      7.256  0.0000E+00  0.3800E+02
      7.405  0.0000E+00  0.3800E+02
      7.554  0.0000E+00  0.3800E+02
      7.703  0.0000E+00  0.3800E+02
      7.852  0.0000E+00  0.3800E+02
      8.001  0.0000E+00  0.3800E+02
      8.150  0.3651E-02  0.3800E+02
      8.300  0.1867E-01  0.3800E+02
      8.449  0.4530E-01  0.3801E+02
      8.598  0.8355E-01  0.3802E+02
      8.747  0.1327E+00  0.3803E+02
      8.896  0.1867E+00  0.3806E+02
      9.045  0.2443E+00  0.3809E+02
      9.194  0.3054E+00  0.3813E+02
      9.343  0.3679E+00  0.3818E+02
      9.493  0.4500E+00  0.3824E+02
      9.642  0.5688E+00  0.3831E+02
      9.791  0.7145E+00  0.3841E+02
      9.940  0.1134E+01  0.3854E+02
     10.089  0.1824E+01  0.3880E+02
     10.238  0.2372E+01  0.3911E+02
     10.387  0.2951E+01  0.3951E+02
     10.536  0.1345E+01  0.3995E+02
     10.686  0.0000E+00  0.4000E+02
     10.835  0.0000E+00  0.4000E+02
     10.984  0.0000E+00  0.4000E+02
     11.133  0.0000E+00  0.4000E+02
     11.282  0.0000E+00  0.4000E+02
     11.431  0.0000E+00  0.4000E+02
     11.580  0.0000E+00  0.4000E+02
     11.729  0.0000E+00  0.4000E+02
     11.879  0.0000E+00  0.4000E+02
     12.028  0.0000E+00  0.4000E+02
     12.177  0.0000E+00  0.4000E+02
     12.326  0.0000E+00  0.4000E+02
     12.475  0.0000E+00  0.4000E+02
     12.624  0.0000E+00  0.4000E+02
