 vasp.5.4.4.18Apr17-6-g9f103f2a35 (build Jun 30 2017 11:15:00) complex          
  
 executed on    STALLO_VASP_5.4.4 date 2019.10.26  17:42:27
 running on    4 total cores
 distrk:  each k-point on    4 cores,    1 groups
 distr:  one band on NCORES_PER_BAND=   2 cores,    2 groups


--------------------------------------------------------------------------------------------------------


 INCAR:
 POTCAR:   PAW_PBE Sr_sv 07Sep2000                
 POTCAR:   PAW_PBE Ti 08Apr2002                   
 POTCAR:   PAW_PBE O 08Apr2002                    
 POTCAR:   PAW_PBE Sr_sv 07Sep2000                
   VRHFIN =Sr: 4s4p5s                                                           
   LEXCH  = PE                                                                  
   EATOM  =   842.4562 eV,   61.9188 Ry                                         
                                                                                
   TITEL  = PAW_PBE Sr_sv 07Sep2000                                             
   LULTRA =        F    use ultrasoft PP ?                                      
   IUNSCR =        1    unscreen: 0-lin 1-nonlin 2-no                           
   RPACOR =    2.200    partial core radius                                     
   POMASS =   87.620; ZVAL   =   10.000    mass and valenz                      
   RCORE  =    2.500    outmost cutoff radius                                   
   RWIGS  =    4.040; RWIGS  =    2.138    wigner-seitz radius (au A)           
   ENMAX  =  229.282; ENMIN  =  171.961 eV                                      
   RCLOC  =    2.201    cutoff for local pot                                    
   LCOR   =        T    correct aug charges                                     
   LPAW   =        T    paw PP                                                  
   EAUG   =  366.804                                                            
   DEXC   =     .000                                                            
   RMAX   =    3.045    core radius for proj-oper                               
   RAUG   =    1.300    factor for augmentation sphere                          
   RDEP   =    2.562    radius for radial grids                                 
   QCUT   =   -4.105; QGAM   =    8.210    optimization parameters              
                                                                                
   Description                                                                  
     l     E      TYP  RCUT    TYP  RCUT                                        
     0   .000     23  2.480                                                     
     0   .000     23  2.480                                                     
     1   .000     23  2.500                                                     
     1   .000     23  2.500                                                     
     2   .000     23  2.500                                                     
     2   .000     23  2.500                                                     
  local pseudopotential read in
  partial core-charges read in
  atomic valenz-charges read in
  non local Contribution for L=           0  read in
    real space projection operators read in
  non local Contribution for L=           0  read in
    real space projection operators read in
  non local Contribution for L=           1  read in
    real space projection operators read in
  non local Contribution for L=           1  read in
    real space projection operators read in
  non local Contribution for L=           2  read in
    real space projection operators read in
  non local Contribution for L=           2  read in
    real space projection operators read in
    PAW grid and wavefunctions read in
 
   number of l-projection  operators is LMAX  =           6
   number of lm-projection operators is LMMAX =          18
 
 POTCAR:   PAW_PBE Ti 08Apr2002                   
   VRHFIN =Ti: d3 s1                                                            
   LEXCH  = PE                                                                  
   EATOM  =    94.7929 eV,    6.9671 Ry                                         
                                                                                
   TITEL  = PAW_PBE Ti 08Apr2002                                                
   LULTRA =        F    use ultrasoft PP ?                                      
   IUNSCR =        1    unscreen: 0-lin 1-nonlin 2-no                           
   RPACOR =    2.200    partial core radius                                     
   POMASS =   47.880; ZVAL   =    4.000    mass and valenz                      
   RCORE  =    2.800    outmost cutoff radius                                   
   RWIGS  =    2.500; RWIGS  =    1.323    wigner-seitz radius (au A)           
   ENMAX  =  178.330; ENMIN  =  133.747 eV                                      
   RCLOC  =    2.215    cutoff for local pot                                    
   LCOR   =        T    correct aug charges                                     
   LPAW   =        T    paw PP                                                  
   EAUG   =  328.883                                                            
   DEXC   =    -.043                                                            
   RMAX   =    3.453    core radius for proj-oper                               
   RAUG   =    1.300    factor for augmentation sphere                          
   RDEP   =    2.885    radius for radial grids                                 
   QCUT   =   -3.620; QGAM   =    7.241    optimization parameters              
                                                                                
   Description                                                                  
     l     E      TYP  RCUT    TYP  RCUT                                        
     2   .000     23  2.800                                                     
     2   .000     23  2.800                                                     
     0   .000     23  2.800                                                     
     0  1.500     23  2.800                                                     
     1  -.400     23  2.800                                                     
     3   .000      7   .000                                                     
  local pseudopotential read in
  partial core-charges read in
  atomic valenz-charges read in
  non local Contribution for L=           2  read in
    real space projection operators read in
  non local Contribution for L=           2  read in
    real space projection operators read in
  non local Contribution for L=           0  read in
    real space projection operators read in
  non local Contribution for L=           0  read in
    real space projection operators read in
  non local Contribution for L=           1  read in
    real space projection operators read in
    PAW grid and wavefunctions read in
 
   number of l-projection  operators is LMAX  =           5
   number of lm-projection operators is LMMAX =          15
 
 POTCAR:   PAW_PBE O 08Apr2002                    
   VRHFIN =O: s2p4                                                              
   LEXCH  = PE                                                                  
   EATOM  =   432.3788 eV,   31.7789 Ry                                         
                                                                                
   TITEL  = PAW_PBE O 08Apr2002                                                 
   LULTRA =        F    use ultrasoft PP ?                                      
   IUNSCR =        0    unscreen: 0-lin 1-nonlin 2-no                           
   RPACOR =     .000    partial core radius                                     
   POMASS =   16.000; ZVAL   =    6.000    mass and valenz                      
   RCORE  =    1.520    outmost cutoff radius                                   
   RWIGS  =    1.550; RWIGS  =     .820    wigner-seitz radius (au A)           
   ENMAX  =  400.000; ENMIN  =  300.000 eV                                      
   ICORE  =        2    local potential                                         
   LCOR   =        T    correct aug charges                                     
   LPAW   =        T    paw PP                                                  
   EAUG   =  605.392                                                            
   DEXC   =     .000                                                            
   RMAX   =    2.264    core radius for proj-oper                               
   RAUG   =    1.300    factor for augmentation sphere                          
   RDEP   =    1.550    radius for radial grids                                 
   QCUT   =   -5.520; QGAM   =   11.041    optimization parameters              
                                                                                
   Description                                                                  
     l     E      TYP  RCUT    TYP  RCUT                                        
     0   .000     23  1.200                                                     
     0  -.700     23  1.200                                                     
     1   .000     23  1.520                                                     
     1   .600     23  1.520                                                     
     2   .000      7  1.500                                                     
  local pseudopotential read in
  atomic valenz-charges read in
  non local Contribution for L=           0  read in
    real space projection operators read in
  non local Contribution for L=           0  read in
    real space projection operators read in
  non local Contribution for L=           1  read in
    real space projection operators read in
  non local Contribution for L=           1  read in
    real space projection operators read in
    PAW grid and wavefunctions read in
 
   number of l-projection  operators is LMAX  =           4
   number of lm-projection operators is LMMAX =           8
 
 PAW_PBE Sr_sv 07Sep2000                :
 energy of atom  1       EATOM= -842.4562
 kinetic energy error for atom=    0.0012 (will be added to EATOM!!)
 PAW_PBE Ti 08Apr2002                   :
 energy of atom  2       EATOM=  -94.7929
 kinetic energy error for atom=    0.0002 (will be added to EATOM!!)
 PAW_PBE O 08Apr2002                    :
 energy of atom  3       EATOM= -432.3788
 kinetic energy error for atom=    0.0224 (will be added to EATOM!!)
 
 
 POSCAR: ICSD_CollCode262269                     
  positions in direct lattice
  No initial velocities read in
 exchange correlation table for  LEXCH =        8
   RHO(1)=    0.500       N(1)  =     2000
   RHO(2)=  100.500       N(2)  =     4000
 


--------------------------------------------------------------------------------------------------------


 ion  position               nearest neighbor table
   1  0.000  0.000  0.000-   3 2.76   4 2.76   5 2.76   4 2.76   5 2.76   3 2.76   5 2.76   5 2.76
                             3 2.76   4 2.76   4 2.76   3 2.76   2 3.38   2 3.38   2 3.38   2 3.38
   2  0.500  0.500  0.500-   3 1.95   4 1.95   5 1.95   3 1.95   4 1.95   5 1.95   1 3.38   1 3.38
                             1 3.38   1 3.38   1 3.38   1 3.38   1 3.38   1 3.38
   3  0.500  0.500  0.000-   2 1.95   2 1.95   1 2.76   1 2.76   1 2.76   1 2.76
   4  0.500  0.000  0.500-   2 1.95   2 1.95   1 2.76   1 2.76   1 2.76   1 2.76
   5  0.000  0.500  0.500-   2 1.95   2 1.95   1 2.76   1 2.76   1 2.76   1 2.76
 
  LATTYP: Found a simple cubic cell.
 ALAT       =     3.9052680000
  
  Lattice vectors:
  
 A1 = (   3.9052680000,   0.0000000000,   0.0000000000)
 A2 = (   0.0000000000,   3.9052680000,   0.0000000000)
 A3 = (   0.0000000000,   0.0000000000,   3.9052680000)


Analysis of symmetry for initial positions (statically):
=====================================================================
 Subroutine PRICEL returns:
 Original cell was already a primitive cell.
 

 Routine SETGRP: Setting up the symmetry group for a 
 simple cubic supercell.


 Subroutine GETGRP returns: Found 48 space group operations
 (whereof 48 operations were pure point group operations)
 out of a pool of 48 trial point group operations.


The static configuration has the point symmetry O_h .


Analysis of symmetry for dynamics (positions and initial velocities):
=====================================================================
 Subroutine PRICEL returns:
 Original cell was already a primitive cell.
 

 Routine SETGRP: Setting up the symmetry group for a 
 simple cubic supercell.


 Subroutine GETGRP returns: Found 48 space group operations
 (whereof 48 operations were pure point group operations)
 out of a pool of 48 trial point group operations.


The dynamic configuration has the point symmetry O_h .


 Subroutine INISYM returns: Found 48 space group operations
 (whereof 48 operations are pure point group operations),
 and found     1 'primitive' translations

 
 
 KPOINTS: k-density: 3.0                          

Automatic generation of k-mesh.
Space group operators:
 irot       det(A)        alpha          n_x          n_y          n_z        tau_x        tau_y        tau_z
    1     1.000000     0.000000     1.000000     0.000000     0.000000     0.000000     0.000000     0.000000
    2    -1.000000     0.000000     1.000000     0.000000     0.000000     0.000000     0.000000     0.000000
    3     1.000000   120.000000    -0.577350    -0.577350    -0.577350     0.000000     0.000000     0.000000
    4    -1.000000   120.000000    -0.577350    -0.577350    -0.577350     0.000000     0.000000     0.000000
    5     1.000000   120.000000     0.577350     0.577350     0.577350     0.000000     0.000000     0.000000
    6    -1.000000   120.000000     0.577350     0.577350     0.577350     0.000000     0.000000     0.000000
    7     1.000000    90.000000     0.000000     0.000000    -1.000000     0.000000     0.000000     0.000000
    8    -1.000000    90.000000     0.000000     0.000000    -1.000000     0.000000     0.000000     0.000000
    9     1.000000   180.000000     0.000000     0.707107     0.707107     0.000000     0.000000     0.000000
   10    -1.000000   180.000000     0.000000     0.707107     0.707107     0.000000     0.000000     0.000000
   11     1.000000    90.000000     0.000000     1.000000     0.000000     0.000000     0.000000     0.000000
   12    -1.000000    90.000000     0.000000     1.000000     0.000000     0.000000     0.000000     0.000000
   13     1.000000   180.000000     0.000000     0.000000     1.000000     0.000000     0.000000     0.000000
   14    -1.000000   180.000000     0.000000     0.000000     1.000000     0.000000     0.000000     0.000000
   15     1.000000   120.000000    -0.577350     0.577350     0.577350     0.000000     0.000000     0.000000
   16    -1.000000   120.000000    -0.577350     0.577350     0.577350     0.000000     0.000000     0.000000
   17     1.000000   120.000000    -0.577350     0.577350    -0.577350     0.000000     0.000000     0.000000
   18    -1.000000   120.000000    -0.577350     0.577350    -0.577350     0.000000     0.000000     0.000000
   19     1.000000    90.000000     0.000000     0.000000     1.000000     0.000000     0.000000     0.000000
   20    -1.000000    90.000000     0.000000     0.000000     1.000000     0.000000     0.000000     0.000000
   21     1.000000    90.000000    -1.000000     0.000000     0.000000     0.000000     0.000000     0.000000
   22    -1.000000    90.000000    -1.000000     0.000000     0.000000     0.000000     0.000000     0.000000
   23     1.000000   180.000000     0.707107     0.000000     0.707107     0.000000     0.000000     0.000000
   24    -1.000000   180.000000     0.707107     0.000000     0.707107     0.000000     0.000000     0.000000
   25     1.000000   120.000000     0.577350    -0.577350     0.577350     0.000000     0.000000     0.000000
   26    -1.000000   120.000000     0.577350    -0.577350     0.577350     0.000000     0.000000     0.000000
   27     1.000000   120.000000    -0.577350    -0.577350     0.577350     0.000000     0.000000     0.000000
   28    -1.000000   120.000000    -0.577350    -0.577350     0.577350     0.000000     0.000000     0.000000
   29     1.000000   180.000000     1.000000     0.000000     0.000000     0.000000     0.000000     0.000000
   30    -1.000000   180.000000     1.000000     0.000000     0.000000     0.000000     0.000000     0.000000
   31     1.000000    90.000000     0.000000    -1.000000     0.000000     0.000000     0.000000     0.000000
   32    -1.000000    90.000000     0.000000    -1.000000     0.000000     0.000000     0.000000     0.000000
   33     1.000000   180.000000     0.707107     0.707107     0.000000     0.000000     0.000000     0.000000
   34    -1.000000   180.000000     0.707107     0.707107     0.000000     0.000000     0.000000     0.000000
   35     1.000000    90.000000     1.000000     0.000000     0.000000     0.000000     0.000000     0.000000
   36    -1.000000    90.000000     1.000000     0.000000     0.000000     0.000000     0.000000     0.000000
   37     1.000000   120.000000     0.577350    -0.577350    -0.577350     0.000000     0.000000     0.000000
   38    -1.000000   120.000000     0.577350    -0.577350    -0.577350     0.000000     0.000000     0.000000
   39     1.000000   180.000000     0.000000     1.000000     0.000000     0.000000     0.000000     0.000000
   40    -1.000000   180.000000     0.000000     1.000000     0.000000     0.000000     0.000000     0.000000
   41     1.000000   120.000000     0.577350     0.577350    -0.577350     0.000000     0.000000     0.000000
   42    -1.000000   120.000000     0.577350     0.577350    -0.577350     0.000000     0.000000     0.000000
   43     1.000000   180.000000     0.000000    -0.707107     0.707107     0.000000     0.000000     0.000000
   44    -1.000000   180.000000     0.000000    -0.707107     0.707107     0.000000     0.000000     0.000000
   45     1.000000   180.000000     0.707107    -0.707107     0.000000     0.000000     0.000000     0.000000
   46    -1.000000   180.000000     0.707107    -0.707107     0.000000     0.000000     0.000000     0.000000
   47     1.000000   180.000000     0.707107     0.000000    -0.707107     0.000000     0.000000     0.000000
   48    -1.000000   180.000000     0.707107     0.000000    -0.707107     0.000000     0.000000     0.000000
 
 Subroutine IBZKPT returns following result:
 ===========================================
 
 Found     10 irreducible k-points:
 
 Following reciprocal coordinates:
            Coordinates               Weight
  0.000000  0.000000  0.000000      1.000000
  0.200000  0.000000  0.000000      6.000000
  0.400000  0.000000  0.000000      6.000000
  0.200000  0.200000  0.000000     12.000000
  0.400000  0.200000  0.000000     24.000000
  0.400000  0.400000  0.000000     12.000000
  0.200000  0.200000  0.200000      8.000000
  0.400000  0.200000  0.200000     24.000000
  0.400000  0.400000  0.200000     24.000000
  0.400000  0.400000  0.400000      8.000000
 
 Following cartesian coordinates:
            Coordinates               Weight
  0.000000  0.000000  0.000000      1.000000
  0.051213  0.000000  0.000000      6.000000
  0.102426  0.000000  0.000000      6.000000
  0.051213  0.051213  0.000000     12.000000
  0.102426  0.051213  0.000000     24.000000
  0.102426  0.102426  0.000000     12.000000
  0.051213  0.051213  0.051213      8.000000
  0.102426  0.051213  0.051213     24.000000
  0.102426  0.102426  0.051213     24.000000
  0.102426  0.102426  0.102426      8.000000
 
 TETIRR: Found     57 inequivalent tetrahedra from      750


--------------------------------------------------------------------------------------------------------




 Dimension of arrays:
   k-points           NKPTS =     10   k-points in BZ     NKDIM =     10   number of bands    NBANDS=     20
   number of dos      NEDOS =    301   number of ions     NIONS =      5
   non local maximal  LDIM  =      6   non local SUM 2l+1 LMDIM =     18
   total plane-waves  NPLWV =  13824
   max r-space proj   IRMAX =      1   max aug-charges    IRDMAX=  16228
   dimension x,y,z NGX =    24 NGY =   24 NGZ =   24
   dimension x,y,z NGXF=    48 NGYF=   48 NGZF=   48
   support grid    NGXF=    48 NGYF=   48 NGZF=   48
   ions per type =               1   1   3
   NGX,Y,Z   is equivalent  to a cutoff of  10.22, 10.22, 10.22 a.u.
   NGXF,Y,Z  is equivalent  to a cutoff of  20.43, 20.43, 20.43 a.u.

 SYSTEM =  unknown system                          
 POSCAR =  ICSD_CollCode262269                     

 Startparameter for this run:
   NWRITE =      2    write-flag & timer
   PREC   = normal    normal or accurate (medium, high low for compatibility)
   ISTART =      0    job   : 0-new  1-cont  2-samecut
   ICHARG =      2    charge: 1-file 2-atom 10-const
   ISPIN  =      1    spin polarized calculation?
   LNONCOLLINEAR =      F non collinear calculations
   LSORBIT =      F    spin-orbit coupling
   INIWAV =      1    electr: 0-lowe 1-rand  2-diag
   LASPH  =      F    aspherical Exc in radial PAW
   METAGGA=      F    non-selfconsistent MetaGGA calc.

 Electronic Relaxation 1
   ENCUT  =  500.0 eV  36.75 Ry    6.06 a.u.   7.12  7.12  7.12*2*pi/ulx,y,z
   ENINI  =  500.0     initial cutoff
   ENAUG  =  605.4 eV  augmentation charge cutoff
   NELM   =     60;   NELMIN=  4; NELMDL=  0     # of ELM steps 
   EDIFF  = 0.1E-04   stopping-criterion for ELM
   LREAL  =      F    real-space projection
   NLSPLINE    = F    spline interpolate recip. space projectors
   LCOMPAT=      F    compatible to vasp.4.4
   GGA_COMPAT  = T    GGA compatible to vasp.4.4-vasp.4.6
   LMAXPAW     = -100 max onsite density
   LMAXMIX     =    2 max onsite mixed and CHGCAR
   VOSKOWN=      0    Vosko Wilk Nusair interpolation
   ROPT   =    0.00000   0.00000   0.00000
 Ionic relaxation
   EDIFFG = 0.1E-03   stopping-criterion for IOM
   NSW    =      0    number of steps for IOM
   NBLOCK =      1;   KBLOCK =      1    inner block; outer block 
   IBRION =     -1    ionic relax: 0-MD 1-quasi-New 2-CG
   NFREE  =      0    steps in history (QN), initial steepest desc. (CG)
   ISIF   =      2    stress and relaxation
   IWAVPR =     10    prediction:  0-non 1-charg 2-wave 3-comb
   ISYM   =      2    0-nonsym 1-usesym 2-fastsym
   LCORR  =      T    Harris-Foulkes like correction to forces

   POTIM  = 0.5000    time-step for ionic-motion
   TEIN   =    0.0    initial temperature
   TEBEG  =    0.0;   TEEND  =   0.0 temperature during run
   SMASS  =  -3.00    Nose mass-parameter (am)
   estimated Nose-frequenzy (Omega)   =  0.10E-29 period in steps =****** mass=  -0.349E-27a.u.
   SCALEE = 1.0000    scale energy and forces
   NPACO  =    256;   APACO  = 16.0  distance and # of slots for P.C.
   PSTRESS=    0.0 pullay stress

  Mass of Ions in am
   POMASS =  87.62 47.88 16.00
  Ionic Valenz
   ZVAL   =  10.00  4.00  6.00
  Atomic Wigner-Seitz radii
   RWIGS  =  -1.00 -1.00 -1.00
  virtual crystal weights 
   VCA    =   1.00  1.00  1.00
   NELECT =      32.0000    total number of electrons
   NUPDOWN=      -1.0000    fix difference up-down

 DOS related values:
   EMIN   =  10.00;   EMAX   =-10.00  energy-range for DOS
   EFERMI =   0.00
   ISMEAR =    -5;   SIGMA  =   0.20  broadening in eV -4-tet -1-fermi 0-gaus

 Electronic relaxation 2 (details)
   IALGO  =     68    algorithm
   LDIAG  =      T    sub-space diagonalisation (order eigenvalues)
   LSUBROT=      F    optimize rotation matrix (better conditioning)
   TURBO    =      0    0=normal 1=particle mesh
   IRESTART =      0    0=no restart 2=restart with 2 vectors
   NREBOOT  =      0    no. of reboots
   NMIN     =      0    reboot dimension
   EREF     =   0.00    reference energy to select bands
   IMIX   =      4    mixing-type and parameters
     AMIX     =   0.40;   BMIX     =  1.00
     AMIX_MAG =   1.60;   BMIX_MAG =  1.00
     AMIN     =   0.10
     WC   =   100.;   INIMIX=   1;  MIXPRE=   1;  MAXMIX= -45

 Intra band minimization:
   WEIMIN = 0.0000     energy-eigenvalue tresh-hold
   EBREAK =  0.13E-06  absolut break condition
   DEPER  =   0.30     relativ break condition  

   TIME   =   0.40     timestep for ELM

  volume/ion in A,a.u.               =      11.91        80.39
  Fermi-wavevector in a.u.,A,eV,Ry     =   1.330885  2.515009 24.099399  1.771256
  Thomas-Fermi vector in A             =   2.459938
 
 Write flags
   LWAVE        =      F    write WAVECAR
   LDOWNSAMPLE  =      F    k-point downsampling of WAVECAR
   LCHARG       =      T    write CHGCAR
   LVTOT        =      F    write LOCPOT, total local potential
   LVHAR        =      F    write LOCPOT, Hartree potential only
   LELF         =      F    write electronic localiz. function (ELF)
   LORBIT       =      0    0 simple, 1 ext, 2 COOP (PROOUT), +10 PAW based schemes


 Dipole corrections
   LMONO  =      F    monopole corrections only (constant potential shift)
   LDIPOL =      F    correct potential (dipole corrections)
   IDIPOL =      0    1-x, 2-y, 3-z, 4-all directions 
   EPSILON=  1.0000000 bulk dielectric constant

 Exchange correlation treatment:
   GGA     =    --    GGA type
   LEXCH   =     8    internal setting for exchange type
   VOSKOWN=      0    Vosko Wilk Nusair interpolation
   LHFCALC =     F    Hartree Fock is set to
   LHFONE  =     F    Hartree Fock one center treatment
   AEXX    =    0.0000 exact exchange contribution

 Linear response parameters
   LEPSILON=     F    determine dielectric tensor
   LRPA    =     F    only Hartree local field effects (RPA)
   LNABLA  =     F    use nabla operator in PAW spheres
   LVEL    =     F    velocity operator in full k-point grid
   LINTERFAST=   F  fast interpolation
   KINTER  =     0    interpolate to denser k-point grid
   CSHIFT  =0.1000    complex shift for real part using Kramers Kronig
   OMEGAMAX=  -1.0    maximum frequency
   DEG_THRESHOLD= 0.2000000E-02 threshold for treating states as degnerate
   RTIME   =   -0.100 relaxation time in fs
  (WPLASMAI=    0.000 imaginary part of plasma frequency in eV, 0.658/RTIME)
   DFIELD  = 0.0000000 0.0000000 0.0000000 field for delta impulse in time
 
 Orbital magnetization related:
   ORBITALMAG=     F  switch on orbital magnetization
   LCHIMAG   =     F  perturbation theory with respect to B field
   DQ        =  0.001000  dq finite difference perturbation B field
   LLRAUG    =     F  two centre corrections for induced B field



--------------------------------------------------------------------------------------------------------


 Static calculation
 charge density and potential will be updated during run
 non-spin polarized calculation
 RMM-DIIS sequential band-by-band and
  variant of blocked Davidson during initial phase
 perform sub-space diagonalisation
    before iterative eigenvector-optimisation
 modified Broyden-mixing scheme, WC =      100.0
 initial mixing is a Kerker type mixing with AMIX =  0.4000 and BMIX =      1.0000
 Hartree-type preconditioning will be used
 using additional bands            4
 reciprocal scheme for non local part
 use partial core corrections
 calculate Harris-corrections to forces 
   (improved forces if not selfconsistent)
 use gradient corrections 
 use of overlap-Matrix (Vanderbilt PP)
 Fermi weights with tetrahedron method with Bloechl corrections


--------------------------------------------------------------------------------------------------------


  energy-cutoff  :      500.00
  volume of cell :       59.56
      direct lattice vectors                 reciprocal lattice vectors
     3.905268000  0.000000000  0.000000000     0.256064373  0.000000000  0.000000000
     0.000000000  3.905268000  0.000000000     0.000000000  0.256064373  0.000000000
     0.000000000  0.000000000  3.905268000     0.000000000  0.000000000  0.256064373

  length of vectors
     3.905268000  3.905268000  3.905268000     0.256064373  0.256064373  0.256064373


 
 k-points in units of 2pi/SCALE and weight: k-density: 3.0                          
   0.00000000  0.00000000  0.00000000       0.008
   0.05121287  0.00000000  0.00000000       0.048
   0.10242575  0.00000000  0.00000000       0.048
   0.05121287  0.05121287  0.00000000       0.096
   0.10242575  0.05121287  0.00000000       0.192
   0.10242575  0.10242575  0.00000000       0.096
   0.05121287  0.05121287  0.05121287       0.064
   0.10242575  0.05121287  0.05121287       0.192
   0.10242575  0.10242575  0.05121287       0.192
   0.10242575  0.10242575  0.10242575       0.064
 
 k-points in reciprocal lattice and weights: k-density: 3.0                          
   0.00000000  0.00000000  0.00000000       0.008
   0.20000000  0.00000000  0.00000000       0.048
   0.40000000  0.00000000  0.00000000       0.048
   0.20000000  0.20000000  0.00000000       0.096
   0.40000000  0.20000000  0.00000000       0.192
   0.40000000  0.40000000  0.00000000       0.096
   0.20000000  0.20000000  0.20000000       0.064
   0.40000000  0.20000000  0.20000000       0.192
   0.40000000  0.40000000  0.20000000       0.192
   0.40000000  0.40000000  0.40000000       0.064
 
 position of ions in fractional coordinates (direct lattice) 
   0.00000000  0.00000000  0.00000000
   0.50000000  0.50000000  0.50000000
   0.50000000  0.50000000  0.00000000
   0.50000000  0.00000000  0.50000000
   0.00000000  0.50000000  0.50000000
 
 position of ions in cartesian coordinates  (Angst):
   0.00000000  0.00000000  0.00000000
   1.95263400  1.95263400  1.95263400
   1.95263400  1.95263400  0.00000000
   1.95263400  0.00000000  1.95263400
   0.00000000  1.95263400  1.95263400
 


--------------------------------------------------------------------------------------------------------


 k-point  1 :   0.0000 0.0000 0.0000  plane waves:    1503
 k-point  2 :   0.2000 0.0000 0.0000  plane waves:    1506
 k-point  3 :   0.4000 0.0000 0.0000  plane waves:    1502
 k-point  4 :   0.2000 0.2000 0.0000  plane waves:    1512
 k-point  5 :   0.4000 0.2000 0.0000  plane waves:    1522
 k-point  6 :   0.4000 0.4000 0.0000  plane waves:    1516
 k-point  7 :   0.2000 0.2000 0.2000  plane waves:    1496
 k-point  8 :   0.4000 0.2000 0.2000  plane waves:    1522
 k-point  9 :   0.4000 0.4000 0.2000  plane waves:    1504
 k-point 10 :   0.4000 0.4000 0.4000  plane waves:    1523

 maximum and minimum number of plane-waves per node :       764      745

 maximum number of plane-waves:      1523
 maximum index in each direction: 
   IXMAX=    7   IYMAX=    7   IZMAX=    7
   IXMIN=   -7   IYMIN=   -7   IZMIN=   -7


 parallel 3D FFT for wavefunctions:
    minimum data exchange during FFTs selected (reduces bandwidth)
 parallel 3D FFT for charge:
    minimum data exchange during FFTs selected (reduces bandwidth)


 total amount of memory used by VASP MPI-rank0    37952. kBytes
=======================================================================

   base      :      30000. kBytes
   nonl-proj :       3352. kBytes
   fftplans  :       1176. kBytes
   grid      :       2105. kBytes
   one-center:         46. kBytes
   wavefun   :       1273. kBytes
 
     INWAV:  cpu time    0.0010: real time    0.0002
 Broyden mixing: mesh for mixing (old mesh)
   NGX = 15   NGY = 15   NGZ = 15
  (NGX  = 48   NGY  = 48   NGZ  = 48)
  gives a total of   3375 points

 initial charge density was supplied:
 charge density of overlapping atoms calculated
 number of electron      32.0000000 magnetization 
 keeping initial charge density in first step


--------------------------------------------------------------------------------------------------------


 Maximum index for augmentation-charges         3835 (set IRDMAX)


--------------------------------------------------------------------------------------------------------


 First call to EWALD:  gamma=   0.454
 Maximum number of real-space cells 3x 3x 3
 Maximum number of reciprocal cells 3x 3x 3

    FEWALD:  cpu time    0.0010: real time    0.0017


--------------------------------------- Iteration      1(   1)  ---------------------------------------


    POTLOK:  cpu time    0.0190: real time    0.0381
    SETDIJ:  cpu time    0.0050: real time    0.0052
     EDDAV:  cpu time    0.1140: real time    0.1187
 BZINTS: Fermi energy: 19.053439; 32.000000 electrons
         Band energy:  95.145533;  BLOECHL correction: -0.280363
       DOS:  cpu time    0.0020: real time    0.0020
    --------------------------------------------
      LOOP:  cpu time    0.1400: real time    0.1640

 eigenvalue-minimisations  :   400
 total energy-change (2. order) : 0.3087908E+03  (-0.1541460E+04)
 number of electron      32.0000000 magnetization 
 augmentation part       32.0000000 magnetization 

 Free energy of the ion-electron system (eV)
  ---------------------------------------------------
  alpha Z        PSCENC =       185.39985751
  Ewald energy   TEWEN  =     -1934.07799583
  -Hartree energ DENC   =      -403.14003404
  -exchange      EXHF   =         0.00000000
  -V(xc)+E(xc)   XCENC  =        82.31788258
  PAW double counting   =      1333.61297253    -1284.78446064
  entropy T*S    EENTRO =         0.00000000
  eigenvalues    EBANDS =        95.14553284
  atomic energy  EATOM  =      2234.31706254
  Solvation  Ediel_sol  =         0.00000000
  ---------------------------------------------------
  free energy    TOTEN  =       308.79081749 eV

  energy without entropy =      308.79081749  energy(sigma->0) =      308.79081749


--------------------------------------------------------------------------------------------------------




--------------------------------------- Iteration      1(   2)  ---------------------------------------


     EDDAV:  cpu time    0.1400: real time    0.1406
 BZINTS: Fermi energy:  8.196359; 32.000000 electrons
         Band energy:-233.374904;  BLOECHL correction: -0.000048
       DOS:  cpu time    0.0010: real time    0.0013
    --------------------------------------------
      LOOP:  cpu time    0.1410: real time    0.1419

 eigenvalue-minimisations  :   524
 total energy-change (2. order) :-0.3285204E+03  (-0.3159157E+03)
 number of electron      32.0000000 magnetization 
 augmentation part       32.0000000 magnetization 

 Free energy of the ion-electron system (eV)
  ---------------------------------------------------
  alpha Z        PSCENC =       185.39985751
  Ewald energy   TEWEN  =     -1934.07799583
  -Hartree energ DENC   =      -403.14003404
  -exchange      EXHF   =         0.00000000
  -V(xc)+E(xc)   XCENC  =        82.31788258
  PAW double counting   =      1333.61297253    -1284.78446064
  entropy T*S    EENTRO =         0.00000000
  eigenvalues    EBANDS =      -233.37490355
  atomic energy  EATOM  =      2234.31706254
  Solvation  Ediel_sol  =         0.00000000
  ---------------------------------------------------
  free energy    TOTEN  =       -19.72961890 eV

  energy without entropy =      -19.72961890  energy(sigma->0) =      -19.72961890


--------------------------------------------------------------------------------------------------------




--------------------------------------- Iteration      1(   3)  ---------------------------------------


     EDDAV:  cpu time    0.1270: real time    0.1267
 BZINTS: Fermi energy:  0.359522; 32.000000 electrons
         Band energy:-262.709950;  BLOECHL correction:  0.000000
       DOS:  cpu time    0.0000: real time    0.0006
    --------------------------------------------
      LOOP:  cpu time    0.1270: real time    0.1273

 eigenvalue-minimisations  :   472
 total energy-change (2. order) :-0.2933505E+02  (-0.2899702E+02)
 number of electron      32.0000000 magnetization 
 augmentation part       32.0000000 magnetization 

 Free energy of the ion-electron system (eV)
  ---------------------------------------------------
  alpha Z        PSCENC =       185.39985751
  Ewald energy   TEWEN  =     -1934.07799583
  -Hartree energ DENC   =      -403.14003404
  -exchange      EXHF   =         0.00000000
  -V(xc)+E(xc)   XCENC  =        82.31788258
  PAW double counting   =      1333.61297253    -1284.78446064
  entropy T*S    EENTRO =         0.00000000
  eigenvalues    EBANDS =      -262.70994959
  atomic energy  EATOM  =      2234.31706254
  Solvation  Ediel_sol  =         0.00000000
  ---------------------------------------------------
  free energy    TOTEN  =       -49.06466494 eV

  energy without entropy =      -49.06466494  energy(sigma->0) =      -49.06466494


--------------------------------------------------------------------------------------------------------




--------------------------------------- Iteration      1(   4)  ---------------------------------------


     EDDAV:  cpu time    0.1700: real time    0.1697
 BZINTS: Fermi energy: -0.469812; 32.000000 electrons
         Band energy:-263.844596;  BLOECHL correction:  0.000000
       DOS:  cpu time    0.0000: real time    0.0004
    --------------------------------------------
      LOOP:  cpu time    0.1700: real time    0.1701

 eigenvalue-minimisations  :   672
 total energy-change (2. order) :-0.1134646E+01  (-0.1131850E+01)
 number of electron      32.0000000 magnetization 
 augmentation part       32.0000000 magnetization 

 Free energy of the ion-electron system (eV)
  ---------------------------------------------------
  alpha Z        PSCENC =       185.39985751
  Ewald energy   TEWEN  =     -1934.07799583
  -Hartree energ DENC   =      -403.14003404
  -exchange      EXHF   =         0.00000000
  -V(xc)+E(xc)   XCENC  =        82.31788258
  PAW double counting   =      1333.61297253    -1284.78446064
  entropy T*S    EENTRO =         0.00000000
  eigenvalues    EBANDS =      -263.84459603
  atomic energy  EATOM  =      2234.31706254
  Solvation  Ediel_sol  =         0.00000000
  ---------------------------------------------------
  free energy    TOTEN  =       -50.19931137 eV

  energy without entropy =      -50.19931137  energy(sigma->0) =      -50.19931137


--------------------------------------------------------------------------------------------------------




--------------------------------------- Iteration      1(   5)  ---------------------------------------


     EDDAV:  cpu time    0.1380: real time    0.1382
 BZINTS: Fermi energy: -0.489959; 32.000000 electrons
         Band energy:-263.873479;  BLOECHL correction:  0.000000
       DOS:  cpu time    0.0010: real time    0.0004
    CHARGE:  cpu time    0.0110: real time    0.0111
    MIXING:  cpu time    0.0010: real time    0.0008
    --------------------------------------------
      LOOP:  cpu time    0.1510: real time    0.1505

 eigenvalue-minimisations  :   528
 total energy-change (2. order) :-0.2888313E-01  (-0.2887633E-01)
 number of electron      31.9999897 magnetization 
 augmentation part        3.4016259 magnetization 

 Broyden mixing:
  rms(total) = 0.18265E+01    rms(broyden)= 0.18263E+01
  rms(prec ) = 0.47652E+01
  weight for this iteration     100.00

 Free energy of the ion-electron system (eV)
  ---------------------------------------------------
  alpha Z        PSCENC =       185.39985751
  Ewald energy   TEWEN  =     -1934.07799583
  -Hartree energ DENC   =      -403.14003404
  -exchange      EXHF   =         0.00000000
  -V(xc)+E(xc)   XCENC  =        82.31788258
  PAW double counting   =      1333.61297253    -1284.78446064
  entropy T*S    EENTRO =         0.00000000
  eigenvalues    EBANDS =      -263.87347916
  atomic energy  EATOM  =      2234.31706254
  Solvation  Ediel_sol  =         0.00000000
  ---------------------------------------------------
  free energy    TOTEN  =       -50.22819451 eV

  energy without entropy =      -50.22819451  energy(sigma->0) =      -50.22819451


--------------------------------------------------------------------------------------------------------




--------------------------------------- Iteration      1(   6)  ---------------------------------------


    POTLOK:  cpu time    0.0150: real time    0.0157
    SETDIJ:  cpu time    0.0040: real time    0.0042
    EDDIAG:  cpu time    0.0250: real time    0.0257
  RMM-DIIS:  cpu time    0.0870: real time    0.0866
    ORTHCH:  cpu time    0.0020: real time    0.0027
 BZINTS: Fermi energy:  3.232819; 32.000000 electrons
         Band energy:-200.869144;  BLOECHL correction:  0.000000
       DOS:  cpu time    0.0000: real time    0.0004
    CHARGE:  cpu time    0.0120: real time    0.0108
    MIXING:  cpu time    0.0000: real time    0.0005
    --------------------------------------------
      LOOP:  cpu time    0.1450: real time    0.1468

 eigenvalue-minimisations  :   434
 total energy-change (2. order) : 0.9824565E+01  (-0.5850339E+01)
 number of electron      31.9999925 magnetization 
 augmentation part        3.4851602 magnetization 

 Broyden mixing:
  rms(total) = 0.62437E+00    rms(broyden)= 0.62390E+00
  rms(prec ) = 0.11412E+01
  weight for this iteration     100.00

 eigenvalues of (default mixing * dielectric matrix)
  average eigenvalue GAMMA=   0.7952
  0.7952

 Free energy of the ion-electron system (eV)
  ---------------------------------------------------
  alpha Z        PSCENC =       185.39985751
  Ewald energy   TEWEN  =     -1934.07799583
  -Hartree energ DENC   =      -457.88236256
  -exchange      EXHF   =         0.00000000
  -V(xc)+E(xc)   XCENC  =        87.11158050
  PAW double counting   =      1487.79082819    -1442.19345568
  entropy T*S    EENTRO =         0.00000000
  eigenvalues    EBANDS =      -200.86914390
  atomic energy  EATOM  =      2234.31706254
  Solvation  Ediel_sol  =         0.00000000
  ---------------------------------------------------
  free energy    TOTEN  =       -40.40362923 eV

  energy without entropy =      -40.40362923  energy(sigma->0) =      -40.40362923


--------------------------------------------------------------------------------------------------------




--------------------------------------- Iteration      1(   7)  ---------------------------------------


    POTLOK:  cpu time    0.0160: real time    0.0158
    SETDIJ:  cpu time    0.0040: real time    0.0042
    EDDIAG:  cpu time    0.0250: real time    0.0253
  RMM-DIIS:  cpu time    0.0940: real time    0.0937
    ORTHCH:  cpu time    0.0020: real time    0.0028
 BZINTS: Fermi energy:  2.636120; 32.000000 electrons
         Band energy:-210.390459;  BLOECHL correction:  0.000000
       DOS:  cpu time    0.0010: real time    0.0004
    CHARGE:  cpu time    0.0110: real time    0.0110
    MIXING:  cpu time    0.0010: real time    0.0006
    --------------------------------------------
      LOOP:  cpu time    0.1540: real time    0.1537

 eigenvalue-minimisations  :   476
 total energy-change (2. order) : 0.6131098E+00  (-0.1548812E+00)
 number of electron      31.9999922 magnetization 
 augmentation part        3.3928829 magnetization 

 Broyden mixing:
  rms(total) = 0.32161E+00    rms(broyden)= 0.32160E+00
  rms(prec ) = 0.56968E+00
  weight for this iteration     100.00

 eigenvalues of (default mixing * dielectric matrix)
  average eigenvalue GAMMA=   1.7044
  0.8801  2.5287

 Free energy of the ion-electron system (eV)
  ---------------------------------------------------
  alpha Z        PSCENC =       185.39985751
  Ewald energy   TEWEN  =     -1934.07799583
  -Hartree energ DENC   =      -445.58938748
  -exchange      EXHF   =         0.00000000
  -V(xc)+E(xc)   XCENC  =        86.24090162
  PAW double counting   =      1498.29328736    -1453.98378593
  entropy T*S    EENTRO =         0.00000000
  eigenvalues    EBANDS =      -210.39045922
  atomic energy  EATOM  =      2234.31706254
  Solvation  Ediel_sol  =         0.00000000
  ---------------------------------------------------
  free energy    TOTEN  =       -39.79051944 eV

  energy without entropy =      -39.79051944  energy(sigma->0) =      -39.79051944


--------------------------------------------------------------------------------------------------------




--------------------------------------- Iteration      1(   8)  ---------------------------------------


    POTLOK:  cpu time    0.0150: real time    0.0170
    SETDIJ:  cpu time    0.0050: real time    0.0042
    EDDIAG:  cpu time    0.0250: real time    0.0254
  RMM-DIIS:  cpu time    0.0910: real time    0.0908
    ORTHCH:  cpu time    0.0020: real time    0.0028
 BZINTS: Fermi energy:  2.347136; 32.000000 electrons
         Band energy:-216.267168;  BLOECHL correction:  0.000000
       DOS:  cpu time    0.0000: real time    0.0004
    CHARGE:  cpu time    0.0120: real time    0.0108
    MIXING:  cpu time    0.0000: real time    0.0011
    --------------------------------------------
      LOOP:  cpu time    0.1500: real time    0.1525

 eigenvalue-minimisations  :   476
 total energy-change (2. order) : 0.8881707E-01  (-0.8773114E-01)
 number of electron      31.9999920 magnetization 
 augmentation part        3.4587273 magnetization 

 Broyden mixing:
  rms(total) = 0.69965E-01    rms(broyden)= 0.69905E-01
  rms(prec ) = 0.16702E+00
  weight for this iteration     100.00

 eigenvalues of (default mixing * dielectric matrix)
  average eigenvalue GAMMA=   1.3242
  2.3040  0.8342  0.8342

 Free energy of the ion-electron system (eV)
  ---------------------------------------------------
  alpha Z        PSCENC =       185.39985751
  Ewald energy   TEWEN  =     -1934.07799583
  -Hartree energ DENC   =      -437.36294600
  -exchange      EXHF   =         0.00000000
  -V(xc)+E(xc)   XCENC  =        85.92397200
  PAW double counting   =      1545.47335150    -1503.10783650
  entropy T*S    EENTRO =         0.00000000
  eigenvalues    EBANDS =      -216.26716759
  atomic energy  EATOM  =      2234.31706254
  Solvation  Ediel_sol  =         0.00000000
  ---------------------------------------------------
  free energy    TOTEN  =       -39.70170236 eV

  energy without entropy =      -39.70170236  energy(sigma->0) =      -39.70170236


--------------------------------------------------------------------------------------------------------




--------------------------------------- Iteration      1(   9)  ---------------------------------------


    POTLOK:  cpu time    0.0160: real time    0.0155
    SETDIJ:  cpu time    0.0040: real time    0.0042
    EDDIAG:  cpu time    0.0250: real time    0.0253
  RMM-DIIS:  cpu time    0.1070: real time    0.1070
    ORTHCH:  cpu time    0.0030: real time    0.0028
 BZINTS: Fermi energy:  2.484704; 32.000000 electrons
         Band energy:-214.763748;  BLOECHL correction:  0.000000
       DOS:  cpu time    0.0000: real time    0.0004
    CHARGE:  cpu time    0.0110: real time    0.0109
    MIXING:  cpu time    0.0010: real time    0.0006
    --------------------------------------------
      LOOP:  cpu time    0.1670: real time    0.1667

 eigenvalue-minimisations  :   541
 total energy-change (2. order) : 0.8862705E-02  (-0.5431482E-02)
 number of electron      31.9999920 magnetization 
 augmentation part        3.4475900 magnetization 

 Broyden mixing:
  rms(total) = 0.58321E-01    rms(broyden)= 0.58318E-01
  rms(prec ) = 0.12968E+00
  weight for this iteration     100.00

 eigenvalues of (default mixing * dielectric matrix)
  average eigenvalue GAMMA=   1.4915
  2.0774  2.0774  0.9081  0.9031

 Free energy of the ion-electron system (eV)
  ---------------------------------------------------
  alpha Z        PSCENC =       185.39985751
  Ewald energy   TEWEN  =     -1934.07799583
  -Hartree energ DENC   =      -438.74295398
  -exchange      EXHF   =         0.00000000
  -V(xc)+E(xc)   XCENC  =        86.02860373
  PAW double counting   =      1554.57250743    -1512.42617336
  entropy T*S    EENTRO =         0.00000000
  eigenvalues    EBANDS =      -214.76374769
  atomic energy  EATOM  =      2234.31706254
  Solvation  Ediel_sol  =         0.00000000
  ---------------------------------------------------
  free energy    TOTEN  =       -39.69283966 eV

  energy without entropy =      -39.69283966  energy(sigma->0) =      -39.69283966


--------------------------------------------------------------------------------------------------------




--------------------------------------- Iteration      1(  10)  ---------------------------------------


    POTLOK:  cpu time    0.0150: real time    0.0157
    SETDIJ:  cpu time    0.0050: real time    0.0042
    EDDIAG:  cpu time    0.0250: real time    0.0253
  RMM-DIIS:  cpu time    0.0910: real time    0.0912
    ORTHCH:  cpu time    0.0030: real time    0.0028
 BZINTS: Fermi energy:  2.639525; 32.000000 electrons
         Band energy:-211.560988;  BLOECHL correction:  0.000000
       DOS:  cpu time    0.0000: real time    0.0004
    CHARGE:  cpu time    0.0110: real time    0.0108
    MIXING:  cpu time    0.0010: real time    0.0007
    --------------------------------------------
      LOOP:  cpu time    0.1510: real time    0.1512

 eigenvalue-minimisations  :   478
 total energy-change (2. order) : 0.4571402E-02  (-0.1199353E-01)
 number of electron      31.9999921 magnetization 
 augmentation part        3.4195176 magnetization 

 Broyden mixing:
  rms(total) = 0.30056E-01    rms(broyden)= 0.30037E-01
  rms(prec ) = 0.59579E-01
  weight for this iteration     100.00

 eigenvalues of (default mixing * dielectric matrix)
  average eigenvalue GAMMA=   1.4196
  2.4802  0.8507  1.1240  1.3217  1.3217

 Free energy of the ion-electron system (eV)
  ---------------------------------------------------
  alpha Z        PSCENC =       185.39985751
  Ewald energy   TEWEN  =     -1934.07799583
  -Hartree energ DENC   =      -442.19953508
  -exchange      EXHF   =         0.00000000
  -V(xc)+E(xc)   XCENC  =        86.24259423
  PAW double counting   =      1561.42023057    -1519.22949459
  entropy T*S    EENTRO =         0.00000000
  eigenvalues    EBANDS =      -211.56098760
  atomic energy  EATOM  =      2234.31706254
  Solvation  Ediel_sol  =         0.00000000
  ---------------------------------------------------
  free energy    TOTEN  =       -39.68826826 eV

  energy without entropy =      -39.68826826  energy(sigma->0) =      -39.68826826


--------------------------------------------------------------------------------------------------------




--------------------------------------- Iteration      1(  11)  ---------------------------------------


    POTLOK:  cpu time    0.0150: real time    0.0158
    SETDIJ:  cpu time    0.0050: real time    0.0042
    EDDIAG:  cpu time    0.0250: real time    0.0256
  RMM-DIIS:  cpu time    0.0990: real time    0.0987
    ORTHCH:  cpu time    0.0020: real time    0.0027
 BZINTS: Fermi energy:  2.538872; 32.000000 electrons
         Band energy:-212.504659;  BLOECHL correction:  0.000000
       DOS:  cpu time    0.0000: real time    0.0003
    CHARGE:  cpu time    0.0120: real time    0.0108
    MIXING:  cpu time    0.0000: real time    0.0007
    --------------------------------------------
      LOOP:  cpu time    0.1580: real time    0.1588

 eigenvalue-minimisations  :   516
 total energy-change (2. order) : 0.1363946E-02  (-0.1358466E-02)
 number of electron      31.9999921 magnetization 
 augmentation part        3.4167327 magnetization 

 Broyden mixing:
  rms(total) = 0.65297E-02    rms(broyden)= 0.65280E-02
  rms(prec ) = 0.16174E-01
  weight for this iteration     100.00

 eigenvalues of (default mixing * dielectric matrix)
  average eigenvalue GAMMA=   1.4547
  2.4405  1.8034  1.8034  0.9570  0.9570  0.7669

 Free energy of the ion-electron system (eV)
  ---------------------------------------------------
  alpha Z        PSCENC =       185.39985751
  Ewald energy   TEWEN  =     -1934.07799583
  -Hartree energ DENC   =      -441.18573008
  -exchange      EXHF   =         0.00000000
  -V(xc)+E(xc)   XCENC  =        86.18163627
  PAW double counting   =      1561.77136420    -1519.58843993
  entropy T*S    EENTRO =         0.00000000
  eigenvalues    EBANDS =      -212.50465899
  atomic energy  EATOM  =      2234.31706254
  Solvation  Ediel_sol  =         0.00000000
  ---------------------------------------------------
  free energy    TOTEN  =       -39.68690431 eV

  energy without entropy =      -39.68690431  energy(sigma->0) =      -39.68690431


--------------------------------------------------------------------------------------------------------




--------------------------------------- Iteration      1(  12)  ---------------------------------------


    POTLOK:  cpu time    0.0160: real time    0.0157
    SETDIJ:  cpu time    0.0040: real time    0.0042
    EDDIAG:  cpu time    0.0260: real time    0.0253
  RMM-DIIS:  cpu time    0.0980: real time    0.0979
    ORTHCH:  cpu time    0.0020: real time    0.0027
 BZINTS: Fermi energy:  2.553021; 32.000000 electrons
         Band energy:-212.793080;  BLOECHL correction:  0.000000
       DOS:  cpu time    0.0000: real time    0.0003
    CHARGE:  cpu time    0.0110: real time    0.0108
    MIXING:  cpu time    0.0010: real time    0.0007
    --------------------------------------------
      LOOP:  cpu time    0.1580: real time    0.1577

 eigenvalue-minimisations  :   516
 total energy-change (2. order) :-0.3468489E-03  (-0.4773386E-03)
 number of electron      31.9999921 magnetization 
 augmentation part        3.4198014 magnetization 

 Broyden mixing:
  rms(total) = 0.80035E-02    rms(broyden)= 0.80027E-02
  rms(prec ) = 0.16501E-01
  weight for this iteration     100.00

 eigenvalues of (default mixing * dielectric matrix)
  average eigenvalue GAMMA=   1.5166
  2.5180  2.5180  0.8294  1.2020  1.2020  1.1736  1.1736

 Free energy of the ion-electron system (eV)
  ---------------------------------------------------
  alpha Z        PSCENC =       185.39985751
  Ewald energy   TEWEN  =     -1934.07799583
  -Hartree energ DENC   =      -440.95962873
  -exchange      EXHF   =         0.00000000
  -V(xc)+E(xc)   XCENC  =        86.17136188
  PAW double counting   =      1561.12235643    -1518.86718504
  entropy T*S    EENTRO =         0.00000000
  eigenvalues    EBANDS =      -212.79307992
  atomic energy  EATOM  =      2234.31706254
  Solvation  Ediel_sol  =         0.00000000
  ---------------------------------------------------
  free energy    TOTEN  =       -39.68725116 eV

  energy without entropy =      -39.68725116  energy(sigma->0) =      -39.68725116


--------------------------------------------------------------------------------------------------------




--------------------------------------- Iteration      1(  13)  ---------------------------------------


    POTLOK:  cpu time    0.0150: real time    0.0156
    SETDIJ:  cpu time    0.0050: real time    0.0042
    EDDIAG:  cpu time    0.0250: real time    0.0252
  RMM-DIIS:  cpu time    0.0980: real time    0.0983
    ORTHCH:  cpu time    0.0030: real time    0.0027
 BZINTS: Fermi energy:  2.556513; 32.000000 electrons
         Band energy:-212.566087;  BLOECHL correction:  0.000000
       DOS:  cpu time    0.0000: real time    0.0003
    CHARGE:  cpu time    0.0110: real time    0.0107
    MIXING:  cpu time    0.0010: real time    0.0007
    --------------------------------------------
      LOOP:  cpu time    0.1580: real time    0.1579

 eigenvalue-minimisations  :   513
 total energy-change (2. order) :-0.1672838E-04  (-0.1677934E-03)
 number of electron      31.9999921 magnetization 
 augmentation part        3.4152527 magnetization 

 Broyden mixing:
  rms(total) = 0.46090E-02    rms(broyden)= 0.46088E-02
  rms(prec ) = 0.11614E-01
  weight for this iteration     100.00

 eigenvalues of (default mixing * dielectric matrix)
  average eigenvalue GAMMA=   1.5651
  2.7311  2.2989  2.2989  1.2559  1.2559  0.9541  0.9541  0.7716

 Free energy of the ion-electron system (eV)
  ---------------------------------------------------
  alpha Z        PSCENC =       185.39985751
  Ewald energy   TEWEN  =     -1934.07799583
  -Hartree energ DENC   =      -441.24198982
  -exchange      EXHF   =         0.00000000
  -V(xc)+E(xc)   XCENC  =        86.18695776
  PAW double counting   =      1561.85097324    -1519.55604639
  entropy T*S    EENTRO =         0.00000000
  eigenvalues    EBANDS =      -212.56608689
  atomic energy  EATOM  =      2234.31706254
  Solvation  Ediel_sol  =         0.00000000
  ---------------------------------------------------
  free energy    TOTEN  =       -39.68726789 eV

  energy without entropy =      -39.68726789  energy(sigma->0) =      -39.68726789


--------------------------------------------------------------------------------------------------------




--------------------------------------- Iteration      1(  14)  ---------------------------------------


    POTLOK:  cpu time    0.0150: real time    0.0156
    SETDIJ:  cpu time    0.0040: real time    0.0042
    EDDIAG:  cpu time    0.0250: real time    0.0253
  RMM-DIIS:  cpu time    0.1020: real time    0.1011
    ORTHCH:  cpu time    0.0020: real time    0.0027
 BZINTS: Fermi energy:  2.557549; 32.000000 electrons
         Band energy:-212.445311;  BLOECHL correction:  0.000000
       DOS:  cpu time    0.0000: real time    0.0003
    CHARGE:  cpu time    0.0120: real time    0.0108
    MIXING:  cpu time    0.0000: real time    0.0008
    --------------------------------------------
      LOOP:  cpu time    0.1600: real time    0.1608

 eigenvalue-minimisations  :   520
 total energy-change (2. order) :-0.3479399E-04  (-0.9961238E-04)
 number of electron      31.9999921 magnetization 
 augmentation part        3.4155030 magnetization 

 Broyden mixing:
  rms(total) = 0.22122E-02    rms(broyden)= 0.22106E-02
  rms(prec ) = 0.49554E-02
  weight for this iteration     100.00

 eigenvalues of (default mixing * dielectric matrix)
  average eigenvalue GAMMA=   1.5584
  2.8493  2.8493  2.5335  1.2303  1.2303  1.0309  0.8701  0.7776  0.6546

 Free energy of the ion-electron system (eV)
  ---------------------------------------------------
  alpha Z        PSCENC =       185.39985751
  Ewald energy   TEWEN  =     -1934.07799583
  -Hartree energ DENC   =      -441.37819521
  -exchange      EXHF   =         0.00000000
  -V(xc)+E(xc)   XCENC  =        86.19818761
  PAW double counting   =      1562.26443144    -1519.96533942
  entropy T*S    EENTRO =         0.00000000
  eigenvalues    EBANDS =      -212.44531132
  atomic energy  EATOM  =      2234.31706254
  Solvation  Ediel_sol  =         0.00000000
  ---------------------------------------------------
  free energy    TOTEN  =       -39.68730268 eV

  energy without entropy =      -39.68730268  energy(sigma->0) =      -39.68730268


--------------------------------------------------------------------------------------------------------




--------------------------------------- Iteration      1(  15)  ---------------------------------------


    POTLOK:  cpu time    0.0160: real time    0.0185
    SETDIJ:  cpu time    0.0040: real time    0.0042
    EDDIAG:  cpu time    0.0250: real time    0.0252
  RMM-DIIS:  cpu time    0.0880: real time    0.0873
    ORTHCH:  cpu time    0.0030: real time    0.0028
 BZINTS: Fermi energy:  2.558303; 32.000000 electrons
         Band energy:-212.503402;  BLOECHL correction:  0.000000
       DOS:  cpu time    0.0000: real time    0.0003
    CHARGE:  cpu time    0.0100: real time    0.0110
    MIXING:  cpu time    0.0020: real time    0.0008
    --------------------------------------------
      LOOP:  cpu time    0.1480: real time    0.1502

 eigenvalue-minimisations  :   439
 total energy-change (2. order) :-0.1522410E-04  (-0.2939026E-04)
 number of electron      31.9999921 magnetization 
 augmentation part        3.4146299 magnetization 

 Broyden mixing:
  rms(total) = 0.70053E-03    rms(broyden)= 0.70047E-03
  rms(prec ) = 0.17372E-02
  weight for this iteration     100.00

 eigenvalues of (default mixing * dielectric matrix)
  average eigenvalue GAMMA=   1.5791
  3.0077  2.6173  2.6173  1.1926  1.1926  1.3891  1.1997  0.9280  0.9280  0.7189

 Free energy of the ion-electron system (eV)
  ---------------------------------------------------
  alpha Z        PSCENC =       185.39985751
  Ewald energy   TEWEN  =     -1934.07799583
  -Hartree energ DENC   =      -441.33809329
  -exchange      EXHF   =         0.00000000
  -V(xc)+E(xc)   XCENC  =        86.19443649
  PAW double counting   =      1562.10501366    -1519.78419701
  entropy T*S    EENTRO =         0.00000000
  eigenvalues    EBANDS =      -212.50340198
  atomic energy  EATOM  =      2234.31706254
  Solvation  Ediel_sol  =         0.00000000
  ---------------------------------------------------
  free energy    TOTEN  =       -39.68731791 eV

  energy without entropy =      -39.68731791  energy(sigma->0) =      -39.68731791


--------------------------------------------------------------------------------------------------------




--------------------------------------- Iteration      1(  16)  ---------------------------------------


    POTLOK:  cpu time    0.0150: real time    0.0158
    SETDIJ:  cpu time    0.0050: real time    0.0042
    EDDIAG:  cpu time    0.0250: real time    0.0257
  RMM-DIIS:  cpu time    0.0760: real time    0.0757
    ORTHCH:  cpu time    0.0020: real time    0.0027
 BZINTS: Fermi energy:  2.558508; 32.000000 electrons
         Band energy:-212.489668;  BLOECHL correction:  0.000000
       DOS:  cpu time    0.0010: real time    0.0004
    CHARGE:  cpu time    0.0110: real time    0.0109
    MIXING:  cpu time    0.0010: real time    0.0009
    --------------------------------------------
      LOOP:  cpu time    0.1360: real time    0.1364

 eigenvalue-minimisations  :   378
 total energy-change (2. order) :-0.1053403E-04  (-0.1221191E-04)
 number of electron      31.9999921 magnetization 
 augmentation part        3.4145999 magnetization 

 Broyden mixing:
  rms(total) = 0.80523E-03    rms(broyden)= 0.80519E-03
  rms(prec ) = 0.18170E-02
  weight for this iteration     100.00

 eigenvalues of (default mixing * dielectric matrix)
  average eigenvalue GAMMA=   1.7366
  4.8357  2.6010  2.6010  2.2214  1.2172  1.2172  1.0863  0.9394  0.9394  0.8092
  0.6344

 Free energy of the ion-electron system (eV)
  ---------------------------------------------------
  alpha Z        PSCENC =       185.39985751
  Ewald energy   TEWEN  =     -1934.07799583
  -Hartree energ DENC   =      -441.35999617
  -exchange      EXHF   =         0.00000000
  -V(xc)+E(xc)   XCENC  =        86.19622098
  PAW double counting   =      1562.15376830    -1519.82657824
  entropy T*S    EENTRO =         0.00000000
  eigenvalues    EBANDS =      -212.48966752
  atomic energy  EATOM  =      2234.31706254
  Solvation  Ediel_sol  =         0.00000000
  ---------------------------------------------------
  free energy    TOTEN  =       -39.68732844 eV

  energy without entropy =      -39.68732844  energy(sigma->0) =      -39.68732844


--------------------------------------------------------------------------------------------------------




--------------------------------------- Iteration      1(  17)  ---------------------------------------


    POTLOK:  cpu time    0.0150: real time    0.0155
    SETDIJ:  cpu time    0.0040: real time    0.0042
    EDDIAG:  cpu time    0.0260: real time    0.0254
  RMM-DIIS:  cpu time    0.0670: real time    0.0668
    ORTHCH:  cpu time    0.0020: real time    0.0027
 BZINTS: Fermi energy:  2.558235; 32.000000 electrons
         Band energy:-212.507510;  BLOECHL correction:  0.000000
       DOS:  cpu time    0.0010: real time    0.0003
    --------------------------------------------
      LOOP:  cpu time    0.1150: real time    0.1150

 eigenvalue-minimisations  :   330
 total energy-change (2. order) :-0.2951737E-05  (-0.4341008E-05)
 number of electron      31.9999921 magnetization 
 augmentation part        3.4145999 magnetization 

 Free energy of the ion-electron system (eV)
  ---------------------------------------------------
  alpha Z        PSCENC =       185.39985751
  Ewald energy   TEWEN  =     -1934.07799583
  -Hartree energ DENC   =      -441.35047832
  -exchange      EXHF   =         0.00000000
  -V(xc)+E(xc)   XCENC  =        86.19536215
  PAW double counting   =      1562.13200167    -1519.79563133
  entropy T*S    EENTRO =         0.00000000
  eigenvalues    EBANDS =      -212.50750978
  atomic energy  EATOM  =      2234.31706254
  Solvation  Ediel_sol  =         0.00000000
  ---------------------------------------------------
  free energy    TOTEN  =       -39.68733139 eV

  energy without entropy =      -39.68733139  energy(sigma->0) =      -39.68733139


--------------------------------------------------------------------------------------------------------




 average (electrostatic) potential at core
  the test charge radii are     1.1929  1.2598  0.7215
  (the norm of the test charge is              1.0000)
       1 -36.1327       2 -26.8003       3 -71.0553       4 -71.0553       5 -71.0553
 
 
 
 E-fermi :   2.5582     XC(G=0): -11.1508     alpha+bet :-12.6354


 k-point     1 :       0.0000    0.0000    0.0000
  band No.  band energies     occupation 
      1     -30.0796      2.00000
      2     -14.8175      2.00000
      3     -13.8116      2.00000
      4     -13.8116      2.00000
      5     -12.1438      2.00000
      6     -12.1438      2.00000
      7     -12.1438      2.00000
      8      -0.2108      2.00000
      9      -0.2108      2.00000
     10      -0.2108      2.00000
     11       1.4776      2.00000
     12       1.4776      2.00000
     13       1.4776      2.00000
     14       2.3179      2.00000
     15       2.3179      2.00000
     16       2.3179      2.00000
     17       4.3402      0.00000
     18       4.3402      0.00000
     19       4.3402      0.00000
     20       8.0322      0.00000

 k-point     2 :       0.2000    0.0000    0.0000
  band No.  band energies     occupation 
      1     -30.0715      2.00000
      2     -14.8545      2.00000
      3     -13.8251      2.00000
      4     -13.7973      2.00000
      5     -12.1271      2.00000
      6     -12.1271      2.00000
      7     -11.9080      2.00000
      8      -0.7023      2.00000
      9      -0.2336      2.00000
     10      -0.2336      2.00000
     11       1.0034      2.00000
     12       1.0034      2.00000
     13       1.1634      2.00000
     14       1.3157      2.00000
     15       2.1217      2.00000
     16       2.1217      2.00000
     17       4.3936      0.00000
     18       5.1129      0.00000
     19       5.1129      0.00000
     20       8.6688      0.00000

 k-point     3 :       0.4000    0.0000    0.0000
  band No.  band energies     occupation 
      1     -30.0584      2.00000
      2     -15.0021      2.00000
      3     -13.7749      2.00000
      4     -13.6583      2.00000
      5     -12.0998      2.00000
      6     -12.0998      2.00000
      7     -11.6050      2.00000
      8      -1.5578      2.00000
      9      -0.2369      2.00000
     10      -0.2369      2.00000
     11       0.3025      2.00000
     12       0.3672      2.00000
     13       0.3672      2.00000
     14       0.7293      2.00000
     15       1.9542      2.00000
     16       1.9542      2.00000
     17       4.4836      0.00000
     18       6.0921      0.00000
     19       6.0921      0.00000
     20       9.8350      0.00000

 k-point     4 :       0.2000    0.2000    0.0000
  band No.  band energies     occupation 
      1     -30.0639      2.00000
      2     -14.7986      2.00000
      3     -13.9108      2.00000
      4     -13.7675      2.00000
      5     -12.1095      2.00000
      6     -11.9955      2.00000
      7     -11.8652      2.00000
      8      -0.9409      2.00000
      9      -0.5235      2.00000
     10      -0.2517      2.00000
     11       0.1012      2.00000
     12       0.6953      2.00000
     13       1.1589      2.00000
     14       1.4046      2.00000
     15       1.7843      2.00000
     16       1.8017      2.00000
     17       5.0686      0.00000
     18       5.2054      0.00000
     19       5.4336      0.00000
     20       9.2989      0.00000

 k-point     5 :       0.4000    0.2000    0.0000
  band No.  band energies     occupation 
      1     -30.0514      2.00000
      2     -14.8193      2.00000
      3     -13.8476      2.00000
      4     -13.7346      2.00000
      5     -12.0806      2.00000
      6     -11.9574      2.00000
      7     -11.6759      2.00000
      8      -1.5940      2.00000
      9      -0.9787      2.00000
     10      -0.5464      2.00000
     11      -0.2457      2.00000
     12       0.1800      2.00000
     13       0.7145      2.00000
     14       1.3195      2.00000
     15       1.5070      2.00000
     16       1.7572      2.00000
     17       5.1810      0.00000
     18       6.0961      0.00000
     19       6.1634      0.00000
     20      10.0885      0.00000

 k-point     6 :       0.4000    0.4000    0.0000
  band No.  band energies     occupation 
      1     -30.0401      2.00000
      2     -14.4427      2.00000
      3     -14.0416      2.00000
      4     -13.8269      2.00000
      5     -12.0492      2.00000
      6     -11.7766      2.00000
      7     -11.7475      2.00000
      8      -1.8414      2.00000
      9      -1.6647      2.00000
     10      -1.4175      2.00000
     11      -0.2532      2.00000
     12      -0.1254      2.00000
     13       0.9569      2.00000
     14       1.0380      2.00000
     15       1.0996      2.00000
     16       2.3857      2.00000
     17       6.0819      0.00000
     18       6.1222      0.00000
     19       6.5184      0.00000
     20      10.5906      0.00000

 k-point     7 :       0.2000    0.2000    0.2000
  band No.  band energies     occupation 
      1     -30.0565      2.00000
      2     -14.7043      2.00000
      3     -13.8468      2.00000
      4     -13.8468      2.00000
      5     -12.0616      2.00000
      6     -12.0616      2.00000
      7     -11.7814      2.00000
      8      -1.1697      2.00000
      9      -0.5265      2.00000
     10      -0.5265      2.00000
     11       0.0584      2.00000
     12       0.0584      2.00000
     13       0.4518      2.00000
     14       1.6818      2.00000
     15       1.6818      2.00000
     16       1.8450      2.00000
     17       5.4385      0.00000
     18       5.5207      0.00000
     19       5.5207      0.00000
     20       9.6371      0.00000

 k-point     8 :       0.4000    0.2000    0.2000
  band No.  band energies     occupation 
      1     -30.0446      2.00000
      2     -14.6388      2.00000
      3     -13.8470      2.00000
      4     -13.7312      2.00000
      5     -12.1816      2.00000
      6     -11.9074      2.00000
      7     -11.7450      2.00000
      8      -1.6200      2.00000
      9      -1.0859      2.00000
     10      -0.6219      2.00000
     11      -0.5965      2.00000
     12      -0.3965      2.00000
     13       0.3847      2.00000
     14       1.5791      2.00000
     15       1.5974      2.00000
     16       1.8701      2.00000
     17       5.5804      0.00000
     18       6.2060      0.00000
     19       6.2226      0.00000
     20      10.4296      0.00000

 k-point     9 :       0.4000    0.4000    0.2000
  band No.  band energies     occupation 
      1     -30.0336      2.00000
      2     -14.2668      2.00000
      3     -13.9186      2.00000
      4     -13.7391      2.00000
      5     -12.1951      2.00000
      6     -11.9547      2.00000
      7     -11.8466      2.00000
      8      -1.7388      2.00000
      9      -1.5091      2.00000
     10      -1.4097      2.00000
     11      -0.6980      2.00000
     12      -0.5929      2.00000
     13      -0.0861      2.00000
     14       1.6597      2.00000
     15       1.7315      2.00000
     16       2.4100      2.00000
     17       6.2756      0.00000
     18       6.3058      0.00000
     19       6.5892      0.00000
     20      10.4353      0.00000

 k-point    10 :       0.4000    0.4000    0.4000
  band No.  band energies     occupation 
      1     -30.0231      2.00000
      2     -13.9042      2.00000
      3     -13.6581      2.00000
      4     -13.6581      2.00000
      5     -12.3033      2.00000
      6     -12.3033      2.00000
      7     -12.1185      2.00000
      8      -1.7718      2.00000
      9      -1.3946      2.00000
     10      -1.3946      2.00000
     11      -1.1947      2.00000
     12      -1.0153      2.00000
     13      -1.0153      2.00000
     14       2.3465      2.00000
     15       2.3465      2.00000
     16       2.5019      2.00000
     17       6.6914      0.00000
     18       6.7140      0.00000
     19       6.7140      0.00000
     20       9.9568      0.00000


--------------------------------------------------------------------------------------------------------


 soft charge-density along one line, spin component           1
         0         1         2         3         4         5         6         7         8         9
 total charge-density along one line
 
 pseudopotential strength for first ion, spin component:           1
-11.347  -7.402   0.000   0.000  -0.000  -0.000  -0.000   0.000
 -7.402  -5.734   0.000   0.000  -0.000  -0.000  -0.000   0.000
  0.000   0.000 -14.872   0.000  -0.000   0.103  -0.000   0.000
  0.000   0.000   0.000 -14.872   0.000  -0.000   0.103  -0.000
 -0.000  -0.000  -0.000   0.000 -14.872   0.000  -0.000   0.103
 -0.000  -0.000   0.103  -0.000   0.000   0.037  -0.000   0.000
 -0.000  -0.000  -0.000   0.103  -0.000  -0.000   0.037  -0.000
  0.000   0.000   0.000  -0.000   0.103   0.000  -0.000   0.037
 -0.000  -0.000  -0.000   0.000   0.000   0.000  -0.000  -0.000
  0.000   0.000   0.000   0.000   0.000  -0.000  -0.000  -0.000
  0.000   0.000  -0.000   0.000   0.000   0.000  -0.000  -0.000
  0.000   0.000   0.000  -0.000   0.000  -0.000   0.000  -0.000
 -0.000  -0.000  -0.000   0.000  -0.000   0.000  -0.000   0.000
 -0.000  -0.000  -0.000   0.000   0.000  -0.000   0.000   0.000
  0.000   0.000   0.000   0.000   0.000   0.000   0.000   0.000
  0.000   0.000  -0.000   0.000   0.000  -0.000  -0.000   0.000
  0.000   0.000   0.000  -0.000   0.000   0.000  -0.000   0.000
 -0.000  -0.000  -0.000   0.000  -0.000   0.000   0.000   0.000
 total augmentation occupancy for first ion, spin component:           1
  2.105  -0.226   0.000   0.000   0.000   0.000   0.000   0.000   0.000   0.000   0.000  -0.000   0.000  -0.000  -0.000   0.000
 -0.226   0.472   0.000   0.000   0.000   0.000   0.000   0.000  -0.000   0.000  -0.000   0.000   0.000  -0.000   0.000   0.000
  0.000   0.000   2.025   0.000   0.000   0.071   0.000   0.000   0.000   0.000   0.000   0.000   0.000   0.000   0.000   0.000
  0.000   0.000   0.000   2.025  -0.000  -0.000   0.071  -0.000   0.000   0.000   0.000   0.000   0.000   0.000   0.000   0.000
  0.000   0.000   0.000  -0.000   2.025  -0.000   0.000   0.071   0.000   0.000   0.000   0.000   0.000   0.000   0.000   0.000
  0.000   0.000   0.071   0.000  -0.000   0.297   0.000  -0.000   0.000   0.000   0.000   0.000   0.000   0.000   0.000   0.000
  0.000   0.000   0.000   0.071  -0.000  -0.000   0.297   0.000   0.000   0.000   0.000   0.000   0.000   0.000   0.000   0.000
  0.000   0.000   0.000   0.000   0.071   0.000   0.000   0.297   0.000   0.000   0.000   0.000   0.000   0.000   0.000   0.000
  0.000  -0.000   0.000   0.000   0.000   0.000   0.000   0.000   0.094  -0.000   0.000   0.000   0.000  -0.425  -0.000  -0.000
  0.000   0.000   0.000   0.000   0.000   0.000   0.000   0.000  -0.000   0.094  -0.000   0.000  -0.000  -0.000  -0.425   0.000
  0.000  -0.000   0.000   0.000   0.000   0.000   0.000   0.000   0.000  -0.000   0.063  -0.000   0.000  -0.000  -0.000  -0.276
 -0.000  -0.000   0.000   0.000   0.000   0.000   0.000   0.000   0.000  -0.000  -0.000   0.094   0.000  -0.000   0.000   0.000
  0.000   0.000   0.000   0.000   0.000   0.000   0.000   0.000  -0.000  -0.000   0.000   0.000   0.063   0.000   0.000   0.000
 -0.000  -0.000   0.000   0.000   0.000   0.000   0.000   0.000  -0.425  -0.000   0.000   0.000  -0.000   2.038   0.000  -0.000
 -0.000  -0.000   0.000   0.000   0.000   0.000   0.000   0.000   0.000  -0.425  -0.000   0.000   0.000   0.000   2.038   0.000
  0.000   0.000   0.000   0.000   0.000   0.000   0.000   0.000  -0.000   0.000  -0.276   0.000   0.000  -0.000   0.000   1.273
  0.000   0.000   0.000   0.000   0.000   0.000   0.000   0.000  -0.000   0.000  -0.000  -0.425  -0.000  -0.000  -0.000   0.000
  0.000   0.000   0.000   0.000   0.000   0.000   0.000   0.000   0.000   0.000   0.000  -0.000  -0.276  -0.000   0.000   0.000


------------------------ aborting loop because EDIFF is reached ----------------------------------------


    CHARGE:  cpu time    0.0110: real time    0.0114
    FORLOC:  cpu time    0.0020: real time    0.0021
    FORNL :  cpu time    0.0300: real time    0.0298
    STRESS:  cpu time    0.1150: real time    0.1149
    FORCOR:  cpu time    0.0170: real time    0.0169
    FORHAR:  cpu time    0.0050: real time    0.0043
    MIXING:  cpu time    0.0000: real time    0.0009
    OFIELD:  cpu time    0.0000: real time    0.0000

  FORCE on cell =-STRESS in cart. coord.  units (eV):
  Direction    XX          YY          ZZ          XY          YZ          ZX
  --------------------------------------------------------------------------------------
  Alpha Z   185.39986   185.39986   185.39986
  Ewald    -644.69310  -644.69310  -644.69310     0.00000    -0.00000    -0.00000
  Hartree   147.11253   147.11253   147.11253    -0.00000    -0.00000    -0.00000
  E(xc)    -145.39078  -145.39078  -145.39078     0.00000     0.00000     0.00000
  Local      -9.65450    -9.65450    -9.65450     0.00000     0.00000    -0.00000
  n-local  -123.20707  -119.26594  -114.84094    -0.49411    -0.36993    -0.30010
  augment    28.92037    28.92037    28.92037    -0.00000     0.00000     0.00000
  Kinetic   550.58280   562.04437   566.66580    -2.62037    -2.37477    -1.71973
  Fock        0.00000     0.00000     0.00000     0.00000     0.00000     0.00000
  -------------------------------------------------------------------------------------
  Total       2.35406     2.35406     2.35406     0.00000     0.00000    -0.00000
  in kB      63.32502    63.32502    63.32502     0.00000     0.00000    -0.00000
  external pressure =       63.33 kB  Pullay stress =        0.00 kB


 VOLUME and BASIS-vectors are now :
 -----------------------------------------------------------------------------
  energy-cutoff  :      500.00
  volume of cell :       59.56
      direct lattice vectors                 reciprocal lattice vectors
     3.905268000  0.000000000  0.000000000     0.256064373  0.000000000  0.000000000
     0.000000000  3.905268000  0.000000000     0.000000000  0.256064373  0.000000000
     0.000000000  0.000000000  3.905268000     0.000000000  0.000000000  0.256064373

  length of vectors
     3.905268000  3.905268000  3.905268000     0.256064373  0.256064373  0.256064373


 FORCES acting on ions
    electron-ion (+dipol)            ewald-force                    non-local-force                 convergence-correction
 -----------------------------------------------------------------------------------------------
   -.209E-14 -.293E-14 -.488E-14   -.987E-14 0.226E-14 -.502E-14   0.000E+00 0.000E+00 0.000E+00   -.378E-14 0.397E-14 -.588E-14
   0.304E-14 -.458E-12 -.456E-13   0.387E-14 0.424E-14 -.122E-14   0.000E+00 0.000E+00 0.000E+00   -.115E-15 -.127E-14 0.729E-15
   0.156E-12 -.142E-11 -.153E-11   0.648E-14 0.208E-14 -.144E-14   0.000E+00 0.000E+00 0.000E+00   -.174E-13 0.175E-13 0.169E-14
   0.153E-12 -.467E-14 -.193E-11   0.284E-14 -.378E-14 0.434E-14   0.000E+00 0.000E+00 0.000E+00   -.170E-13 0.784E-14 -.389E-14
   -.649E-14 0.155E-12 0.152E-12   -.327E-14 -.425E-14 0.433E-14   0.000E+00 0.000E+00 0.000E+00   -.110E-13 0.176E-16 0.391E-15
 -----------------------------------------------------------------------------------------------
   0.303E-12 -.173E-11 -.336E-11   0.432E-16 0.547E-15 0.100E-14   0.000E+00 0.000E+00 0.000E+00   -.492E-13 0.281E-13 -.697E-14
 
 
 POSITION                                       TOTAL-FORCE (eV/Angst)
 -----------------------------------------------------------------------------------
      0.00000      0.00000      0.00000         0.000000      0.000000      0.000000
      1.95263      1.95263      1.95263         0.000000      0.000000      0.000000
      1.95263      1.95263      0.00000         0.000000      0.000000      0.000000
      1.95263      0.00000      1.95263         0.000000      0.000000      0.000000
      0.00000      1.95263      1.95263         0.000000      0.000000      0.000000
 -----------------------------------------------------------------------------------
    total drift:                                0.000000     -0.000000     -0.000000


--------------------------------------------------------------------------------------------------------



  FREE ENERGIE OF THE ION-ELECTRON SYSTEM (eV)
  ---------------------------------------------------
  free  energy   TOTEN  =       -39.68733139 eV

  energy  without entropy=      -39.68733139  energy(sigma->0) =      -39.68733139
 


--------------------------------------------------------------------------------------------------------


    POTLOK:  cpu time    0.0210: real time    0.0202


--------------------------------------------------------------------------------------------------------


     LOOP+:  cpu time    2.8536: real time    2.9651
    4ORBIT:  cpu time    0.0000: real time    0.0000
 BZINTS: Fermi energy:  2.558235; 32.000000 electrons
         Band energy:-212.507510;  BLOECHL correction:  0.000000

 total amount of memory used by VASP MPI-rank0    37952. kBytes
=======================================================================

   base      :      30000. kBytes
   nonl-proj :       3352. kBytes
   fftplans  :       1176. kBytes
   grid      :       2105. kBytes
   one-center:         46. kBytes
   wavefun   :       1273. kBytes
 
  
  
 General timing and accounting informations for this job:
 ========================================================
  
                  Total CPU time used (sec):        3.612
                            User time (sec):        3.527
                          System time (sec):        0.085
                         Elapsed time (sec):        4.213
  
                   Maximum memory used (kb):       37612.
                   Average memory used (kb):           0.
  
                          Minor page faults:        11473
                          Major page faults:          160
                 Voluntary context switches:         2724
