Starting job 28374159 ("jobname") on c31-31 at Fri Oct 18 13:42:45 CEST 2019
 running on    4 total cores
 distrk:  each k-point on    4 cores,    1 groups
 distr:  one band on    2 cores,    2 groups
 using from now: INCAR     
 vasp.5.4.4.18Apr17-6-g9f103f2a35 (build Jun 30 2017 11:15:00) complex          
  
 POSCAR found type information on POSCAR  Sr Ti O 
 POSCAR found :  3 types and       5 ions
 scaLAPACK will be used

 ----------------------------------------------------------------------------- 
|                                                                             |
|  ADVICE TO THIS USER RUNNING 'VASP/VAMP'   (HEAR YOUR MASTER'S VOICE ...):  |
|                                                                             |
|      You have a (more or less) 'small supercell' and for smaller cells      |
|      it is recommended  to use the reciprocal-space projection scheme!      |
|      The real space optimization is not  efficient for small cells and it   |
|      is also less accurate ...                                              |
|      Therefore set LREAL=.FALSE. in the  INCAR file                         |
|                                                                             |
 ----------------------------------------------------------------------------- 

 LDA part: xc-table for Pade appr. of Perdew
 POSCAR, INCAR and KPOINTS ok, starting setup
 FFT: planning ...
 WAVECAR not read
 entering main loop
       N       E                     dE             d eps       ncg     rms          rms(c)
DAV:   1     0.308785635030E+03    0.30879E+03   -0.15415E+04   400   0.156E+03
DAV:   2    -0.197320068925E+02   -0.32852E+03   -0.31591E+03   524   0.363E+02
DAV:   3    -0.490646745506E+02   -0.29333E+02   -0.28995E+02   472   0.125E+02
DAV:   4    -0.501990355107E+02   -0.11344E+01   -0.11316E+01   672   0.224E+01
DAV:   5    -0.502278972639E+02   -0.28862E-01   -0.28855E-01   528   0.276E+00    0.183E+01
RMM:   6    -0.404026130111E+02    0.98253E+01   -0.58509E+01   434   0.443E+01    0.624E+00
RMM:   7    -0.397894056423E+02    0.61321E+00   -0.15491E+00   476   0.100E+01    0.322E+00
RMM:   8    -0.397006078190E+02    0.88798E-01   -0.87743E-01   476   0.737E+00    0.699E-01
RMM:   9    -0.396917516585E+02    0.88562E-02   -0.54298E-02   541   0.181E+00    0.583E-01
RMM:  10    -0.396871810306E+02    0.45706E-02   -0.12009E-01   478   0.195E+00    0.301E-01
RMM:  11    -0.396858093984E+02    0.13716E-02   -0.13625E-02   517   0.707E-01    0.655E-02
RMM:  12    -0.396861539861E+02   -0.34459E-03   -0.47659E-03   516   0.346E-01    0.798E-02
RMM:  13    -0.396861735654E+02   -0.19579E-04   -0.16739E-03   513   0.200E-01    0.468E-02
RMM:  14    -0.396862066518E+02   -0.33086E-04   -0.10009E-03   519   0.143E-01    0.221E-02
RMM:  15    -0.396862215789E+02   -0.14927E-04   -0.29010E-04   440   0.688E-02    0.683E-03
RMM:  16    -0.396862327305E+02   -0.11152E-04   -0.13088E-04   380   0.459E-02    0.810E-03
RMM:  17    -0.396862355340E+02   -0.28035E-05   -0.41199E-05   330   0.326E-02
   1 F= -.39686236E+02 E0= -.39686236E+02  d E =0.000000E+00

Currently Loaded Modulefiles:
  1) intel/2017.4         2) perf-reports/7.0.6

Job script resource usage:
       JobID  MaxVMSize     MaxRSS 
------------ ---------- ---------- 
28374159.ba+    216884K      2680K 

Job step resource usage:
       JobID    JobName  AllocCPUS  MaxVMSize     MaxRSS    Elapsed ExitCode 
------------ ---------- ---------- ---------- ---------- ---------- -------- 
28374159        jobname          4                         00:00:07      0:0 
28374159.0    pmi_proxy          1    279832K       539K   00:00:05      0:0 

Job 28374159 ("jobname") completed on c31-31 at Fri Oct 18 13:42:51 CEST 2019
