<?xml version="1.0" encoding="ISO-8859-1"?>
<modeling>
 <generator>
  <i name="program" type="string">vasp </i>
  <i name="version" type="string">5.4.4.18Apr17-6-g9f103f2a35  </i>
  <i name="subversion" type="string">(build Jun 30 2017 11:15:00) complex            parallel </i>
  <i name="platform" type="string">STALLO_VASP_5.4.4 </i>
  <i name="date" type="string">2019 10 26 </i>
  <i name="time" type="string">17:42:27 </i>
 </generator>
 <incar>
  <i type="string" name="PREC">normal    ! low/normal/accurate</i>
  <i type="string" name="ALGO"> Fast      ! Algorithm for electronic re</i>
  <i type="int" name="ISPIN">     1</i>
  <i type="int" name="NELMIN">     4</i>
  <i name="EDIFF">      0.00001000</i>
  <i type="int" name="NSW">     0</i>
  <i name="ENCUT">    500.00000000</i>
  <i type="logical" name="LREAL"> F  </i>
  <i type="int" name="ISMEAR">    -5</i>
  <i name="SIGMA">      0.20000000</i>
  <i type="logical" name="LWAVE"> F  </i>
  <v type="int" name="KPOINT_BSE">    -1     0     0     0</v>
 </incar>
 <structure name="primitive_cell" >
  <crystal>
   <varray name="basis" >
    <v>       3.90526800       0.00000000       0.00000000 </v>
    <v>       0.00000000       3.90526800       0.00000000 </v>
    <v>       0.00000000       0.00000000       3.90526800 </v>
   </varray>
   <i name="volume">     59.55970368 </i>
   <varray name="rec_basis" >
    <v>       0.25606437       0.00000000       0.00000000 </v>
    <v>       0.00000000       0.25606437       0.00000000 </v>
    <v>       0.00000000       0.00000000       0.25606437 </v>
   </varray>
  </crystal>
  <varray name="positions" >
   <v>       0.00000000       0.00000000       0.00000000 </v>
   <v>      -0.50000000      -0.50000000       0.00000000 </v>
   <v>      -0.50000000       0.00000000      -0.50000000 </v>
   <v>       0.00000000      -0.50000000      -0.50000000 </v>
   <v>      -0.50000000      -0.50000000      -0.50000000 </v>
  </varray>
 </structure>
 <varray name="primitive_index" >
  <v type="int" >        1 </v>
  <v type="int" >        3 </v>
  <v type="int" >        4 </v>
  <v type="int" >        5 </v>
  <v type="int" >        2 </v>
 </varray>
 <kpoints>
  <generation param="Gamma">
   <v type="int" name="divisions">       5        5        5 </v>
   <v name="usershift">      0.00000000       0.00000000       0.00000000 </v>
   <v name="genvec1">      0.20000000       0.00000000       0.00000000 </v>
   <v name="genvec2">      0.00000000       0.20000000       0.00000000 </v>
   <v name="genvec3">      0.00000000       0.00000000       0.20000000 </v>
   <v name="shift">      0.00000000       0.00000000       0.00000000 </v>
  </generation>
  <varray name="kpointlist" >
   <v>       0.00000000       0.00000000       0.00000000 </v>
   <v>       0.20000000       0.00000000       0.00000000 </v>
   <v>       0.40000000       0.00000000       0.00000000 </v>
   <v>       0.20000000       0.20000000       0.00000000 </v>
   <v>       0.40000000       0.20000000       0.00000000 </v>
   <v>       0.40000000       0.40000000       0.00000000 </v>
   <v>       0.20000000       0.20000000       0.20000000 </v>
   <v>       0.40000000       0.20000000       0.20000000 </v>
   <v>       0.40000000       0.40000000       0.20000000 </v>
   <v>       0.40000000       0.40000000       0.40000000 </v>
  </varray>
  <varray name="weights" >
   <v>       0.00800000 </v>
   <v>       0.04800000 </v>
   <v>       0.04800000 </v>
   <v>       0.09600000 </v>
   <v>       0.19200000 </v>
   <v>       0.09600000 </v>
   <v>       0.06400000 </v>
   <v>       0.19200000 </v>
   <v>       0.19200000 </v>
   <v>       0.06400000 </v>
  </varray>
  <varray name="tetrahedronlist"  type="int" >
   <v type="int" >       12        1        2        2        4 </v>
   <v type="int" >       12        2        2        4        4 </v>
   <v type="int" >       12        2        4        4        7 </v>
   <v type="int" >       12        2        3        4        5 </v>
   <v type="int" >       12        2        4        4        5 </v>
   <v type="int" >       12        4        4        5        7 </v>
   <v type="int" >       12        3        4        5        5 </v>
   <v type="int" >       24        4        5        5        8 </v>
   <v type="int" >       24        4        5        7        8 </v>
   <v type="int" >        6        3        3        5        5 </v>
   <v type="int" >       12        3        5        5        5 </v>
   <v type="int" >       12        5        5        5        8 </v>
   <v type="int" >        6        5        5        8        8 </v>
   <v type="int" >       12        4        5        6        7 </v>
   <v type="int" >       12        5        6        7        8 </v>
   <v type="int" >       12        6        7        8        9 </v>
   <v type="int" >       24        5        5        6        8 </v>
   <v type="int" >       12        5        6        6        8 </v>
   <v type="int" >       12        6        6        8        9 </v>
   <v type="int" >       12        5        6        8        8 </v>
   <v type="int" >       12        6        8        8        9 </v>
   <v type="int" >       12        6        8        9        9 </v>
   <v type="int" >       12        5        6        8        9 </v>
   <v type="int" >       12        5        7        8        8 </v>
   <v type="int" >       24        5        8        8        9 </v>
   <v type="int" >       12        2        3        4        7 </v>
   <v type="int" >       12        3        4        5        7 </v>
   <v type="int" >       12        3        5        7        8 </v>
   <v type="int" >       12        6        6        6        9 </v>
   <v type="int" >       12        6        6        9        9 </v>
   <v type="int" >       12        6        9        9        9 </v>
   <v type="int" >       12        5        5        6        9 </v>
   <v type="int" >       12        5        6        6        9 </v>
   <v type="int" >       12        5        6        9        9 </v>
   <v type="int" >       12        5        5        8        9 </v>
   <v type="int" >       12        5        8        9        9 </v>
   <v type="int" >       12        3        3        5        8 </v>
   <v type="int" >       12        3        5        5        8 </v>
   <v type="int" >       12        3        5        8        8 </v>
   <v type="int" >       12        4        5        6        9 </v>
   <v type="int" >       12        4        5        8        9 </v>
   <v type="int" >       12        4        7        8        9 </v>
   <v type="int" >       12        2        3        5        8 </v>
   <v type="int" >       12        2        4        5        8 </v>
   <v type="int" >       12        2        4        7        8 </v>
   <v type="int" >       12        1        2        4        7 </v>
   <v type="int" >       12        7        8        8        9 </v>
   <v type="int" >       18        8        8        9        9 </v>
   <v type="int" >       24        8        9        9       10 </v>
   <v type="int" >       12        8        9        9        9 </v>
   <v type="int" >       24        9        9        9       10 </v>
   <v type="int" >       18        9        9       10       10 </v>
   <v type="int" >       12        9       10       10       10 </v>
   <v type="int" >       12        8        8        9       10 </v>
   <v type="int" >       12        8        9       10       10 </v>
   <v type="int" >       12        7        8        9       10 </v>
   <v type="int" >        6       10       10       10       10 </v>
  </varray>
  <i name="volumeweight">      0.00133333 </i>
 </kpoints>
 <parameters>
  <separator name="general" >
   <i type="string" name="SYSTEM">unknown system</i>
   <i type="logical" name="LCOMPAT"> F  </i>
  </separator>
  <separator name="electronic" >
   <i type="string" name="PREC">normal</i>
   <i name="ENMAX">    500.00000000</i>
   <i name="ENAUG">    605.39200000</i>
   <i name="EDIFF">      0.00001000</i>
   <i type="int" name="IALGO">    68</i>
   <i type="int" name="IWAVPR">    10</i>
   <i type="int" name="NBANDS">    20</i>
   <i name="NELECT">     32.00000000</i>
   <i type="int" name="TURBO">     0</i>
   <i type="int" name="IRESTART">     0</i>
   <i type="int" name="NREBOOT">     0</i>
   <i type="int" name="NMIN">     0</i>
   <i name="EREF">      0.00000000</i>
   <separator name="electronic smearing" >
    <i type="int" name="ISMEAR">    -5</i>
    <i name="SIGMA">      0.20000000</i>
    <i name="KSPACING">      0.50000000</i>
    <i type="logical" name="KGAMMA"> T  </i>
   </separator>
   <separator name="electronic projectors" >
    <i type="logical" name="LREAL"> F  </i>
    <v name="ROPT">      0.00000000      0.00000000      0.00000000</v>
    <i type="int" name="LMAXPAW">  -100</i>
    <i type="int" name="LMAXMIX">     2</i>
    <i type="logical" name="NLSPLINE"> F  </i>
   </separator>
   <separator name="electronic startup" >
    <i type="int" name="ISTART">     0</i>
    <i type="int" name="ICHARG">     2</i>
    <i type="int" name="INIWAV">     1</i>
   </separator>
   <separator name="electronic spin" >
    <i type="int" name="ISPIN">     1</i>
    <i type="logical" name="LNONCOLLINEAR"> F  </i>
    <v name="MAGMOM">      1.00000000      1.00000000      1.00000000      1.00000000      1.00000000</v>
    <i name="NUPDOWN">     -1.00000000</i>
    <i type="logical" name="LSORBIT"> F  </i>
    <v name="SAXIS">      0.00000000      0.00000000      1.00000000</v>
    <i type="logical" name="LSPIRAL"> F  </i>
    <v name="QSPIRAL">      0.00000000      0.00000000      0.00000000</v>
    <i type="logical" name="LZEROZ"> F  </i>
   </separator>
   <separator name="electronic exchange-correlation" >
    <i type="logical" name="LASPH"> F  </i>
    <i type="logical" name="LMETAGGA"> F  </i>
   </separator>
   <separator name="electronic convergence" >
    <i type="int" name="NELM">    60</i>
    <i type="int" name="NELMDL">     0</i>
    <i type="int" name="NELMIN">     4</i>
    <i name="ENINI">    500.00000000</i>
    <separator name="electronic convergence detail" >
     <i type="logical" name="LDIAG"> T  </i>
     <i type="logical" name="LSUBROT"> F  </i>
     <i name="WEIMIN">      0.00000000</i>
     <i name="EBREAK">      0.00000013</i>
     <i name="DEPER">      0.30000000</i>
     <i type="int" name="NRMM">     4</i>
     <i name="TIME">      0.40000000</i>
    </separator>
   </separator>
   <separator name="electronic mixer" >
    <i name="AMIX">      0.40000000</i>
    <i name="BMIX">      1.00000000</i>
    <i name="AMIN">      0.10000000</i>
    <i name="AMIX_MAG">      1.60000000</i>
    <i name="BMIX_MAG">      1.00000000</i>
    <separator name="electronic mixer details" >
     <i type="int" name="IMIX">     4</i>
     <i type="logical" name="MIXFIRST"> F  </i>
     <i type="int" name="MAXMIX">   -45</i>
     <i name="WC">    100.00000000</i>
     <i type="int" name="INIMIX">     1</i>
     <i type="int" name="MIXPRE">     1</i>
     <i type="int" name="MREMOVE">     5</i>
    </separator>
   </separator>
   <separator name="electronic dipolcorrection" >
    <i type="logical" name="LDIPOL"> F  </i>
    <i type="logical" name="LMONO"> F  </i>
    <i type="int" name="IDIPOL">     0</i>
    <i name="EPSILON">      1.00000000</i>
    <v name="DIPOL">   -100.00000000   -100.00000000   -100.00000000</v>
    <i name="EFIELD">      0.00000000</i>
   </separator>
  </separator>
  <separator name="grids" >
   <i type="int" name="NGX">    24</i>
   <i type="int" name="NGY">    24</i>
   <i type="int" name="NGZ">    24</i>
   <i type="int" name="NGXF">    48</i>
   <i type="int" name="NGYF">    48</i>
   <i type="int" name="NGZF">    48</i>
   <i type="logical" name="ADDGRID"> F  </i>
  </separator>
  <separator name="ionic" >
   <i type="int" name="NSW">     0</i>
   <i type="int" name="IBRION">    -1</i>
   <i type="int" name="MDALGO">     0</i>
   <i type="int" name="ISIF">     2</i>
   <i name="PSTRESS">      0.00000000</i>
   <i name="EDIFFG">      0.00010000</i>
   <i type="int" name="NFREE">     0</i>
   <i name="POTIM">      0.50000000</i>
   <i name="SMASS">     -3.00000000</i>
   <i name="SCALEE">      1.00000000</i>
  </separator>
  <separator name="ionic md" >
   <i name="TEBEG">      0.00010000</i>
   <i name="TEEND">      0.00010000</i>
   <i type="int" name="NBLOCK">     1</i>
   <i type="int" name="KBLOCK">     1</i>
   <i type="int" name="NPACO">   256</i>
   <i name="APACO">     16.00000000</i>
  </separator>
  <separator name="symmetry" >
   <i type="int" name="ISYM">     2</i>
   <i name="SYMPREC">      0.00001000</i>
  </separator>
  <separator name="dos" >
   <i type="int" name="LORBIT">     0</i>
   <v name="RWIGS">     -1.00000000     -1.00000000     -1.00000000</v>
   <i type="int" name="NEDOS">   301</i>
   <i name="EMIN">     10.00000000</i>
   <i name="EMAX">    -10.00000000</i>
   <i name="EFERMI">      0.00000000</i>
  </separator>
  <separator name="writing" >
   <i type="int" name="NWRITE">     2</i>
   <i type="logical" name="LWAVE"> F  </i>
   <i type="logical" name="LDOWNSAMPLE"> F  </i>
   <i type="logical" name="LCHARG"> T  </i>
   <i type="logical" name="LPARD"> F  </i>
   <i type="logical" name="LVTOT"> F  </i>
   <i type="logical" name="LVHAR"> F  </i>
   <i type="logical" name="LELF"> F  </i>
   <i type="logical" name="LOPTICS"> F  </i>
   <v name="STM">      0.00000000      0.00000000      0.00000000      0.00000000      0.00000000      0.00000000      0.00000000</v>
  </separator>
  <separator name="performance" >
   <i type="int" name="NPAR">     2</i>
   <i type="int" name="NSIM">     4</i>
   <i type="int" name="NBLK">    -1</i>
   <i type="logical" name="LPLANE"> T  </i>
   <i type="logical" name="LSCALAPACK"> T  </i>
   <i type="logical" name="LSCAAWARE"> F  </i>
   <i type="logical" name="LSCALU"> F  </i>
   <i type="logical" name="LASYNC"> F  </i>
   <i type="logical" name="LORBITALREAL"> F  </i>
  </separator>
  <separator name="miscellaneous" >
   <i type="int" name="IDIOT">     3</i>
   <i type="int" name="ISPECIAL">     0</i>
   <i type="logical" name="LMUSIC"> F  </i>
   <v name="POMASS">     87.62000000     47.88000000     16.00000000</v>
   <v name="DARWINR">      0.00000000      0.00000000      0.00000000</v>
   <v name="DARWINV">      1.00000000      1.00000000      1.00000000</v>
   <i type="logical" name="LCORR"> T  </i>
  </separator>
  <i type="logical" name="GGA_COMPAT"> T  </i>
  <i type="logical" name="LBERRY"> F  </i>
  <i type="int" name="ICORELEVEL">     0</i>
  <i type="logical" name="LDAU"> F  </i>
  <i type="int" name="I_CONSTRAINED_M">     0</i>
  <separator name="electronic exchange-correlation" >
   <i type="string" name="GGA">--</i>
   <i type="int" name="VOSKOWN">     0</i>
   <i type="logical" name="LHFCALC"> F  </i>
   <i type="string" name="PRECFOCK"></i>
   <i type="logical" name="LSYMGRAD"> F  </i>
   <i type="logical" name="LHFONE"> F  </i>
   <i type="logical" name="LRHFCALC"> F  </i>
   <i type="logical" name="LTHOMAS"> F  </i>
   <i type="logical" name="LMODELHF"> F  </i>
   <i name="ENCUT4O">     -1.00000000</i>
   <i type="int" name="EXXOEP">     0</i>
   <i type="int" name="FOURORBIT">     0</i>
   <i name="AEXX">      0.00000000</i>
   <i name="HFALPHA">      0.00000000</i>
   <i name="MCALPHA">      0.00000000</i>
   <i name="ALDAX">      1.00000000</i>
   <i name="AGGAX">      1.00000000</i>
   <i name="ALDAC">      1.00000000</i>
   <i name="AGGAC">      1.00000000</i>
   <i type="int" name="NKREDX">     1</i>
   <i type="int" name="NKREDY">     1</i>
   <i type="int" name="NKREDZ">     1</i>
   <i type="logical" name="SHIFTRED"> F  </i>
   <i type="logical" name="ODDONLY"> F  </i>
   <i type="logical" name="EVENONLY"> F  </i>
   <i type="int" name="LMAXFOCK">     0</i>
   <i type="int" name="NMAXFOCKAE">     0</i>
   <i type="logical" name="LFOCKAEDFT"> F  </i>
   <i name="HFSCREEN">      0.00000000</i>
   <i name="HFSCREENC">      0.00000000</i>
   <i type="int" name="NBANDSGWLOW">     0</i>
  </separator>
  <separator name="vdW DFT" >
   <i type="logical" name="LUSE_VDW"> F  </i>
   <i name="Zab_VDW">     -0.84910000</i>
   <i name="PARAM1">      0.12340000</i>
   <i name="PARAM2">      1.00000000</i>
   <i name="PARAM3">      0.00000000</i>
  </separator>
  <separator name="model GW" >
   <i type="int" name="MODEL_GW">     0</i>
   <i name="MODEL_EPS0">      7.14716444</i>
   <i name="MODEL_ALPHA">      1.00000000</i>
  </separator>
  <separator name="linear response parameters" >
   <i type="logical" name="LEPSILON"> F  </i>
   <i type="logical" name="LRPA"> F  </i>
   <i type="logical" name="LNABLA"> F  </i>
   <i type="logical" name="LVEL"> F  </i>
   <i type="int" name="KINTER">     0</i>
   <i name="CSHIFT">      0.10000000</i>
   <i name="OMEGAMAX">     -1.00000000</i>
   <i name="DEG_THRESHOLD">      0.00200000</i>
   <i name="RTIME">     -0.10000000</i>
   <i name="WPLASMAI">      0.00000000</i>
   <v name="DFIELD">      0.00000000      0.00000000      0.00000000</v>
   <v name="WPLASMA">      0.00000000      0.00000000      0.00000000      0.00000000      0.00000000      0.00000000      0.00000000      0.00000000      0.00000000</v>
  </separator>
  <separator name="orbital magnetization" >
   <i type="logical" name="NUCIND"> F  </i>
   <v name="MAGPOS">      0.00000000      0.00000000      0.00000000</v>
   <i type="logical" name="LNICSALL"> T  </i>
   <i type="logical" name="ORBITALMAG"> F  </i>
   <i type="logical" name="LMAGBLOCH"> F  </i>
   <i type="logical" name="LCHIMAG"> F  </i>
   <i type="logical" name="LGAUGE"> T  </i>
   <i type="int" name="MAGATOM">     0</i>
   <v name="MAGDIPOL">      0.00000000      0.00000000      0.00000000</v>
   <v name="AVECCONST">      0.00000000      0.00000000      0.00000000</v>
  </separator>
  <separator name="response functions" >
   <i type="logical" name="LADDER"> F  </i>
   <i type="logical" name="LRPAFORCE"> F  </i>
   <i type="logical" name="LFXC"> F  </i>
   <i type="logical" name="LHARTREE"> T  </i>
   <i type="int" name="IBSE">     0</i>
   <v type="int" name="KPOINT">    -1     0     0     0</v>
   <i type="logical" name="LTCTE"> F  </i>
   <i type="logical" name="LTETE"> F  </i>
   <i type="logical" name="LTRIPLET"> F  </i>
   <i type="logical" name="LFXCEPS"> F  </i>
   <i type="logical" name="LFXHEG"> F  </i>
   <i type="int" name="NATURALO">     2</i>
   <i type="logical" name="L2ORDER"> F  </i>
   <i type="logical" name="LMP2LT"> F  </i>
   <i type="logical" name="LUSEW"> F  </i>
   <i name="ENCUTGW">     -2.00000000</i>
   <i name="ENCUTGWSOFT">     -2.00000000</i>
   <i name="ENCUTLF">     -1.00000000</i>
   <i type="int" name="LMAXMP2">    -1</i>
   <i name="SCISSOR">      0.00000000</i>
   <i type="int" name="NOMEGA">     0</i>
   <i type="int" name="NOMEGAR">     0</i>
   <i type="int" name="NBANDSGW">    -1</i>
   <i type="int" name="NBANDSO">    -1</i>
   <i type="int" name="NBANDSV">    -1</i>
   <i type="int" name="NELM">     1</i>
   <i type="int" name="NELMHF">     1</i>
   <i type="int" name="DIM">     3</i>
   <i type="int" name="ANTIRES">     0</i>
   <i name="OMEGAMAX">    -30.00000000</i>
   <i name="OMEGAMIN">    -30.00000000</i>
   <i name="OMEGATL">   -200.00000000</i>
   <i type="int" name="OMEGAGRID">   140</i>
   <i name="CSHIFT">     -0.10000000</i>
   <i type="logical" name="SELFENERGY"> F  </i>
   <i type="logical" name="LSPECTRAL"> F  </i>
   <i type="logical" name="LSPECTRALGW"> F  </i>
   <i type="logical" name="LSINGLES"> F  </i>
   <i type="logical" name="LFERMIGW"> F  </i>
   <i type="logical" name="ODDONLYGW"> F  </i>
   <i type="logical" name="EVENONLYGW"> F  </i>
   <i type="int" name="NKREDLFX">     1</i>
   <i type="int" name="NKREDLFY">     1</i>
   <i type="int" name="NKREDLFZ">     1</i>
   <i type="int" name="MAXMEM">  2800</i>
   <i type="int" name="TELESCOPE">     0</i>
   <i type="int" name="TAUPAR">     1</i>
   <i type="int" name="OMEGAPAR">    -1</i>
   <i name="LAMBDA">      1.00000000</i>
  </separator>
  <separator name="External order field" >
   <i name="OFIELD_KAPPA">      0.00000000</i>
   <v name="OFIELD_K">      0.00000000      0.00000000      0.00000000</v>
   <i name="OFIELD_Q6_NEAR">      0.00000000</i>
   <i name="OFIELD_Q6_FAR">      0.00000000</i>
   <i name="OFIELD_A">      0.00000000</i>
  </separator>
 </parameters>
 <atominfo>
  <atoms>       5 </atoms>
  <types>       3 </types>
  <array name="atoms" >
   <dimension dim="1">ion</dimension>
   <field type="string">element</field>
   <field type="int">atomtype</field>
   <set>
    <rc><c>Sr</c><c>   1</c></rc>
    <rc><c>Ti</c><c>   2</c></rc>
    <rc><c>O </c><c>   3</c></rc>
    <rc><c>O </c><c>   3</c></rc>
    <rc><c>O </c><c>   3</c></rc>
   </set>
  </array>
  <array name="atomtypes" >
   <dimension dim="1">type</dimension>
   <field type="int">atomspertype</field>
   <field type="string">element</field>
   <field>mass</field>
   <field>valence</field>
   <field type="string">pseudopotential</field>
   <set>
    <rc><c>   1</c><c>Sr</c><c>     87.62000000</c><c>     10.00000000</c><c> PAW_PBE Sr_sv 07Sep2000                </c></rc>
    <rc><c>   1</c><c>Ti</c><c>     47.88000000</c><c>      4.00000000</c><c> PAW_PBE Ti 08Apr2002                   </c></rc>
    <rc><c>   3</c><c>O </c><c>     16.00000000</c><c>      6.00000000</c><c> PAW_PBE O 08Apr2002                    </c></rc>
   </set>
  </array>
 </atominfo>
 <structure name="initialpos" >
  <crystal>
   <varray name="basis" >
    <v>       3.90526800       0.00000000       0.00000000 </v>
    <v>       0.00000000       3.90526800       0.00000000 </v>
    <v>       0.00000000       0.00000000       3.90526800 </v>
   </varray>
   <i name="volume">     59.55970368 </i>
   <varray name="rec_basis" >
    <v>       0.25606437       0.00000000       0.00000000 </v>
    <v>       0.00000000       0.25606437       0.00000000 </v>
    <v>       0.00000000       0.00000000       0.25606437 </v>
   </varray>
  </crystal>
  <varray name="positions" >
   <v>       0.00000000       0.00000000       0.00000000 </v>
   <v>       0.50000000       0.50000000       0.50000000 </v>
   <v>       0.50000000       0.50000000       0.00000000 </v>
   <v>       0.50000000       0.00000000       0.50000000 </v>
   <v>       0.00000000       0.50000000       0.50000000 </v>
  </varray>
 </structure>
 <calculation>
  <scstep>
   <time name="dav">    0.11    0.12</time>
   <time name="total">    0.14    0.16</time>
   <energy>
    <i name="alphaZ">    185.39985751 </i>
    <i name="ewald">  -1934.07799583 </i>
    <i name="hartreedc">   -403.14003404 </i>
    <i name="XCdc">     82.31788258 </i>
    <i name="pawpsdc">   1333.61297253 </i>
    <i name="pawaedc">  -1284.78446064 </i>
    <i name="eentropy">      0.00000000 </i>
    <i name="bandstr">     95.14553284 </i>
    <i name="atom">   2234.31706254 </i>
    <i name="e_fr_energy">    308.79081749 </i>
    <i name="e_wo_entrp">    308.79081749 </i>
    <i name="e_0_energy">    308.79081749 </i>
   </energy>
  </scstep>
  <scstep>
   <time name="dav">    0.14    0.14</time>
   <time name="total">    0.14    0.14</time>
   <energy>
    <i name="e_fr_energy">    -19.72961890 </i>
    <i name="e_wo_entrp">    -19.72961890 </i>
    <i name="e_0_energy">    -19.72961890 </i>
   </energy>
  </scstep>
  <scstep>
   <time name="dav">    0.13    0.13</time>
   <time name="total">    0.13    0.13</time>
   <energy>
    <i name="e_fr_energy">    -49.06466494 </i>
    <i name="e_wo_entrp">    -49.06466494 </i>
    <i name="e_0_energy">    -49.06466494 </i>
   </energy>
  </scstep>
  <scstep>
   <time name="dav">    0.17    0.17</time>
   <time name="total">    0.17    0.17</time>
   <energy>
    <i name="e_fr_energy">    -50.19931137 </i>
    <i name="e_wo_entrp">    -50.19931137 </i>
    <i name="e_0_energy">    -50.19931137 </i>
   </energy>
  </scstep>
  <scstep>
   <time name="dav">    0.14    0.14</time>
   <time name="total">    0.15    0.15</time>
   <energy>
    <i name="e_fr_energy">    -50.22819451 </i>
    <i name="e_wo_entrp">    -50.22819451 </i>
    <i name="e_0_energy">    -50.22819451 </i>
   </energy>
  </scstep>
  <scstep>
   <time name="diag">    0.02    0.03</time>
   <time name="diis">    0.09    0.09</time>
   <time name="orth">    0.00    0.00</time>
   <time name="total">    0.14    0.15</time>
   <energy>
    <i name="e_fr_energy">    -40.40362923 </i>
    <i name="e_wo_entrp">    -40.40362923 </i>
    <i name="e_0_energy">    -40.40362923 </i>
   </energy>
  </scstep>
  <scstep>
   <time name="diag">    0.02    0.03</time>
   <time name="diis">    0.09    0.09</time>
   <time name="orth">    0.00    0.00</time>
   <time name="total">    0.15    0.15</time>
   <energy>
    <i name="e_fr_energy">    -39.79051944 </i>
    <i name="e_wo_entrp">    -39.79051944 </i>
    <i name="e_0_energy">    -39.79051944 </i>
   </energy>
  </scstep>
  <scstep>
   <time name="diag">    0.02    0.03</time>
   <time name="diis">    0.09    0.09</time>
   <time name="orth">    0.00    0.00</time>
   <time name="total">    0.15    0.15</time>
   <energy>
    <i name="e_fr_energy">    -39.70170236 </i>
    <i name="e_wo_entrp">    -39.70170236 </i>
    <i name="e_0_energy">    -39.70170236 </i>
   </energy>
  </scstep>
  <scstep>
   <time name="diag">    0.02    0.03</time>
   <time name="diis">    0.11    0.11</time>
   <time name="orth">    0.00    0.00</time>
   <time name="total">    0.17    0.17</time>
   <energy>
    <i name="e_fr_energy">    -39.69283966 </i>
    <i name="e_wo_entrp">    -39.69283966 </i>
    <i name="e_0_energy">    -39.69283966 </i>
   </energy>
  </scstep>
  <scstep>
   <time name="diag">    0.02    0.03</time>
   <time name="diis">    0.09    0.09</time>
   <time name="orth">    0.00    0.00</time>
   <time name="total">    0.15    0.15</time>
   <energy>
    <i name="e_fr_energy">    -39.68826826 </i>
    <i name="e_wo_entrp">    -39.68826826 </i>
    <i name="e_0_energy">    -39.68826826 </i>
   </energy>
  </scstep>
  <scstep>
   <time name="diag">    0.02    0.03</time>
   <time name="diis">    0.10    0.10</time>
   <time name="orth">    0.00    0.00</time>
   <time name="total">    0.16    0.16</time>
   <energy>
    <i name="e_fr_energy">    -39.68690431 </i>
    <i name="e_wo_entrp">    -39.68690431 </i>
    <i name="e_0_energy">    -39.68690431 </i>
   </energy>
  </scstep>
  <scstep>
   <time name="diag">    0.03    0.03</time>
   <time name="diis">    0.10    0.10</time>
   <time name="orth">    0.00    0.00</time>
   <time name="total">    0.16    0.16</time>
   <energy>
    <i name="e_fr_energy">    -39.68725116 </i>
    <i name="e_wo_entrp">    -39.68725116 </i>
    <i name="e_0_energy">    -39.68725116 </i>
   </energy>
  </scstep>
  <scstep>
   <time name="diag">    0.02    0.03</time>
   <time name="diis">    0.10    0.10</time>
   <time name="orth">    0.00    0.00</time>
   <time name="total">    0.16    0.16</time>
   <energy>
    <i name="e_fr_energy">    -39.68726789 </i>
    <i name="e_wo_entrp">    -39.68726789 </i>
    <i name="e_0_energy">    -39.68726789 </i>
   </energy>
  </scstep>
  <scstep>
   <time name="diag">    0.02    0.03</time>
   <time name="diis">    0.10    0.10</time>
   <time name="orth">    0.00    0.00</time>
   <time name="total">    0.16    0.16</time>
   <energy>
    <i name="e_fr_energy">    -39.68730268 </i>
    <i name="e_wo_entrp">    -39.68730268 </i>
    <i name="e_0_energy">    -39.68730268 </i>
   </energy>
  </scstep>
  <scstep>
   <time name="diag">    0.02    0.03</time>
   <time name="diis">    0.09    0.09</time>
   <time name="orth">    0.00    0.00</time>
   <time name="total">    0.15    0.15</time>
   <energy>
    <i name="e_fr_energy">    -39.68731791 </i>
    <i name="e_wo_entrp">    -39.68731791 </i>
    <i name="e_0_energy">    -39.68731791 </i>
   </energy>
  </scstep>
  <scstep>
   <time name="diag">    0.02    0.03</time>
   <time name="diis">    0.08    0.08</time>
   <time name="orth">    0.00    0.00</time>
   <time name="total">    0.14    0.14</time>
   <energy>
    <i name="e_fr_energy">    -39.68732844 </i>
    <i name="e_wo_entrp">    -39.68732844 </i>
    <i name="e_0_energy">    -39.68732844 </i>
   </energy>
  </scstep>
  <scstep>
   <time name="diag">    0.03    0.03</time>
   <time name="diis">    0.07    0.07</time>
   <time name="orth">    0.00    0.00</time>
   <time name="total">    0.11    0.12</time>
   <energy>
    <i name="alphaZ">    185.39985751 </i>
    <i name="ewald">  -1934.07799583 </i>
    <i name="hartreedc">   -441.35047832 </i>
    <i name="XCdc">     86.19536215 </i>
    <i name="pawpsdc">   1562.13200167 </i>
    <i name="pawaedc">  -1519.79563133 </i>
    <i name="eentropy">      0.00000000 </i>
    <i name="bandstr">   -212.50750978 </i>
    <i name="atom">   2234.31706254 </i>
    <i name="e_fr_energy">    -39.68733139 </i>
    <i name="e_wo_entrp">    -39.68733139 </i>
    <i name="e_0_energy">    -39.68733139 </i>
   </energy>
  </scstep>
  <structure>
   <crystal>
    <varray name="basis" >
     <v>       3.90526800       0.00000000       0.00000000 </v>
     <v>       0.00000000       3.90526800       0.00000000 </v>
     <v>       0.00000000       0.00000000       3.90526800 </v>
    </varray>
    <i name="volume">     59.55970368 </i>
    <varray name="rec_basis" >
     <v>       0.25606437       0.00000000       0.00000000 </v>
     <v>       0.00000000       0.25606437       0.00000000 </v>
     <v>       0.00000000       0.00000000       0.25606437 </v>
    </varray>
   </crystal>
   <varray name="positions" >
    <v>       0.00000000       0.00000000       0.00000000 </v>
    <v>       0.50000000       0.50000000       0.50000000 </v>
    <v>       0.50000000       0.50000000       0.00000000 </v>
    <v>       0.50000000       0.00000000       0.50000000 </v>
    <v>       0.00000000       0.50000000       0.50000000 </v>
   </varray>
  </structure>
  <varray name="forces" >
   <v>       0.00000000       0.00000000       0.00000000 </v>
   <v>       0.00000000       0.00000000       0.00000000 </v>
   <v>       0.00000000       0.00000000       0.00000000 </v>
   <v>       0.00000000       0.00000000       0.00000000 </v>
   <v>       0.00000000       0.00000000       0.00000000 </v>
  </varray>
  <varray name="stress" >
   <v>      63.32502420      -0.00000000      -0.00000000 </v>
   <v>       0.00000000      63.32502420      -0.00000000 </v>
   <v>       0.00000000       0.00000000      63.32502420 </v>
  </varray>
  <energy>
   <i name="e_fr_energy">    -39.68733139 </i>
   <i name="e_wo_entrp">    -39.68733139 </i>
   <i name="e_0_energy">      0.00000000 </i>
  </energy>
  <time name="totalsc">    2.85    2.97</time>
  <eigenvalues>
   <array>
    <dimension dim="1">band</dimension>
    <dimension dim="2">kpoint</dimension>
    <dimension dim="3">spin</dimension>
    <field>eigene</field>
    <field>occ</field>
    <set>
     <set comment="spin 1">
      <set comment="kpoint 1">
       <r>  -30.0796    1.0000 </r>
       <r>  -14.8175    1.0000 </r>
       <r>  -13.8116    1.0000 </r>
       <r>  -13.8116    1.0000 </r>
       <r>  -12.1438    1.0000 </r>
       <r>  -12.1438    1.0000 </r>
       <r>  -12.1438    1.0000 </r>
       <r>   -0.2108    1.0000 </r>
       <r>   -0.2108    1.0000 </r>
       <r>   -0.2108    1.0000 </r>
       <r>    1.4776    1.0000 </r>
       <r>    1.4776    1.0000 </r>
       <r>    1.4776    1.0000 </r>
       <r>    2.3179    1.0000 </r>
       <r>    2.3179    1.0000 </r>
       <r>    2.3179    1.0000 </r>
       <r>    4.3402    0.0000 </r>
       <r>    4.3402    0.0000 </r>
       <r>    4.3402    0.0000 </r>
       <r>    8.0322    0.0000 </r>
      </set>
      <set comment="kpoint 2">
       <r>  -30.0715    1.0000 </r>
       <r>  -14.8545    1.0000 </r>
       <r>  -13.8251    1.0000 </r>
       <r>  -13.7973    1.0000 </r>
       <r>  -12.1271    1.0000 </r>
       <r>  -12.1271    1.0000 </r>
       <r>  -11.9080    1.0000 </r>
       <r>   -0.7023    1.0000 </r>
       <r>   -0.2336    1.0000 </r>
       <r>   -0.2336    1.0000 </r>
       <r>    1.0034    1.0000 </r>
       <r>    1.0034    1.0000 </r>
       <r>    1.1634    1.0000 </r>
       <r>    1.3157    1.0000 </r>
       <r>    2.1217    1.0000 </r>
       <r>    2.1217    1.0000 </r>
       <r>    4.3936    0.0000 </r>
       <r>    5.1129    0.0000 </r>
       <r>    5.1129    0.0000 </r>
       <r>    8.6688    0.0000 </r>
      </set>
      <set comment="kpoint 3">
       <r>  -30.0584    1.0000 </r>
       <r>  -15.0021    1.0000 </r>
       <r>  -13.7749    1.0000 </r>
       <r>  -13.6583    1.0000 </r>
       <r>  -12.0998    1.0000 </r>
       <r>  -12.0998    1.0000 </r>
       <r>  -11.6050    1.0000 </r>
       <r>   -1.5578    1.0000 </r>
       <r>   -0.2369    1.0000 </r>
       <r>   -0.2369    1.0000 </r>
       <r>    0.3025    1.0000 </r>
       <r>    0.3672    1.0000 </r>
       <r>    0.3672    1.0000 </r>
       <r>    0.7293    1.0000 </r>
       <r>    1.9542    1.0000 </r>
       <r>    1.9542    1.0000 </r>
       <r>    4.4836    0.0000 </r>
       <r>    6.0921    0.0000 </r>
       <r>    6.0921    0.0000 </r>
       <r>    9.8350    0.0000 </r>
      </set>
      <set comment="kpoint 4">
       <r>  -30.0639    1.0000 </r>
       <r>  -14.7986    1.0000 </r>
       <r>  -13.9108    1.0000 </r>
       <r>  -13.7675    1.0000 </r>
       <r>  -12.1095    1.0000 </r>
       <r>  -11.9955    1.0000 </r>
       <r>  -11.8652    1.0000 </r>
       <r>   -0.9409    1.0000 </r>
       <r>   -0.5235    1.0000 </r>
       <r>   -0.2517    1.0000 </r>
       <r>    0.1012    1.0000 </r>
       <r>    0.6953    1.0000 </r>
       <r>    1.1589    1.0000 </r>
       <r>    1.4046    1.0000 </r>
       <r>    1.7843    1.0000 </r>
       <r>    1.8017    1.0000 </r>
       <r>    5.0686    0.0000 </r>
       <r>    5.2054    0.0000 </r>
       <r>    5.4336    0.0000 </r>
       <r>    9.2989    0.0000 </r>
      </set>
      <set comment="kpoint 5">
       <r>  -30.0514    1.0000 </r>
       <r>  -14.8193    1.0000 </r>
       <r>  -13.8476    1.0000 </r>
       <r>  -13.7346    1.0000 </r>
       <r>  -12.0806    1.0000 </r>
       <r>  -11.9574    1.0000 </r>
       <r>  -11.6759    1.0000 </r>
       <r>   -1.5940    1.0000 </r>
       <r>   -0.9787    1.0000 </r>
       <r>   -0.5464    1.0000 </r>
       <r>   -0.2457    1.0000 </r>
       <r>    0.1800    1.0000 </r>
       <r>    0.7145    1.0000 </r>
       <r>    1.3195    1.0000 </r>
       <r>    1.5070    1.0000 </r>
       <r>    1.7572    1.0000 </r>
       <r>    5.1810    0.0000 </r>
       <r>    6.0961    0.0000 </r>
       <r>    6.1634    0.0000 </r>
       <r>   10.0885    0.0000 </r>
      </set>
      <set comment="kpoint 6">
       <r>  -30.0401    1.0000 </r>
       <r>  -14.4427    1.0000 </r>
       <r>  -14.0416    1.0000 </r>
       <r>  -13.8269    1.0000 </r>
       <r>  -12.0492    1.0000 </r>
       <r>  -11.7766    1.0000 </r>
       <r>  -11.7475    1.0000 </r>
       <r>   -1.8414    1.0000 </r>
       <r>   -1.6647    1.0000 </r>
       <r>   -1.4175    1.0000 </r>
       <r>   -0.2532    1.0000 </r>
       <r>   -0.1254    1.0000 </r>
       <r>    0.9569    1.0000 </r>
       <r>    1.0380    1.0000 </r>
       <r>    1.0996    1.0000 </r>
       <r>    2.3857    1.0000 </r>
       <r>    6.0819    0.0000 </r>
       <r>    6.1222    0.0000 </r>
       <r>    6.5184    0.0000 </r>
       <r>   10.5906    0.0000 </r>
      </set>
      <set comment="kpoint 7">
       <r>  -30.0565    1.0000 </r>
       <r>  -14.7043    1.0000 </r>
       <r>  -13.8468    1.0000 </r>
       <r>  -13.8468    1.0000 </r>
       <r>  -12.0616    1.0000 </r>
       <r>  -12.0616    1.0000 </r>
       <r>  -11.7814    1.0000 </r>
       <r>   -1.1697    1.0000 </r>
       <r>   -0.5265    1.0000 </r>
       <r>   -0.5265    1.0000 </r>
       <r>    0.0584    1.0000 </r>
       <r>    0.0584    1.0000 </r>
       <r>    0.4518    1.0000 </r>
       <r>    1.6818    1.0000 </r>
       <r>    1.6818    1.0000 </r>
       <r>    1.8450    1.0000 </r>
       <r>    5.4385    0.0000 </r>
       <r>    5.5207    0.0000 </r>
       <r>    5.5207    0.0000 </r>
       <r>    9.6371    0.0000 </r>
      </set>
      <set comment="kpoint 8">
       <r>  -30.0446    1.0000 </r>
       <r>  -14.6388    1.0000 </r>
       <r>  -13.8470    1.0000 </r>
       <r>  -13.7312    1.0000 </r>
       <r>  -12.1816    1.0000 </r>
       <r>  -11.9074    1.0000 </r>
       <r>  -11.7450    1.0000 </r>
       <r>   -1.6200    1.0000 </r>
       <r>   -1.0859    1.0000 </r>
       <r>   -0.6219    1.0000 </r>
       <r>   -0.5965    1.0000 </r>
       <r>   -0.3965    1.0000 </r>
       <r>    0.3847    1.0000 </r>
       <r>    1.5791    1.0000 </r>
       <r>    1.5974    1.0000 </r>
       <r>    1.8701    1.0000 </r>
       <r>    5.5804    0.0000 </r>
       <r>    6.2060    0.0000 </r>
       <r>    6.2226    0.0000 </r>
       <r>   10.4296    0.0000 </r>
      </set>
      <set comment="kpoint 9">
       <r>  -30.0336    1.0000 </r>
       <r>  -14.2668    1.0000 </r>
       <r>  -13.9186    1.0000 </r>
       <r>  -13.7391    1.0000 </r>
       <r>  -12.1951    1.0000 </r>
       <r>  -11.9547    1.0000 </r>
       <r>  -11.8466    1.0000 </r>
       <r>   -1.7388    1.0000 </r>
       <r>   -1.5091    1.0000 </r>
       <r>   -1.4097    1.0000 </r>
       <r>   -0.6980    1.0000 </r>
       <r>   -0.5929    1.0000 </r>
       <r>   -0.0861    1.0000 </r>
       <r>    1.6597    1.0000 </r>
       <r>    1.7315    1.0000 </r>
       <r>    2.4100    1.0000 </r>
       <r>    6.2756    0.0000 </r>
       <r>    6.3058    0.0000 </r>
       <r>    6.5892    0.0000 </r>
       <r>   10.4353    0.0000 </r>
      </set>
      <set comment="kpoint 10">
       <r>  -30.0231    1.0000 </r>
       <r>  -13.9042    1.0000 </r>
       <r>  -13.6581    1.0000 </r>
       <r>  -13.6581    1.0000 </r>
       <r>  -12.3033    1.0000 </r>
       <r>  -12.3033    1.0000 </r>
       <r>  -12.1185    1.0000 </r>
       <r>   -1.7718    1.0000 </r>
       <r>   -1.3946    1.0000 </r>
       <r>   -1.3946    1.0000 </r>
       <r>   -1.1947    1.0000 </r>
       <r>   -1.0153    1.0000 </r>
       <r>   -1.0153    1.0000 </r>
       <r>    2.3465    1.0000 </r>
       <r>    2.3465    1.0000 </r>
       <r>    2.5019    1.0000 </r>
       <r>    6.6914    0.0000 </r>
       <r>    6.7140    0.0000 </r>
       <r>    6.7140    0.0000 </r>
       <r>    9.9568    0.0000 </r>
      </set>
     </set>
    </set>
   </array>
  </eigenvalues>
  <separator name="orbital magnetization" >
   <v name="MAGDIPOLOUT">      0.00000000      0.00000000      0.00000000</v>
  </separator>
  <dos>
   <i name="efermi">      2.55823463 </i>
   <total>
    <array>
     <dimension dim="1">gridpoints</dimension>
     <dimension dim="2">spin</dimension>
     <field>energy</field>
     <field>total</field>
     <field>integrated</field>
     <set>
      <set comment="spin 1">
       <r>   -32.1132     0.0000     0.0000 </r>
       <r>   -31.9640     0.0000     0.0000 </r>
       <r>   -31.8149     0.0000     0.0000 </r>
       <r>   -31.6658     0.0000     0.0000 </r>
       <r>   -31.5167     0.0000     0.0000 </r>
       <r>   -31.3675     0.0000     0.0000 </r>
       <r>   -31.2184     0.0000     0.0000 </r>
       <r>   -31.0693     0.0000     0.0000 </r>
       <r>   -30.9202     0.0000     0.0000 </r>
       <r>   -30.7710     0.0000     0.0000 </r>
       <r>   -30.6219     0.0000     0.0000 </r>
       <r>   -30.4728     0.0000     0.0000 </r>
       <r>   -30.3237     0.0000     0.0000 </r>
       <r>   -30.1745     0.0000     0.0000 </r>
       <r>   -30.0254    13.3315     1.9585 </r>
       <r>   -29.8763     0.0000     2.0000 </r>
       <r>   -29.7272     0.0000     2.0000 </r>
       <r>   -29.5780     0.0000     2.0000 </r>
       <r>   -29.4289     0.0000     2.0000 </r>
       <r>   -29.2798     0.0000     2.0000 </r>
       <r>   -29.1307     0.0000     2.0000 </r>
       <r>   -28.9815     0.0000     2.0000 </r>
       <r>   -28.8324     0.0000     2.0000 </r>
       <r>   -28.6833     0.0000     2.0000 </r>
       <r>   -28.5342     0.0000     2.0000 </r>
       <r>   -28.3850     0.0000     2.0000 </r>
       <r>   -28.2359     0.0000     2.0000 </r>
       <r>   -28.0868     0.0000     2.0000 </r>
       <r>   -27.9377     0.0000     2.0000 </r>
       <r>   -27.7885     0.0000     2.0000 </r>
       <r>   -27.6394     0.0000     2.0000 </r>
       <r>   -27.4903     0.0000     2.0000 </r>
       <r>   -27.3412     0.0000     2.0000 </r>
       <r>   -27.1921     0.0000     2.0000 </r>
       <r>   -27.0429     0.0000     2.0000 </r>
       <r>   -26.8938     0.0000     2.0000 </r>
       <r>   -26.7447     0.0000     2.0000 </r>
       <r>   -26.5956     0.0000     2.0000 </r>
       <r>   -26.4464     0.0000     2.0000 </r>
       <r>   -26.2973     0.0000     2.0000 </r>
       <r>   -26.1482     0.0000     2.0000 </r>
       <r>   -25.9991     0.0000     2.0000 </r>
       <r>   -25.8499     0.0000     2.0000 </r>
       <r>   -25.7008     0.0000     2.0000 </r>
       <r>   -25.5517     0.0000     2.0000 </r>
       <r>   -25.4026     0.0000     2.0000 </r>
       <r>   -25.2534     0.0000     2.0000 </r>
       <r>   -25.1043     0.0000     2.0000 </r>
       <r>   -24.9552     0.0000     2.0000 </r>
       <r>   -24.8061     0.0000     2.0000 </r>
       <r>   -24.6569     0.0000     2.0000 </r>
       <r>   -24.5078     0.0000     2.0000 </r>
       <r>   -24.3587     0.0000     2.0000 </r>
       <r>   -24.2096     0.0000     2.0000 </r>
       <r>   -24.0604     0.0000     2.0000 </r>
       <r>   -23.9113     0.0000     2.0000 </r>
       <r>   -23.7622     0.0000     2.0000 </r>
       <r>   -23.6131     0.0000     2.0000 </r>
       <r>   -23.4639     0.0000     2.0000 </r>
       <r>   -23.3148     0.0000     2.0000 </r>
       <r>   -23.1657     0.0000     2.0000 </r>
       <r>   -23.0166     0.0000     2.0000 </r>
       <r>   -22.8674     0.0000     2.0000 </r>
       <r>   -22.7183     0.0000     2.0000 </r>
       <r>   -22.5692     0.0000     2.0000 </r>
       <r>   -22.4201     0.0000     2.0000 </r>
       <r>   -22.2710     0.0000     2.0000 </r>
       <r>   -22.1218     0.0000     2.0000 </r>
       <r>   -21.9727     0.0000     2.0000 </r>
       <r>   -21.8236     0.0000     2.0000 </r>
       <r>   -21.6745     0.0000     2.0000 </r>
       <r>   -21.5253     0.0000     2.0000 </r>
       <r>   -21.3762     0.0000     2.0000 </r>
       <r>   -21.2271     0.0000     2.0000 </r>
       <r>   -21.0780     0.0000     2.0000 </r>
       <r>   -20.9288     0.0000     2.0000 </r>
       <r>   -20.7797     0.0000     2.0000 </r>
       <r>   -20.6306     0.0000     2.0000 </r>
       <r>   -20.4815     0.0000     2.0000 </r>
       <r>   -20.3323     0.0000     2.0000 </r>
       <r>   -20.1832     0.0000     2.0000 </r>
       <r>   -20.0341     0.0000     2.0000 </r>
       <r>   -19.8850     0.0000     2.0000 </r>
       <r>   -19.7358     0.0000     2.0000 </r>
       <r>   -19.5867     0.0000     2.0000 </r>
       <r>   -19.4376     0.0000     2.0000 </r>
       <r>   -19.2885     0.0000     2.0000 </r>
       <r>   -19.1393     0.0000     2.0000 </r>
       <r>   -18.9902     0.0000     2.0000 </r>
       <r>   -18.8411     0.0000     2.0000 </r>
       <r>   -18.6920     0.0000     2.0000 </r>
       <r>   -18.5428     0.0000     2.0000 </r>
       <r>   -18.3937     0.0000     2.0000 </r>
       <r>   -18.2446     0.0000     2.0000 </r>
       <r>   -18.0955     0.0000     2.0000 </r>
       <r>   -17.9463     0.0000     2.0000 </r>
       <r>   -17.7972     0.0000     2.0000 </r>
       <r>   -17.6481     0.0000     2.0000 </r>
       <r>   -17.4990     0.0000     2.0000 </r>
       <r>   -17.3499     0.0000     2.0000 </r>
       <r>   -17.2007     0.0000     2.0000 </r>
       <r>   -17.0516     0.0000     2.0000 </r>
       <r>   -16.9025     0.0000     2.0000 </r>
       <r>   -16.7534     0.0000     2.0000 </r>
       <r>   -16.6042     0.0000     2.0000 </r>
       <r>   -16.4551     0.0000     2.0000 </r>
       <r>   -16.3060     0.0000     2.0000 </r>
       <r>   -16.1569     0.0000     2.0000 </r>
       <r>   -16.0077     0.0000     2.0000 </r>
       <r>   -15.8586     0.0000     2.0000 </r>
       <r>   -15.7095     0.0000     2.0000 </r>
       <r>   -15.5604     0.0000     2.0000 </r>
       <r>   -15.4112     0.0000     2.0000 </r>
       <r>   -15.2621     0.0000     2.0000 </r>
       <r>   -15.1130     0.0000     2.0000 </r>
       <r>   -14.9639     0.3164     2.0054 </r>
       <r>   -14.8147     6.4696     2.3253 </r>
       <r>   -14.6656     2.6927     2.9547 </r>
       <r>   -14.5165     2.1245     3.2985 </r>
       <r>   -14.3674     1.8921     3.6129 </r>
       <r>   -14.2182     0.8628     3.8144 </r>
       <r>   -14.0691     0.5433     3.9184 </r>
       <r>   -13.9200     5.3783     4.3014 </r>
       <r>   -13.7709    16.6956     6.4534 </r>
       <r>   -13.6217     0.0000     8.0000 </r>
       <r>   -13.4726     0.0000     8.0000 </r>
       <r>   -13.3235     0.0000     8.0000 </r>
       <r>   -13.1744     0.0000     8.0000 </r>
       <r>   -13.0252     0.0000     8.0000 </r>
       <r>   -12.8761     0.0000     8.0000 </r>
       <r>   -12.7270     0.0000     8.0000 </r>
       <r>   -12.5779     0.0000     8.0000 </r>
       <r>   -12.4288     0.0000     8.0000 </r>
       <r>   -12.2796     1.8108     8.0670 </r>
       <r>   -12.1305    15.3760     8.9846 </r>
       <r>   -11.9814     9.1969    10.9448 </r>
       <r>   -11.8323     8.5691    12.4389 </r>
       <r>   -11.6831     4.6574    13.8474 </r>
       <r>   -11.5340     0.0000    14.0000 </r>
       <r>   -11.3849     0.0000    14.0000 </r>
       <r>   -11.2358     0.0000    14.0000 </r>
       <r>   -11.0866     0.0000    14.0000 </r>
       <r>   -10.9375     0.0000    14.0000 </r>
       <r>   -10.7884     0.0000    14.0000 </r>
       <r>   -10.6393     0.0000    14.0000 </r>
       <r>   -10.4901     0.0000    14.0000 </r>
       <r>   -10.3410     0.0000    14.0000 </r>
       <r>   -10.1919     0.0000    14.0000 </r>
       <r>   -10.0428     0.0000    14.0000 </r>
       <r>    -9.8936     0.0000    14.0000 </r>
       <r>    -9.7445     0.0000    14.0000 </r>
       <r>    -9.5954     0.0000    14.0000 </r>
       <r>    -9.4463     0.0000    14.0000 </r>
       <r>    -9.2971     0.0000    14.0000 </r>
       <r>    -9.1480     0.0000    14.0000 </r>
       <r>    -8.9989     0.0000    14.0000 </r>
       <r>    -8.8498     0.0000    14.0000 </r>
       <r>    -8.7006     0.0000    14.0000 </r>
       <r>    -8.5515     0.0000    14.0000 </r>
       <r>    -8.4024     0.0000    14.0000 </r>
       <r>    -8.2533     0.0000    14.0000 </r>
       <r>    -8.1041     0.0000    14.0000 </r>
       <r>    -7.9550     0.0000    14.0000 </r>
       <r>    -7.8059     0.0000    14.0000 </r>
       <r>    -7.6568     0.0000    14.0000 </r>
       <r>    -7.5077     0.0000    14.0000 </r>
       <r>    -7.3585     0.0000    14.0000 </r>
       <r>    -7.2094     0.0000    14.0000 </r>
       <r>    -7.0603     0.0000    14.0000 </r>
       <r>    -6.9112     0.0000    14.0000 </r>
       <r>    -6.7620     0.0000    14.0000 </r>
       <r>    -6.6129     0.0000    14.0000 </r>
       <r>    -6.4638     0.0000    14.0000 </r>
       <r>    -6.3147     0.0000    14.0000 </r>
       <r>    -6.1655     0.0000    14.0000 </r>
       <r>    -6.0164     0.0000    14.0000 </r>
       <r>    -5.8673     0.0000    14.0000 </r>
       <r>    -5.7182     0.0000    14.0000 </r>
       <r>    -5.5690     0.0000    14.0000 </r>
       <r>    -5.4199     0.0000    14.0000 </r>
       <r>    -5.2708     0.0000    14.0000 </r>
       <r>    -5.1217     0.0000    14.0000 </r>
       <r>    -4.9725     0.0000    14.0000 </r>
       <r>    -4.8234     0.0000    14.0000 </r>
       <r>    -4.6743     0.0000    14.0000 </r>
       <r>    -4.5252     0.0000    14.0000 </r>
       <r>    -4.3760     0.0000    14.0000 </r>
       <r>    -4.2269     0.0000    14.0000 </r>
       <r>    -4.0778     0.0000    14.0000 </r>
       <r>    -3.9287     0.0000    14.0000 </r>
       <r>    -3.7795     0.0000    14.0000 </r>
       <r>    -3.6304     0.0000    14.0000 </r>
       <r>    -3.4813     0.0000    14.0000 </r>
       <r>    -3.3322     0.0000    14.0000 </r>
       <r>    -3.1830     0.0000    14.0000 </r>
       <r>    -3.0339     0.0000    14.0000 </r>
       <r>    -2.8848     0.0000    14.0000 </r>
       <r>    -2.7357     0.0000    14.0000 </r>
       <r>    -2.5866     0.0000    14.0000 </r>
       <r>    -2.4374     0.0000    14.0000 </r>
       <r>    -2.2883     0.0000    14.0000 </r>
       <r>    -2.1392     0.0000    14.0000 </r>
       <r>    -1.9901     0.0000    14.0000 </r>
       <r>    -1.8409     0.9440    14.0004 </r>
       <r>    -1.6918     4.9071    14.6375 </r>
       <r>    -1.5427     2.8116    15.4183 </r>
       <r>    -1.3936     3.9974    16.2704 </r>
       <r>    -1.2444     3.6202    16.8382 </r>
       <r>    -1.0953     3.5707    17.3917 </r>
       <r>    -0.9462     3.9896    18.0151 </r>
       <r>    -0.7971     4.2695    18.6326 </r>
       <r>    -0.6479     5.5240    19.3318 </r>
       <r>    -0.4988     7.2901    20.3301 </r>
       <r>    -0.3497     7.3066    21.4222 </r>
       <r>    -0.2006     3.6159    22.4117 </r>
       <r>    -0.0514     3.4297    22.9399 </r>
       <r>     0.0977     2.9858    23.4286 </r>
       <r>     0.2468     2.8378    23.8612 </r>
       <r>     0.3959     3.0485    24.2525 </r>
       <r>     0.5451     3.2017    24.7297 </r>
       <r>     0.6942     3.3093    25.2127 </r>
       <r>     0.8433     1.9987    25.5862 </r>
       <r>     0.9924     1.2534    25.8252 </r>
       <r>     1.1416     1.9715    26.0453 </r>
       <r>     1.2907     3.2655    26.4566 </r>
       <r>     1.4398     5.2496    27.2053 </r>
       <r>     1.5889     7.7930    28.1106 </r>
       <r>     1.7381     3.6078    29.0995 </r>
       <r>     1.8872     6.8280    30.1762 </r>
       <r>     2.0363     3.4413    30.8813 </r>
       <r>     2.1854     2.3111    31.3029 </r>
       <r>     2.3345     1.7060    31.5953 </r>
       <r>     2.4837     1.3193    31.9624 </r>
       <r>     2.6328     0.0000    32.0000 </r>
       <r>     2.7819     0.0000    32.0000 </r>
       <r>     2.9310     0.0000    32.0000 </r>
       <r>     3.0802     0.0000    32.0000 </r>
       <r>     3.2293     0.0000    32.0000 </r>
       <r>     3.3784     0.0000    32.0000 </r>
       <r>     3.5275     0.0000    32.0000 </r>
       <r>     3.6767     0.0000    32.0000 </r>
       <r>     3.8258     0.0000    32.0000 </r>
       <r>     3.9749     0.0000    32.0000 </r>
       <r>     4.1240     0.0000    32.0000 </r>
       <r>     4.2732     0.0000    32.0000 </r>
       <r>     4.4223     0.1536    32.0067 </r>
       <r>     4.5714     0.3656    32.0431 </r>
       <r>     4.7205     0.6294    32.1172 </r>
       <r>     4.8697     0.8980    32.2310 </r>
       <r>     5.0188     1.1713    32.3852 </r>
       <r>     5.1679     2.2993    32.6136 </r>
       <r>     5.3170     2.2650    32.9516 </r>
       <r>     5.4662     2.2821    33.2945 </r>
       <r>     5.6153     2.3547    33.6350 </r>
       <r>     5.7644     2.6469    34.0078 </r>
       <r>     5.9135     2.9545    34.4252 </r>
       <r>     6.0627     3.2777    34.8897 </r>
       <r>     6.2118     7.4165    36.1499 </r>
       <r>     6.3609     3.6116    36.9308 </r>
       <r>     6.5100     2.9701    37.4217 </r>
       <r>     6.6592     1.9054    37.8719 </r>
       <r>     6.8083     0.0000    38.0000 </r>
       <r>     6.9574     0.0000    38.0000 </r>
       <r>     7.1065     0.0000    38.0000 </r>
       <r>     7.2556     0.0000    38.0000 </r>
       <r>     7.4048     0.0000    38.0000 </r>
       <r>     7.5539     0.0000    38.0000 </r>
       <r>     7.7030     0.0000    38.0000 </r>
       <r>     7.8521     0.0000    38.0000 </r>
       <r>     8.0013     0.0000    38.0000 </r>
       <r>     8.1504     0.0037    38.0001 </r>
       <r>     8.2995     0.0187    38.0017 </r>
       <r>     8.4486     0.0453    38.0063 </r>
       <r>     8.5978     0.0836    38.0158 </r>
       <r>     8.7469     0.1327    38.0318 </r>
       <r>     8.8960     0.1867    38.0555 </r>
       <r>     9.0451     0.2443    38.0876 </r>
       <r>     9.1943     0.3054    38.1286 </r>
       <r>     9.3434     0.3679    38.1788 </r>
       <r>     9.4925     0.4500    38.2394 </r>
       <r>     9.6416     0.5688    38.3149 </r>
       <r>     9.7908     0.7145    38.4103 </r>
       <r>     9.9399     1.1341    38.5429 </r>
       <r>    10.0890     1.8239    38.7985 </r>
       <r>    10.2381     2.3718    39.1110 </r>
       <r>    10.3873     2.9511    39.5075 </r>
       <r>    10.5364     1.3451    39.9472 </r>
       <r>    10.6855     0.0000    40.0000 </r>
       <r>    10.8346     0.0000    40.0000 </r>
       <r>    10.9838     0.0000    40.0000 </r>
       <r>    11.1329     0.0000    40.0000 </r>
       <r>    11.2820     0.0000    40.0000 </r>
       <r>    11.4311     0.0000    40.0000 </r>
       <r>    11.5803     0.0000    40.0000 </r>
       <r>    11.7294     0.0000    40.0000 </r>
       <r>    11.8785     0.0000    40.0000 </r>
       <r>    12.0276     0.0000    40.0000 </r>
       <r>    12.1767     0.0000    40.0000 </r>
       <r>    12.3259     0.0000    40.0000 </r>
       <r>    12.4750     0.0000    40.0000 </r>
       <r>    12.6241     0.0000    40.0000 </r>
      </set>
     </set>
    </array>
   </total>
  </dos>
 </calculation>
 <structure name="finalpos" >
  <crystal>
   <varray name="basis" >
    <v>       3.90526800       0.00000000       0.00000000 </v>
    <v>       0.00000000       3.90526800       0.00000000 </v>
    <v>       0.00000000       0.00000000       3.90526800 </v>
   </varray>
   <i name="volume">     59.55970368 </i>
   <varray name="rec_basis" >
    <v>       0.25606437       0.00000000       0.00000000 </v>
    <v>       0.00000000       0.25606437       0.00000000 </v>
    <v>       0.00000000       0.00000000       0.25606437 </v>
   </varray>
  </crystal>
  <varray name="positions" >
   <v>       0.00000000       0.00000000       0.00000000 </v>
   <v>       0.50000000       0.50000000       0.50000000 </v>
   <v>       0.50000000       0.50000000       0.00000000 </v>
   <v>       0.50000000       0.00000000       0.50000000 </v>
   <v>       0.00000000       0.50000000       0.50000000 </v>
  </varray>
 </structure>
</modeling>
