unknown system                          
   1.00000000000000     
     4.913700    0.000000    0.000000
    -2.456850    4.255389    0.000000
     0.000000    0.000000    5.405130
   Si   O 
     3     6
Direct
  0.469800  0.020000  0.666670
  0.000000  0.469800  0.333330
  0.530200  0.530200  0.000000
  0.414500  0.266200  0.785600
  0.733800  0.148300  0.452270
  0.851700  0.585500  0.118930
  0.148300  0.733800  0.547730
  0.266200  0.414500  0.214400
  0.585500  0.851700  0.881070
 
   48   48   56
  1.4712      1.3865      1.3768      1.4192      1.4961      1.5974      1.7182      1.8562      2.0095      2.1745    
  2.3450      2.5126      2.6704      2.8176      2.9634      3.1272      3.3341      3.6103      3.9879      4.5236    
  5.3185      6.5177      8.2840      10.757      14.025      18.116      22.996      28.529      34.405      40.068    
  44.728      47.541      47.900      45.690      41.348      35.679      29.547      23.632      18.342      13.859    
  10.233      7.4403      5.4005      3.9834      3.0297      2.3883      1.9493      1.6527      1.4053      1.3138    
  1.3062      1.3624      1.4641      1.5997      1.7638      1.9528      2.1633      2.3904      2.6266      2.8604    
  3.0772      3.2648      3.4195      3.5502      3.6785      3.8330      4.0447      4.3498      4.8048      5.5015    
  6.5633      8.1171      10.257      13.022      16.381      20.232      24.367      28.450      32.018      34.546    
  35.586      34.917      32.636      29.127      24.924      20.541      16.370      12.662      9.5494      7.0803    
  5.2273      3.9019      2.9814      2.3452      1.9015      1.5966      1.4119      1.3234      1.3221      1.3921    
  1.5163      1.6826      1.8851      2.1209      2.3871      2.6789      2.9880      3.3002      3.5953      3.8505    
  4.0480      4.1820      4.2633      4.3184      4.3826      4.4932      4.6906      5.0299      5.5888      6.4629    
  7.7427      9.4864      11.698      14.313      17.189      20.102      22.761      24.837      26.025      26.118    
  25.077      23.050      20.324      17.240      14.113      11.191      8.6414      6.5562      4.9484      3.7662    
  2.9212      2.3213      1.8950      1.5989      1.4690      1.3960      1.4093      1.4965      1.6438      1.8399    
  2.0785      2.3585      2.6800      3.0408      3.4325      3.8388      4.2345      4.5877      4.8657      5.0450    
  5.1204      5.1085      5.0451      4.9753      4.9455      5.0009      5.1914      5.5788      6.2336      7.2167    
  8.5543      10.220      12.129      14.142      16.070      17.693      18.794      19.204      18.848      17.761    
  16.082      14.014      11.783      9.5947      7.6090      5.9271      4.5875      3.5738      2.8317      2.2947    
  1.9074      1.6371      1.5602      1.5143      1.5519      1.6630      1.8365      2.0632      2.3382      2.6622    
  3.0396      3.4731      3.9574      4.4755      4.9975      5.4818      5.8809      6.1523      6.2704      6.2357    
  6.0762      5.8418      5.5919      5.3833      5.2659      5.2855      5.4885      5.9185      6.6038      7.5448    
  8.7047      10.005      11.327      12.520      13.425      13.912      13.900      13.377      12.400      11.080    
  9.5654      8.0083      6.5377      5.2447      4.1775      3.3435      2.7176      2.2579      1.9253      1.6959    
  1.6758      1.6672      1.7379      1.8804      2.0855      2.3457      2.6586      3.0278      3.4621      3.9705    
  4.5545      5.2004      5.8744      6.5247      7.0884      7.5024      7.7179      7.7136      7.5031      7.1333    
  6.6735      6.2009      5.7855      5.4811      5.3240      5.3393      5.5458      5.9526      6.5485      7.2918    
  8.1085      8.9006      9.5613      9.9918      10.119      9.9110      9.3802      8.5826      7.6048      6.5470    
  5.5058      4.5575      3.7488      3.0956      2.5905      2.2138      1.9443      1.7673      1.8105      1.8490    
  1.9614      2.1428      2.3861      2.6853      3.0394      3.4549      3.9456      4.5284      5.2145      5.9968    
  6.8427      7.6923      8.4658      9.0769      9.4498      9.5371      9.3319      8.8707      8.2264      7.4941    
  6.7710      6.1367      5.6423      5.3126      5.1565      5.1734      5.3521      5.6667      6.0746      6.5186    
  6.9301      7.2376      7.3797      7.3191      7.0494      6.5919      5.9893      5.3005      4.5917      3.9227    
  3.3343      2.8450      2.4573      2.1664      1.9657      1.8486      1.9612      2.0552      2.2187      2.4482    
  2.7388      3.0856      3.4874      3.9518      4.4978      5.1513      5.9346      6.8521      7.8781      8.9508    
  9.9753      10.840      11.436      11.685      11.553      11.057      10.269      9.2954      8.2585      7.2723    
  6.4227      5.7574      5.2869      4.9955      4.8574      4.8473      4.9398      5.1021      5.2897      5.4507    
  5.5374      5.5164      5.3728      5.1099      4.7461      4.3120      3.8452      3.3849      2.9646      2.6074    
  2.3249      2.1199      1.9919      1.9394      2.1248      2.2811      2.5058      2.7960      3.1475      3.5553    
  4.0167      4.5384      5.1417      5.8603      6.7294      7.7694      8.9685      10.270      11.572      12.739    
  13.629      14.120      14.140      13.681      12.805      11.624      10.284      8.9326      7.6973      6.6625    
  5.8594      5.2747      4.8723      4.6147      4.4709      4.4128      4.4090      4.4248      4.4256      4.3819    
  4.2747      4.0990      3.8625      3.5801      3.2698      2.9527      2.6540      2.3987      2.2048      2.0795    
  2.0242      2.0390      2.2971      2.5208      2.8166      3.1825      3.6136      4.1028      4.6444      5.2412    
  5.9123      6.6952      7.6375      8.7785      10.126      11.639      13.220      14.718      15.959      16.774    
  17.039      16.708      15.818      14.484      12.871      11.160      9.5168      8.0667      6.8790      5.9670    
  5.3004      4.8260      4.4905      4.2534      4.0875      3.9700      3.8759      3.7789      3.6578      3.5020    
  3.3112      3.0924      2.8575      2.6226      2.4068      2.2298      2.1078      2.0509      2.0630      2.1449    
  2.4717      2.7663      3.1413      3.5976      4.1300      4.7280      5.3802      6.0819      6.8451      7.7050    
  8.7162      9.9352      11.394      13.077      14.903      16.725      18.345      19.549      20.155      20.057    
  19.253      17.846      16.013      13.967      11.915      10.024      8.4073      7.1170      6.1417      5.4252    
  4.8965      4.4968      4.1890      3.9493      3.7566      3.5891      3.4266      3.2531      3.0595      2.8468    
  2.6271      2.4194      2.2429      2.1131      2.0420      2.0390      2.1093      2.2536      2.6404      3.0055    
  3.4649      4.0233      4.6774      5.4142      6.2145      7.0627      7.9587      8.9280      10.022      11.308    
  12.839      14.633      16.639      18.729      20.706      22.325      23.346      23.591      22.995      21.624    
  19.656      17.328      14.891      12.561      10.496      8.7860      7.4454      6.4340      5.6806      5.1107    
  4.6652      4.3051      4.0062      3.7508      3.5215      3.3012      3.0765      2.8431      2.6076      2.3871    
  2.2032      2.0773      2.0251      2.0547      2.1676      2.3627      2.7964      3.2238      3.7665      4.4328    
  5.2233      6.1243      7.1104      8.1534      9.2370      10.369      11.585      12.950      14.532      16.376    
  18.473      20.735      22.988      24.984      26.441      27.112      26.850      25.655      23.677      21.164    
  18.403      15.664      13.153      11.002      9.2613      7.9178      6.9084      6.1473      5.5525      5.0640    
  4.6473      4.2826      3.9549      3.6511      3.3616      3.0805      2.8067      2.5477      2.3240      2.1641    
  2.0927      2.1212      2.2492      2.4738      2.9382      3.4090      4.0230      4.7932      5.7236      6.8029    
  8.0031      9.2862      10.617      11.979      13.383      14.872      16.513      18.369      20.471      22.783    
  25.181      27.446      29.288      30.406      30.570      29.694      27.866      25.315      22.348      19.274    
  16.355      13.777      11.640      9.9577      8.6780      7.7086      6.9518      6.3279      5.7836      5.2886    
  4.8272      4.3926      3.9831      3.5984      3.2386      2.9087      2.6231      2.4059      2.2826      2.2702    
  2.3748      2.5965      3.0738      3.5564      4.2163      5.0713      6.1297      7.3841      8.8085      10.360    
  11.989      13.651      15.324      17.015      18.766      20.637      22.685      24.931      27.318      29.689    
  31.786      33.291      33.906      33.453      31.932      29.522      26.519      23.257      20.044      17.121    
  14.638      12.644      11.104      9.9296      9.0140      8.2579      7.5844      6.9450      6.3177      5.6992    
  5.0964      4.5226      3.9937      3.5254      3.1309      2.8229      2.6164      2.5280      2.5699      2.7495    
  3.2219      3.6743      4.3400      5.2434      6.3985      7.8034      9.4369      11.258      13.211      15.229    
  17.252      19.240      21.189      23.131      25.127      27.232      29.462      31.748      33.903      35.635    
  36.629      36.633      35.544      33.450      30.609      27.369      24.064      20.970      18.270      16.052    
  14.311      12.972      11.924      11.053      10.260      9.4742      8.6587      7.8059      6.9324      6.0715    
  5.2634      4.5440      3.9378      3.4589      3.1152      2.9129      2.8577      2.9566      3.4071      3.7835    
  4.4046      5.3042      6.5048      8.0119      9.8114      11.870      14.134      16.527      18.958      21.334    
  23.593      25.713      27.724      29.688      31.671      33.660      35.551      37.176      38.298      38.666    
  38.096      36.558      34.191      31.268      28.133      25.120      22.435      20.184      18.386      16.982    
  15.868      14.922      14.034      13.115      12.105      10.984      9.7716      8.5232      7.3067      6.1866    
  5.2152      4.4288      3.8442      3.4590      3.2608      3.2410      3.6557      3.9125      4.4362      5.2705    
  6.4497      7.9894      9.8851      12.115      14.635      17.372      20.220      23.044      25.716      28.145    
  30.301      32.212      33.917      35.384      36.627      37.665      38.454      38.855      38.692      37.847    
  36.319      34.235      31.798      29.262      26.908      24.917      23.305      22.021      20.972      20.044    
  19.123      18.110      16.923      15.521      13.919      12.184      10.417      8.7271      7.2092      5.9362    
  4.9488      4.2523      3.8233      3.6299      4.0005      4.0931      4.4707      5.1782      6.2620      7.7509    
  9.6531      11.959      14.641      17.640      20.851      24.121      27.267      30.123      32.579      34.593    
  36.071      36.910      37.189      37.127      36.958      36.807      36.649      36.371      35.866      35.088    
  34.041      32.766      31.364      30.017      28.906      28.013      27.256      26.533      25.727      24.722    
  23.416      21.746      19.714      17.394      14.930      12.488      10.224      8.2542      6.6531      5.4533    
  4.6428      4.1758      4.4985      4.3619      4.5460      5.0737      5.9926      7.3451      9.1546      11.426    
  14.149      17.284      20.745      24.383      27.988      31.333      34.224      36.518      37.937      38.229    
  37.426      35.877      34.117      32.658      31.804      31.618      31.997      32.761      33.683      34.506    
  35.005      35.101      34.933      34.762      34.616      34.405      34.000      33.243      31.981      30.110    
  27.616      24.600      21.262      17.852      14.603      11.689      9.2284      7.2891      5.8872      4.9829    
  5.2501      4.7760      4.7039      5.0047      5.7026      6.8434      8.4653      10.590      13.223      16.346    
  19.903      23.766      27.731      31.538      34.925      37.651      39.254      39.262      37.538      34.414    
  30.645      27.160      24.747      23.851      24.561      26.692      29.836      33.397      36.712      39.273    
  40.941      41.977      42.808      43.519      43.967      43.911      43.074      41.236      38.329      34.487    
  30.018      25.313      20.738      16.564      12.959      10.018      7.7764      6.2138      6.4005      5.4267    
  4.9996      5.0173      5.4505      6.3249      7.6834      9.5613      11.981      14.948      18.432      22.340    
  26.500      30.653      34.500      37.730      39.753      39.849      37.618      33.213      27.429      21.520    
  16.802      14.265      14.402      17.223      22.300      28.787      35.546      41.494      46.007      49.130    
  51.423      53.492      55.357      56.678      56.959      55.725      52.716      48.030      42.117      35.624    
  29.189      23.277      18.144      13.890      10.536      8.0628      8.1129      6.4376      5.5110      5.1621    
  5.2872      5.8617      6.9086      8.4666      10.575      13.261      16.519      20.291      24.448      28.769    
  32.950      36.651      39.242      39.801      37.625      32.559      25.231      17.019      9.6660      4.7468    
  3.3044      5.7573      11.896      20.839      31.097      40.959      49.133      55.231      59.757      63.630    
  67.449      70.913      73.268      73.627      71.308      66.160      58.684      49.867      40.822      32.428    
  25.162      19.155      14.365      10.713      10.529      7.9364      6.3335      5.5011      5.2596      5.5089    
  6.2226      7.4228      9.1577      11.473      14.386      17.868      21.837      26.126      30.465      34.507    
  37.695      38.996      37.439      32.507      24.489      14.637      4.8948     -2.6859     -6.4800     -5.5254    
 0.40533      10.679      23.725      37.350      49.530      59.224      66.659      72.897      79.025      85.239    
  90.623      93.814      93.494      88.938      80.399      69.083      56.709      44.868      34.562      26.120    
  19.443      14.309      13.739      10.019      7.5587      6.1052      5.4144      5.3037      5.6777      6.5180    
  7.8594      9.7561      12.246      15.330      18.965      23.044      27.351      31.569      35.258      37.441    
  36.959      32.958      25.302      14.881      3.5464     -6.4014     -12.849     -14.270     -9.8824     0.16686    
  14.581      31.019      46.854      60.268      70.948      79.898      88.538      97.683      106.67      113.77    
  116.96      114.66      106.44      93.318      77.475      61.398      47.003      35.189      25.973      18.960    
  17.776      12.727      9.2469      7.0361      5.7956      5.2717      5.2997      5.8011      6.7667      8.2383    
  10.273      12.903      16.113      19.845      23.958      28.200      32.219      35.271      36.142      33.736    
  27.491      17.779      6.0666     -5.4044     -14.247     -18.466     -16.715     -8.5130      5.4230      23.020    
  41.380      57.972      71.746      83.360      94.397      106.17      118.66      130.10      137.92      139.67    
  133.79      120.62      102.30      82.024      62.858      46.731      34.168      24.745      22.603      16.034    
  11.405      8.3219      6.4324      5.4320      5.0978      5.2830      5.9117      6.9909      8.5858      10.752    
  13.499      16.805      20.610      24.753      28.941      32.708      35.005      34.621      30.650      22.909    
  12.265     0.56603     -9.8511     -16.727     -18.231     -13.221     -1.6552      15.025      34.098      52.618    
  68.767      82.570      95.473      109.16      124.29      139.59      152.32      159.43      158.05      147.09    
  128.28      105.14      81.535      60.677      44.083      31.674      28.086      19.836      13.971      9.9386    
  7.3267      5.7948      5.0721      4.9482      5.2809      6.0277      7.2356      8.9691      11.259      14.120    
  17.561      21.517      25.778      30.023      33.605      35.362      34.185      29.420      21.263      10.892    
 0.22567     -8.5267     -13.241     -12.201     -4.5675      9.0882      26.672      45.283      62.532      77.642    
  91.580      106.14      122.56      140.35      157.05      169.52      174.04      167.82      151.11      127.33    
  100.96      76.024      55.311      39.558      33.916      23.927      16.803      11.804      8.4436      6.3501    
  5.2119      4.7711      4.8379      5.3172      6.2107      7.5694      9.4459      11.893      14.970      18.691    
  22.952      27.518      32.057      35.745      37.434      36.172      31.559      23.997      14.692      5.4385    
 -1.6672     -4.5704     -1.7424      7.2104      21.158      37.733      54.366      69.562      83.546      97.842    
  114.03      132.43      151.23      167.53      177.61      177.59      165.81      144.32      117.75      90.633    
  66.707      47.830      39.534      27.972      19.680      13.780      9.7070      7.0574      5.4920      4.7267    
  4.5450      4.8056      5.4532      6.5106      8.0452      10.141      12.889      16.368      20.578      25.391    
  30.566      35.708      39.899      42.076      41.431      37.673      31.193      23.092      15.054      9.1173    
  7.2412      10.687      19.419      31.980      46.122      59.963      72.955      86.006      100.65      117.79    
  136.53      154.36      168.08      173.74      168.34      152.01      128.22      101.65      76.431      55.462    
  44.153      31.507      22.310      15.679      10.999      7.8441      5.8706      4.7904      4.3715      4.4386    
  4.8904      5.7190      6.9911      8.8069      11.283      14.545      18.681      23.665      29.330      35.411    
  41.453      46.514      49.581      49.875      47.081      41.514      34.188      26.760      21.253      19.490    
  22.408      29.624      39.646      50.693      61.676      72.733      84.960      99.484      116.24      133.49    
  148.39      157.68      158.09      148.24      129.79      106.49      82.442      61.114      46.933      34.009    
  24.363      17.281      12.170      8.6134      6.2914      4.9297      4.2896      4.1759      4.4627      5.1183    
  6.1950      7.7960      10.058      13.144      17.203      22.294      28.337      35.131      42.379      49.545    
  55.623      59.556      60.519      58.152      52.763      45.433      37.901      32.144      29.732      31.261    
  36.207      43.319      51.382      59.914      69.369      80.673      94.202      109.07      123.23      133.88    
  138.19      134.22      122.05      103.92      83.279      63.560      47.271      35.031      25.536      18.368    
  13.061      9.2587      6.6866      5.1003      4.2679      3.9902      4.1328      4.6481      5.5724      7.0070    
  9.1041      12.051      16.034      21.179      27.505      34.902      43.123      51.751      60.078      66.949    
  71.189      71.940      68.941      62.721      54.591      46.369      39.867      36.340      36.138      38.748    
  43.239      48.871      55.527      63.661      73.641      85.146      97.005      107.23      113.43      113.62    
  107.03      94.601      78.707      62.187      45.055      34.356      25.623      18.772      13.542      9.6814    
  6.9846      5.2503      4.2713      3.8585      3.8767      4.2690      5.0623      6.3583      8.3190      11.146    
  15.047      20.204      26.729      34.634      43.773      53.758      63.891      73.136      80.104      83.536    
  82.738      77.836      69.809      60.259      51.000      43.576      38.895      37.110      37.789      40.307    
  44.249      49.583      56.374      64.495      73.377      81.828      88.151      90.614      88.127      80.765    
  69.822      57.285      40.725      32.081      24.586      18.419      13.531      9.8080      7.1234      5.3315    
  4.2648      3.7553      3.6728      3.9566      4.6296      5.7956      7.6241      10.327      14.130      19.250    
  25.886      34.191      44.184      55.590      67.680      79.235      88.714      94.542      95.611      91.748    
  83.778      73.261      62.029      51.727      43.513      37.939      35.023      34.436      35.755      38.652    
  42.856      48.161      54.248      60.468      65.779      68.932      68.890      65.269      58.555      49.916    
  35.084      28.592      22.574      17.343      13.016      9.6052      7.0652      5.3100      4.2181      3.6532    
  3.4983      3.6922      4.2539      5.2876      6.9697      9.5236      13.190      18.213      24.856      33.410    
  44.109      56.901      71.146      85.459      97.868      106.31      109.27      106.27      98.037      86.288    
  73.093      60.308      49.237      40.586      34.584      31.139      29.968      30.648      32.742      35.888    
  39.766      43.976      47.919      50.810      51.853      50.544      46.897      41.462      28.994      24.420    
  19.873      15.684      12.054      9.0858      6.8029      5.1701      4.1114      3.5302      3.3318      3.4574    
  3.9192      4.8176      6.3325      8.6967      12.167      17.011      23.534      32.133      43.263      57.187    
  73.527      90.892      106.92      118.86      124.44      122.69      114.20      100.90      85.305      69.780    
  55.950      44.624      36.031      30.111      26.636      25.246      25.492      26.926      29.155      31.824    
  34.539      36.812      38.109      37.987      36.269      33.124      23.133      20.079      16.823      13.644    
  10.757      8.3051      6.3570      4.9143      3.9391      3.3748      3.1566      3.2339      3.6112      4.3780    
  5.7079      7.8372      11.038      15.601      21.856      30.254      41.421      55.960      73.915      94.147    
  114.12      130.42      139.85      140.55      132.63      118.03      99.820      81.092      64.121      50.028    
  39.030      30.917      25.383      22.093      20.651      20.611      21.538      23.050      24.799      26.437    
  27.605      27.973      27.329      25.653      17.903      15.960      13.738      11.447      9.2695      7.3483    
  5.7698      4.5606      3.7083      3.1863      2.9629      3.0076      3.3193      3.9656      5.1017      6.9600    
  9.8224      13.995      19.819      27.756      38.512      52.955      71.617      93.881      117.41      138.40    
  152.76      157.42      151.55      136.85      116.61      94.643      74.134      56.875      43.313      33.113    
  25.749      20.779      17.821      16.465      16.272      16.835      17.803      18.876      19.781      20.273    
  20.160      19.356      13.485      12.307      10.862      9.2966      7.7430      6.3144      5.0987      4.1386    
  3.4335      2.9713      2.7513      2.7734      3.0367      3.5790      4.5260      6.0973      8.5724      12.259    
  17.499      24.738      34.668      48.268      66.474      89.351      115.18      140.27      160.06      170.12    
  168.05      154.84      133.96      109.58      85.690      65.049      48.686      36.343      27.282      20.848    
  16.579      14.067      12.881      12.608      12.899      13.465      14.060      14.485      14.588      14.265    
  9.9242      9.2523      8.3618      7.3511      6.3042      5.2978      4.4083      3.6849      3.1316      2.7411    
  2.5333      2.5376      2.7613      3.2174      3.9956      5.2881      7.3553      10.492      15.035      21.401    
  30.198      42.350      58.989      80.804      106.97      134.46      158.81      174.83      178.37      168.77    
  149.03      123.86      97.631      73.997      54.836      40.292      29.591      21.866      16.485      12.980    
  10.928      9.9275      9.6281      9.7337      10.003      10.263      10.395      10.305      7.1931      6.8378    
  6.3237      5.7081      5.0421      4.3732      3.7570      3.2372      2.8227      2.5107      2.3271      2.3161    
  2.4998      2.8845      3.5248      4.5667      6.2339      8.8019      12.594      17.993      25.494      35.853    
  50.160      69.464      93.820      121.27      147.89      168.72      178.53      174.64      158.52      134.66    
  107.96      82.527      61.121      44.563      32.327      23.453      17.127      12.791      10.011      8.3998    
  7.6000      7.3018      7.2624      7.3213      7.3811      7.3628      5.2081      5.0335      4.7582      4.4041    
  4.0033      3.5860      3.1844      2.8280      2.5310      2.2984      2.1509      2.1299      2.2717      2.5937    
  3.1251      3.9561      5.2591      7.2817      10.329      14.744      20.919      29.415      41.104      57.064    
  77.931      102.89      129.02      152.00      166.80      169.36      159.07      139.11      114.28      88.934    
  66.495      48.561      35.097      25.261      18.161      13.151      9.7810      7.6687      6.4516      5.8131    
  5.5099      5.3808      5.3299      5.2920      3.8372      3.7494      3.6122      3.4212      3.1942      2.9518    
  2.7087      2.4800      2.2813      2.1235      2.0197      1.9996      2.1049      2.3679      2.8080      3.4687    
  4.4651      6.0023      8.3543      11.827      16.744      23.502      32.703      45.204      61.813      82.543    
  105.79      128.13      145.24      153.01      149.27      135.22      114.55      91.465      69.701      51.496    
  37.412      26.944      19.284      13.771      9.9435      7.4269      5.8688      4.9558      4.4430      4.1597    
  4.0008      3.9072      2.9218      2.8634      2.7975      2.7052      2.5898      2.4632      2.3325      2.2047    
  2.0910      2.0019      1.9457      1.9409      2.0240      2.2326      2.5883      3.1115      3.8677      5.0030    
  6.7426      9.3579      13.133      18.364      25.431      34.885      47.390      63.325      82.102      101.65    
  118.55      129.13      130.76      123.03      107.97      89.004      69.686      52.565      38.734      28.142    
  20.225      14.408      10.258      7.4336      5.6113      4.4883      3.8141      3.4083      3.1594      3.0088    
  2.3127      2.2564      2.2234      2.1904      2.1487      2.1007      2.0515      2.0054      1.9677      1.9436    
  1.9381      1.9624      2.0407      2.2053      2.4827      2.8911      3.4644      4.2886      5.5253      7.4022    
  10.177      14.098      19.414      26.431      35.557      47.163      61.184      76.619      91.326      102.44    
  107.35      104.82      95.498      81.620      66.059      51.258      38.620      28.523      20.736      14.860    
  10.550      7.5280      5.5190      4.2422      3.4457      2.9437      2.6232      2.4245      1.9021      1.8384    
  1.8199      1.8228      1.8323      1.8439      1.8592      1.8816      1.9126      1.9525      2.0021      2.0656    
  2.1554      2.2930      2.5048      2.8141      3.2433      3.8363      4.6911      5.9764      7.9121      10.723    
  14.605      19.737      26.322      34.573      44.549      55.844      67.313      77.112      83.190      84.074    
  79.518      70.616      59.307      47.589      36.891      27.876      20.628      14.975      10.702      7.6122    
  5.4958      4.1128      3.2274      2.6544      2.2785      2.0393      1.6307      1.5567      1.5446      1.5704    
  1.6178      1.6782      1.7495      1.8322      1.9261      2.0292      2.1378      2.2491      2.3651      2.4964    
  2.6626      2.8885      3.1972      3.6154      4.1955      5.0422      6.3185      8.2184      10.923      14.576    
  19.282      25.121      32.104      40.043      48.372      56.061      61.765      64.252      62.903      58.000    
  50.608      42.111      33.717      26.182      19.815      14.651      10.618      7.6071      5.4757      4.0403    
  3.1002      2.4810      2.0655      1.7923      1.4807      1.4199      1.4127      1.4375      1.4812      1.5386    
  1.6080      1.6879      1.7770      1.8735      1.9740      2.0739      2.1693      2.2603      2.3551      2.4710    
  2.6313      2.8589      3.1762      3.6176      4.2481      5.1699      6.5072      8.3731      10.835      13.893    
  17.475      21.429      25.500      29.311      32.377      34.200      34.434      33.014      30.187      26.416    
  22.220      18.045      14.207      10.894      8.1868      6.0863      4.5379      3.4480      2.7034      2.1970    
  1.8496      1.6179      1.3996      1.3330      1.3278      1.3654      1.4311      1.5183      1.6247      1.7482    
  1.8848      2.0301      2.1798      2.3278      2.4652      2.5842      2.6832      2.7711      2.8667      2.9944    
  3.1789      3.4453      3.8286      4.3873      5.2075      6.3876      8.0071      10.097      12.623      15.479    
  18.485      21.391      23.881      25.622      26.337      25.890      24.338      21.915      18.955      15.799    
  12.734      9.9698      7.6364      5.7831      4.3871      3.3747      2.6542      2.1443      1.7866      1.5454    
  1.4127      1.3509      1.3526      1.4031      1.4892      1.6031      1.7414      1.9018      2.0801      2.2708    
  2.4681      2.6645      2.8488      3.0076      3.1307      3.2156      3.2718      3.3206      3.3900      3.5079    
  3.7008      4.0013      4.4595      5.1428      6.1216      7.4462      9.1233      11.100      13.257      15.417    