unknown system                          
   1.00000000000000     
     4.913700    0.000000    0.000000
    -2.456850    4.255389    0.000000
     0.000000    0.000000    5.405130
   Si   O 
     3     6
Direct
  0.469800  0.020000  0.666670
  0.000000  0.469800  0.333330
  0.530200  0.530200  0.000000
  0.414500  0.266200  0.785600
  0.733800  0.148300  0.452270
  0.851700  0.585500  0.118930
  0.148300  0.733800  0.547730
  0.266200  0.414500  0.214400
  0.585500  0.851700  0.881070
 
   48   48   56
 0.14711883523E+01 0.13864501217E+01 0.13767986775E+01 0.14192443024E+01 0.14961476694E+01
 0.15974047352E+01 0.17181976427E+01 0.18561958517E+01 0.20094802273E+01 0.21745376117E+01
 0.23449929715E+01 0.25125633218E+01 0.26703944548E+01 0.28176457640E+01 0.29634317659E+01
 0.31272108511E+01 0.33341419383E+01 0.36103199490E+01 0.39878991274E+01 0.45236329066E+01
 0.53184504583E+01 0.65177025495E+01 0.82839963625E+01 0.10757076254E+02 0.14025026870E+02
 0.18116494948E+02 0.22995860452E+02 0.28528555299E+02 0.34405149504E+02 0.40067740657E+02
 0.44727786768E+02 0.47541076011E+02 0.47900006481E+02 0.45690302398E+02 0.41348457658E+02
 0.35678542558E+02 0.29546544946E+02 0.23632188684E+02 0.18342078640E+02 0.13859100625E+02
 0.10233145134E+02 0.74403173964E+01 0.54005339205E+01 0.39834393649E+01 0.30296866762E+01
 0.23882578955E+01 0.19493287248E+01 0.16527253652E+01 0.14053186600E+01 0.13138081667E+01
 0.13062127636E+01 0.13624407903E+01 0.14641247905E+01 0.15997308475E+01 0.17637520476E+01
 0.19528172931E+01 0.21632782064E+01 0.23903514605E+01 0.26265931579E+01 0.28603555898E+01
 0.30771630712E+01 0.32647747484E+01 0.34194568245E+01 0.35502039650E+01 0.36784641011E+01
 0.38330276146E+01 0.40447473659E+01 0.43498387068E+01 0.48048182238E+01 0.55014880956E+01
 0.65632501227E+01 0.81171411314E+01 0.10257464718E+02 0.13021715326E+02 0.16381491229E+02
 0.20231999965E+02 0.24366957526E+02 0.28450069620E+02 0.32017581568E+02 0.34545917040E+02
 0.35586186451E+02 0.34917174916E+02 0.32636013711E+02 0.29127265406E+02 0.24923709097E+02
 0.20540694910E+02 0.16370386177E+02 0.12661854490E+02 0.95494029533E+01 0.70803061673E+01
 0.52273357944E+01 0.39018923404E+01 0.29814445967E+01 0.23451905210E+01 0.19015116321E+01
 0.15966056767E+01 0.14118917052E+01 0.13233900512E+01 0.13220978351E+01 0.13920545364E+01
 0.15162966647E+01 0.16826177780E+01 0.18850631021E+01 0.21208747607E+01 0.23871053962E+01
 0.26789324357E+01 0.29880170290E+01 0.33002303775E+01 0.35952789530E+01 0.38505220414E+01
 0.40480416264E+01 0.41820204784E+01 0.42633178284E+01 0.43184287976E+01 0.43826473949E+01
 0.44931792771E+01 0.46906412591E+01 0.50298567883E+01 0.55888459901E+01 0.64629343076E+01
 0.77426792781E+01 0.94864376533E+01 0.11698241455E+02 0.14313258736E+02 0.17188788328E+02
 0.20102035166E+02 0.22761040479E+02 0.24837255291E+02 0.26024713520E+02 0.26117506668E+02
 0.25076855221E+02 0.23049995065E+02 0.20324202284E+02 0.17240308713E+02 0.14113344146E+02
 0.11190639499E+02 0.86414207759E+01 0.65562222541E+01 0.49483724464E+01 0.37662435360E+01
 0.29212233194E+01 0.23213009651E+01 0.18949925877E+01 0.15988734465E+01 0.14690437044E+01
 0.13960260578E+01 0.14093465759E+01 0.14965467436E+01 0.16438251614E+01 0.18398849157E+01
 0.20785441176E+01 0.23584671223E+01 0.26799792329E+01 0.30407711083E+01 0.34324959619E+01
 0.38387662602E+01 0.42344723453E+01 0.45876594284E+01 0.48657028033E+01 0.50450408013E+01
 0.51203661551E+01 0.51085270571E+01 0.50450504428E+01 0.49752521077E+01 0.49454800337E+01
 0.50008781381E+01 0.51913708918E+01 0.55787961092E+01 0.62336366143E+01 0.72167231386E+01
 0.85543049314E+01 0.10220030034E+02 0.12129404385E+02 0.14142346358E+02 0.16070348749E+02
 0.17693453335E+02 0.18794130225E+02 0.19204202934E+02 0.18847751164E+02 0.17761101905E+02
 0.16082009363E+02 0.14014373089E+02 0.11783242168E+02 0.95947304851E+01 0.76090417287E+01
 0.59270608366E+01 0.45875207424E+01 0.35738420831E+01 0.28317308350E+01 0.22946667218E+01
 0.19074412361E+01 0.16370927984E+01 0.15602327801E+01 0.15143281329E+01 0.15518628952E+01
 0.16629516174E+01 0.18365032442E+01 0.20631987653E+01 0.23381500283E+01 0.26621616491E+01
 0.30396336536E+01 0.34731217811E+01 0.39573928993E+01 0.44755323251E+01 0.49975472702E+01
 0.54818103242E+01 0.58809130805E+01 0.61522834399E+01 0.62704081197E+01 0.62356770778E+01
 0.60762350844E+01 0.58418455318E+01 0.55918783709E+01 0.53833300210E+01 0.52659054534E+01
 0.52854776004E+01 0.54885027628E+01 0.59184696416E+01 0.66038425309E+01 0.75448470148E+01
 0.87047464085E+01 0.10005378071E+02 0.11327262334E+02 0.12519785370E+02 0.13425434938E+02
 0.13912013694E+02 0.13900088077E+02 0.13377365025E+02 0.12399647639E+02 0.11079854154E+02
 0.95654173170E+01 0.80082769660E+01 0.65377272915E+01 0.52447261786E+01 0.41774578220E+01
 0.33434536387E+01 0.27175947621E+01 0.22579493987E+01 0.19253297177E+01 0.16958770620E+01
 0.16757995673E+01 0.16672395979E+01 0.17379119860E+01 0.18804376324E+01 0.20855140283E+01
 0.23457250310E+01 0.26586058588E+01 0.30278476512E+01 0.34621178167E+01 0.39704732620E+01
 0.45545256606E+01 0.52003707732E+01 0.58743630280E+01 0.65247063645E+01 0.70883845230E+01
 0.75024022169E+01 0.77178986243E+01 0.77135641325E+01 0.75030979987E+01 0.71332806074E+01
 0.66735295530E+01 0.62009178370E+01 0.57855344765E+01 0.54810805537E+01 0.53239936249E+01
 0.53393220902E+01 0.55457717547E+01 0.59525522415E+01 0.65485025288E+01 0.72918211227E+01
 0.81084723590E+01 0.89006042140E+01 0.95612669068E+01 0.99917933279E+01 0.10119347187E+02
 0.99110486051E+01 0.93802136768E+01 0.85826481184E+01 0.76047699629E+01 0.65470255607E+01
 0.55058218840E+01 0.45575303655E+01 0.37487609582E+01 0.30955575931E+01 0.25904824619E+01
 0.22137624510E+01 0.19443209765E+01 0.17672960523E+01 0.18105376808E+01 0.18489554024E+01
 0.19613734240E+01 0.21427980848E+01 0.23860838381E+01 0.26852680103E+01 0.30393908299E+01
 0.34548879852E+01 0.39455619974E+01 0.45284376269E+01 0.52144674825E+01 0.59968497832E+01
 0.68427066762E+01 0.76922583908E+01 0.84657957875E+01 0.90768963723E+01 0.94498177962E+01
 0.95371353832E+01 0.93319482690E+01 0.88706899191E+01 0.82263824655E+01 0.74940839277E+01
 0.67709848206E+01 0.61366874065E+01 0.56422509898E+01 0.53125806012E+01 0.51564753856E+01
 0.51733730978E+01 0.53521402376E+01 0.56667331715E+01 0.60746430773E+01 0.65185723072E+01
 0.69301240172E+01 0.72376328769E+01 0.73796852429E+01 0.73191358840E+01 0.70494474587E+01
 0.65918643759E+01 0.59892917585E+01 0.53005285640E+01 0.45917066575E+01 0.39226892194E+01
 0.33343261472E+01 0.28450498614E+01 0.24573282664E+01 0.21664490954E+01 0.19657058565E+01
 0.18486188159E+01 0.19611708090E+01 0.20551786437E+01 0.22187180487E+01 0.24481879495E+01
 0.27388102943E+01 0.30856209117E+01 0.34873614398E+01 0.39517613912E+01 0.44977896697E+01
 0.51513489411E+01 0.59345875503E+01 0.68520513582E+01 0.78781424411E+01 0.89507640294E+01
 0.99752685008E+01 0.10839522072E+02 0.11436168096E+02 0.11685466098E+02 0.11552838742E+02
 0.11057376050E+02 0.10269171825E+02 0.92954126784E+01 0.82584931404E+01 0.72722600075E+01
 0.64226745000E+01 0.57574233944E+01 0.52868716879E+01 0.49954523489E+01 0.48573921393E+01
 0.48472853884E+01 0.49397762645E+01 0.51021301527E+01 0.52897004378E+01 0.54506825617E+01
 0.55373871136E+01 0.55163811003E+01 0.53728302949E+01 0.51099029778E+01 0.47461222090E+01
 0.43119535445E+01 0.38452024439E+01 0.33848938572E+01 0.29645995523E+01 0.26074214907E+01
 0.23248710218E+01 0.21199444893E+01 0.19918997229E+01 0.19394265071E+01 0.21247590096E+01
 0.22810871178E+01 0.25058283567E+01 0.27959697081E+01 0.31475107373E+01 0.35553363551E+01
 0.40167074342E+01 0.45383585827E+01 0.51416730368E+01 0.58603165960E+01 0.67294393140E+01
 0.77694043564E+01 0.89684614237E+01 0.10270180981E+02 0.11572150114E+02 0.12739248093E+02
 0.13628669863E+02 0.14119558119E+02 0.14139537801E+02 0.13681405988E+02 0.12805079726E+02
 0.11624408358E+02 0.10283976553E+02 0.89325583279E+01 0.76973238132E+01 0.66624722948E+01
 0.58593928286E+01 0.52747182167E+01 0.48723432115E+01 0.46147157462E+01 0.44709391891E+01
 0.44127880929E+01 0.44090077189E+01 0.44248043955E+01 0.44255741339E+01 0.43819008422E+01
 0.42747450785E+01 0.40990335181E+01 0.38624900917E+01 0.35801193675E+01 0.32698335170E+01
 0.29527240498E+01 0.26539741048E+01 0.23987310718E+01 0.22047780328E+01 0.20795476343E+01
 0.20241752441E+01 0.20389825207E+01 0.22971190645E+01 0.25208400700E+01 0.28165523359E+01
 0.31824577288E+01 0.36136024841E+01 0.41028021682E+01 0.46443848093E+01 0.52411995820E+01
 0.59122813691E+01 0.66951625106E+01 0.76375218287E+01 0.87785225289E+01 0.10126233515E+02
 0.11639354551E+02 0.13219549069E+02 0.14718232601E+02 0.15959167013E+02 0.16773642251E+02
 0.17038928372E+02 0.16707515247E+02 0.15817761391E+02 0.14483977240E+02 0.12870763025E+02
 0.11159719221E+02 0.95167728415E+01 0.80666883776E+01 0.68789587040E+01 0.59670119062E+01
 0.53003858809E+01 0.48260304235E+01 0.44905139469E+01 0.42534333946E+01 0.40874812610E+01
 0.39699585734E+01 0.38758630195E+01 0.37788674574E+01 0.36578389044E+01 0.35020327162E+01
 0.33111812177E+01 0.30923791856E+01 0.28575482541E+01 0.26226467580E+01 0.24068361232E+01
 0.22298086850E+01 0.21078230609E+01 0.20508794007E+01 0.20629625909E+01 0.21448675033E+01
 0.24717200811E+01 0.27662855886E+01 0.31412838692E+01 0.35976205628E+01 0.41300247980E+01
 0.47279891589E+01 0.53801698210E+01 0.60819152841E+01 0.68450861951E+01 0.77049501401E+01
 0.87162145888E+01 0.99352478243E+01 0.11394265473E+02 0.13076980004E+02 0.14902861151E+02
 0.16724838677E+02 0.18344949756E+02 0.19549272377E+02 0.20155318088E+02 0.20057279598E+02
 0.19253368677E+02 0.17845586060E+02 0.16012629123E+02 0.13967306653E+02 0.11914884363E+02
 0.10023550819E+02 0.84072964135E+01 0.71170431652E+01 0.61417193134E+01 0.54252093813E+01
 0.48964643562E+01 0.44967939413E+01 0.41889843240E+01 0.39493013231E+01 0.37566410131E+01
 0.35891443096E+01 0.34265813465E+01 0.32530736332E+01 0.30595255319E+01 0.28468451377E+01
 0.26271217508E+01 0.24194396539E+01 0.22429410383E+01 0.21130572754E+01 0.20419684016E+01
 0.20390363394E+01 0.21093294872E+01 0.22535820528E+01 0.26404277713E+01 0.30054728132E+01
 0.34648910335E+01 0.40232960716E+01 0.46774439848E+01 0.54142313198E+01 0.62145258817E+01
 0.70626664328E+01 0.79586881366E+01 0.89280215934E+01 0.10022416614E+02 0.11307715848E+02
 0.12839393373E+02 0.14632885671E+02 0.16638516954E+02 0.18729162005E+02 0.20705883441E+02
 0.22324945095E+02 0.23345881691E+02 0.23590909891E+02 0.22994961626E+02 0.21624280398E+02
 0.19655595424E+02 0.17328129301E+02 0.14890763292E+02 0.12560564407E+02 0.10496459995E+02
 0.87860156048E+01 0.74453999803E+01 0.64340355636E+01 0.56806339315E+01 0.51107489795E+01
 0.46652151130E+01 0.43050633017E+01 0.40061876230E+01 0.37507769776E+01 0.35215293858E+01
 0.33012121913E+01 0.30765368522E+01 0.28430507850E+01 0.26076391598E+01 0.23870511637E+01
 0.22031927764E+01 0.20772865035E+01 0.20250777650E+01 0.20546595099E+01 0.21675842511E+01
 0.23626646285E+01 0.27963707013E+01 0.32238487045E+01 0.37664542251E+01 0.44328208626E+01
 0.52232515650E+01 0.61243318271E+01 0.71103997948E+01 0.81534315060E+01 0.92370233988E+01
 0.10368616524E+02 0.11585495512E+02 0.12950179719E+02 0.14531797171E+02 0.16376010801E+02
 0.18473180230E+02 0.20735263894E+02 0.22987975972E+02 0.24983695747E+02 0.26441441503E+02
 0.27112187056E+02 0.26849684056E+02 0.25655449738E+02 0.23676991810E+02 0.21163664352E+02
 0.18403310279E+02 0.15663777990E+02 0.13153124766E+02 0.11001573892E+02 0.92613091588E+01
 0.79177703063E+01 0.69083742057E+01 0.61473333663E+01 0.55524581121E+01 0.50639988884E+01
 0.46472753713E+01 0.42825806726E+01 0.39548861923E+01 0.36511019638E+01 0.33615890586E+01
 0.30805399769E+01 0.28066973299E+01 0.25477024936E+01 0.23239534066E+01 0.21640838172E+01
 0.20927121940E+01 0.21211711479E+01 0.22491962488E+01 0.24738170152E+01 0.29381505858E+01
 0.34089557026E+01 0.40229964484E+01 0.47931855049E+01 0.57235852182E+01 0.68028909922E+01
 0.80031298686E+01 0.92862419964E+01 0.10617166379E+02 0.11978693830E+02 0.13382649240E+02
 0.14872489961E+02 0.16513415801E+02 0.18369254415E+02 0.20470607747E+02 0.22782511588E+02
 0.25180625700E+02 0.27445773186E+02 0.29288017755E+02 0.30406076130E+02 0.30569974142E+02
 0.29694219704E+02 0.27865909519E+02 0.25315266541E+02 0.22348036323E+02 0.19273929307E+02
 0.16354893536E+02 0.13777034372E+02 0.11639671874E+02 0.99576734106E+01 0.86779547746E+01
 0.77086310961E+01 0.69518499288E+01 0.63278868897E+01 0.57836269887E+01 0.52885968576E+01
 0.48271646589E+01 0.43926259840E+01 0.39831453496E+01 0.35983747056E+01 0.32386298670E+01
 0.29086981357E+01 0.26231043396E+01 0.24059016696E+01 0.22825669491E+01 0.22702358722E+01
 0.23748018657E+01 0.25965270062E+01 0.30738488565E+01 0.35564281964E+01 0.42162919286E+01
 0.50712728714E+01 0.61296615537E+01 0.73840705613E+01 0.88084917215E+01 0.10360299483E+02
 0.11989150747E+02 0.13651257614E+02 0.15323952431E+02 0.17015428296E+02 0.18765879599E+02
 0.20636593407E+02 0.22685280592E+02 0.24931054604E+02 0.27317912154E+02 0.29688902876E+02
 0.31786054810E+02 0.33290844411E+02 0.33906191987E+02 0.33452673313E+02 0.31931583756E+02
 0.29521763801E+02 0.26518917762E+02 0.23256840219E+02 0.20043766397E+02 0.17120944507E+02
 0.14637723724E+02 0.12643853565E+02 0.11103958230E+02 0.99295766463E+01 0.90139672603E+01
 0.82578705201E+01 0.75843732235E+01 0.69450004210E+01 0.63177410337E+01 0.56991905190E+01
 0.50964499978E+01 0.45225654553E+01 0.39936736985E+01 0.35254333842E+01 0.31309479183E+01
 0.28228622286E+01 0.26164255494E+01 0.25279797494E+01 0.25699429191E+01 0.27494812008E+01
 0.32219185199E+01 0.36743427520E+01 0.43400472825E+01 0.52433818581E+01 0.63984958555E+01
 0.78033974899E+01 0.94369075415E+01 0.11258344488E+02 0.13210726359E+02 0.15228705078E+02
 0.17251633797E+02 0.19239847882E+02 0.21188523960E+02 0.23131108533E+02 0.25126764269E+02
 0.27232157502E+02 0.29462273556E+02 0.31748192335E+02 0.33902840135E+02 0.35635208269E+02
 0.36629435097E+02 0.36633321763E+02 0.35544221557E+02 0.33450162277E+02 0.30609160778E+02
 0.27368743827E+02 0.24064203925E+02 0.20969591961E+02 0.18270101330E+02 0.16052227908E+02
 0.14310718121E+02 0.12971591234E+02 0.11924444453E+02 0.11053488177E+02 0.10259967731E+02
 0.94741806101E+01 0.86587152231E+01 0.78059135800E+01 0.69323948646E+01 0.60715366081E+01
 0.52634293659E+01 0.45439501786E+01 0.39378057137E+01 0.34588745044E+01 0.31151811407E+01
 0.29128909307E+01 0.28576743513E+01 0.29565544659E+01 0.34070896500E+01 0.37834539771E+01
 0.44045910579E+01 0.53041518982E+01 0.65048411147E+01 0.80119427471E+01 0.98113882388E+01
 0.11869909004E+02 0.14133730599E+02 0.16527055013E+02 0.18957580700E+02 0.21334320420E+02
 0.23592539700E+02 0.25712766686E+02 0.27723849029E+02 0.29688383982E+02 0.31670875311E+02
 0.33660204396E+02 0.35551238712E+02 0.37175609965E+02 0.38298157642E+02 0.38665564074E+02
 0.38096142315E+02 0.36558264650E+02 0.34191346796E+02 0.31267967842E+02 0.28133108051E+02
 0.25120020866E+02 0.22435181408E+02 0.20184227263E+02 0.18385590684E+02 0.16982217788E+02
 0.15868134854E+02 0.14922349896E+02 0.14034182386E+02 0.13114994087E+02 0.12105308247E+02
 0.10983794027E+02 0.97716099608E+01 0.85231789111E+01 0.73066585052E+01 0.61865617161E+01
 0.52151718083E+01 0.44287509855E+01 0.38441512877E+01 0.34590490874E+01 0.32607793370E+01
 0.32410210659E+01 0.36557313758E+01 0.39125377680E+01 0.44362175162E+01 0.52704588167E+01
 0.64496791317E+01 0.79893685000E+01 0.98851187259E+01 0.12114570492E+02 0.14634593582E+02
 0.17372399611E+02 0.20219898996E+02 0.23044129330E+02 0.25716181055E+02 0.28145342219E+02
 0.30300617244E+02 0.32212014508E+02 0.33916756224E+02 0.35384375897E+02 0.36626925530E+02
 0.37665303836E+02 0.38453896173E+02 0.38855003220E+02 0.38692463413E+02 0.37846532388E+02
 0.36319296240E+02 0.34234545738E+02 0.31797655457E+02 0.29261854717E+02 0.26907983616E+02
 0.24916728732E+02 0.23304742106E+02 0.22021103237E+02 0.20971773548E+02 0.20043524633E+02
 0.19123449389E+02 0.18109856137E+02 0.16922808565E+02 0.15521332709E+02 0.13919196983E+02
 0.12184090867E+02 0.10417298750E+02 0.87270698178E+01 0.72092298606E+01 0.59361684493E+01
 0.49487973773E+01 0.42523385280E+01 0.38233308215E+01 0.36299447479E+01 0.40005445851E+01
 0.40930607381E+01 0.44706509650E+01 0.51782258470E+01 0.62619719695E+01 0.77508990556E+01
 0.96531490098E+01 0.11959315209E+02 0.14641141890E+02 0.17640041023E+02 0.20851392510E+02
 0.24120899749E+02 0.27266866072E+02 0.30123167096E+02 0.32579260163E+02 0.34593088365E+02
 0.36070794753E+02 0.36910450584E+02 0.37189231129E+02 0.37126580119E+02 0.36957791789E+02
 0.36807276526E+02 0.36649406706E+02 0.36370997918E+02 0.35866472929E+02 0.35088200800E+02
 0.34040547287E+02 0.32766358209E+02 0.31364364441E+02 0.30016735455E+02 0.28906217383E+02
 0.28013081467E+02 0.27256011177E+02 0.26532749385E+02 0.25726965443E+02 0.24721563663E+02
 0.23415674175E+02 0.21746454820E+02 0.19713791885E+02 0.17394487902E+02 0.14929946714E+02
 0.12488490259E+02 0.10224261272E+02 0.82541737828E+01 0.66531274586E+01 0.54532866157E+01
 0.46428285533E+01 0.41757842247E+01 0.44984811676E+01 0.43619426762E+01 0.45460360404E+01
 0.50737435234E+01 0.59926476106E+01 0.73451030703E+01 0.91545757961E+01 0.11426419512E+02
 0.14148969069E+02 0.17283821468E+02 0.20745315460E+02 0.24382975467E+02 0.27988078077E+02
 0.31332967652E+02 0.34223889227E+02 0.36517520447E+02 0.37936767276E+02 0.38228619282E+02
 0.37426388033E+02 0.35876864227E+02 0.34117222008E+02 0.32657757490E+02 0.31803956923E+02
 0.31618107659E+02 0.31997243862E+02 0.32760894047E+02 0.33683228979E+02 0.34506402656E+02
 0.35005271752E+02 0.35100815136E+02 0.34933074155E+02 0.34761588024E+02 0.34615608233E+02
 0.34405396120E+02 0.34000321283E+02 0.33242650216E+02 0.31980611634E+02 0.30110068472E+02
 0.27616424769E+02 0.24599825123E+02 0.21261990036E+02 0.17852298619E+02 0.14602625001E+02
 0.11688870448E+02 0.92284096059E+01 0.72891086509E+01 0.58872197167E+01 0.49829022369E+01
 0.52501299474E+01 0.47759637526E+01 0.47039226965E+01 0.50046835449E+01 0.57026070369E+01
 0.68433844621E+01 0.84653415459E+01 0.10589989991E+02 0.13222606293E+02 0.16346339639E+02
 0.19902693662E+02 0.23765800488E+02 0.27731008572E+02 0.31538180525E+02 0.34925476095E+02
 0.37650899880E+02 0.39254244219E+02 0.39262080868E+02 0.37537900719E+02 0.34414105980E+02
 0.30644990486E+02 0.27160137319E+02 0.24747070076E+02 0.23850828513E+02 0.24561141930E+02
 0.26692084985E+02 0.29835589962E+02 0.33396840490E+02 0.36711756045E+02 0.39272942909E+02
 0.40940761484E+02 0.41976687266E+02 0.42807915611E+02 0.43519122509E+02 0.43966744288E+02
 0.43910676281E+02 0.43073600810E+02 0.41235662482E+02 0.38328858154E+02 0.34486696673E+02
 0.30017827057E+02 0.25313334062E+02 0.20738353975E+02 0.16563957854E+02 0.12959254745E+02
 0.10017706461E+02 0.77763679077E+01 0.62138263203E+01 0.64005198669E+01 0.54267343848E+01
 0.49995788143E+01 0.50173133747E+01 0.54504647995E+01 0.63249170445E+01 0.76834081059E+01
 0.95613449609E+01 0.11981357671E+02 0.14948159129E+02 0.18431543934E+02 0.22340280321E+02
 0.26499612674E+02 0.30652736660E+02 0.34499762490E+02 0.37730310907E+02 0.39752500481E+02
 0.39849192755E+02 0.37618455799E+02 0.33213336063E+02 0.27428969054E+02 0.21520330599E+02
 0.16802385027E+02 0.14265137933E+02 0.14401550171E+02 0.17222857195E+02 0.22300438448E+02
 0.28786749147E+02 0.35546364798E+02 0.41494381280E+02 0.46007447248E+02 0.49129912673E+02
 0.51423119021E+02 0.53491902165E+02 0.55357041550E+02 0.56677642121E+02 0.56959456273E+02
 0.55725323807E+02 0.52716287940E+02 0.48030253638E+02 0.42116684448E+02 0.35624212223E+02
 0.29188840863E+02 0.23276882411E+02 0.18144088388E+02 0.13890220455E+02 0.10536464423E+02
 0.80627960908E+01 0.81128721829E+01 0.64375882023E+01 0.55109879814E+01 0.51621226644E+01
 0.52872290817E+01 0.58617205501E+01 0.69085922054E+01 0.84666393421E+01 0.10575215054E+02
 0.13260981159E+02 0.16518682823E+02 0.20291169926E+02 0.24448315119E+02 0.28768811829E+02
 0.32950413788E+02 0.36651169239E+02 0.39242499727E+02 0.39800990654E+02 0.37625116963E+02
 0.32558995618E+02 0.25230663970E+02 0.17018643236E+02 0.96659811326E+01 0.47467898255E+01
 0.33044043852E+01 0.57572942344E+01 0.11896013907E+02 0.20839456038E+02 0.31097162520E+02
 0.40958927106E+02 0.49132913848E+02 0.55230825724E+02 0.59756612991E+02 0.63630485709E+02
 0.67448679677E+02 0.70912827086E+02 0.73268477049E+02 0.73626930988E+02 0.71308176655E+02
 0.66160498171E+02 0.58684046566E+02 0.49867326968E+02 0.40822326727E+02 0.32427970602E+02
 0.25161810776E+02 0.19155235248E+02 0.14365286480E+02 0.10712990092E+02 0.10528908600E+02
 0.79363720058E+01 0.63335381034E+01 0.55011314503E+01 0.52595661131E+01 0.55089106056E+01
 0.62225526507E+01 0.74227978517E+01 0.91576526645E+01 0.11473165989E+02 0.14385681564E+02
 0.17867787184E+02 0.21836843421E+02 0.26126334794E+02 0.30464676274E+02 0.34507430300E+02
 0.37694618921E+02 0.38995548909E+02 0.37439489771E+02 0.32507404543E+02 0.24489498512E+02
 0.14637035722E+02 0.48948135972E+01 -.26859211216E+01 -.64800166862E+01 -.55253599147E+01
 0.40532770270E+00 0.10678858040E+02 0.23724597921E+02 0.37350481512E+02 0.49530096591E+02
 0.59224109584E+02 0.66659164546E+02 0.72896708630E+02 0.79024865065E+02 0.85238619958E+02
 0.90623317056E+02 0.93813881551E+02 0.93493716496E+02 0.88938437989E+02 0.80398517204E+02
 0.69082646445E+02 0.56708831234E+02 0.44868337737E+02 0.34561697239E+02 0.26119679872E+02
 0.19443105520E+02 0.14309065111E+02 0.13739480231E+02 0.10019415689E+02 0.75586964393E+01
 0.61051702571E+01 0.54143635157E+01 0.53037299166E+01 0.56776881246E+01 0.65179705784E+01
 0.78593734614E+01 0.97561240057E+01 0.12245778226E+02 0.15329507177E+02 0.18965281134E+02
 0.23043888310E+02 0.27350972062E+02 0.31569248776E+02 0.35257587903E+02 0.37440646186E+02
 0.36958727754E+02 0.32958377166E+02 0.25302154141E+02 0.14881159520E+02 0.35464164019E+01
 -.64014267536E+01 -.12848968815E+02 -.14269519945E+02 -.98824014244E+01 0.16686185663E+00
 0.14580560291E+02 0.31019030718E+02 0.46854088065E+02 0.60267529967E+02 0.70948464105E+02
 0.79898498672E+02 0.88537874380E+02 0.97682972609E+02 0.10667275699E+03 0.11377003229E+03
 0.11695696546E+03 0.11465781953E+03 0.10643649686E+03 0.93317801578E+02 0.77475417606E+02
 0.61398074339E+02 0.47003281886E+02 0.35189197136E+02 0.25973233284E+02 0.18959594293E+02
 0.17775595797E+02 0.12727044372E+02 0.92468976314E+01 0.70360746157E+01 0.57955505380E+01
 0.52716925368E+01 0.52996691072E+01 0.58010800653E+01 0.67666774101E+01 0.82382971525E+01
 0.10273274845E+02 0.12902536195E+02 0.16113497610E+02 0.19845219628E+02 0.23958251320E+02
 0.28200265458E+02 0.32218654048E+02 0.35271211717E+02 0.36142324684E+02 0.33736487576E+02
 0.27490618146E+02 0.17778822092E+02 0.60665976599E+01 -.54044424531E+01 -.14247366929E+02
 -.18465700382E+02 -.16714941020E+02 -.85130044656E+01 0.54230269505E+01 0.23020421474E+02
 0.41380192377E+02 0.57971573830E+02 0.71745860433E+02 0.83360315033E+02 0.94396939499E+02
 0.10616921853E+03 0.11865702730E+03 0.13009756701E+03 0.13792347246E+03 0.13966543796E+03
 0.13379393408E+03 0.12062131486E+03 0.10230229522E+03 0.82024403938E+02 0.62858088379E+02
 0.46731315186E+02 0.34167904144E+02 0.24744633674E+02 0.22602711580E+02 0.16033519926E+02
 0.11404997486E+02 0.83218984601E+01 0.64324317565E+01 0.54320394123E+01 0.50978076706E+01
 0.52829596217E+01 0.59116903210E+01 0.69909486816E+01 0.85858411310E+01 0.10752191369E+02
 0.13499238174E+02 0.16805235865E+02 0.20610217575E+02 0.24752983534E+02 0.28941257731E+02
 0.32708023594E+02 0.35005175188E+02 0.34621216576E+02 0.30649836261E+02 0.22908794243E+02
 0.12265058137E+02 0.56602986906E+00 -.98510605460E+01 -.16726560547E+02 -.18230693638E+02
 -.13221290830E+02 -.16551598921E+01 0.15025139028E+02 0.34098173604E+02 0.52617827675E+02
 0.68767297618E+02 0.82569656707E+02 0.95473404263E+02 0.10915765302E+03 0.12429146177E+03
 0.13958945673E+03 0.15231860831E+03 0.15943164485E+03 0.15804884821E+03 0.14709140374E+03
 0.12828060602E+03 0.10514384420E+03 0.81535142674E+02 0.60676957162E+02 0.44083416999E+02
 0.31673897433E+02 0.28086090929E+02 0.19835644775E+02 0.13970807484E+02 0.99386454780E+01
 0.73266977576E+01 0.57948356854E+01 0.50720542306E+01 0.49481572677E+01 0.52809029681E+01
 0.60276750779E+01 0.72355902995E+01 0.89690675587E+01 0.11258661100E+02 0.14119737809E+02
 0.17561434047E+02 0.21517479180E+02 0.25778157354E+02 0.30023249222E+02 0.33604514455E+02
 0.35362019908E+02 0.34185018097E+02 0.29420497913E+02 0.21262732149E+02 0.10891947824E+02
 0.22566959143E+00 -.85266666460E+01 -.13240588319E+02 -.12200571612E+02 -.45674707213E+01
 0.90881719541E+01 0.26672215907E+02 0.45283281150E+02 0.62531751836E+02 0.77641576463E+02
 0.91579732238E+02 0.10613529258E+03 0.12255661539E+03 0.14034795229E+03 0.15704654736E+03
 0.16952372129E+03 0.17403621962E+03 0.16781808966E+03 0.15111437071E+03 0.12733477223E+03
 0.10096094623E+03 0.76023952198E+02 0.55311372037E+02 0.39557691459E+02 0.33915717007E+02
 0.23927465716E+02 0.16803292922E+02 0.11804188211E+02 0.84436016703E+01 0.63501046223E+01
 0.52118782923E+01 0.47710797265E+01 0.48378728417E+01 0.53172219330E+01 0.62106628992E+01
 0.75693535107E+01 0.94458902629E+01 0.11893117346E+02 0.14970139885E+02 0.18691426152E+02
 0.22951610678E+02 0.27518426795E+02 0.32057269990E+02 0.35745303156E+02 0.37434301594E+02
 0.36171989306E+02 0.31558994748E+02 0.23997087625E+02 0.14691601249E+02 0.54384582120E+01
 -.16672376123E+01 -.45704239881E+01 -.17424463422E+01 0.72104016847E+01 0.21158398065E+02
 0.37732624177E+02 0.54366405029E+02 0.69561571580E+02 0.83545628059E+02 0.97842357681E+02
 0.11403394228E+03 0.13243308611E+03 0.15123024364E+03 0.16752542494E+03 0.17761441069E+03
 0.17759354986E+03 0.16581489646E+03 0.14432221863E+03 0.11774636565E+03 0.90633025464E+02
 0.66707443252E+02 0.47830396251E+02 0.39533758478E+02 0.27972418355E+02 0.19680218859E+02
 0.13780213851E+02 0.97070339578E+01 0.70574209957E+01 0.54919551744E+01 0.47267438935E+01
 0.45449798603E+01 0.48055547161E+01 0.54531701907E+01 0.65105874476E+01 0.80451838178E+01
 0.10140746855E+02 0.12889495224E+02 0.16368485735E+02 0.20578098599E+02 0.25390735979E+02
 0.30565889422E+02 0.35708499893E+02 0.39898512282E+02 0.42075723898E+02 0.41431187562E+02
 0.37672503099E+02 0.31193405715E+02 0.23091866268E+02 0.15054477021E+02 0.91172961102E+01
 0.72411750388E+01 0.10686875258E+02 0.19419218248E+02 0.31980470817E+02 0.46122401739E+02
 0.59962679460E+02 0.72955162084E+02 0.86005704005E+02 0.10064618519E+03 0.11778568318E+03
 0.13653476026E+03 0.15435827530E+03 0.16807880929E+03 0.17374150386E+03 0.16834090982E+03
 0.15200523274E+03 0.12822034440E+03 0.10164815433E+03 0.76431350002E+02 0.55462420306E+02
 0.44153254293E+02 0.31506924547E+02 0.22309638486E+02 0.15679053054E+02 0.10999035924E+02
 0.78441051418E+01 0.58706217554E+01 0.47903582467E+01 0.43715485765E+01 0.44386304658E+01
 0.48903975834E+01 0.57190398427E+01 0.69911412745E+01 0.88069127653E+01 0.11282847073E+02
 0.14544919343E+02 0.18681069103E+02 0.23665299743E+02 0.29330164410E+02 0.35411346116E+02
 0.41453108391E+02 0.46513712945E+02 0.49580682501E+02 0.49874843625E+02 0.47081344687E+02
 0.41514366512E+02 0.34188090238E+02 0.26760107419E+02 0.21252836577E+02 0.19490459176E+02
 0.22407593807E+02 0.29623813362E+02 0.39646450051E+02 0.50692842427E+02 0.61675574019E+02
 0.72733363293E+02 0.84960172383E+02 0.99484344701E+02 0.11623742557E+03 0.13348663685E+03
 0.14838807088E+03 0.15767699338E+03 0.15809028737E+03 0.14823807085E+03 0.12978663537E+03
 0.10648818211E+03 0.82441936238E+02 0.61114478836E+02 0.46933333879E+02 0.34008715777E+02
 0.24363222738E+02 0.17280840962E+02 0.12169652189E+02 0.86133579632E+01 0.62914451900E+01
 0.49296757186E+01 0.42895963703E+01 0.41759199212E+01 0.44627458656E+01 0.51183015964E+01
 0.61949958178E+01 0.77960159371E+01 0.10057948627E+02 0.13144016888E+02 0.17202951315E+02
 0.22293565671E+02 0.28336990276E+02 0.35130967985E+02 0.42379391454E+02 0.49544740739E+02
 0.55622974592E+02 0.59556308625E+02 0.60519041842E+02 0.58151954877E+02 0.52762981022E+02
 0.45432571854E+02 0.37900873477E+02 0.32144162621E+02 0.29731504681E+02 0.31260631556E+02
 0.36206772080E+02 0.43319051523E+02 0.51382037780E+02 0.59914476989E+02 0.69369151285E+02
 0.80673489691E+02 0.94201876195E+02 0.10907000712E+03 0.12323382886E+03 0.13387573261E+03
 0.13818938531E+03 0.13421984241E+03 0.12205124025E+03 0.10392059875E+03 0.83279320084E+02
 0.63559665597E+02 0.47270813793E+02 0.35031201033E+02 0.25535810873E+02 0.18367950904E+02
 0.13061321770E+02 0.92587154912E+01 0.66866307992E+01 0.51002857729E+01 0.42678858652E+01
 0.39901705161E+01 0.41327761485E+01 0.46481118097E+01 0.55723741387E+01 0.70070495905E+01
 0.91040595390E+01 0.12050877301E+02 0.16033701772E+02 0.21179073332E+02 0.27505212709E+02
 0.34902443517E+02 0.43122763224E+02 0.51751306941E+02 0.60078207712E+02 0.66949225626E+02
 0.71189170412E+02 0.71940074173E+02 0.68941293703E+02 0.62721120806E+02 0.54591459497E+02
 0.46369107031E+02 0.39866874397E+02 0.36339950107E+02 0.36137872684E+02 0.38748468799E+02
 0.43238960641E+02 0.48871078668E+02 0.55527042799E+02 0.63660990654E+02 0.73640891863E+02
 0.85145625072E+02 0.97004626073E+02 0.10722679246E+03 0.11343164659E+03 0.11362110261E+03
 0.10702985717E+03 0.94601147362E+02 0.78707397137E+02 0.62187064649E+02 0.45055357458E+02
 0.34355620362E+02 0.25622678522E+02 0.18772364901E+02 0.13541550089E+02 0.96813803061E+01
 0.69845788073E+01 0.52502838281E+01 0.42713323906E+01 0.38584985178E+01 0.38766521097E+01
 0.42690328675E+01 0.50623431635E+01 0.63583124299E+01 0.83190047065E+01 0.11145673077E+02
 0.15047464423E+02 0.20203789958E+02 0.26728841911E+02 0.34634417667E+02 0.43773154761E+02
 0.53757783064E+02 0.63891446440E+02 0.73136117681E+02 0.80104464605E+02 0.83535737425E+02
 0.82737514546E+02 0.77836400312E+02 0.69809046442E+02 0.60259431132E+02 0.51000164494E+02
 0.43575603927E+02 0.38894661794E+02 0.37109536024E+02 0.37789063870E+02 0.40307425610E+02