   9   9   0   0
  0.1255774E+02  0.4913700E-09  0.4913700E-09  0.5405130E-09  0.5000000E-15
  1.000000000000000E-004
  CAR 
 unknown system                          
     13.84569363    -20.45644359  301      1.21107309      1.00000000
    -20.456  0.0000E+00  0.0000E+00
    -20.342  0.0000E+00  0.0000E+00
    -20.228  0.0000E+00  0.0000E+00
    -20.113  0.0000E+00  0.0000E+00
    -19.999  0.0000E+00  0.0000E+00
    -19.885  0.0000E+00  0.0000E+00
    -19.770  0.0000E+00  0.0000E+00
    -19.656  0.0000E+00  0.0000E+00
    -19.542  0.0000E+00  0.0000E+00
    -19.427  0.0000E+00  0.0000E+00
    -19.313  0.0000E+00  0.0000E+00
    -19.199  0.0000E+00  0.0000E+00
    -19.084  0.0000E+00  0.0000E+00
    -18.970  0.0000E+00  0.0000E+00
    -18.856  0.0000E+00  0.0000E+00
    -18.741  0.0000E+00  0.0000E+00
    -18.627  0.0000E+00  0.0000E+00
    -18.513  0.0000E+00  0.0000E+00
    -18.398  0.9455E+00  0.2387E-01
    -18.284  0.1975E+01  0.1856E+00
    -18.170  0.3533E+01  0.4864E+00
    -18.055  0.7946E+01  0.1139E+01
    -17.941  0.3573E+01  0.1911E+01
    -17.827  0.1485E-01  0.2000E+01
    -17.712  0.1451E+01  0.2102E+01
    -17.598  0.3397E+01  0.2367E+01
    -17.484  0.5336E+01  0.2868E+01
    -17.369  0.7412E+01  0.3557E+01
    -17.255  0.1831E+01  0.3928E+01
    -17.141  0.0000E+00  0.4000E+01
    -17.026  0.9035E+00  0.4031E+01
    -16.912  0.3213E+01  0.4234E+01
    -16.798  0.6972E+01  0.4889E+01
    -16.683  0.3472E+01  0.5516E+01
    -16.569  0.2449E+01  0.5835E+01
    -16.455  0.7413E+01  0.6306E+01
    -16.340  0.5864E+01  0.7263E+01
    -16.226  0.4463E+01  0.7823E+01
    -16.112  0.1263E+02  0.9357E+01
    -15.997  0.0000E+00  0.1000E+02
    -15.883  0.2538E+02  0.1144E+02
    -15.768  0.0000E+00  0.1200E+02
    -15.654  0.0000E+00  0.1200E+02
    -15.540  0.0000E+00  0.1200E+02
    -15.425  0.0000E+00  0.1200E+02
    -15.311  0.0000E+00  0.1200E+02
    -15.197  0.0000E+00  0.1200E+02
    -15.082  0.0000E+00  0.1200E+02
    -14.968  0.0000E+00  0.1200E+02
    -14.854  0.0000E+00  0.1200E+02
    -14.739  0.0000E+00  0.1200E+02
    -14.625  0.0000E+00  0.1200E+02
    -14.511  0.0000E+00  0.1200E+02
    -14.396  0.0000E+00  0.1200E+02
    -14.282  0.0000E+00  0.1200E+02
    -14.168  0.0000E+00  0.1200E+02
    -14.053  0.0000E+00  0.1200E+02
    -13.939  0.0000E+00  0.1200E+02
    -13.825  0.0000E+00  0.1200E+02
    -13.710  0.0000E+00  0.1200E+02
    -13.596  0.0000E+00  0.1200E+02
    -13.482  0.0000E+00  0.1200E+02
    -13.367  0.0000E+00  0.1200E+02
    -13.253  0.0000E+00  0.1200E+02
    -13.139  0.0000E+00  0.1200E+02
    -13.024  0.0000E+00  0.1200E+02
    -12.910  0.0000E+00  0.1200E+02
    -12.796  0.0000E+00  0.1200E+02
    -12.681  0.0000E+00  0.1200E+02
    -12.567  0.0000E+00  0.1200E+02
    -12.453  0.0000E+00  0.1200E+02
    -12.338  0.0000E+00  0.1200E+02
    -12.224  0.0000E+00  0.1200E+02
    -12.110  0.0000E+00  0.1200E+02
    -11.995  0.0000E+00  0.1200E+02
    -11.881  0.0000E+00  0.1200E+02
    -11.767  0.0000E+00  0.1200E+02
    -11.652  0.0000E+00  0.1200E+02
    -11.538  0.0000E+00  0.1200E+02
    -11.424  0.0000E+00  0.1200E+02
    -11.309  0.0000E+00  0.1200E+02
    -11.195  0.0000E+00  0.1200E+02
    -11.081  0.0000E+00  0.1200E+02
    -10.966  0.0000E+00  0.1200E+02
    -10.852  0.0000E+00  0.1200E+02
    -10.738  0.0000E+00  0.1200E+02
    -10.623  0.0000E+00  0.1200E+02
    -10.509  0.0000E+00  0.1200E+02
    -10.394  0.0000E+00  0.1200E+02
    -10.280  0.0000E+00  0.1200E+02
    -10.166  0.0000E+00  0.1200E+02
    -10.051  0.0000E+00  0.1200E+02
     -9.937  0.0000E+00  0.1200E+02
     -9.823  0.0000E+00  0.1200E+02
     -9.708  0.0000E+00  0.1200E+02
     -9.594  0.0000E+00  0.1200E+02
     -9.480  0.0000E+00  0.1200E+02
     -9.365  0.0000E+00  0.1200E+02
     -9.251  0.0000E+00  0.1200E+02
     -9.137  0.0000E+00  0.1200E+02
     -9.022  0.0000E+00  0.1200E+02
     -8.908  0.0000E+00  0.1200E+02
     -8.794  0.0000E+00  0.1200E+02
     -8.679  0.0000E+00  0.1200E+02
     -8.565  0.0000E+00  0.1200E+02
     -8.451  0.0000E+00  0.1200E+02
     -8.336  0.0000E+00  0.1200E+02
     -8.222  0.1256E+00  0.1200E+02
     -8.108  0.3539E+00  0.1203E+02
     -7.993  0.5339E+00  0.1209E+02
     -7.879  0.7188E+00  0.1216E+02
     -7.765  0.9043E+00  0.1225E+02
     -7.650  0.1221E+01  0.1237E+02
     -7.536  0.1719E+01  0.1253E+02
     -7.422  0.3421E+01  0.1280E+02
     -7.307  0.5178E+01  0.1353E+02
     -7.193  0.1363E+01  0.1386E+02
     -7.079  0.4842E+00  0.1396E+02
     -6.964  0.2924E+00  0.1400E+02
     -6.850  0.2733E+00  0.1403E+02
     -6.736  0.4914E+00  0.1408E+02
     -6.621  0.7830E+00  0.1415E+02
     -6.507  0.1141E+01  0.1426E+02
     -6.393  0.2417E+01  0.1446E+02
     -6.278  0.3364E+01  0.1480E+02
     -6.164  0.4228E+01  0.1524E+02
     -6.050  0.2126E+01  0.1559E+02
     -5.935  0.1055E+01  0.1577E+02
     -5.821  0.6572E+00  0.1586E+02
     -5.707  0.4901E+00  0.1592E+02
     -5.592  0.3643E+00  0.1597E+02
     -5.478  0.7910E+00  0.1603E+02
     -5.364  0.3030E+01  0.1624E+02
     -5.249  0.3281E+01  0.1661E+02
     -5.135  0.2774E+01  0.1695E+02
     -5.020  0.2543E+01  0.1726E+02
     -4.906  0.1961E+01  0.1751E+02
     -4.792  0.1558E+01  0.1771E+02
     -4.677  0.1172E+01  0.1787E+02
     -4.563  0.8636E+00  0.1799E+02
     -4.449  0.6366E+01  0.1829E+02
     -4.334  0.7648E+01  0.1939E+02
     -4.220  0.4697E+01  0.2007E+02
     -4.106  0.7004E+01  0.2094E+02
     -3.991  0.5545E+01  0.2172E+02
     -3.877  0.1799E+01  0.2214E+02
     -3.763  0.8513E+01  0.2277E+02
     -3.648  0.4090E+01  0.2357E+02
     -3.534  0.2364E+01  0.2391E+02
     -3.420  0.0000E+00  0.2400E+02
     -3.305  0.0000E+00  0.2400E+02
     -3.191  0.0000E+00  0.2400E+02
     -3.077  0.0000E+00  0.2400E+02
     -2.962  0.0000E+00  0.2400E+02
     -2.848  0.0000E+00  0.2400E+02
     -2.734  0.0000E+00  0.2400E+02
     -2.619  0.0000E+00  0.2400E+02
     -2.505  0.0000E+00  0.2400E+02
     -2.391  0.0000E+00  0.2400E+02
     -2.276  0.0000E+00  0.2400E+02
     -2.162  0.1257E+02  0.2469E+02
     -2.048  0.6438E+01  0.2589E+02
     -1.933  0.6441E+01  0.2673E+02
     -1.819  0.6714E+01  0.2740E+02
     -1.705  0.2985E+01  0.2794E+02
     -1.590  0.8494E+01  0.2850E+02
     -1.476  0.6760E+01  0.2955E+02
     -1.362  0.1411E+01  0.3000E+02
     -1.247  0.9978E+01  0.3053E+02
     -1.133  0.7823E+01  0.3173E+02
     -1.019  0.3333E+01  0.3205E+02
     -0.904  0.1024E+02  0.3365E+02
     -0.790  0.1347E+01  0.3393E+02
     -0.676  0.6254E+01  0.3446E+02
     -0.561  0.1009E+02  0.3538E+02
     -0.447  0.7470E+01  0.3646E+02
     -0.333  0.6407E+01  0.3751E+02
     -0.218  0.6519E+01  0.3811E+02
     -0.104  0.8430E+01  0.3904E+02
      0.010  0.5420E+01  0.3991E+02
      0.125  0.8768E+01  0.4066E+02
      0.239  0.4552E+01  0.4185E+02
      0.354  0.6225E+01  0.4218E+02
      0.468  0.8760E+01  0.4342E+02
      0.582  0.4037E+01  0.4390E+02
      0.697  0.4772E+01  0.4439E+02
      0.811  0.1180E+02  0.4533E+02
      0.925  0.5151E+01  0.4629E+02
      1.040  0.1194E+02  0.4718E+02
      1.154  0.3049E+01  0.4797E+02
      1.268  0.0000E+00  0.4800E+02
      1.383  0.0000E+00  0.4800E+02
      1.497  0.0000E+00  0.4800E+02
      1.611  0.0000E+00  0.4800E+02
      1.726  0.0000E+00  0.4800E+02
      1.840  0.0000E+00  0.4800E+02
      1.954  0.0000E+00  0.4800E+02
      2.069  0.0000E+00  0.4800E+02
      2.183  0.0000E+00  0.4800E+02
      2.297  0.0000E+00  0.4800E+02
      2.412  0.0000E+00  0.4800E+02
      2.526  0.0000E+00  0.4800E+02
      2.640  0.0000E+00  0.4800E+02
      2.755  0.0000E+00  0.4800E+02
      2.869  0.0000E+00  0.4800E+02
      2.983  0.0000E+00  0.4800E+02
      3.098  0.0000E+00  0.4800E+02
      3.212  0.0000E+00  0.4800E+02
      3.326  0.0000E+00  0.4800E+02
      3.441  0.0000E+00  0.4800E+02
      3.555  0.0000E+00  0.4800E+02
      3.669  0.0000E+00  0.4800E+02
      3.784  0.0000E+00  0.4800E+02
      3.898  0.0000E+00  0.4800E+02
      4.012  0.0000E+00  0.4800E+02
      4.127  0.0000E+00  0.4800E+02
      4.241  0.0000E+00  0.4800E+02
      4.355  0.0000E+00  0.4800E+02
      4.470  0.0000E+00  0.4800E+02
      4.584  0.0000E+00  0.4800E+02
      4.698  0.0000E+00  0.4800E+02
      4.813  0.0000E+00  0.4800E+02
      4.927  0.0000E+00  0.4800E+02
      5.041  0.0000E+00  0.4800E+02
      5.156  0.0000E+00  0.4800E+02
      5.270  0.0000E+00  0.4800E+02
      5.384  0.0000E+00  0.4800E+02
      5.499  0.0000E+00  0.4800E+02
      5.613  0.0000E+00  0.4800E+02
      5.728  0.0000E+00  0.4800E+02
      5.842  0.0000E+00  0.4800E+02
      5.956  0.0000E+00  0.4800E+02
      6.071  0.0000E+00  0.4800E+02
      6.185  0.0000E+00  0.4800E+02
      6.299  0.0000E+00  0.4800E+02
      6.414  0.0000E+00  0.4800E+02
      6.528  0.0000E+00  0.4800E+02
      6.642  0.0000E+00  0.4800E+02
      6.757  0.0000E+00  0.4800E+02
      6.871  0.0000E+00  0.4800E+02
      6.985  0.0000E+00  0.4800E+02
      7.100  0.1237E-03  0.4800E+02
      7.214  0.3342E-01  0.4800E+02
      7.328  0.1267E+00  0.4801E+02
      7.443  0.1764E+00  0.4803E+02
      7.557  0.1972E+00  0.4805E+02
      7.671  0.2428E+00  0.4807E+02
      7.786  0.2918E+00  0.4810E+02
      7.900  0.3380E+00  0.4814E+02
      8.014  0.3741E+00  0.4818E+02
      8.129  0.4169E+00  0.4823E+02
      8.243  0.4623E+00  0.4828E+02
      8.357  0.5085E+00  0.4833E+02
      8.472  0.5584E+00  0.4839E+02
      8.586  0.6215E+00  0.4846E+02
      8.700  0.7747E+00  0.4854E+02
      8.815  0.8210E+00  0.4863E+02
      8.929  0.8829E+00  0.4873E+02
      9.043  0.9593E+00  0.4884E+02
      9.158  0.1021E+01  0.4895E+02
      9.272  0.1213E+01  0.4907E+02
      9.386  0.1362E+01  0.4923E+02
      9.501  0.1363E+01  0.4938E+02
      9.615  0.1477E+01  0.4955E+02
      9.729  0.1510E+01  0.4972E+02
      9.844  0.1462E+01  0.4990E+02
      9.958  0.1645E+01  0.5008E+02
     10.072  0.9929E+00  0.5022E+02
     10.187  0.1825E+01  0.5035E+02
     10.301  0.9039E+01  0.5101E+02
     10.415  0.4954E+01  0.5191E+02
     10.530  0.5802E+01  0.5244E+02
     10.644  0.6716E+01  0.5323E+02
     10.759  0.5411E+01  0.5399E+02
     10.873  0.2778E+01  0.5444E+02
     10.987  0.3478E+01  0.5474E+02
     11.102  0.6573E+01  0.5535E+02
     11.216  0.5041E+01  0.5602E+02
     11.330  0.4604E+01  0.5650E+02
     11.445  0.6357E+01  0.5725E+02
     11.559  0.3307E+01  0.5777E+02
     11.673  0.5745E+00  0.5798E+02
     11.788  0.1534E-01  0.5800E+02
     11.902  0.0000E+00  0.5800E+02
     12.016  0.0000E+00  0.5800E+02
     12.131  0.0000E+00  0.5800E+02
     12.245  0.0000E+00  0.5800E+02
     12.359  0.0000E+00  0.5800E+02
     12.474  0.0000E+00  0.5800E+02
     12.588  0.0000E+00  0.5800E+02
     12.702  0.0000E+00  0.5800E+02
     12.817  0.0000E+00  0.5800E+02
     12.931  0.0000E+00  0.5800E+02
     13.045  0.0000E+00  0.5800E+02
     13.160  0.0000E+00  0.5800E+02
     13.274  0.0000E+00  0.5800E+02
     13.388  0.0000E+00  0.5800E+02
     13.503  0.0000E+00  0.5800E+02
     13.617  0.0000E+00  0.5800E+02
     13.731  0.0000E+00  0.5800E+02
     13.846  0.0000E+00  0.5800E+02
