       N       E                     dE             d eps       ncg     rms          rms(c)
DAV:   1     0.274626063743E+03    0.27463E+03   -0.22595E+04 13236   0.125E+03
DAV:   2    -0.627746603550E+02   -0.33740E+03   -0.33032E+03 17245   0.317E+02
DAV:   3    -0.801387446525E+02   -0.17364E+02   -0.17316E+02 15353   0.825E+01
DAV:   4    -0.803544235550E+02   -0.21568E+00   -0.21536E+00 15499   0.988E+00
DAV:   5    -0.803586238427E+02   -0.42003E-02   -0.41989E-02 15208   0.134E+00    0.185E+01
RMM:   6    -0.708918428864E+02    0.94668E+01   -0.40216E+01 13994   0.332E+01    0.518E+00
RMM:   7    -0.708629967514E+02    0.28846E-01   -0.18002E+00 15099   0.614E+00    0.340E+00
RMM:   8    -0.708767368924E+02   -0.13740E-01   -0.27549E-01 14854   0.406E+00    0.635E-01
RMM:   9    -0.708685635801E+02    0.81733E-02   -0.47318E-02 15361   0.113E+00    0.151E-01
RMM:  10    -0.708712580325E+02   -0.26945E-02   -0.16903E-02 15215   0.659E-01    0.194E-01
RMM:  11    -0.708704236467E+02    0.83439E-03   -0.42585E-03 15199   0.373E-01    0.184E-02
RMM:  12    -0.708704637911E+02   -0.40144E-04   -0.15767E-04 14026   0.749E-02    0.133E-02
RMM:  13    -0.708704645645E+02   -0.77343E-06   -0.77452E-06  9893   0.157E-02
   1 F= -.70870465E+02 E0= -.70870465E+02  d E =0.000000E+00
