unknown system                          
   2.40000000000000     
     1.000000    0.000000    0.000000
     0.000000    1.000000    0.000000
     0.000000    0.000000    1.000000
   Pt
     1
Direct
  0.000000  0.000000  0.000000
 
   28   28   28
  52.292      51.257      48.373      44.206      39.441      34.635      30.091      25.876      21.959      18.356    
  15.183      12.612      10.785      9.7467      9.4311      9.7467      10.785      12.612      15.183      18.356    
  21.959      25.876      30.091      34.635      39.441      44.206      48.373      51.257      51.257      50.277    
  47.540      43.573      39.010      34.369      29.929      25.758      21.848      18.236      15.056      12.488    
  10.671      9.6430      9.3317      9.6430      10.671      12.488      15.056      18.236      21.848      25.758    
  29.929      34.369      39.010      43.573      47.540      50.277      48.373      47.540      45.203      41.778    
  37.764      33.565      29.405      25.359      21.472      17.846      14.662      12.115      10.335      9.3396    
  9.0405      9.3396      10.335      12.115      14.662      17.846      21.472      25.359      29.405      33.565    
  37.764      41.778      45.203      47.540      44.206      43.573      41.778      39.087      35.813      32.209    
  28.428      24.562      20.731      17.123      13.974      11.494      9.7943      8.8591      8.5786      8.8591    
  9.7943      11.494      13.974      17.123      20.731      24.562      28.428      32.209      35.813      39.087    
  41.778      43.573      39.441      39.010      37.764      35.813      33.283      30.280      26.892      23.241    
  19.524      16.011      12.983      10.648      9.0845      8.2386      7.9805      8.2386      9.0845      10.648    
  12.983      16.011      19.524      23.241      26.892      30.280      33.283      35.813      37.764      39.010    
  34.635      34.369      33.565      32.209      30.280      27.772      24.739      21.334      17.821      14.520    
  11.729      9.6316      8.2604      7.5250      7.2912      7.5250      8.2604      9.6316      11.729      14.520    
  17.821      21.334      24.739      27.772      30.280      32.209      33.565      34.369      30.091      29.929    
  29.405      28.428      26.892      24.739      22.015      18.905      15.705      12.750      10.313      8.5302    
  7.3885      6.7663      6.5609      6.7663      7.3885      8.5302      10.313      12.750      15.705      18.905    
  22.015      24.739      26.892      28.428      29.405      29.929      25.876      25.758      25.359      24.562    
  23.241      21.334      18.905      16.154      13.377      10.877      8.8730      7.4432      6.5308      6.0109    
  5.8383      6.0109      6.5308      7.4432      8.8730      10.877      13.377      16.154      18.905      21.334    
  23.241      24.562      25.359      25.758      21.959      21.848      21.472      20.731      19.524      17.821    
  15.705      13.377      11.097      9.1053      7.5503      6.4528      5.7289      5.3042      5.1647      5.3042    
  5.7289      6.4528      7.5503      9.1053      11.097      13.377      15.705      17.821      19.524      20.731    
  21.472      21.848      18.356      18.236      17.846      17.123      16.011      14.520      12.750      10.877    
  9.1053      7.6002      6.4390      5.5989      5.0183      4.6805      4.5703      4.6805      5.0183      5.5989    
  6.4390      7.6002      9.1053      10.877      12.750      14.520      16.011      17.123      17.846      18.236    
  15.183      15.056      14.662      13.974      12.983      11.729      10.313      8.8730      7.5503      6.4390    
  5.5612      4.8920      4.4289      4.1610      4.0738      4.1610      4.4289      4.8920      5.5612      6.4390    
  7.5503      8.8730      10.313      11.729      12.983      13.974      14.662      15.056      12.612      12.488    
  12.115      11.494      10.648      9.6316      8.5302      7.4432      6.4528      5.5989      4.8920      4.3498    
  3.9743      3.7561      3.6848      3.7561      3.9743      4.3498      4.8920      5.5989      6.4528      7.4432    
  8.5302      9.6316      10.648      11.494      12.115      12.488      10.785      10.671      10.335      9.7943    
  9.0845      8.2604      7.3885      6.5308      5.7289      5.0183      4.4289      3.9743      3.6558      3.4683    
  3.4066      3.4683      3.6558      3.9743      4.4289      5.0183      5.7289      6.5308      7.3885      8.2604    
  9.0845      9.7943      10.335      10.671      9.7467      9.6430      9.3396      8.8591      8.2386      7.5250    
  6.7663      6.0109      5.3042      4.6805      4.1610      3.7561      3.4683      3.2969      3.2400      3.2969    
  3.4683      3.7561      4.1610      4.6805      5.3042      6.0109      6.7663      7.5250      8.2386      8.8591    
  9.3396      9.6430      9.4311      9.3317      9.0405      8.5786      7.9805      7.2912      6.5609      5.8383    
  5.1647      4.5703      4.0738      3.6848      3.4066      3.2400      3.1845      3.2400      3.4066      3.6848    
  4.0738      4.5703      5.1647      5.8383      6.5609      7.2912      7.9805      8.5786      9.0405      9.3317    
  9.7467      9.6430      9.3396      8.8591      8.2386      7.5250      6.7663      6.0109      5.3042      4.6805    
  4.1610      3.7561      3.4683      3.2969      3.2400      3.2969      3.4683      3.7561      4.1610      4.6805    
  5.3042      6.0109      6.7663      7.5250      8.2386      8.8591      9.3396      9.6430      10.785      10.671    
  10.335      9.7943      9.0845      8.2604      7.3885      6.5308      5.7289      5.0183      4.4289      3.9743    
  3.6558      3.4683      3.4066      3.4683      3.6558      3.9743      4.4289      5.0183      5.7289      6.5308    
  7.3885      8.2604      9.0845      9.7943      10.335      10.671      12.612      12.488      12.115      11.494    
  10.648      9.6316      8.5302      7.4432      6.4528      5.5989      4.8920      4.3498      3.9743      3.7561    
  3.6848      3.7561      3.9743      4.3498      4.8920      5.5989      6.4528      7.4432      8.5302      9.6316    
  10.648      11.494      12.115      12.488      15.183      15.056      14.662      13.974      12.983      11.729    
  10.313      8.8730      7.5503      6.4390      5.5612      4.8920      4.4289      4.1610      4.0738      4.1610    
  4.4289      4.8920      5.5612      6.4390      7.5503      8.8730      10.313      11.729      12.983      13.974    
  14.662      15.056      18.356      18.236      17.846      17.123      16.011      14.520      12.750      10.877    
  9.1053      7.6002      6.4390      5.5989      5.0183      4.6805      4.5703      4.6805      5.0183      5.5989    
  6.4390      7.6002      9.1053      10.877      12.750      14.520      16.011      17.123      17.846      18.236    
  21.959      21.848      21.472      20.731      19.524      17.821      15.705      13.377      11.097      9.1053    
  7.5503      6.4528      5.7289      5.3042      5.1647      5.3042      5.7289      6.4528      7.5503      9.1053    
  11.097      13.377      15.705      17.821      19.524      20.731      21.472      21.848      25.876      25.758    
  25.359      24.562      23.241      21.334      18.905      16.154      13.377      10.877      8.8730      7.4432    
  6.5308      6.0109      5.8383      6.0109      6.5308      7.4432      8.8730      10.877      13.377      16.154    
  18.905      21.334      23.241      24.562      25.359      25.758      30.091      29.929      29.405      28.428    
  26.892      24.739      22.015      18.905      15.705      12.750      10.313      8.5302      7.3885      6.7663    
  6.5609      6.7663      7.3885      8.5302      10.313      12.750      15.705      18.905      22.015      24.739    
  26.892      28.428      29.405      29.929      34.635      34.369      33.565      32.209      30.280      27.772    
  24.739      21.334      17.821      14.520      11.729      9.6316      8.2604      7.5250      7.2912      7.5250    
  8.2604      9.6316      11.729      14.520      17.821      21.334      24.739      27.772      30.280      32.209    
  33.565      34.369      39.441      39.010      37.764      35.813      33.283      30.280      26.892      23.241    
  19.524      16.011      12.983      10.648      9.0845      8.2386      7.9805      8.2386      9.0845      10.648    
  12.983      16.011      19.524      23.241      26.892      30.280      33.283      35.813      37.764      39.010    
  44.206      43.573      41.778      39.087      35.813      32.209      28.428      24.562      20.731      17.123    
  13.974      11.494      9.7943      8.8591      8.5786      8.8591      9.7943      11.494      13.974      17.123    
  20.731      24.562      28.428      32.209      35.813      39.087      41.778      43.573      48.373      47.540    
  45.203      41.778      37.764      33.565      29.405      25.359      21.472      17.846      14.662      12.115    
  10.335      9.3396      9.0405      9.3396      10.335      12.115      14.662      17.846      21.472      25.359    
  29.405      33.565      37.764      41.778      45.203      47.540      51.257      50.277      47.540      43.573    
  39.010      34.369      29.929      25.758      21.848      18.236      15.056      12.488      10.671      9.6430    
  9.3317      9.6430      10.671      12.488      15.056      18.236      21.848      25.758      29.929      34.369    
  39.010      43.573      47.540      50.277      51.257      50.277      47.540      43.573      39.010      34.369    
  29.929      25.758      21.848      18.236      15.056      12.488      10.671      9.6430      9.3317      9.6430    
  10.671      12.488      15.056      18.236      21.848      25.758      29.929      34.369      39.010      43.573    
  47.540      50.277      50.277      49.348      46.749      42.971      38.598      34.110      29.765      25.637    
  21.732      18.112      14.927      12.364      10.558      9.5406      9.2334      9.5406      10.558      12.364    
  14.927      18.112      21.732      25.637      29.765      34.110      38.598      42.971      46.749      49.348    
  47.540      46.749      44.528      41.258      37.400      33.325      29.239      25.226      21.343      17.713    
  14.529      11.991      10.225      9.2408      8.9455      9.2408      10.225      11.991      14.529      17.713    
  21.343      25.226      29.239      33.325      37.400      41.258      44.528      46.749      43.573      42.971    
  41.258      38.677      35.512      31.991      28.258      24.412      20.584      16.977      13.837      11.373    
  9.6893      8.7663      8.4891      8.7663      9.6893      11.373      13.837      16.977      20.584      24.412    
  28.258      31.991      35.512      38.677      41.258      42.971      39.010      38.598      37.400      35.512    
  33.041      30.080      26.715      23.074      19.362      15.857      12.846      10.532      8.9874      8.1537    
  7.8984      8.1537      8.9874      10.532      12.846      15.857      19.362      23.074      26.715      30.080    
  33.041      35.512      37.400      38.598      34.369      34.110      33.325      31.991      30.080      27.583    
  24.555      21.154      17.649      14.366      11.598      9.5248      8.1737      7.4491      7.2177      7.4491    
  8.1737      9.5248      11.598      14.366      17.649      21.154      24.555      27.583      30.080      31.991    
  33.325      34.110      29.929      29.765      29.239      28.258      26.715      24.555      21.827      18.721    
  15.536      12.604      10.194      8.4368      7.3134      6.6996      6.4967      6.6996      7.3134      8.4368    
  10.194      12.604      15.536      18.721      21.827      24.555      26.715      28.258      29.239      29.765    
  25.758      25.637      25.226      24.412      23.074      21.154      18.721      15.979      13.221      10.748    
  8.7718      7.3648      6.4669      5.9536      5.7833      5.9536      6.4669      7.3648      8.7718      10.748    
  13.221      15.979      18.721      21.154      23.074      24.412      25.226      25.637      21.848      21.732    
  21.343      20.584      19.362      17.649      15.536      13.221      10.964      8.9989      7.4682      6.3886    
  5.6746      5.2557      5.1182      5.2557      5.6746      6.3886      7.4682      8.9989      10.964      13.221    
  15.536      17.649      19.362      20.584      21.343      21.732      18.236      18.112      17.713      16.977    
  15.857      14.366      12.604      10.748      8.9989      7.5165      6.3739      5.5456      4.9727      4.6396    
  4.5310      4.6396      4.9727      5.5456      6.3739      7.5165      8.9989      10.748      12.604      14.366    
  15.857      16.977      17.713      18.112      15.056      14.927      14.529      13.837      12.846      11.598    
  10.194      8.7718      7.4682      6.3739      5.5081      4.8475      4.3905      4.1263      4.0403      4.1263    
  4.3905      4.8475      5.5081      6.3739      7.4682      8.7718      10.194      11.598      12.846      13.837    
  14.529      14.927      12.488      12.364      11.991      11.373      10.532      9.5248      8.4368      7.3648    
  6.3886      5.5456      4.8475      4.3122      3.9414      3.7259      3.6555      3.7259      3.9414      4.3122    
  4.8475      5.5456      6.3886      7.3648      8.4368      9.5248      10.532      11.373      11.991      12.364    
  10.671      10.558      10.225      9.6893      8.9874      8.1737      7.3134      6.4669      5.6746      4.9727    
  4.3905      3.9414      3.6266      3.4413      3.3802      3.4413      3.6266      3.9414      4.3905      4.9727    
  5.6746      6.4669      7.3134      8.1737      8.9874      9.6893      10.225      10.558      9.6430      9.5406    
  9.2408      8.7663      8.1537      7.4491      6.6996      5.9536      5.2557      4.6396      4.1263      3.7259    
  3.4413      3.2716      3.2152      3.2716      3.4413      3.7259      4.1263      4.6396      5.2557      5.9536    
  6.6996      7.4491      8.1537      8.7663      9.2408      9.5406      9.3317      9.2334      8.9455      8.4891    
  7.8984      7.2177      6.4967      5.7833      5.1182      4.5310      4.0403      3.6555      3.3802      3.2152    
  3.1603      3.2152      3.3802      3.6555      4.0403      4.5310      5.1182      5.7833      6.4967      7.2177    
  7.8984      8.4891      8.9455      9.2334      9.6430      9.5406      9.2408      8.7663      8.1537      7.4491    
  6.6996      5.9536      5.2557      4.6396      4.1263      3.7259      3.4413      3.2716      3.2152      3.2716    
  3.4413      3.7259      4.1263      4.6396      5.2557      5.9536      6.6996      7.4491      8.1537      8.7663    
  9.2408      9.5406      10.671      10.558      10.225      9.6893      8.9874      8.1737      7.3134      6.4669    
  5.6746      4.9727      4.3905      3.9414      3.6266      3.4413      3.3802      3.4413      3.6266      3.9414    
  4.3905      4.9727      5.6746      6.4669      7.3134      8.1737      8.9874      9.6893      10.225      10.558    
  12.488      12.364      11.991      11.373      10.532      9.5248      8.4368      7.3648      6.3886      5.5456    
  4.8475      4.3122      3.9414      3.7259      3.6555      3.7259      3.9414      4.3122      4.8475      5.5456    
  6.3886      7.3648      8.4368      9.5248      10.532      11.373      11.991      12.364      15.056      14.927    
  14.529      13.837      12.846      11.598      10.194      8.7718      7.4682      6.3739      5.5081      4.8475    
  4.3905      4.1263      4.0403      4.1263      4.3905      4.8475      5.5081      6.3739      7.4682      8.7718    
  10.194      11.598      12.846      13.837      14.529      14.927      18.236      18.112      17.713      16.977    
  15.857      14.366      12.604      10.748      8.9989      7.5165      6.3739      5.5456      4.9727      4.6396    
  4.5310      4.6396      4.9727      5.5456      6.3739      7.5165      8.9989      10.748      12.604      14.366    
  15.857      16.977      17.713      18.112      21.848      21.732      21.343      20.584      19.362      17.649    
  15.536      13.221      10.964      8.9989      7.4682      6.3886      5.6746      5.2557      5.1182      5.2557    
  5.6746      6.3886      7.4682      8.9989      10.964      13.221      15.536      17.649      19.362      20.584    
  21.343      21.732      25.758      25.637      25.226      24.412      23.074      21.154      18.721      15.979    
  13.221      10.748      8.7718      7.3648      6.4669      5.9536      5.7833      5.9536      6.4669      7.3648    
  8.7718      10.748      13.221      15.979      18.721      21.154      23.074      24.412      25.226      25.637    
  29.929      29.765      29.239      28.258      26.715      24.555      21.827      18.721      15.536      12.604    
  10.194      8.4368      7.3134      6.6996      6.4967      6.6996      7.3134      8.4368      10.194      12.604    
  15.536      18.721      21.827      24.555      26.715      28.258      29.239      29.765      34.369      34.110    
  33.325      31.991      30.080      27.583      24.555      21.154      17.649      14.366      11.598      9.5248    
  8.1737      7.4491      7.2177      7.4491      8.1737      9.5248      11.598      14.366      17.649      21.154    
  24.555      27.583      30.080      31.991      33.325      34.110      39.010      38.598      37.400      35.512    
  33.041      30.080      26.715      23.074      19.362      15.857      12.846      10.532      8.9874      8.1537    
  7.8984      8.1537      8.9874      10.532      12.846      15.857      19.362      23.074      26.715      30.080    
  33.041      35.512      37.400      38.598      43.573      42.971      41.258      38.677      35.512      31.991    
  28.258      24.412      20.584      16.977      13.837      11.373      9.6893      8.7663      8.4891      8.7663    
  9.6893      11.373      13.837      16.977      20.584      24.412      28.258      31.991      35.512      38.677    
  41.258      42.971      47.540      46.749      44.528      41.258      37.400      33.325      29.239      25.226    
  21.343      17.713      14.529      11.991      10.225      9.2408      8.9455      9.2408      10.225      11.991    
  14.529      17.713      21.343      25.226      29.239      33.325      37.400      41.258      44.528      46.749    
  50.277      49.348      46.749      42.971      38.598      34.110      29.765      25.637      21.732      18.112    
  14.927      12.364      10.558      9.5406      9.2334      9.5406      10.558      12.364      14.927      18.112    
  21.732      25.637      29.765      34.110      38.598      42.971      46.749      49.348      48.373      47.540    
  45.203      41.778      37.764      33.565      29.405      25.359      21.472      17.846      14.662      12.115    
  10.335      9.3396      9.0405      9.3396      10.335      12.115      14.662      17.846      21.472      25.359    
  29.405      33.565      37.764      41.778      45.203      47.540      47.540      46.749      44.528      41.258    
  37.400      33.325      29.239      25.226      21.343      17.713      14.529      11.991      10.225      9.2408    
  8.9455      9.2408      10.225      11.991      14.529      17.713      21.343      25.226      29.239      33.325    
  37.400      41.258      44.528      46.749      45.203      44.528      42.618      39.768      36.331      32.588    
  28.707      24.782      20.918      17.289      14.121      11.620      9.9004      8.9519      8.6676      8.9519    
  9.9004      11.620      14.121      17.289      20.918      24.782      28.707      32.588      36.331      39.768    
  42.618      44.528      41.778      41.258      39.768      37.484      34.609      31.312      27.712      23.923    
  20.115      16.525      13.421      11.010      9.3809      8.4950      8.2274      8.4950      9.3809      11.010    
  13.421      16.525      20.115      23.923      27.712      31.312      34.609      37.484      39.768      41.258    
  37.764      37.400      36.331      34.609      32.296      29.450      26.150      22.540      18.853      15.387    
  12.434      10.188      8.7030      7.9055      7.6582      7.9055      8.7030      10.188      12.434      15.387    
  18.853      22.540      26.150      29.450      32.296      34.609      36.331      37.400      33.565      33.325    
  32.588      31.312      29.450      26.983      23.972      20.591      17.123      13.899      11.207      9.2109    
  7.9200      7.2270      7.0028      7.2270      7.9200      9.2109      11.207      13.899      17.123      20.591    
  23.972      26.983      29.450      31.312      32.588      33.325      29.405      29.239      28.707      27.712    
  26.150      23.972      21.242      18.158      15.024      12.168      9.8435      8.1634      7.0938      6.5045    
  6.3090      6.5045      7.0938      8.1634      9.8435      12.168      15.024      18.158      21.242      23.972    
  26.150      27.712      28.707      29.239      25.359      25.226      24.782      23.923      22.540      20.591    
  18.158      15.449      12.757      10.368      8.4752      7.1362      6.2797      5.7859      5.6225      5.7859    
  6.2797      7.1362      8.4752      10.368      12.757      15.449      18.158      20.591      22.540      23.923    
  24.782      25.226      21.472      21.343      20.918      20.115      18.853      17.123      15.024      12.757    
  10.572      8.6870      7.2288      6.2011      5.5156      5.1137      4.9821      5.1137      5.5156      6.2011    
  7.2288      8.6870      10.572      12.757      15.024      17.123      18.853      20.115      20.918      21.343    
  17.846      17.713      17.289      16.525      15.387      13.899      12.168      10.368      8.6870      7.2725    
  6.1842      5.3896      4.8392      4.5200      4.4160      4.5200      4.8392      5.3896      6.1842      7.2725    
  8.6870      10.368      12.168      13.899      15.387      16.525      17.289      17.713      14.662      14.529    
  14.121      13.421      12.434      11.207      9.8435      8.4752      7.2288      6.1842      5.3528      4.7171    
  4.2782      4.0246      3.9421      4.0246      4.2782      4.7171      5.3528      6.1842      7.2288      8.4752    
  9.8435      11.207      12.434      13.421      14.121      14.529      12.115      11.991      11.620      11.010    
  10.188      9.2109      8.1634      7.1362      6.2011      5.3896      4.7171      4.2020      3.8451      3.6376    
  3.5697      3.6376      3.8451      4.2020      4.7171      5.3896      6.2011      7.1362      8.1634      9.2109    
  10.188      11.010      11.620      11.991      10.335      10.225      9.9004      9.3809      8.7030      7.9200    
  7.0938      6.2797      5.5156      4.8392      4.2782      3.8451      3.5411      3.3619      3.3028      3.3619    
  3.5411      3.8451      4.2782      4.8392      5.5156      6.2797      7.0938      7.9200      8.7030      9.3809    
  9.9004      10.225      9.3396      9.2408      8.9519      8.4950      7.9055      7.2270      6.5045      5.7859    
  5.1137      4.5200      4.0246      3.6376      3.3619      3.1973      3.1426      3.1973      3.3619      3.6376    
  4.0246      4.5200      5.1137      5.7859      6.5045      7.2270      7.9055      8.4950      8.9519      9.2408    
  9.0405      8.9455      8.6676      8.2274      7.6582      7.0028      6.3090      5.6225      4.9821      4.4160    
  3.9421      3.5697      3.3028      3.1426      3.0892      3.1426      3.3028      3.5697      3.9421      4.4160    
  4.9821      5.6225      6.3090      7.0028      7.6582      8.2274      8.6676      8.9455      9.3396      9.2408    
  8.9519      8.4950      7.9055      7.2270      6.5045      5.7859      5.1137      4.5200      4.0246      3.6376    
  3.3619      3.1973      3.1426      3.1973      3.3619      3.6376      4.0246      4.5200      5.1137      5.7859    
  6.5045      7.2270      7.9055      8.4950      8.9519      9.2408      10.335      10.225      9.9004      9.3809    
  8.7030      7.9200      7.0938      6.2797      5.5156      4.8392      4.2782      3.8451      3.5411      3.3619    
  3.3028      3.3619      3.5411      3.8451      4.2782      4.8392      5.5156      6.2797      7.0938      7.9200    
  8.7030      9.3809      9.9004      10.225      12.115      11.991      11.620      11.010      10.188      9.2109    
  8.1634      7.1362      6.2011      5.3896      4.7171      4.2020      3.8451      3.6376      3.5697      3.6376    
  3.8451      4.2020      4.7171      5.3896      6.2011      7.1362      8.1634      9.2109      10.188      11.010    
  11.620      11.991      14.662      14.529      14.121      13.421      12.434      11.207      9.8435      8.4752    
  7.2288      6.1842      5.3528      4.7171      4.2782      4.0246      3.9421      4.0246      4.2782      4.7171    
  5.3528      6.1842      7.2288      8.4752      9.8435      11.207      12.434      13.421      14.121      14.529    
  17.846      17.713      17.289      16.525      15.387      13.899      12.168      10.368      8.6870      7.2725    
  6.1842      5.3896      4.8392      4.5200      4.4160      4.5200      4.8392      5.3896      6.1842      7.2725    
  8.6870      10.368      12.168      13.899      15.387      16.525      17.289      17.713      21.472      21.343    
  20.918      20.115      18.853      17.123      15.024      12.757      10.572      8.6870      7.2288      6.2011    
  5.5156      5.1137      4.9821      5.1137      5.5156      6.2011      7.2288      8.6870      10.572      12.757    
  15.024      17.123      18.853      20.115      20.918      21.343      25.359      25.226      24.782      23.923    
  22.540      20.591      18.158      15.449      12.757      10.368      8.4752      7.1362      6.2797      5.7859    
  5.6225      5.7859      6.2797      7.1362      8.4752      10.368      12.757      15.449      18.158      20.591    
  22.540      23.923      24.782      25.226      29.405      29.239      28.707      27.712      26.150      23.972    
  21.242      18.158      15.024      12.168      9.8435      8.1634      7.0938      6.5045      6.3090      6.5045    
  7.0938      8.1634      9.8435      12.168      15.024      18.158      21.242      23.972      26.150      27.712    
  28.707      29.239      33.565      33.325      32.588      31.312      29.450      26.983      23.972      20.591    
  17.123      13.899      11.207      9.2109      7.9200      7.2270      7.0028      7.2270      7.9200      9.2109    
  11.207      13.899      17.123      20.591      23.972      26.983      29.450      31.312      32.588      33.325    
  37.764      37.400      36.331      34.609      32.296      29.450      26.150      22.540      18.853      15.387    
  12.434      10.188      8.7030      7.9055      7.6582      7.9055      8.7030      10.188      12.434      15.387    
  18.853      22.540      26.150      29.450      32.296      34.609      36.331      37.400      41.778      41.258    
  39.768      37.484      34.609      31.312      27.712      23.923      20.115      16.525      13.421      11.010    
  9.3809      8.4950      8.2274      8.4950      9.3809      11.010      13.421      16.525      20.115      23.923    
  27.712      31.312      34.609      37.484      39.768      41.258      45.203      44.528      42.618      39.768    
  36.331      32.588      28.707      24.782      20.918      17.289      14.121      11.620      9.9004      8.9519    
  8.6676      8.9519      9.9004      11.620      14.121      17.289      20.918      24.782      28.707      32.588    
  36.331      39.768      42.618      44.528      47.540      46.749      44.528      41.258      37.400      33.325    
  29.239      25.226      21.343      17.713      14.529      11.991      10.225      9.2408      8.9455      9.2408    
  10.225      11.991      14.529      17.713      21.343      25.226      29.239      33.325      37.400      41.258    
  44.528      46.749      44.206      43.573      41.778      39.087      35.813      32.209      28.428      24.562    
  20.731      17.123      13.974      11.494      9.7943      8.8591      8.5786      8.8591      9.7943      11.494    
  13.974      17.123      20.731      24.562      28.428      32.209      35.813      39.087      41.778      43.573    
  43.573      42.971      41.258      38.677      35.512      31.991      28.258      24.412      20.584      16.977    
  13.837      11.373      9.6893      8.7663      8.4891      8.7663      9.6893      11.373      13.837      16.977    
  20.584      24.412      28.258      31.991      35.512      38.677      41.258      42.971      41.778      41.258    
  39.768      37.484      34.609      31.312      27.712      23.923      20.115      16.525      13.421      11.010    
  9.3809      8.4950      8.2274      8.4950      9.3809      11.010      13.421      16.525      20.115      23.923    
  27.712      31.312      34.609      37.484      39.768      41.258      39.087      38.677      37.484      35.593    
  33.104      30.108      26.696      23.005      19.256      15.733      12.721      10.419      8.8897      8.0664    