unknown system                          
   2.40000000000000     
     1.000000    0.000000    0.000000
     0.000000    1.000000    0.000000
     0.000000    0.000000    1.000000
   Pt
     1
Direct
  0.000000  0.000000  0.000000
 
   28   28   28
 0.52291815814E+02 0.51257242194E+02 0.48373335101E+02 0.44206440783E+02 0.39440633874E+02
 0.34635317335E+02 0.30091340397E+02 0.25875980200E+02 0.21959434376E+02 0.18356326797E+02
 0.15182545442E+02 0.12611553989E+02 0.10784857640E+02 0.97466631158E+01 0.94311422932E+01
 0.97466631158E+01 0.10784857640E+02 0.12611553989E+02 0.15182545442E+02 0.18356326797E+02
 0.21959434376E+02 0.25875980200E+02 0.30091340397E+02 0.34635317335E+02 0.39440633874E+02
 0.44206440783E+02 0.48373335101E+02 0.51257242194E+02 0.51257242194E+02 0.50276833567E+02
 0.47540089804E+02 0.43573229591E+02 0.39010425796E+02 0.34369040309E+02 0.29928519804E+02
 0.25758397252E+02 0.21847983112E+02 0.18235812805E+02 0.15055640207E+02 0.12487791287E+02
 0.10671154591E+02 0.96430226416E+01 0.93316898102E+01 0.96430226416E+01 0.10671154591E+02
 0.12487791287E+02 0.15055640207E+02 0.18235812805E+02 0.21847983112E+02 0.25758397252E+02
 0.29928519804E+02 0.34369040309E+02 0.39010425796E+02 0.43573229591E+02 0.47540089804E+02
 0.50276833567E+02 0.48373335101E+02 0.47540089804E+02 0.45202849551E+02 0.41778147303E+02
 0.37764351297E+02 0.33565430105E+02 0.29404517709E+02 0.25359318473E+02 0.21472211935E+02
 0.17846217808E+02 0.14661638594E+02 0.12114775332E+02 0.10335062954E+02 0.93396179109E+01
 0.90404605338E+01 0.93396179109E+01 0.10335062954E+02 0.12114775332E+02 0.14661638594E+02
 0.17846217808E+02 0.21472211935E+02 0.25359318473E+02 0.29404517709E+02 0.33565430105E+02
 0.37764351297E+02 0.41778147303E+02 0.45202849551E+02 0.47540089804E+02 0.44206440783E+02
 0.43573229591E+02 0.41778147303E+02 0.39086973035E+02 0.35813180962E+02 0.32209349643E+02
 0.28427556596E+02 0.24562392327E+02 0.20731207080E+02 0.17122604138E+02 0.13973730194E+02
 0.11494419060E+02 0.97943071265E+01 0.88591495621E+01 0.85785986703E+01 0.88591495621E+01
 0.97943071265E+01 0.11494419060E+02 0.13973730194E+02 0.17122604138E+02 0.20731207080E+02
 0.24562392327E+02 0.28427556596E+02 0.32209349643E+02 0.35813180962E+02 0.39086973035E+02
 0.41778147303E+02 0.43573229591E+02 0.39440633874E+02 0.39010425796E+02 0.37764351297E+02
 0.35813180962E+02 0.33283388868E+02 0.30279684956E+02 0.26891922792E+02 0.23241224265E+02
 0.19524343879E+02 0.16011034077E+02 0.12983024882E+02 0.10648457872E+02 0.90844971511E+01
 0.82386483397E+01 0.79805432842E+01 0.82386483397E+01 0.90844971511E+01 0.10648457872E+02
 0.12983024882E+02 0.16011034077E+02 0.19524343879E+02 0.23241224265E+02 0.26891922792E+02
 0.30279684956E+02 0.33283388868E+02 0.35813180962E+02 0.37764351297E+02 0.39010425796E+02
 0.34635317335E+02 0.34369040309E+02 0.33565430105E+02 0.32209349643E+02 0.30279684956E+02
 0.27771624943E+02 0.24738683471E+02 0.21334459968E+02 0.17820680345E+02 0.14520360030E+02
 0.11729489264E+02 0.96315973507E+01 0.82604381219E+01 0.75250000995E+01 0.72912437053E+01
 0.75250000995E+01 0.82604381219E+01 0.96315973507E+01 0.11729489264E+02 0.14520360030E+02
 0.17820680345E+02 0.21334459968E+02 0.24738683471E+02 0.27771624943E+02 0.30279684956E+02
 0.32209349643E+02 0.33565430105E+02 0.34369040309E+02 0.30091340397E+02 0.29928519804E+02
 0.29404517709E+02 0.28427556596E+02 0.26891922792E+02 0.24738683471E+02 0.22015150711E+02
 0.18904934607E+02 0.15705101715E+02 0.12750044901E+02 0.10312684909E+02 0.85301929471E+01
 0.73885387086E+01 0.67663303148E+01 0.65609138690E+01 0.67663303148E+01 0.73885387086E+01
 0.85301929471E+01 0.10312684909E+02 0.12750044901E+02 0.15705101715E+02 0.18904934607E+02
 0.22015150711E+02 0.24738683471E+02 0.26891922792E+02 0.28427556596E+02 0.29404517709E+02
 0.29928519804E+02 0.25875980200E+02 0.25758397252E+02 0.25359318473E+02 0.24562392327E+02
 0.23241224265E+02 0.21334459968E+02 0.18904934607E+02 0.16153786460E+02 0.13376766524E+02
 0.10877071662E+02 0.88730245334E+01 0.74431922585E+01 0.65308137680E+01 0.60109206000E+01
 0.58383298615E+01 0.60109206000E+01 0.65308137680E+01 0.74431922585E+01 0.88730245334E+01
 0.10877071662E+02 0.13376766524E+02 0.16153786460E+02 0.18904934607E+02 0.21334459968E+02
 0.23241224265E+02 0.24562392327E+02 0.25359318473E+02 0.25758397252E+02 0.21959434376E+02
 0.21847983112E+02 0.21472211935E+02 0.20731207080E+02 0.19524343879E+02 0.17820680345E+02
 0.15705101715E+02 0.13376766524E+02 0.11096550578E+02 0.91053100815E+01 0.75503116205E+01
 0.64527809809E+01 0.57289328691E+01 0.53042477153E+01 0.51647463883E+01 0.53042477153E+01
 0.57289328691E+01 0.64527809809E+01 0.75503116205E+01 0.91053100815E+01 0.11096550578E+02
 0.13376766524E+02 0.15705101715E+02 0.17820680345E+02 0.19524343879E+02 0.20731207080E+02
 0.21472211935E+02 0.21847983112E+02 0.18356326797E+02 0.18235812805E+02 0.17846217808E+02
 0.17122604138E+02 0.16011034077E+02 0.14520360030E+02 0.12750044901E+02 0.10877071662E+02
 0.91053100815E+01 0.76001601699E+01 0.64389575480E+01 0.55989241634E+01 0.50183142453E+01
 0.46805120143E+01 0.45703360509E+01 0.46805120143E+01 0.50183142453E+01 0.55989241634E+01
 0.64389575480E+01 0.76001601699E+01 0.91053100815E+01 0.10877071662E+02 0.12750044901E+02
 0.14520360030E+02 0.16011034077E+02 0.17122604138E+02 0.17846217808E+02 0.18235812805E+02
 0.15182545442E+02 0.15055640207E+02 0.14661638594E+02 0.13973730194E+02 0.12983024882E+02
 0.11729489264E+02 0.10312684909E+02 0.88730245334E+01 0.75503116205E+01 0.64389575480E+01
 0.55611504667E+01 0.48920054911E+01 0.44289189700E+01 0.41610424298E+01 0.40738430393E+01
 0.41610424298E+01 0.44289189700E+01 0.48920054911E+01 0.55611504667E+01 0.64389575480E+01
 0.75503116205E+01 0.88730245334E+01 0.10312684909E+02 0.11729489264E+02 0.12983024882E+02
 0.13973730194E+02 0.14661638594E+02 0.15055640207E+02 0.12611553989E+02 0.12487791287E+02
 0.12114775332E+02 0.11494419060E+02 0.10648457872E+02 0.96315973507E+01 0.85301929471E+01
 0.74431922585E+01 0.64527809809E+01 0.55989241634E+01 0.48920054911E+01 0.43498488477E+01
 0.39743077098E+01 0.37560743204E+01 0.36847654409E+01 0.37560743204E+01 0.39743077098E+01
 0.43498488477E+01 0.48920054911E+01 0.55989241634E+01 0.64527809809E+01 0.74431922585E+01
 0.85301929471E+01 0.96315973507E+01 0.10648457872E+02 0.11494419060E+02 0.12114775332E+02
 0.12487791287E+02 0.10784857640E+02 0.10671154591E+02 0.10335062954E+02 0.97943071265E+01
 0.90844971511E+01 0.82604381219E+01 0.73885387086E+01 0.65308137680E+01 0.57289328691E+01
 0.50183142453E+01 0.44289189700E+01 0.39743077098E+01 0.36557518885E+01 0.34683448875E+01
 0.34066270317E+01 0.34683448875E+01 0.36557518885E+01 0.39743077098E+01 0.44289189700E+01
 0.50183142453E+01 0.57289328691E+01 0.65308137680E+01 0.73885387086E+01 0.82604381219E+01
 0.90844971511E+01 0.97943071265E+01 0.10335062954E+02 0.10671154591E+02 0.97466631158E+01
 0.96430226416E+01 0.93396179109E+01 0.88591495621E+01 0.82386483397E+01 0.75250000995E+01
 0.67663303148E+01 0.60109206000E+01 0.53042477153E+01 0.46805120143E+01 0.41610424298E+01
 0.37560743204E+01 0.34683448875E+01 0.32968915937E+01 0.32399929842E+01 0.32968915937E+01
 0.34683448875E+01 0.37560743204E+01 0.41610424298E+01 0.46805120143E+01 0.53042477153E+01
 0.60109206000E+01 0.67663303148E+01 0.75250000995E+01 0.82386483397E+01 0.88591495621E+01
 0.93396179109E+01 0.96430226416E+01 0.94311422932E+01 0.93316898102E+01 0.90404605338E+01
 0.85785986703E+01 0.79805432842E+01 0.72912437053E+01 0.65609138690E+01 0.58383298615E+01
 0.51647463883E+01 0.45703360509E+01 0.40738430393E+01 0.36847654409E+01 0.34066270317E+01
 0.32399929842E+01 0.31845194227E+01 0.32399929842E+01 0.34066270317E+01 0.36847654409E+01
 0.40738430393E+01 0.45703360509E+01 0.51647463883E+01 0.58383298615E+01 0.65609138690E+01
 0.72912437053E+01 0.79805432842E+01 0.85785986703E+01 0.90404605338E+01 0.93316898102E+01
 0.97466631158E+01 0.96430226416E+01 0.93396179109E+01 0.88591495621E+01 0.82386483397E+01
 0.75250000995E+01 0.67663303148E+01 0.60109206000E+01 0.53042477153E+01 0.46805120143E+01
 0.41610424298E+01 0.37560743204E+01 0.34683448875E+01 0.32968915937E+01 0.32399929842E+01
 0.32968915937E+01 0.34683448875E+01 0.37560743204E+01 0.41610424298E+01 0.46805120143E+01
 0.53042477153E+01 0.60109206000E+01 0.67663303148E+01 0.75250000995E+01 0.82386483397E+01
 0.88591495621E+01 0.93396179109E+01 0.96430226416E+01 0.10784857640E+02 0.10671154591E+02
 0.10335062954E+02 0.97943071265E+01 0.90844971511E+01 0.82604381219E+01 0.73885387086E+01
 0.65308137680E+01 0.57289328691E+01 0.50183142453E+01 0.44289189700E+01 0.39743077098E+01
 0.36557518885E+01 0.34683448875E+01 0.34066270317E+01 0.34683448875E+01 0.36557518885E+01
 0.39743077098E+01 0.44289189700E+01 0.50183142453E+01 0.57289328691E+01 0.65308137680E+01
 0.73885387086E+01 0.82604381219E+01 0.90844971511E+01 0.97943071265E+01 0.10335062954E+02
 0.10671154591E+02 0.12611553989E+02 0.12487791287E+02 0.12114775332E+02 0.11494419060E+02
 0.10648457872E+02 0.96315973507E+01 0.85301929471E+01 0.74431922585E+01 0.64527809809E+01
 0.55989241634E+01 0.48920054911E+01 0.43498488477E+01 0.39743077098E+01 0.37560743204E+01
 0.36847654409E+01 0.37560743204E+01 0.39743077098E+01 0.43498488477E+01 0.48920054911E+01
 0.55989241634E+01 0.64527809809E+01 0.74431922585E+01 0.85301929471E+01 0.96315973507E+01
 0.10648457872E+02 0.11494419060E+02 0.12114775332E+02 0.12487791287E+02 0.15182545442E+02
 0.15055640207E+02 0.14661638594E+02 0.13973730194E+02 0.12983024882E+02 0.11729489264E+02
 0.10312684909E+02 0.88730245334E+01 0.75503116205E+01 0.64389575480E+01 0.55611504667E+01
 0.48920054911E+01 0.44289189700E+01 0.41610424298E+01 0.40738430393E+01 0.41610424298E+01
 0.44289189700E+01 0.48920054911E+01 0.55611504667E+01 0.64389575480E+01 0.75503116205E+01
 0.88730245334E+01 0.10312684909E+02 0.11729489264E+02 0.12983024882E+02 0.13973730194E+02
 0.14661638594E+02 0.15055640207E+02 0.18356326797E+02 0.18235812805E+02 0.17846217808E+02
 0.17122604138E+02 0.16011034077E+02 0.14520360030E+02 0.12750044901E+02 0.10877071662E+02
 0.91053100815E+01 0.76001601699E+01 0.64389575480E+01 0.55989241634E+01 0.50183142453E+01
 0.46805120143E+01 0.45703360509E+01 0.46805120143E+01 0.50183142453E+01 0.55989241634E+01
 0.64389575480E+01 0.76001601699E+01 0.91053100815E+01 0.10877071662E+02 0.12750044901E+02
 0.14520360030E+02 0.16011034077E+02 0.17122604138E+02 0.17846217808E+02 0.18235812805E+02
 0.21959434376E+02 0.21847983112E+02 0.21472211935E+02 0.20731207080E+02 0.19524343879E+02
 0.17820680345E+02 0.15705101715E+02 0.13376766524E+02 0.11096550578E+02 0.91053100815E+01
 0.75503116205E+01 0.64527809809E+01 0.57289328691E+01 0.53042477153E+01 0.51647463883E+01
 0.53042477153E+01 0.57289328691E+01 0.64527809809E+01 0.75503116205E+01 0.91053100815E+01
 0.11096550578E+02 0.13376766524E+02 0.15705101715E+02 0.17820680345E+02 0.19524343879E+02
 0.20731207080E+02 0.21472211935E+02 0.21847983112E+02 0.25875980200E+02 0.25758397252E+02
 0.25359318473E+02 0.24562392327E+02 0.23241224265E+02 0.21334459968E+02 0.18904934607E+02
 0.16153786460E+02 0.13376766524E+02 0.10877071662E+02 0.88730245334E+01 0.74431922585E+01
 0.65308137680E+01 0.60109206000E+01 0.58383298615E+01 0.60109206000E+01 0.65308137680E+01
 0.74431922585E+01 0.88730245334E+01 0.10877071662E+02 0.13376766524E+02 0.16153786460E+02
 0.18904934607E+02 0.21334459968E+02 0.23241224265E+02 0.24562392327E+02 0.25359318473E+02
 0.25758397252E+02 0.30091340397E+02 0.29928519804E+02 0.29404517709E+02 0.28427556596E+02
 0.26891922792E+02 0.24738683471E+02 0.22015150711E+02 0.18904934607E+02 0.15705101715E+02
 0.12750044901E+02 0.10312684909E+02 0.85301929471E+01 0.73885387086E+01 0.67663303148E+01
 0.65609138690E+01 0.67663303148E+01 0.73885387086E+01 0.85301929471E+01 0.10312684909E+02
 0.12750044901E+02 0.15705101715E+02 0.18904934607E+02 0.22015150711E+02 0.24738683471E+02
 0.26891922792E+02 0.28427556596E+02 0.29404517709E+02 0.29928519804E+02 0.34635317335E+02
 0.34369040309E+02 0.33565430105E+02 0.32209349643E+02 0.30279684956E+02 0.27771624943E+02
 0.24738683471E+02 0.21334459968E+02 0.17820680345E+02 0.14520360030E+02 0.11729489264E+02
 0.96315973507E+01 0.82604381219E+01 0.75250000995E+01 0.72912437053E+01 0.75250000995E+01
 0.82604381219E+01 0.96315973507E+01 0.11729489264E+02 0.14520360030E+02 0.17820680345E+02
 0.21334459968E+02 0.24738683471E+02 0.27771624943E+02 0.30279684956E+02 0.32209349643E+02
 0.33565430105E+02 0.34369040309E+02 0.39440633874E+02 0.39010425796E+02 0.37764351297E+02
 0.35813180962E+02 0.33283388868E+02 0.30279684956E+02 0.26891922792E+02 0.23241224265E+02
 0.19524343879E+02 0.16011034077E+02 0.12983024882E+02 0.10648457872E+02 0.90844971511E+01
 0.82386483397E+01 0.79805432842E+01 0.82386483397E+01 0.90844971511E+01 0.10648457872E+02
 0.12983024882E+02 0.16011034077E+02 0.19524343879E+02 0.23241224265E+02 0.26891922792E+02
 0.30279684956E+02 0.33283388868E+02 0.35813180962E+02 0.37764351297E+02 0.39010425796E+02
 0.44206440783E+02 0.43573229591E+02 0.41778147303E+02 0.39086973035E+02 0.35813180962E+02
 0.32209349643E+02 0.28427556596E+02 0.24562392327E+02 0.20731207080E+02 0.17122604138E+02
 0.13973730194E+02 0.11494419060E+02 0.97943071265E+01 0.88591495621E+01 0.85785986703E+01
 0.88591495621E+01 0.97943071265E+01 0.11494419060E+02 0.13973730194E+02 0.17122604138E+02
 0.20731207080E+02 0.24562392327E+02 0.28427556596E+02 0.32209349643E+02 0.35813180962E+02
 0.39086973035E+02 0.41778147303E+02 0.43573229591E+02 0.48373335101E+02 0.47540089804E+02
 0.45202849551E+02 0.41778147303E+02 0.37764351297E+02 0.33565430105E+02 0.29404517709E+02
 0.25359318473E+02 0.21472211935E+02 0.17846217808E+02 0.14661638594E+02 0.12114775332E+02
 0.10335062954E+02 0.93396179109E+01 0.90404605338E+01 0.93396179109E+01 0.10335062954E+02
 0.12114775332E+02 0.14661638594E+02 0.17846217808E+02 0.21472211935E+02 0.25359318473E+02
 0.29404517709E+02 0.33565430105E+02 0.37764351297E+02 0.41778147303E+02 0.45202849551E+02
 0.47540089804E+02 0.51257242194E+02 0.50276833567E+02 0.47540089804E+02 0.43573229591E+02
 0.39010425796E+02 0.34369040309E+02 0.29928519804E+02 0.25758397252E+02 0.21847983112E+02
 0.18235812805E+02 0.15055640207E+02 0.12487791287E+02 0.10671154591E+02 0.96430226416E+01
 0.93316898102E+01 0.96430226416E+01 0.10671154591E+02 0.12487791287E+02 0.15055640207E+02
 0.18235812805E+02 0.21847983112E+02 0.25758397252E+02 0.29928519804E+02 0.34369040309E+02
 0.39010425796E+02 0.43573229591E+02 0.47540089804E+02 0.50276833567E+02 0.51257242194E+02
 0.50276833567E+02 0.47540089804E+02 0.43573229591E+02 0.39010425796E+02 0.34369040309E+02
 0.29928519804E+02 0.25758397252E+02 0.21847983112E+02 0.18235812805E+02 0.15055640207E+02
 0.12487791287E+02 0.10671154591E+02 0.96430226416E+01 0.93316898102E+01 0.96430226416E+01
 0.10671154591E+02 0.12487791287E+02 0.15055640207E+02 0.18235812805E+02 0.21847983112E+02
 0.25758397252E+02 0.29928519804E+02 0.34369040309E+02 0.39010425796E+02 0.43573229591E+02
 0.47540089804E+02 0.50276833567E+02 0.50276833567E+02 0.49347511409E+02 0.46749446880E+02
 0.42970743551E+02 0.38598313054E+02 0.34109944113E+02 0.29765295744E+02 0.25636592883E+02
 0.21731632508E+02 0.18111632623E+02 0.14926945596E+02 0.12363868691E+02 0.10558290865E+02
 0.95405978359E+01 0.92333826099E+01 0.95405978359E+01 0.10558290865E+02 0.12363868691E+02
 0.14926945596E+02 0.18111632623E+02 0.21731632508E+02 0.25636592883E+02 0.29765295744E+02
 0.34109944113E+02 0.38598313054E+02 0.42970743551E+02 0.46749446880E+02 0.49347511409E+02
 0.47540089804E+02 0.46749446880E+02 0.44527529983E+02 0.41258369299E+02 0.37400409092E+02
 0.33324860544E+02 0.29239468280E+02 0.25225726287E+02 0.21342658816E+02 0.17712504032E+02
 0.14528658805E+02 0.11990987134E+02 0.10224944635E+02 0.92408330797E+01 0.89455131447E+01
 0.92408330797E+01 0.10224944635E+02 0.11990987134E+02 0.14528658805E+02 0.17712504032E+02
 0.21342658816E+02 0.25225726287E+02 0.29239468280E+02 0.33324860544E+02 0.37400409092E+02
 0.41258369299E+02 0.44527529983E+02 0.46749446880E+02 0.43573229591E+02 0.42970743551E+02
 0.41258369299E+02 0.38677430342E+02 0.35511928012E+02 0.31991263476E+02 0.28258120102E+02
 0.24412095994E+02 0.20584269432E+02 0.16977391529E+02 0.13836772112E+02 0.11372583010E+02
 0.96893388101E+01 0.87663237984E+01 0.84891211440E+01 0.87663237984E+01 0.96893388101E+01
 0.11372583010E+02 0.13836772112E+02 0.16977391529E+02 0.20584269432E+02 0.24412095994E+02
 0.28258120102E+02 0.31991263476E+02 0.35511928012E+02 0.38677430342E+02 0.41258369299E+02
 0.42970743551E+02 0.39010425796E+02 0.38598313054E+02 0.37400409092E+02 0.35511928012E+02
 0.33041298676E+02 0.30080295042E+02 0.26715444338E+02 0.23073596043E+02 0.19361526582E+02
 0.15857370382E+02 0.12845755762E+02 0.10532018248E+02 0.89874073142E+01 0.81537103039E+01
 0.78983661313E+01 0.81537103039E+01 0.89874073142E+01 0.10532018248E+02 0.12845755762E+02
 0.15857370382E+02 0.19361526582E+02 0.23073596043E+02 0.26715444338E+02 0.30080295042E+02
 0.33041298676E+02 0.35511928012E+02 0.37400409092E+02 0.38598313054E+02 0.34369040309E+02
 0.34109944113E+02 0.33324860544E+02 0.31991263476E+02 0.30080295042E+02 0.27583107080E+02
 0.24554668499E+02 0.21154103335E+02 0.17649125399E+02 0.14365662424E+02 0.11598076093E+02
 0.95248156803E+01 0.81736536313E+01 0.74490631307E+01 0.72177033876E+01 0.74490631307E+01
 0.81736536313E+01 0.95248156803E+01 0.11598076093E+02 0.14365662424E+02 0.17649125399E+02
 0.21154103335E+02 0.24554668499E+02 0.27583107080E+02 0.30080295042E+02 0.31991263476E+02
 0.33324860544E+02 0.34109944113E+02 0.29928519804E+02 0.29765295744E+02 0.29239468280E+02
 0.28258120102E+02 0.26715444338E+02 0.24554668499E+02 0.21827268874E+02 0.18721214153E+02
 0.15535760764E+02 0.12603884645E+02 0.10193841549E+02 0.84367558696E+01 0.73133719034E+01
 0.66996209065E+01 0.64966724412E+01 0.66996209065E+01 0.73133719034E+01 0.84367558696E+01
 0.10193841549E+02 0.12603884645E+02 0.15535760764E+02 0.18721214153E+02 0.21827268874E+02
 0.24554668499E+02 0.26715444338E+02 0.28258120102E+02 0.29239468280E+02 0.29765295744E+02
 0.25758397252E+02 0.25636592883E+02 0.25225726287E+02 0.24412095994E+02 0.23073596043E+02
 0.21154103335E+02 0.18721214153E+02 0.15978623720E+02 0.13221249800E+02 0.10748168866E+02
 0.87717521833E+01 0.73648486472E+01 0.64668551463E+01 0.59535701811E+01 0.57833066054E+01
 0.59535701811E+01 0.64668551463E+01 0.73648486472E+01 0.87717521833E+01 0.10748168866E+02
 0.13221249800E+02 0.15978623720E+02 0.18721214153E+02 0.21154103335E+02 0.23073596043E+02
 0.24412095994E+02 0.25225726287E+02 0.25636592883E+02 0.21847983112E+02 0.21731632508E+02
 0.21342658816E+02 0.20584269432E+02 0.19361526582E+02 0.17649125399E+02 0.15535760764E+02
 0.13221249800E+02 0.10963717968E+02 0.89988672321E+01 0.74682450700E+01 0.63886070398E+01
 0.56746011891E+01 0.52556999219E+01 0.51181931994E+01 0.52556999219E+01 0.56746011891E+01
 0.63886070398E+01 0.74682450700E+01 0.89988672321E+01 0.10963717968E+02 0.13221249800E+02
 0.15535760764E+02 0.17649125399E+02 0.19361526582E+02 0.20584269432E+02 0.21342658816E+02
 0.21731632508E+02 0.18235812805E+02 0.18111632623E+02 0.17712504032E+02 0.16977391529E+02
 0.15857370382E+02 0.14365662424E+02 0.12603884645E+02 0.10748168866E+02 0.89988672321E+01
 0.75165154735E+01 0.63739369704E+01 0.55456469657E+01 0.49726909907E+01 0.46396181973E+01
 0.45310267644E+01 0.46396181973E+01 0.49726909907E+01 0.55456469657E+01 0.63739369704E+01
 0.75165154735E+01 0.89988672321E+01 0.10748168866E+02 0.12603884645E+02 0.14365662424E+02
 0.15857370382E+02 0.16977391529E+02 0.17712504032E+02 0.18111632623E+02 0.15055640207E+02
 0.14926945596E+02 0.14528658805E+02 0.13836772112E+02 0.12845755762E+02 0.11598076093E+02
 0.10193841549E+02 0.87717521833E+01 0.74682450700E+01 0.63739369704E+01 0.55081182777E+01
 0.48474648805E+01 0.43905429270E+01 0.41263118102E+01 0.40403084005E+01 0.41263118102E+01
 0.43905429270E+01 0.48474648805E+01 0.55081182777E+01 0.63739369704E+01 0.74682450700E+01
 0.87717521833E+01 0.10193841549E+02 0.11598076093E+02 0.12845755762E+02 0.13836772112E+02
 0.14528658805E+02 0.14926945596E+02 0.12487791287E+02 0.12363868691E+02 0.11990987134E+02
 0.11372583010E+02 0.10532018248E+02 0.95248156803E+01 0.84367558696E+01 0.73648486472E+01
 0.63886070398E+01 0.55456469657E+01 0.48474648805E+01 0.43121847780E+01 0.39414133786E+01
 0.37259238579E+01 0.36555033822E+01 0.37259238579E+01 0.39414133786E+01 0.43121847780E+01
 0.48474648805E+01 0.55456469657E+01 0.63886070398E+01 0.73648486472E+01 0.84367558696E+01
 0.95248156803E+01 0.10532018248E+02 0.11372583010E+02 0.11990987134E+02 0.12363868691E+02
 0.10671154591E+02 0.10558290865E+02 0.10224944635E+02 0.96893388101E+01 0.89874073142E+01
 0.81736536313E+01 0.73133719034E+01 0.64668551463E+01 0.56746011891E+01 0.49726909907E+01
 0.43905429270E+01 0.39414133786E+01 0.36265733900E+01 0.34412787554E+01 0.33802415485E+01
 0.34412787554E+01 0.36265733900E+01 0.39414133786E+01 0.43905429270E+01 0.49726909907E+01
 0.56746011891E+01 0.64668551463E+01 0.73133719034E+01 0.81736536313E+01 0.89874073142E+01
 0.96893388101E+01 0.10224944635E+02 0.10558290865E+02 0.96430226416E+01 0.95405978359E+01
 0.92408330797E+01 0.87663237984E+01 0.81537103039E+01 0.74490631307E+01 0.66996209065E+01
 0.59535701811E+01 0.52556999219E+01 0.46396181973E+01 0.41263118102E+01 0.37259238579E+01
 0.34412787554E+01 0.32715784196E+01 0.32152454591E+01 0.32715784196E+01 0.34412787554E+01
 0.37259238579E+01 0.41263118102E+01 0.46396181973E+01 0.52556999219E+01 0.59535701811E+01
 0.66996209065E+01 0.74490631307E+01 0.81537103039E+01 0.87663237984E+01 0.92408330797E+01
 0.95405978359E+01 0.93316898102E+01 0.92333826099E+01 0.89455131447E+01 0.84891211440E+01
 0.78983661313E+01 0.72177033876E+01 0.64966724412E+01 0.57833066054E+01 0.51181931994E+01
 0.45310267644E+01 0.40403084005E+01 0.36555033822E+01 0.33802415485E+01 0.32152454591E+01
 0.31603013470E+01 0.32152454591E+01 0.33802415485E+01 0.36555033822E+01 0.40403084005E+01
 0.45310267644E+01 0.51181931994E+01 0.57833066054E+01 0.64966724412E+01 0.72177033876E+01
 0.78983661313E+01 0.84891211440E+01 0.89455131447E+01 0.92333826099E+01 0.96430226416E+01
 0.95405978359E+01 0.92408330797E+01 0.87663237984E+01 0.81537103039E+01 0.74490631307E+01
 0.66996209065E+01 0.59535701811E+01 0.52556999219E+01 0.46396181973E+01 0.41263118102E+01
 0.37259238579E+01 0.34412787554E+01 0.32715784196E+01 0.32152454591E+01 0.32715784196E+01
 0.34412787554E+01 0.37259238579E+01 0.41263118102E+01 0.46396181973E+01 0.52556999219E+01
 0.59535701811E+01 0.66996209065E+01 0.74490631307E+01 0.81537103039E+01 0.87663237984E+01
 0.92408330797E+01 0.95405978359E+01 0.10671154591E+02 0.10558290865E+02 0.10224944635E+02
 0.96893388101E+01 0.89874073142E+01 0.81736536313E+01 0.73133719034E+01 0.64668551463E+01
 0.56746011891E+01 0.49726909907E+01 0.43905429270E+01 0.39414133786E+01 0.36265733900E+01
 0.34412787554E+01 0.33802415485E+01 0.34412787554E+01 0.36265733900E+01 0.39414133786E+01
 0.43905429270E+01 0.49726909907E+01 0.56746011891E+01 0.64668551463E+01 0.73133719034E+01
 0.81736536313E+01 0.89874073142E+01 0.96893388101E+01 0.10224944635E+02 0.10558290865E+02
 0.12487791287E+02 0.12363868691E+02 0.11990987134E+02 0.11372583010E+02 0.10532018248E+02
 0.95248156803E+01 0.84367558696E+01 0.73648486472E+01 0.63886070398E+01 0.55456469657E+01
 0.48474648805E+01 0.43121847780E+01 0.39414133786E+01 0.37259238579E+01 0.36555033822E+01
 0.37259238579E+01 0.39414133786E+01 0.43121847780E+01 0.48474648805E+01 0.55456469657E+01
 0.63886070398E+01 0.73648486472E+01 0.84367558696E+01 0.95248156803E+01 0.10532018248E+02
 0.11372583010E+02 0.11990987134E+02 0.12363868691E+02 0.15055640207E+02 0.14926945596E+02
 0.14528658805E+02 0.13836772112E+02 0.12845755762E+02 0.11598076093E+02 0.10193841549E+02
 0.87717521833E+01 0.74682450700E+01 0.63739369704E+01 0.55081182777E+01 0.48474648805E+01
 0.43905429270E+01 0.41263118102E+01 0.40403084005E+01 0.41263118102E+01 0.43905429270E+01
 0.48474648805E+01 0.55081182777E+01 0.63739369704E+01 0.74682450700E+01 0.87717521833E+01
 0.10193841549E+02 0.11598076093E+02 0.12845755762E+02 0.13836772112E+02 0.14528658805E+02
 0.14926945596E+02 0.18235812805E+02 0.18111632623E+02 0.17712504032E+02 0.16977391529E+02
 0.15857370382E+02 0.14365662424E+02 0.12603884645E+02 0.10748168866E+02 0.89988672321E+01
 0.75165154735E+01 0.63739369704E+01 0.55456469657E+01 0.49726909907E+01 0.46396181973E+01
 0.45310267644E+01 0.46396181973E+01 0.49726909907E+01 0.55456469657E+01 0.63739369704E+01
 0.75165154735E+01 0.89988672321E+01 0.10748168866E+02 0.12603884645E+02 0.14365662424E+02
 0.15857370382E+02 0.16977391529E+02 0.17712504032E+02 0.18111632623E+02 0.21847983112E+02
 0.21731632508E+02 0.21342658816E+02 0.20584269432E+02 0.19361526582E+02 0.17649125399E+02
 0.15535760764E+02 0.13221249800E+02 0.10963717968E+02 0.89988672321E+01 0.74682450700E+01
 0.63886070398E+01 0.56746011891E+01 0.52556999219E+01 0.51181931994E+01 0.52556999219E+01
 0.56746011891E+01 0.63886070398E+01 0.74682450700E+01 0.89988672321E+01 0.10963717968E+02
 0.13221249800E+02 0.15535760764E+02 0.17649125399E+02 0.19361526582E+02 0.20584269432E+02
 0.21342658816E+02 0.21731632508E+02 0.25758397252E+02 0.25636592883E+02 0.25225726287E+02
 0.24412095994E+02 0.23073596043E+02 0.21154103335E+02 0.18721214153E+02 0.15978623720E+02
 0.13221249800E+02 0.10748168866E+02 0.87717521833E+01 0.73648486472E+01 0.64668551463E+01
 0.59535701811E+01 0.57833066054E+01 0.59535701811E+01 0.64668551463E+01 0.73648486472E+01
 0.87717521833E+01 0.10748168866E+02 0.13221249800E+02 0.15978623720E+02 0.18721214153E+02
 0.21154103335E+02 0.23073596043E+02 0.24412095994E+02 0.25225726287E+02 0.25636592883E+02
 0.29928519804E+02 0.29765295744E+02 0.29239468280E+02 0.28258120102E+02 0.26715444338E+02
 0.24554668499E+02 0.21827268874E+02 0.18721214153E+02 0.15535760764E+02 0.12603884645E+02
 0.10193841549E+02 0.84367558696E+01 0.73133719034E+01 0.66996209065E+01 0.64966724412E+01
 0.66996209065E+01 0.73133719034E+01 0.84367558696E+01 0.10193841549E+02 0.12603884645E+02
 0.15535760764E+02 0.18721214153E+02 0.21827268874E+02 0.24554668499E+02 0.26715444338E+02
 0.28258120102E+02 0.29239468280E+02 0.29765295744E+02 0.34369040309E+02 0.34109944113E+02
 0.33324860544E+02 0.31991263476E+02 0.30080295042E+02 0.27583107080E+02 0.24554668499E+02
 0.21154103335E+02 0.17649125399E+02 0.14365662424E+02 0.11598076093E+02 0.95248156803E+01
 0.81736536313E+01 0.74490631307E+01 0.72177033876E+01 0.74490631307E+01 0.81736536313E+01
 0.95248156803E+01 0.11598076093E+02 0.14365662424E+02 0.17649125399E+02 0.21154103335E+02
 0.24554668499E+02 0.27583107080E+02 0.30080295042E+02 0.31991263476E+02 0.33324860544E+02
 0.34109944113E+02 0.39010425796E+02 0.38598313054E+02 0.37400409092E+02 0.35511928012E+02
 0.33041298676E+02 0.30080295042E+02 0.26715444338E+02 0.23073596043E+02 0.19361526582E+02
 0.15857370382E+02 0.12845755762E+02 0.10532018248E+02 0.89874073142E+01 0.81537103039E+01
 0.78983661313E+01 0.81537103039E+01 0.89874073142E+01 0.10532018248E+02 0.12845755762E+02
 0.15857370382E+02 0.19361526582E+02 0.23073596043E+02 0.26715444338E+02 0.30080295042E+02
 0.33041298676E+02 0.35511928012E+02 0.37400409092E+02 0.38598313054E+02 0.43573229591E+02
 0.42970743551E+02 0.41258369299E+02 0.38677430342E+02 0.35511928012E+02 0.31991263476E+02
 0.28258120102E+02 0.24412095994E+02 0.20584269432E+02 0.16977391529E+02 0.13836772112E+02
 0.11372583010E+02 0.96893388101E+01 0.87663237984E+01 0.84891211440E+01 0.87663237984E+01
 0.96893388101E+01 0.11372583010E+02 0.13836772112E+02 0.16977391529E+02 0.20584269432E+02
 0.24412095994E+02 0.28258120102E+02 0.31991263476E+02 0.35511928012E+02 0.38677430342E+02
 0.41258369299E+02 0.42970743551E+02 0.47540089804E+02 0.46749446880E+02 0.44527529983E+02
 0.41258369299E+02 0.37400409092E+02 0.33324860544E+02 0.29239468280E+02 0.25225726287E+02
 0.21342658816E+02 0.17712504032E+02 0.14528658805E+02 0.11990987134E+02 0.10224944635E+02
 0.92408330797E+01 0.89455131447E+01 0.92408330797E+01 0.10224944635E+02 0.11990987134E+02
 0.14528658805E+02 0.17712504032E+02 0.21342658816E+02 0.25225726287E+02 0.29239468280E+02
 0.33324860544E+02 0.37400409092E+02 0.41258369299E+02 0.44527529983E+02 0.46749446880E+02
 0.50276833567E+02 0.49347511409E+02 0.46749446880E+02 0.42970743551E+02 0.38598313054E+02
 0.34109944113E+02 0.29765295744E+02 0.25636592883E+02 0.21731632508E+02 0.18111632623E+02
 0.14926945596E+02 0.12363868691E+02 0.10558290865E+02 0.95405978359E+01 0.92333826099E+01
 0.95405978359E+01 0.10558290865E+02 0.12363868691E+02 0.14926945596E+02 0.18111632623E+02
 0.21731632508E+02 0.25636592883E+02 0.29765295744E+02 0.34109944113E+02 0.38598313054E+02
 0.42970743551E+02 0.46749446880E+02 0.49347511409E+02 0.48373335101E+02 0.47540089804E+02
 0.45202849551E+02 0.41778147303E+02 0.37764351297E+02 0.33565430105E+02 0.29404517709E+02
 0.25359318473E+02 0.21472211935E+02 0.17846217808E+02 0.14661638594E+02 0.12114775332E+02
 0.10335062954E+02 0.93396179109E+01 0.90404605338E+01 0.93396179109E+01 0.10335062954E+02
 0.12114775332E+02 0.14661638594E+02 0.17846217808E+02 0.21472211935E+02 0.25359318473E+02
 0.29404517709E+02 0.33565430105E+02 0.37764351297E+02 0.41778147303E+02 0.45202849551E+02
 0.47540089804E+02 0.47540089804E+02 0.46749446880E+02 0.44527529983E+02 0.41258369299E+02
 0.37400409092E+02 0.33324860544E+02 0.29239468280E+02 0.25225726287E+02 0.21342658816E+02
 0.17712504032E+02 0.14528658805E+02 0.11990987134E+02 0.10224944635E+02 0.92408330797E+01
 0.89455131447E+01 0.92408330797E+01 0.10224944635E+02 0.11990987134E+02 0.14528658805E+02
 0.17712504032E+02 0.21342658816E+02 0.25225726287E+02 0.29239468280E+02 0.33324860544E+02
 0.37400409092E+02 0.41258369299E+02 0.44527529983E+02 0.46749446880E+02 0.45202849551E+02
 0.44527529983E+02 0.42617542187E+02 0.39768472764E+02 0.36330667092E+02 0.32587557829E+02