   1   1   0   0
  0.1382400E+02  0.2400000E-09  0.2400000E-09  0.2400000E-09  0.5000000E-15
  1.000000000000000E-004
  CAR 
 unknown system                          
     38.01290813     -3.70192835  301      9.49476166      1.00000000
     -3.702  0.0000E+00  0.0000E+00
     -3.563  0.0000E+00  0.0000E+00
     -3.424  0.0000E+00  0.0000E+00
     -3.285  0.0000E+00  0.0000E+00
     -3.146  0.0000E+00  0.0000E+00
     -3.007  0.0000E+00  0.0000E+00
     -2.868  0.0000E+00  0.0000E+00
     -2.729  0.0000E+00  0.0000E+00
     -2.590  0.0000E+00  0.0000E+00
     -2.450  0.0000E+00  0.0000E+00
     -2.311  0.0000E+00  0.0000E+00
     -2.172  0.0000E+00  0.0000E+00
     -2.033  0.0000E+00  0.0000E+00
     -1.894  0.0000E+00  0.0000E+00
     -1.755  0.0000E+00  0.0000E+00
     -1.616  0.1297E-02  0.3707E-04
     -1.477  0.8916E-02  0.6681E-03
     -1.338  0.2330E-01  0.2832E-02
     -1.199  0.3747E-01  0.7112E-02
     -1.060  0.4689E-01  0.1303E-01
     -0.921  0.5250E-01  0.1995E-01
     -0.782  0.5909E-01  0.2769E-01
     -0.643  0.6728E-01  0.3646E-01
     -0.504  0.7669E-01  0.4646E-01
     -0.365  0.8621E-01  0.5779E-01
     -0.226  0.9568E-01  0.7044E-01
     -0.087  0.1056E+00  0.8441E-01
      0.052  0.1169E+00  0.9987E-01
      0.191  0.1289E+00  0.1170E+00
      0.331  0.1416E+00  0.1358E+00
      0.470  0.1545E+00  0.1563E+00
      0.609  0.1695E+00  0.1788E+00
      0.748  0.2140E+00  0.2046E+00
      0.887  0.3191E+00  0.2413E+00
      1.026  0.4451E+00  0.2946E+00
      1.165  0.5238E+00  0.3623E+00
      1.304  0.6554E+00  0.4446E+00
      1.443  0.8324E+00  0.5471E+00
      1.582  0.1055E+01  0.6777E+00
      1.721  0.1292E+01  0.8411E+00
      1.860  0.1503E+01  0.1033E+01
      1.999  0.2053E+01  0.1283E+01
      2.138  0.1945E+01  0.1571E+01
      2.277  0.1748E+01  0.1822E+01
      2.416  0.1596E+01  0.2055E+01
      2.555  0.1568E+01  0.2278E+01
      2.694  0.1584E+01  0.2498E+01
      2.833  0.1439E+01  0.2702E+01
      2.972  0.1530E+01  0.2906E+01
      3.111  0.1546E+01  0.3125E+01
      3.251  0.1336E+01  0.3325E+01
      3.390  0.9320E+00  0.3476E+01
      3.529  0.8942E+00  0.3602E+01
      3.668  0.8763E+00  0.3725E+01
      3.807  0.8995E+00  0.3848E+01
      3.946  0.9563E+00  0.3977E+01
      4.085  0.1026E+01  0.4115E+01
      4.224  0.1073E+01  0.4261E+01
      4.363  0.1112E+01  0.4416E+01
      4.502  0.1357E+01  0.4580E+01
      4.641  0.1802E+01  0.4813E+01
      4.780  0.1229E+01  0.5017E+01
      4.919  0.9242E+00  0.5164E+01
      5.058  0.7651E+00  0.5281E+01
      5.197  0.6292E+00  0.5377E+01
      5.336  0.5658E+00  0.5459E+01
      5.475  0.5509E+00  0.5536E+01
      5.614  0.6552E+00  0.5619E+01
      5.753  0.7900E+00  0.5719E+01
      5.892  0.9445E+00  0.5840E+01
      6.032  0.1073E+01  0.5982E+01
      6.171  0.1100E+01  0.6132E+01
      6.310  0.1163E+01  0.6290E+01
      6.449  0.1254E+01  0.6458E+01
      6.588  0.1313E+01  0.6637E+01
      6.727  0.1427E+01  0.6829E+01
      6.866  0.1379E+01  0.7024E+01
      7.005  0.1276E+01  0.7209E+01
      7.144  0.1129E+01  0.7377E+01
      7.283  0.9708E+00  0.7519E+01
      7.422  0.7375E+00  0.7639E+01
      7.561  0.6233E+00  0.7730E+01
      7.700  0.7617E+00  0.7823E+01
      7.839  0.1336E+01  0.7957E+01
      7.978  0.1615E+01  0.8173E+01
      8.117  0.1489E+01  0.8389E+01
      8.256  0.1449E+01  0.8596E+01
      8.395  0.1339E+01  0.8793E+01
      8.534  0.1405E+01  0.8979E+01
      8.673  0.1265E+01  0.9166E+01
      8.813  0.1184E+01  0.9336E+01
      8.952  0.1109E+01  0.9495E+01
      9.091  0.1003E+01  0.9641E+01
      9.230  0.8998E+00  0.9772E+01
      9.369  0.8517E+00  0.9893E+01
      9.508  0.8630E+00  0.1001E+02
      9.647  0.8875E+00  0.1014E+02
      9.786  0.9117E+00  0.1026E+02
      9.925  0.9138E+00  0.1039E+02
     10.064  0.8089E+00  0.1051E+02
     10.203  0.5848E+00  0.1061E+02
     10.342  0.4530E+00  0.1068E+02
     10.481  0.4145E+00  0.1074E+02
     10.620  0.4087E+00  0.1080E+02
     10.759  0.4127E+00  0.1085E+02
     10.898  0.3979E+00  0.1091E+02
     11.037  0.3809E+00  0.1096E+02
     11.176  0.3598E+00  0.1102E+02
     11.315  0.3424E+00  0.1106E+02
     11.454  0.3230E+00  0.1111E+02
     11.594  0.3052E+00  0.1115E+02
     11.733  0.2893E+00  0.1120E+02
     11.872  0.2744E+00  0.1124E+02
     12.011  0.2592E+00  0.1127E+02
     12.150  0.2439E+00  0.1131E+02
     12.289  0.2281E+00  0.1134E+02
     12.428  0.2119E+00  0.1137E+02
     12.567  0.1955E+00  0.1140E+02
     12.706  0.1838E+00  0.1143E+02
     12.845  0.1676E+00  0.1145E+02
     12.984  0.1643E+00  0.1147E+02
     13.123  0.1607E+00  0.1150E+02
     13.262  0.1568E+00  0.1152E+02
     13.401  0.1527E+00  0.1154E+02
     13.540  0.1484E+00  0.1156E+02
     13.679  0.1455E+00  0.1158E+02
     13.818  0.1449E+00  0.1160E+02
     13.957  0.1418E+00  0.1162E+02
     14.096  0.1361E+00  0.1164E+02
     14.235  0.1296E+00  0.1166E+02
     14.375  0.1242E+00  0.1168E+02
     14.514  0.1201E+00  0.1169E+02
     14.653  0.1172E+00  0.1171E+02
     14.792  0.1134E+00  0.1173E+02
     14.931  0.1121E+00  0.1174E+02
     15.070  0.1131E+00  0.1176E+02
     15.209  0.1180E+00  0.1177E+02
     15.348  0.1249E+00  0.1179E+02
     15.487  0.1319E+00  0.1181E+02
     15.626  0.1388E+00  0.1183E+02
     15.765  0.1499E+00  0.1185E+02
     15.904  0.2685E+00  0.1187E+02
     16.043  0.3738E+00  0.1192E+02
     16.182  0.4001E+00  0.1197E+02
     16.321  0.4157E+00  0.1203E+02
     16.460  0.4261E+00  0.1209E+02
     16.599  0.4318E+00  0.1215E+02
     16.738  0.4251E+00  0.1221E+02
     16.877  0.4146E+00  0.1226E+02
     17.016  0.4054E+00  0.1232E+02
     17.155  0.3969E+00  0.1238E+02
     17.295  0.3878E+00  0.1243E+02
     17.434  0.3790E+00  0.1249E+02
     17.573  0.3716E+00  0.1254E+02
     17.712  0.3654E+00  0.1259E+02
     17.851  0.3579E+00  0.1264E+02
     17.990  0.3506E+00  0.1269E+02
     18.129  0.3435E+00  0.1274E+02
     18.268  0.3367E+00  0.1278E+02
     18.407  0.3324E+00  0.1283E+02
     18.546  0.3306E+00  0.1288E+02
     18.685  0.3317E+00  0.1292E+02
     18.824  0.3347E+00  0.1297E+02
     18.963  0.3389E+00  0.1302E+02
     19.102  0.3475E+00  0.1306E+02
     19.241  0.3266E+00  0.1311E+02
     19.380  0.2876E+00  0.1315E+02
     19.519  0.2869E+00  0.1319E+02
     19.658  0.2834E+00  0.1323E+02
     19.797  0.2788E+00  0.1327E+02
     19.936  0.2732E+00  0.1331E+02
     20.076  0.2834E+00  0.1335E+02
     20.215  0.2766E+00  0.1339E+02
     20.354  0.2662E+00  0.1342E+02
     20.493  0.2570E+00  0.1346E+02
     20.632  0.2507E+00  0.1350E+02
     20.771  0.2615E+00  0.1353E+02
     20.910  0.2908E+00  0.1357E+02
     21.049  0.2922E+00  0.1361E+02
     21.188  0.2932E+00  0.1365E+02
     21.327  0.2810E+00  0.1369E+02
     21.466  0.2471E+00  0.1373E+02
     21.605  0.2395E+00  0.1376E+02
     21.744  0.2409E+00  0.1380E+02
     21.883  0.2442E+00  0.1383E+02
     22.022  0.2518E+00  0.1386E+02
     22.161  0.2591E+00  0.1390E+02
     22.300  0.2649E+00  0.1394E+02
     22.439  0.2679E+00  0.1397E+02
     22.578  0.2714E+00  0.1401E+02
     22.717  0.2782E+00  0.1405E+02
     22.857  0.2901E+00  0.1409E+02
     22.996  0.3126E+00  0.1413E+02
     23.135  0.3577E+00  0.1418E+02
     23.274  0.4280E+00  0.1423E+02
     23.413  0.4690E+00  0.1429E+02
     23.552  0.5080E+00  0.1436E+02
     23.691  0.5496E+00  0.1443E+02
     23.830  0.5582E+00  0.1451E+02
     23.969  0.5443E+00  0.1459E+02
     24.108  0.5432E+00  0.1466E+02
     24.247  0.5440E+00  0.1474E+02
     24.386  0.5258E+00  0.1481E+02
     24.525  0.4890E+00  0.1488E+02
     24.664  0.5319E+00  0.1495E+02
     24.803  0.5297E+00  0.1503E+02
     24.942  0.5041E+00  0.1510E+02
     25.081  0.4972E+00  0.1517E+02
     25.220  0.4940E+00  0.1524E+02
     25.359  0.4927E+00  0.1531E+02
     25.498  0.4826E+00  0.1537E+02
     25.638  0.4751E+00  0.1544E+02
     25.777  0.4538E+00  0.1551E+02
     25.916  0.4610E+00  0.1557E+02
     26.055  0.4686E+00  0.1563E+02
     26.194  0.4768E+00  0.1570E+02
     26.333  0.4856E+00  0.1577E+02
     26.472  0.4951E+00  0.1583E+02
     26.611  0.5005E+00  0.1590E+02
     26.750  0.4810E+00  0.1597E+02
     26.889  0.5195E+00  0.1604E+02
     27.028  0.5719E+00  0.1612E+02
     27.167  0.6327E+00  0.1620E+02
     27.306  0.6869E+00  0.1629E+02
     27.445  0.7164E+00  0.1639E+02
     27.584  0.7132E+00  0.1649E+02
     27.723  0.6408E+00  0.1658E+02
     27.862  0.5394E+00  0.1667E+02
     28.001  0.4719E+00  0.1674E+02
     28.140  0.4515E+00  0.1680E+02
     28.279  0.4657E+00  0.1686E+02
     28.418  0.4879E+00  0.1693E+02
     28.558  0.5251E+00  0.1700E+02
     28.697  0.5861E+00  0.1708E+02
     28.836  0.6687E+00  0.1716E+02
     28.975  0.6745E+00  0.1726E+02
     29.114  0.6933E+00  0.1735E+02
     29.253  0.6877E+00  0.1745E+02
     29.392  0.6455E+00  0.1754E+02
     29.531  0.5652E+00  0.1763E+02
     29.670  0.5039E+00  0.1770E+02
     29.809  0.4269E+00  0.1777E+02
     29.948  0.3478E+00  0.1782E+02
     30.087  0.2679E+00  0.1786E+02
     30.226  0.2183E+00  0.1790E+02
     30.365  0.2485E+00  0.1793E+02
     30.504  0.3389E+00  0.1797E+02
     30.643  0.3789E+00  0.1802E+02
     30.782  0.4425E+00  0.1807E+02
     30.921  0.4859E+00  0.1814E+02
     31.060  0.5307E+00  0.1821E+02
     31.199  0.6219E+00  0.1829E+02
     31.339  0.6767E+00  0.1838E+02
     31.478  0.6980E+00  0.1848E+02
     31.617  0.7360E+00  0.1857E+02
     31.756  0.7535E+00  0.1868E+02
     31.895  0.7571E+00  0.1879E+02
     32.034  0.7372E+00  0.1889E+02
     32.173  0.7273E+00  0.1899E+02
     32.312  0.6572E+00  0.1909E+02
     32.451  0.6503E+00  0.1918E+02
     32.590  0.6450E+00  0.1927E+02
     32.729  0.6325E+00  0.1936E+02
     32.868  0.6191E+00  0.1944E+02
     33.007  0.6018E+00  0.1953E+02
     33.146  0.5845E+00  0.1961E+02
     33.285  0.5297E+00  0.1969E+02
     33.424  0.4442E+00  0.1976E+02
     33.563  0.3406E+00  0.1981E+02
     33.702  0.2622E+00  0.1985E+02
     33.841  0.2174E+00  0.1989E+02
     33.980  0.1624E+00  0.1991E+02
     34.120  0.1300E+00  0.1993E+02
     34.259  0.9965E-01  0.1995E+02
     34.398  0.8142E-01  0.1996E+02
     34.537  0.6534E-01  0.1997E+02
     34.676  0.5140E-01  0.1998E+02
     34.815  0.3961E-01  0.1999E+02
     34.954  0.2974E-01  0.1999E+02
     35.093  0.2057E-01  0.1999E+02
     35.232  0.1363E-01  0.2000E+02
     35.371  0.8689E-02  0.2000E+02
     35.510  0.5219E-02  0.2000E+02
     35.649  0.2732E-02  0.2000E+02
     35.788  0.1043E-02  0.2000E+02
     35.927  0.1517E-03  0.2000E+02
     36.066  0.0000E+00  0.2000E+02
     36.205  0.0000E+00  0.2000E+02
     36.344  0.0000E+00  0.2000E+02
     36.483  0.0000E+00  0.2000E+02
     36.622  0.0000E+00  0.2000E+02
     36.761  0.0000E+00  0.2000E+02
     36.901  0.0000E+00  0.2000E+02
     37.040  0.0000E+00  0.2000E+02
     37.179  0.0000E+00  0.2000E+02
     37.318  0.0000E+00  0.2000E+02
     37.457  0.0000E+00  0.2000E+02
     37.596  0.0000E+00  0.2000E+02
     37.735  0.0000E+00  0.2000E+02
     37.874  0.0000E+00  0.2000E+02
     38.013  0.0000E+00  0.2000E+02
