    1    1    1    1
  0.1382400E+02  0.2400000E-09  0.2400000E-09  0.2400000E-09  0.5000000E-15
  1.000000000000000E-004
  CAR 
 unknown system                          
     10     56     10
 
  0.0000000E+00  0.0000000E+00  0.0000000E+00  0.1000000E-02
    1       -1.701928   1.000000
    2        1.149829   1.000000
    3        1.149829   1.000000
    4       10.042945  -0.221179
    5       10.042945  -0.114332
    6       10.042945  -0.019775
    7       26.557964   0.000000
    8       26.557964   0.000000
    9       26.557964   0.000000
   10       33.415871   0.000000
 
  0.1000000E+00  0.0000000E+00  0.0000000E+00  0.6000000E-02
    1       -1.347365   1.000000
    2        1.226715   1.000000
    3        1.539827   1.000000
    4        9.629286   0.652118
    5        9.629286   0.347008
    6       10.075303  -0.050604
    7       24.528284   0.000000
    8       27.237427   0.000000
    9       27.237427   0.000000
   10       34.193366   0.000000
 
  0.2000000E+00  0.0000000E+00  0.0000000E+00  0.6000000E-02
    1       -0.505745   1.000000
    2        1.433524   1.000000
    3        2.779584   1.000000
    4        8.661648   1.004792
    5        8.661648   1.048227
    6       10.160647  -0.063084
    7       21.254875   0.000000
    8       28.955311   0.000000
    9       28.955311   0.000000
   10       31.221699   0.000000
 
  0.3000000E+00  0.0000000E+00  0.0000000E+00  0.6000000E-02
    1        0.422336   1.000000
    2        1.701250   1.000000
    3        4.768212   1.000000
    4        7.631782   1.000000
    5        7.631782   1.000000
    6       10.267742  -0.020179
    7       18.413588   0.000000
    8       28.815992   0.000000
    9       31.104527   0.000000
   10       31.104530   0.000000
 
  0.4000000E+00  0.0000000E+00  0.0000000E+00  0.6000000E-02
    1        1.167731   1.000000
    2        1.928897   1.000000
    3        6.783969   1.000000
    4        6.894112   1.000000
    5        6.894112   1.004542
    6       10.355751  -0.000007
    7       16.518144   0.000000
    8       27.261887   0.000000
    9       32.667321   0.000000
   10       33.111059   0.000000
 
  0.5000000E+00  0.0000000E+00  0.0000000E+00  0.3000000E-02
    1        1.467754   1.000000
    2        2.018809   1.000000
    3        6.630182   1.000000
    4        6.630182   1.000000
    5        7.667237   1.010594
    6       10.389752   0.000000
    7       15.869881   0.000000
    8       26.724213   0.000000
    9       31.634068   0.000000
   10       34.075194   0.000000
 
  0.1000000E+00  0.1000000E+00  0.0000000E+00  0.1200000E-01
    1       -0.985392   1.000000
    2        1.468236   1.000000
    3        1.754340   1.000000
    4        9.192783   0.996290
    5        9.596232   0.621862
    6        9.737834   0.062307
    7       24.814231   0.000000
    8       25.499227   0.000000
    9       27.922572   0.000000
   10       33.704284   0.000000
 
  0.2000000E+00  0.1000000E+00  0.0000000E+00  0.2400000E-01
    1       -0.142727   1.000000
    2        1.747076   1.000000
    3        2.897957   1.000000
    4        8.207739   1.002362
    5        8.698947   1.026334
    6        9.776093   0.145500
    7       21.825384   0.000000
    8       26.596101   0.000000
    9       29.659343   0.000000
   10       31.673554   0.000000
 
  0.3000000E+00  0.1000000E+00  0.0000000E+00  0.2400000E-01
    1        0.763934   1.000000
    2        2.042021   1.000000
    3        4.657400   1.000000
    4        7.422023   1.000000
    5        7.682041   1.000000
    6        9.893140   0.063305
    7       18.899972   0.000000
    8       27.920664   0.000000
    9       29.867456   0.000000
   10       31.843934   0.000000
 
  0.4000000E+00  0.1000000E+00  0.0000000E+00  0.2400000E-01
    1        1.485679   1.000000
    2        2.322934   1.000000
    3        5.258043   1.000000
    4        6.950799   1.000000
    5        8.240815   1.005836
    6        9.990933  -0.006213
    7       16.754137   0.000000
    8       27.539518   0.000000
    9       30.303716   0.000000
   10       33.939642   0.000000
 
  0.5000000E+00  0.1000000E+00  0.0000000E+00  0.1200000E-01
    1        1.767825   1.000000
    2        2.465010   1.000000
    3        5.096954   1.000000
    4        6.688680   1.000000
    5        9.170288   0.996369
    6       10.028748  -0.000387
    7       15.877919   0.000000
    8       27.117754   0.000000
    9       31.229046   0.000000
   10       32.098585   0.000000
 
  0.2000000E+00  0.2000000E+00  0.0000000E+00  0.1200000E-01
    1        0.617698   1.000000
    2        2.545291   1.000000
    3        3.501084   1.000000
    4        7.273393   1.000000
    5        8.679129   1.000845
    6        8.987247   1.059564
    7       23.060966   0.000000
    8       23.279337   0.000000
    9       31.387186   0.000000
   10       31.439149   0.000000
 
  0.3000000E+00  0.2000000E+00  0.0000000E+00  0.2400000E-01
    1        1.336342   1.000000
    2        3.006093   1.000000
    3        4.629543   1.000000
    4        7.200873   1.000000
    5        7.812419   1.000000
    6        9.004718   0.985874
    7       19.979484   0.000000
    8       24.838031   0.000000
    9       30.170739   0.000000
   10       33.645266   0.000000
 
  0.4000000E+00  0.2000000E+00  0.0000000E+00  0.2400000E-01
    1        1.889909   1.000000
    2        3.239545   1.000000
    3        4.450833   1.000000
    4        7.101759   1.000000
    5        9.117895   1.000065
    6        9.358123   0.334103
    7       17.309927   0.000000
    8       26.542984   0.000000
    9       29.040820   0.000000
   10       33.007663   0.000000
 
  0.5000000E+00  0.2000000E+00  0.0000000E+00  0.1200000E-01
    1        2.117359   1.000000
    2        3.313770   1.000000
    3        4.239183   1.000000
    4        6.845086   1.000000
    5        9.163431   1.000747
    6       10.928875  -0.009016
    7       15.870386   0.000000
    8       27.637437   0.000000
    9       28.873196   0.000000
   10       30.643855   0.000000
 
  0.3000000E+00  0.3000000E+00  0.0000000E+00  0.1200000E-01
    1        1.796487   1.000000
    2        2.842863   1.000000
    3        6.200860   1.000000
    4        7.694386   1.000000
    5        7.879448   1.006932
    6        8.140177   0.977142
    7       20.149199   0.000000
    8       22.977384   0.000000
    9       29.799024   0.000000
   10       35.473563   0.000000
 
  0.4000000E+00  0.3000000E+00  0.0000000E+00  0.2400000E-01
    1        1.985364   1.000000
    2        2.451490   1.000000
    3        6.907311   1.000000
    4        7.293526   1.000000
    5        8.165831   1.021544
    6       10.271549   0.049642
    7       17.723527   0.000000
    8       24.197386   0.000000
    9       28.399742   0.000000
   10       33.034282   0.000000
 
  0.5000000E+00  0.3000000E+00  0.0000000E+00  0.1200000E-01
    1        1.877373   1.000000
    2        2.473172   1.000000
    3        7.030875   1.000000
    4        7.044869   1.000000
    5        8.216997   1.030371
    6       12.471548  -0.001416
    7       15.729533   0.000000
    8       25.955143   0.000000
    9       26.676234   0.000000
   10       31.575577   0.000000
 
  0.4000000E+00  0.4000000E+00  0.0000000E+00  0.1200000E-01
    1        1.245074   1.000000
    2        2.654636   1.000000
    3        7.418212   1.000000
    4        7.508130   1.000000
    5        9.547929   0.540447
    6       11.507067  -0.015537
    7       16.965945   0.000000
    8       23.264712   0.000000
    9       26.614182   0.000000
   10       33.965133   0.000000
 
  0.5000000E+00  0.4000000E+00  0.0000000E+00  0.1200000E-01
    1        0.954003   1.000000
    2        2.770160   1.000000
    3        7.212197   1.000000
    4        7.526678   1.000000
    5       10.257946   0.120780
    6       13.640189   0.000000
    7       15.160241   0.000000
    8       23.739820   0.000000
    9       25.286952   0.000000
   10       33.100691   0.000000
 
  0.5000000E+00  0.5000000E+00  0.0000000E+00  0.3000000E-02
    1        0.636297   1.000000
    2        2.887793   1.000000
    3        7.277547   1.000000
    4        7.277547   1.000000
    5       12.525590   0.000000
    6       14.107070   0.000000
    7       14.107070   0.000000
    8       22.822931   0.000000
    9       24.686742   0.000000
   10       33.872121   0.000000
 
  0.1000000E+00  0.1000000E+00  0.1000000E+00  0.8000000E-02
    1       -0.609142   1.000000
    2        1.830340   1.000000
    3        1.830340   1.000000
    4        9.125592   1.003157
    5        9.292075   0.948632
    6        9.292075   0.691963
    7       25.031701   0.000000
    8       26.159854   0.000000
    9       26.159854   0.000000
   10       35.261271   0.000000
 
  0.2000000E+00  0.1000000E+00  0.1000000E+00  0.2400000E-01
    1        0.253963   1.000000
    2        2.036781   1.000000
    3        3.002050   1.000000
    4        8.255214   1.001570
    5        8.258190   1.014679
    6        9.359404   0.747298
    7       22.387709   0.000000
    8       26.754645   0.000000
    9       27.656782   0.000000
   10       33.047894   0.000000
 
  0.3000000E+00  0.1000000E+00  0.1000000E+00  0.2400000E-01
    1        1.174016   1.000000
    2        2.310419   1.000000
    3        4.594157   1.000000
    4        7.151815   1.000000
    5        7.755014   1.000000
    6        9.492506   0.505765
    7       19.413114   0.000000
    8       28.190364   0.000000
    9       28.495430   0.000000
   10       32.215226   0.000000
 
  0.4000000E+00  0.1000000E+00  0.1000000E+00  0.2400000E-01
    1        1.958770   1.000000
    2        2.552739   1.000000
    3        4.913410   1.000000
    4        6.351947   1.000000
    5        9.057345   0.999978
    6        9.607138   0.122100
    7       17.043456   0.000000
    8       27.889556   0.000000
    9       29.595499   0.000000
   10       33.356400   0.000000
 
  0.5000000E+00  0.1000000E+00  0.1000000E+00  0.1200000E-01
    1        2.320009   1.000000
    2        2.652381   1.000000
    3        4.701215   1.000000
    4        6.060853   1.000000
    5        9.640516   0.939144
    6       10.249206  -0.005817
    7       15.920314   0.000000
    8       27.521774   0.000000
    9       30.631771   0.000000
   10       32.127711   0.000000
 
  0.2000000E+00  0.2000000E+00  0.1000000E+00  0.2400000E-01
    1        1.076262   1.000000
    2        2.788455   1.000000
    3        3.564913   1.000000
    4        7.328992   1.000000
    5        8.325020   1.000453
    6        8.482778   1.064899
    7       23.643376   0.000000
    8       23.805253   0.000000
    9       28.598096   0.000000
   10       33.591245   0.000000
 
  0.3000000E+00  0.2000000E+00  0.1000000E+00  0.4800000E-01
    1        1.829068   1.000000
    2        3.178198   1.000000
    3        4.653761   1.000000
    4        6.777587   1.000000
    5        7.943478   1.000000
    6        8.594461   1.014627
    7       20.571270   0.000000
    8       25.260120   0.000000
    9       29.465002   0.000000
   10       33.107510   0.000000
 
  0.4000000E+00  0.2000000E+00  0.1000000E+00  0.4800000E-01
    1        2.445538   1.000000
    2        3.342431   1.000000
    3        4.498684   1.000000
    4        6.220638   1.000000
    5        8.676447   1.001561
    6       10.105919   0.050440
    7       17.732019   0.000000
    8       26.850265   0.000000
    9       29.217177   0.000000
   10       32.061683   0.000000
 
  0.5000000E+00  0.2000000E+00  0.1000000E+00  0.2400000E-01
    1        2.752365   1.000000
    2        3.333127   1.000000
    3        4.307768   1.000000
    4        5.949532   1.000000
    5        8.741965   1.003299
    6       11.924679  -0.002057
    7       16.000314   0.000000
    8       27.923155   0.000000
    9       29.568957   0.000000
   10       29.772604   0.000000
 
  0.3000000E+00  0.3000000E+00  0.1000000E+00  0.2400000E-01
    1        2.225350   1.000000
    2        3.090726   1.000000
    3        6.084299   1.000000
    4        6.760335   1.000000
    5        7.754828   1.008487
    6        8.632438   0.775890
    7       20.957299   0.000000
    8       23.194237   0.000000
    9       30.068153   0.000000
   10       32.305112   0.000000
 
  0.4000000E+00  0.3000000E+00  0.1000000E+00  0.4800000E-01
    1        2.138676   1.000000
    2        3.006711   1.000000
    3        6.398533   1.000000
    4        6.593310   1.000000
    5        8.041779   1.020069
    6       10.995751  -0.033957
    7       18.347285   0.000000
    8       24.404412   0.000000
    9       28.726362   0.000000
   10       31.477028   0.000000
 
  0.5000000E+00  0.3000000E+00  0.1000000E+00  0.2400000E-01
    1        1.975422   1.000000
    2        3.102820   1.000000
    3        6.150236   1.000000
    4        6.678027   1.000000
    5        8.158803   1.017451
    6       13.462752  -0.000733
    7       16.005441   0.000000
    8       26.337852   0.000000
    9       26.573779   0.000000
   10       30.960638   0.000000
 
  0.4000000E+00  0.4000000E+00  0.1000000E+00  0.2400000E-01
    1        1.360462   1.000000
    2        3.282476   1.000000
    3        6.558717   1.000000
    4        6.633910   1.000000
    5        9.878571   0.407439
    6       12.312905  -0.016811
    7       17.755888   0.000000
    8       23.297273   0.000000
    9       26.469477   0.000000
   10       32.462474   0.000000
 
  0.5000000E+00  0.4000000E+00  0.1000000E+00  0.2400000E-01
    1        1.072369   1.000000
    2        3.413232   1.000000
    3        6.353126   1.000000
    4        6.675583   1.000000
    5       10.604903   0.050634
    6       14.647499   0.000000
    7       15.714365   0.000000
    8       24.020694   0.000000
    9       24.701797   0.000000
   10       32.542489   0.000000
 
  0.5000000E+00  0.5000000E+00  0.1000000E+00  0.6000000E-02
    1        0.759004   1.000000
    2        3.543353   1.000000
    3        6.435500   1.000000
    4        6.435500   1.000000
    5       12.548196   0.000000
    6       15.130480   0.000000
    7       15.130480   0.000000
    8       22.842561   0.000000
    9       24.028871   0.000000
   10       33.881848   0.000000
 
  0.2000000E+00  0.2000000E+00  0.2000000E+00  0.8000000E-02
    1        1.980735   1.000000
    2        3.739831   1.000000
    3        3.739831   1.000000
    4        7.335749   1.000000
    5        7.335749   1.000000
    6        7.824763   1.011753
    7       24.261683   0.000000
    8       25.578017   0.000000
    9       25.578017   0.000000
   10       36.012908   0.000000
 
  0.3000000E+00  0.2000000E+00  0.2000000E+00  0.2400000E-01
    1        2.615490   1.000000
    2        3.983089   1.000000
    3        4.770014   1.000000
    4        6.132906   1.000000
    5        7.449015   1.000000
    6        8.490619   0.898200
    7       21.885566   0.000000
    8       25.691450   0.000000
    9       27.515773   0.000000
   10       34.935060   0.000000
 
  0.4000000E+00  0.2000000E+00  0.2000000E+00  0.2400000E-01
    1        2.996411   1.000000
    2        4.253010   1.000000
    3        4.637254   1.000000
    4        5.217946   1.000000
    5        7.781650   1.000940
    6       11.151357  -0.049851
    7       18.722971   0.000000
    8       26.640126   0.000000
    9       28.856951   0.000000
   10       32.119871   0.000000
 
  0.5000000E+00  0.2000000E+00  0.2000000E+00  0.1200000E-01
    1        3.124133   1.000000
    2        4.488673   1.000000
    3        4.489571   1.000000
    4        4.759709   1.000000
    5        7.876721   1.001308
    6       13.675712   0.000000
    7       16.285222   0.000000
    8       27.243490   0.000000
    9       29.267098   0.000000
   10       30.702220   0.000000
 
  0.3000000E+00  0.3000000E+00  0.2000000E+00  0.2400000E-01
    1        2.706581   1.000000
    2        4.241676   1.000000
    3        5.474325   1.000000
    4        5.937923   1.000000
    5        7.278744   1.015440
    6        9.417713   0.391723
    7       22.905259   0.000000
    8       23.491517   0.000000
    9       28.247728   0.000000
   10       32.051073   0.000000
 
  0.4000000E+00  0.3000000E+00  0.2000000E+00  0.4800000E-01
    1        2.393069   1.000000
    2        4.353498   1.000000
    3        5.104475   1.000000
    4        5.838615   1.000000
    5        8.067991   1.007946
    6       12.137503  -0.036966
    7       19.757559   0.000000
    8       24.422911   0.000000
    9       28.913994   0.000000
   10       30.265914   0.000000
 
  0.5000000E+00  0.3000000E+00  0.2000000E+00  0.2400000E-01
    1        2.219849   1.000000
    2        4.567991   1.000000
    3        4.709249   1.000000
    4        5.881970   1.000000
    5        8.270865   0.976016
    6       15.336436   0.000000
    7       16.602247   0.000000
    8       25.006941   0.000000
    9       28.173659   0.000000
   10       30.486799   0.000000
 
  0.4000000E+00  0.4000000E+00  0.2000000E+00  0.2400000E-01
    1        1.672098   1.000000
    2        4.551382   1.000000
    3        5.089065   1.000000
    4        5.580876   1.000000
    5       10.250526   0.245651
    6       13.727503  -0.005374
    7       19.619725   0.000000
    8       22.789393   0.000000
    9       26.336821   0.000000
   10       31.191340   0.000000
 
  0.5000000E+00  0.4000000E+00  0.2000000E+00  0.2400000E-01
    1        1.396752   1.000000
    2        4.748443   1.000000
    3        4.843772   1.000000
    4        5.561510   1.000000
    5       11.019471  -0.008408
    6       16.653781   0.000000
    7       16.941947   0.000000
    8       23.152427   0.000000
    9       24.756975   0.000000
   10       31.848449   0.000000
 
  0.5000000E+00  0.5000000E+00  0.2000000E+00  0.6000000E-02
    1        1.096847   1.000000
    2        4.842301   1.000000
    3        4.842301   1.000000
    4        5.416877   1.000000
    5       12.607742   0.000000
    6       17.232659   0.000000
    7       17.232659   0.000000
    8       22.368696   0.000000
    9       22.858502   0.000000
   10       32.824570   0.000000
 
  0.3000000E+00  0.3000000E+00  0.3000000E+00  0.8000000E-02
    1        2.763238   1.000000
    2        4.473745   1.000000
    3        4.473745   1.000000
    4        7.220895   1.002393
    5        7.220895   1.056964
    6       10.621764  -0.006211
    7       23.249471   0.000000
    8       25.251681   0.000000
    9       25.251681   0.000000
   10       32.634247   0.000000
 
  0.4000000E+00  0.3000000E+00  0.3000000E+00  0.2400000E-01
    1        2.491836   1.000000
    2        3.694621   1.000000
    3        4.391307   1.000000
    4        7.289482   1.008970
    5        8.612293   0.872776
    6       13.315046  -0.011582
    7       21.095746   0.000000
    8       23.453481   0.000000
    9       27.553866   0.000000
   10       31.370267   0.000000
 
  0.5000000E+00  0.3000000E+00  0.3000000E+00  0.1200000E-01
    1        2.328202   1.000000
    2        3.412415   1.000000
    3        4.424216   1.000000
    4        7.325885   1.013980
    5        8.972673   0.683791
    6       17.142922   0.000000
    7       17.293122   0.000000
    8       23.079250   0.000000
    9       29.139206   0.000000
   10       30.879208   0.000000
 
  0.4000000E+00  0.4000000E+00  0.3000000E+00  0.2400000E-01
    1        2.072373   1.000000
    2        3.497733   1.000000
    3        3.703538   1.000000
    4        7.977108   0.999512
    5       10.493779   0.087647
    6       15.156688  -0.000029
    7       21.435275   0.000000
    8       21.763127   0.000000
    9       25.874333   0.000000
   10       31.157515   0.000000
 
  0.5000000E+00  0.4000000E+00  0.3000000E+00  0.2400000E-01
    1        1.827509   1.000000
    2        3.317242   1.000000
    3        3.678763   1.000000
    4        8.080767   0.988781
    5       11.312115  -0.034532
    6       18.235900   0.000000
    7       18.584070   0.000000
    8       21.389494   0.000000
    9       25.386203   0.000000
   10       31.721855   0.000000
 
  0.5000000E+00  0.5000000E+00  0.3000000E+00  0.6000000E-02
    1        1.553934   1.000000
    2        3.405656   1.000000
    3        3.405656   1.000000
    4        8.204406   0.955712
    5       12.682042   0.000000
    6       19.399791   0.000000
    7       19.399791   0.000000
    8       20.469101   0.000000
    9       22.727528   0.000000
   10       32.354841   0.000000
 
  0.4000000E+00  0.4000000E+00  0.4000000E+00  0.8000000E-02
    1        2.271376   1.000000
    2        2.785384   1.000000
    3        2.785384   1.000000
    4       10.641781   0.297155
    5       10.641781  -0.002455
    6       16.925154   0.000000
    7       20.175365   0.000000
    8       23.583168   0.000000
    9       23.583168   0.000000
   10       31.912661   0.000000
 
  0.5000000E+00  0.4000000E+00  0.4000000E+00  0.1200000E-01
    1        2.123443   1.000000
    2        2.466664   1.000000
    3        2.774660   1.000000
    4       10.693049   0.161129
    5       11.777258  -0.016528
    6       19.328833   0.000000
    7       19.548931   0.000000
    8       20.733918   0.000000
    9       24.369645   0.000000
   10       31.839687   0.000000
 
  0.5000000E+00  0.5000000E+00  0.4000000E+00  0.6000000E-02
    1        1.963581   1.000000
    2        2.459199   1.000000
    3        2.459199   1.000000
    4       11.214287   0.000932
    5       12.742733   0.000000
    6       19.031415   0.000000
    7       21.078260   0.000000
    8       21.078260   0.000000
    9       22.231780   0.000000
   10       32.209275   0.000000
 
  0.5000000E+00  0.5000000E+00  0.5000000E+00  0.1000000E-02
    1        2.131530   1.000000
    2        2.131530   1.000000
    3        2.131530   1.000000
    4       12.766010   0.000000
    5       12.766010   0.000000
    6       18.498506   0.000000
    7       21.740919   0.000000
    8       21.740919   0.000000
    9       21.740919   0.000000
   10       32.171510   0.000000
