<?xml version="1.0" encoding="ISO-8859-1"?>
<modeling>
 <generator>
  <i name="program" type="string">vasp </i>
  <i name="version" type="string">5.4.1  </i>
  <i name="subversion" type="string">05Feb16 (build Mar 02 2016 14:09:44) complex                          parallel </i>
  <i name="platform" type="string">Abel-impi-ifc-cuda </i>
  <i name="date" type="string">2019 09 20 </i>
  <i name="time" type="string">10:33:03 </i>
 </generator>
 <incar>
  <i type="string" name="PREC">normal    ! low/normal/accurate</i>
  <i type="string" name="ALGO"> Fast      ! Algorithm for electronic re</i>
  <i type="int" name="ISPIN">     1</i>
  <i type="int" name="NELMIN">     4</i>
  <i name="EDIFF">      0.00001000</i>
  <i type="int" name="NSW">     0</i>
  <i name="ENCUT">    500.00000000</i>
  <i type="string" name="LREAL"> Auto      ! Projection in reciprocal sp</i>
  <i type="int" name="ISMEAR">    -5</i>
  <i name="SIGMA">      0.20000000</i>
  <i type="logical" name="LWAVE"> F  </i>
  <v type="int" name="KPOINT_BSE">    -1     0     0     0</v>
 </incar>
 <kpoints>
  <generation param="Gamma">
   <v type="int" name="divisions">      10       10       10 </v>
   <v name="usershift">      0.00000000       0.00000000       0.00000000 </v>
   <v name="genvec1">      0.10000000       0.00000000       0.00000000 </v>
   <v name="genvec2">      0.00000000       0.10000000       0.00000000 </v>
   <v name="genvec3">      0.00000000       0.00000000       0.10000000 </v>
   <v name="shift">      0.00000000       0.00000000       0.00000000 </v>
  </generation>
  <varray name="kpointlist" >
   <v>       0.00000000       0.00000000       0.00000000 </v>
   <v>       0.10000000       0.00000000       0.00000000 </v>
   <v>       0.20000000       0.00000000       0.00000000 </v>
   <v>       0.30000000       0.00000000       0.00000000 </v>
   <v>       0.40000000       0.00000000       0.00000000 </v>
   <v>       0.50000000       0.00000000       0.00000000 </v>
   <v>       0.10000000       0.10000000       0.00000000 </v>
   <v>       0.20000000       0.10000000       0.00000000 </v>
   <v>       0.30000000       0.10000000       0.00000000 </v>
   <v>       0.40000000       0.10000000       0.00000000 </v>
   <v>       0.50000000       0.10000000       0.00000000 </v>
   <v>       0.20000000       0.20000000       0.00000000 </v>
   <v>       0.30000000       0.20000000       0.00000000 </v>
   <v>       0.40000000       0.20000000       0.00000000 </v>
   <v>       0.50000000       0.20000000       0.00000000 </v>
   <v>       0.30000000       0.30000000       0.00000000 </v>
   <v>       0.40000000       0.30000000       0.00000000 </v>
   <v>       0.50000000       0.30000000       0.00000000 </v>
   <v>       0.40000000       0.40000000       0.00000000 </v>
   <v>       0.50000000       0.40000000       0.00000000 </v>
   <v>       0.50000000       0.50000000       0.00000000 </v>
   <v>       0.10000000       0.10000000       0.10000000 </v>
   <v>       0.20000000       0.10000000       0.10000000 </v>
   <v>       0.30000000       0.10000000       0.10000000 </v>
   <v>       0.40000000       0.10000000       0.10000000 </v>
   <v>       0.50000000       0.10000000       0.10000000 </v>
   <v>       0.20000000       0.20000000       0.10000000 </v>
   <v>       0.30000000       0.20000000       0.10000000 </v>
   <v>       0.40000000       0.20000000       0.10000000 </v>
   <v>       0.50000000       0.20000000       0.10000000 </v>
   <v>       0.30000000       0.30000000       0.10000000 </v>
   <v>       0.40000000       0.30000000       0.10000000 </v>
   <v>       0.50000000       0.30000000       0.10000000 </v>
   <v>       0.40000000       0.40000000       0.10000000 </v>
   <v>       0.50000000       0.40000000       0.10000000 </v>
   <v>       0.50000000       0.50000000       0.10000000 </v>
   <v>       0.20000000       0.20000000       0.20000000 </v>
   <v>       0.30000000       0.20000000       0.20000000 </v>
   <v>       0.40000000       0.20000000       0.20000000 </v>
   <v>       0.50000000       0.20000000       0.20000000 </v>
   <v>       0.30000000       0.30000000       0.20000000 </v>
   <v>       0.40000000       0.30000000       0.20000000 </v>
   <v>       0.50000000       0.30000000       0.20000000 </v>
   <v>       0.40000000       0.40000000       0.20000000 </v>
   <v>       0.50000000       0.40000000       0.20000000 </v>
   <v>       0.50000000       0.50000000       0.20000000 </v>
   <v>       0.30000000       0.30000000       0.30000000 </v>
   <v>       0.40000000       0.30000000       0.30000000 </v>
   <v>       0.50000000       0.30000000       0.30000000 </v>
   <v>       0.40000000       0.40000000       0.30000000 </v>
   <v>       0.50000000       0.40000000       0.30000000 </v>
   <v>       0.50000000       0.50000000       0.30000000 </v>
   <v>       0.40000000       0.40000000       0.40000000 </v>
   <v>       0.50000000       0.40000000       0.40000000 </v>
   <v>       0.50000000       0.50000000       0.40000000 </v>
   <v>       0.50000000       0.50000000       0.50000000 </v>
  </varray>
  <varray name="weights" >
   <v>       0.00100000 </v>
   <v>       0.00600000 </v>
   <v>       0.00600000 </v>
   <v>       0.00600000 </v>
   <v>       0.00600000 </v>
   <v>       0.00300000 </v>
   <v>       0.01200000 </v>
   <v>       0.02400000 </v>
   <v>       0.02400000 </v>
   <v>       0.02400000 </v>
   <v>       0.01200000 </v>
   <v>       0.01200000 </v>
   <v>       0.02400000 </v>
   <v>       0.02400000 </v>
   <v>       0.01200000 </v>
   <v>       0.01200000 </v>
   <v>       0.02400000 </v>
   <v>       0.01200000 </v>
   <v>       0.01200000 </v>
   <v>       0.01200000 </v>
   <v>       0.00300000 </v>
   <v>       0.00800000 </v>
   <v>       0.02400000 </v>
   <v>       0.02400000 </v>
   <v>       0.02400000 </v>
   <v>       0.01200000 </v>
   <v>       0.02400000 </v>
   <v>       0.04800000 </v>
   <v>       0.04800000 </v>
   <v>       0.02400000 </v>
   <v>       0.02400000 </v>
   <v>       0.04800000 </v>
   <v>       0.02400000 </v>
   <v>       0.02400000 </v>
   <v>       0.02400000 </v>
   <v>       0.00600000 </v>
   <v>       0.00800000 </v>
   <v>       0.02400000 </v>
   <v>       0.02400000 </v>
   <v>       0.01200000 </v>
   <v>       0.02400000 </v>
   <v>       0.04800000 </v>
   <v>       0.02400000 </v>
   <v>       0.02400000 </v>
   <v>       0.02400000 </v>
   <v>       0.00600000 </v>
   <v>       0.00800000 </v>
   <v>       0.02400000 </v>
   <v>       0.01200000 </v>
   <v>       0.02400000 </v>
   <v>       0.02400000 </v>
   <v>       0.00600000 </v>
   <v>       0.00800000 </v>
   <v>       0.01200000 </v>
   <v>       0.00600000 </v>
   <v>       0.00100000 </v>
  </varray>
  <varray name="tetrahedronlist"  type="int" >
   <v type="int" >       12        1        2        2        7 </v>
   <v type="int" >       12        2        2        7        7 </v>
   <v type="int" >       12        2        7        7       22 </v>
   <v type="int" >       12        2        3        7        8 </v>
   <v type="int" >       12        2        7        7        8 </v>
   <v type="int" >       12        7        7        8       22 </v>
   <v type="int" >       12        3        7        8        8 </v>
   <v type="int" >       24        7        8        8       23 </v>
   <v type="int" >       24        7        8       22       23 </v>
   <v type="int" >       12        3        4        8        9 </v>
   <v type="int" >       12        3        8        8        9 </v>
   <v type="int" >       12        8        8        9       23 </v>
   <v type="int" >       12        4        8        9        9 </v>
   <v type="int" >       12        8        9        9       24 </v>
   <v type="int" >       12        8        9       23       24 </v>
   <v type="int" >       12        4        5        9       10 </v>
   <v type="int" >       12        4        9        9       10 </v>
   <v type="int" >       12        9        9       10       24 </v>
   <v type="int" >       12        5        9       10       10 </v>
   <v type="int" >       12        9       10       10       25 </v>
   <v type="int" >       12        9       10       24       25 </v>
   <v type="int" >       12        5        6       10       11 </v>
   <v type="int" >       12        5       10       10       11 </v>
   <v type="int" >       12       10       10       11       25 </v>
   <v type="int" >       12        6       10       11       11 </v>
   <v type="int" >       12       10       11       11       26 </v>
   <v type="int" >       12       10       11       25       26 </v>
   <v type="int" >       12        7        8       12       22 </v>
   <v type="int" >       12        8       12       22       23 </v>
   <v type="int" >       12       12       22       23       27 </v>
   <v type="int" >       12        8        9       13       23 </v>
   <v type="int" >       12        8       12       13       23 </v>
   <v type="int" >       12       12       13       23       27 </v>
   <v type="int" >       12        9       13       23       24 </v>
   <v type="int" >       12       13       23       24       28 </v>
   <v type="int" >       12       13       23       27       28 </v>
   <v type="int" >       12        9       10       14       24 </v>
   <v type="int" >       12        9       13       14       24 </v>
   <v type="int" >       12       13       14       24       28 </v>
   <v type="int" >       12       10       14       24       25 </v>
   <v type="int" >       12       14       24       25       29 </v>
   <v type="int" >       12       14       24       28       29 </v>
   <v type="int" >       12       10       11       15       25 </v>
   <v type="int" >       12       10       14       15       25 </v>
   <v type="int" >       12       14       15       25       29 </v>
   <v type="int" >       12       11       15       25       26 </v>
   <v type="int" >       12       15       25       26       30 </v>
   <v type="int" >       12       15       25       29       30 </v>
   <v type="int" >       12       10       11       14       26 </v>
   <v type="int" >       12       11       14       15       26 </v>
   <v type="int" >       12       14       15       26       30 </v>
   <v type="int" >       12       10       14       25       26 </v>
   <v type="int" >       12       14       25       26       29 </v>
   <v type="int" >       12       14       26       29       30 </v>
   <v type="int" >       12        9       10       13       25 </v>
   <v type="int" >       12       10       13       14       25 </v>
   <v type="int" >       12       13       14       25       29 </v>
   <v type="int" >       12        9       13       24       25 </v>
   <v type="int" >       12       13       24       25       28 </v>
   <v type="int" >       12       13       25       28       29 </v>
   <v type="int" >       12        8        9       12       24 </v>
   <v type="int" >       12        9       12       13       24 </v>
   <v type="int" >       12       12       13       24       28 </v>
   <v type="int" >       12        8       12       23       24 </v>
   <v type="int" >       12       12       23       24       27 </v>
   <v type="int" >       12       12       24       27       28 </v>
   <v type="int" >       12        8        8       12       23 </v>
   <v type="int" >       12        8       12       23       27 </v>
   <v type="int" >       12        8       22       23       23 </v>
   <v type="int" >       12        8       23       23       27 </v>
   <v type="int" >       12        2        3        7       22 </v>
   <v type="int" >       12        3        7        8       22 </v>
   <v type="int" >       12        3        8       22       23 </v>
   <v type="int" >       12       12       13       16       27 </v>
   <v type="int" >       12       13       16       27       28 </v>
   <v type="int" >       12       16       27       28       31 </v>
   <v type="int" >       12       13       14       17       28 </v>
   <v type="int" >       12       13       16       17       28 </v>
   <v type="int" >       12       16       17       28       31 </v>
   <v type="int" >       12       14       17       28       29 </v>
   <v type="int" >       12       17       28       29       32 </v>
   <v type="int" >       12       17       28       31       32 </v>
   <v type="int" >       12       14       15       18       29 </v>
   <v type="int" >       12       14       17       18       29 </v>
   <v type="int" >       12       17       18       29       32 </v>
   <v type="int" >       12       15       18       29       30 </v>
   <v type="int" >       12       18       29       30       33 </v>
   <v type="int" >       12       18       29       32       33 </v>
   <v type="int" >       12       14       15       17       30 </v>
   <v type="int" >       12       15       17       18       30 </v>
   <v type="int" >       12       17       18       30       33 </v>
   <v type="int" >       12       14       17       29       30 </v>
   <v type="int" >       12       17       29       30       32 </v>
   <v type="int" >       12       17       30       32       33 </v>
   <v type="int" >       12       13       14       16       29 </v>
   <v type="int" >       12       14       16       17       29 </v>
   <v type="int" >       12       16       17       29       32 </v>
   <v type="int" >       12       13       16       28       29 </v>
   <v type="int" >       12       16       28       29       31 </v>
   <v type="int" >       12       16       29       31       32 </v>
   <v type="int" >       12       12       13       13       28 </v>
   <v type="int" >       12       13       13       16       28 </v>
   <v type="int" >       12       13       16       28       31 </v>
   <v type="int" >       12       12       13       27       28 </v>
   <v type="int" >       12       13       27       28       28 </v>
   <v type="int" >       12       13       28       28       31 </v>
   <v type="int" >       12        8        9       12       27 </v>
   <v type="int" >       12        9       12       13       27 </v>
   <v type="int" >       12        9       13       27       28 </v>
   <v type="int" >       12        8        9       23       27 </v>
   <v type="int" >       12        9       23       24       27 </v>
   <v type="int" >       12        9       24       27       28 </v>
   <v type="int" >       12        3        4        8       23 </v>
   <v type="int" >       12        4        8        9       23 </v>
   <v type="int" >       12        4        9       23       24 </v>
   <v type="int" >       12       16       17       19       31 </v>
   <v type="int" >       12       17       19       31       32 </v>
   <v type="int" >       12       19       31       32       34 </v>
   <v type="int" >       12       17       18       20       32 </v>
   <v type="int" >       12       17       19       20       32 </v>
   <v type="int" >       12       19       20       32       34 </v>
   <v type="int" >       12       18       20       32       33 </v>
   <v type="int" >       12       20       32       33       35 </v>
   <v type="int" >       12       20       32       34       35 </v>
   <v type="int" >       12       17       18       19       33 </v>
   <v type="int" >       12       18       19       20       33 </v>
   <v type="int" >       12       19       20       33       35 </v>
   <v type="int" >       12       17       19       32       33 </v>
   <v type="int" >       12       19       32       33       34 </v>
   <v type="int" >       12       19       33       34       35 </v>
   <v type="int" >       12       16       17       17       32 </v>
   <v type="int" >       12       17       17       19       32 </v>
   <v type="int" >       12       17       19       32       34 </v>
   <v type="int" >       12       16       17       31       32 </v>
   <v type="int" >       12       17       31       32       32 </v>
   <v type="int" >       12       17       32       32       34 </v>
   <v type="int" >       12       13       14       16       31 </v>
   <v type="int" >       12       14       16       17       31 </v>
   <v type="int" >       12       14       17       31       32 </v>
   <v type="int" >       12       13       14       28       31 </v>
   <v type="int" >       12       14       28       29       31 </v>
   <v type="int" >       12       14       29       31       32 </v>
   <v type="int" >       12        9       10       13       28 </v>
   <v type="int" >       12       10       13       14       28 </v>
   <v type="int" >       12       10       14       28       29 </v>
   <v type="int" >       12        9       10       24       28 </v>
   <v type="int" >       12       10       24       25       28 </v>
   <v type="int" >       12       10       25       28       29 </v>
   <v type="int" >       12        4        5        9       24 </v>
   <v type="int" >       12        5        9       10       24 </v>
   <v type="int" >       12        5       10       24       25 </v>
   <v type="int" >       12       19       20       21       34 </v>
   <v type="int" >       12       20       21       34       35 </v>
   <v type="int" >       12       21       34       35       36 </v>
   <v type="int" >       12       19       20       20       35 </v>
   <v type="int" >       12       20       20       21       35 </v>
   <v type="int" >       12       20       21       35       36 </v>
   <v type="int" >       12       19       20       34       35 </v>
   <v type="int" >       12       20       34       35       35 </v>
   <v type="int" >       12       20       35       35       36 </v>
   <v type="int" >       12       17       18       19       34 </v>
   <v type="int" >       12       18       19       20       34 </v>
   <v type="int" >       12       18       20       34       35 </v>
   <v type="int" >       12       17       18       32       34 </v>
   <v type="int" >       12       18       32       33       34 </v>
   <v type="int" >       12       18       33       34       35 </v>
   <v type="int" >       12       14       15       17       32 </v>
   <v type="int" >       12       15       17       18       32 </v>
   <v type="int" >       12       15       18       32       33 </v>
   <v type="int" >       12       14       15       29       32 </v>
   <v type="int" >       12       15       29       30       32 </v>
   <v type="int" >       12       15       30       32       33 </v>
   <v type="int" >       12       10       11       14       29 </v>
   <v type="int" >       12       11       14       15       29 </v>
   <v type="int" >       12       11       15       29       30 </v>
   <v type="int" >       12       10       11       25       29 </v>
   <v type="int" >       12       11       25       26       29 </v>
   <v type="int" >       12       11       26       29       30 </v>
   <v type="int" >       12        5        6       10       25 </v>
   <v type="int" >       12        6       10       11       25 </v>
   <v type="int" >       12        6       11       25       26 </v>
   <v type="int" >       12       19       20       21       36 </v>
   <v type="int" >       12       19       20       35       36 </v>
   <v type="int" >       12       19       34       35       36 </v>
   <v type="int" >       12       17       18       20       35 </v>
   <v type="int" >       12       17       19       20       35 </v>
   <v type="int" >       12       17       19       34       35 </v>
   <v type="int" >       12       17       18       33       35 </v>
   <v type="int" >       12       17       32       33       35 </v>
   <v type="int" >       12       17       32       34       35 </v>
   <v type="int" >       12       14       15       18       33 </v>
   <v type="int" >       12       14       17       18       33 </v>
   <v type="int" >       12       14       17       32       33 </v>
   <v type="int" >       12       14       15       30       33 </v>
   <v type="int" >       12       14       29       30       33 </v>
   <v type="int" >       12       14       29       32       33 </v>
   <v type="int" >       12       10       11       15       30 </v>
   <v type="int" >       12       10       14       15       30 </v>
   <v type="int" >       12       10       14       29       30 </v>
   <v type="int" >       12       10       11       26       30 </v>
   <v type="int" >       12       10       25       26       30 </v>
   <v type="int" >       12       10       25       29       30 </v>
   <v type="int" >       12        5        6       11       26 </v>
   <v type="int" >       12        5       10       11       26 </v>
   <v type="int" >       12        5       10       25       26 </v>
   <v type="int" >       12       16       17       19       34 </v>
   <v type="int" >       12       16       17       32       34 </v>
   <v type="int" >       12       16       31       32       34 </v>
   <v type="int" >       12       13       14       17       32 </v>
   <v type="int" >       12       13       16       17       32 </v>
   <v type="int" >       12       13       16       31       32 </v>
   <v type="int" >       12       13       14       29       32 </v>
   <v type="int" >       12       13       28       29       32 </v>
   <v type="int" >       12       13       28       31       32 </v>
   <v type="int" >       12        9       10       14       29 </v>
   <v type="int" >       12        9       13       14       29 </v>
   <v type="int" >       12        9       13       28       29 </v>
   <v type="int" >       12        9       10       25       29 </v>
   <v type="int" >       12        9       24       25       29 </v>
   <v type="int" >       12        9       24       28       29 </v>
   <v type="int" >       12        4        5       10       25 </v>
   <v type="int" >       12        4        9       10       25 </v>
   <v type="int" >       12        4        9       24       25 </v>
   <v type="int" >       12       12       13       16       31 </v>
   <v type="int" >       12       12       13       28       31 </v>
   <v type="int" >       12       12       27       28       31 </v>
   <v type="int" >       12        8        9       13       28 </v>
   <v type="int" >       12        8       12       13       28 </v>
   <v type="int" >       12        8       12       27       28 </v>
   <v type="int" >       12        8        9       24       28 </v>
   <v type="int" >       12        8       23       24       28 </v>
   <v type="int" >       12        8       23       27       28 </v>
   <v type="int" >       12        3        4        9       24 </v>
   <v type="int" >       12        3        8        9       24 </v>
   <v type="int" >       12        3        8       23       24 </v>
   <v type="int" >       12        7        8       12       27 </v>
   <v type="int" >       12        7        8       23       27 </v>
   <v type="int" >       12        7       22       23       27 </v>
   <v type="int" >       12        2        3        8       23 </v>
   <v type="int" >       12        2        7        8       23 </v>
   <v type="int" >       12        2        7       22       23 </v>
   <v type="int" >       12        1        2        7       22 </v>
   <v type="int" >       12       22       23       23       27 </v>
   <v type="int" >       12       23       23       27       27 </v>
   <v type="int" >       12       23       27       27       37 </v>
   <v type="int" >       12       23       24       27       28 </v>
   <v type="int" >       12       23       27       27       28 </v>
   <v type="int" >       12       27       27       28       37 </v>
   <v type="int" >       12       24       27       28       28 </v>
   <v type="int" >       24       27       28       28       38 </v>
   <v type="int" >       24       27       28       37       38 </v>
   <v type="int" >       12       24       25       28       29 </v>
   <v type="int" >       12       24       28       28       29 </v>
   <v type="int" >       12       28       28       29       38 </v>
   <v type="int" >       12       25       28       29       29 </v>
   <v type="int" >       12       28       29       29       39 </v>
   <v type="int" >       12       28       29       38       39 </v>
   <v type="int" >       12       25       26       29       30 </v>
   <v type="int" >       12       25       29       29       30 </v>
   <v type="int" >       12       29       29       30       39 </v>
   <v type="int" >       12       26       29       30       30 </v>
   <v type="int" >       12       29       30       30       40 </v>
   <v type="int" >       12       29       30       39       40 </v>
   <v type="int" >       12       27       28       31       37 </v>
   <v type="int" >       12       28       31       37       38 </v>
   <v type="int" >       12       31       37       38       41 </v>
   <v type="int" >       12       28       29       32       38 </v>
   <v type="int" >       12       28       31       32       38 </v>
   <v type="int" >       12       31       32       38       41 </v>
   <v type="int" >       12       29       32       38       39 </v>
   <v type="int" >       12       32       38       39       42 </v>
   <v type="int" >       12       32       38       41       42 </v>
   <v type="int" >       12       29       30       33       39 </v>
   <v type="int" >       12       29       32       33       39 </v>
   <v type="int" >       12       32       33       39       42 </v>
   <v type="int" >       12       30       33       39       40 </v>
   <v type="int" >       12       33       39       40       43 </v>
   <v type="int" >       12       33       39       42       43 </v>
   <v type="int" >       12       29       30       32       40 </v>
   <v type="int" >       12       30       32       33       40 </v>
   <v type="int" >       12       32       33       40       43 </v>
   <v type="int" >       12       29       32       39       40 </v>
   <v type="int" >       12       32       39       40       42 </v>
   <v type="int" >       12       32       40       42       43 </v>
   <v type="int" >       12       28       29       31       39 </v>
   <v type="int" >       12       29       31       32       39 </v>
   <v type="int" >       12       31       32       39       42 </v>
   <v type="int" >       12       28       31       38       39 </v>
   <v type="int" >       12       31       38       39       41 </v>
   <v type="int" >       12       31       39       41       42 </v>
   <v type="int" >       12       28       28       31       38 </v>
   <v type="int" >       12       28       31       38       41 </v>
   <v type="int" >       12       28       37       38       38 </v>
   <v type="int" >       12       28       38       38       41 </v>
   <v type="int" >       12       23       24       27       37 </v>
   <v type="int" >       12       24       27       28       37 </v>
   <v type="int" >       12       24       28       37       38 </v>
   <v type="int" >       12       31       32       34       41 </v>
   <v type="int" >       12       32       34       41       42 </v>
   <v type="int" >       12       34       41       42       44 </v>
   <v type="int" >       12       32       33       35       42 </v>
   <v type="int" >       12       32       34       35       42 </v>
   <v type="int" >       12       34       35       42       44 </v>
   <v type="int" >       12       33       35       42       43 </v>
   <v type="int" >       12       35       42       43       45 </v>
   <v type="int" >       12       35       42       44       45 </v>
   <v type="int" >       12       32       33       34       43 </v>
   <v type="int" >       12       33       34       35       43 </v>
   <v type="int" >       12       34       35       43       45 </v>
   <v type="int" >       12       32       34       42       43 </v>
   <v type="int" >       12       34       42       43       44 </v>
   <v type="int" >       12       34       43       44       45 </v>
   <v type="int" >       12       31       32       32       42 </v>
   <v type="int" >       12       32       32       34       42 </v>
   <v type="int" >       12       32       34       42       44 </v>
   <v type="int" >       12       31       32       41       42 </v>
   <v type="int" >       12       32       41       42       42 </v>
   <v type="int" >       12       32       42       42       44 </v>
   <v type="int" >       12       28       29       31       41 </v>
   <v type="int" >       12       29       31       32       41 </v>
   <v type="int" >       12       29       32       41       42 </v>
   <v type="int" >       12       28       29       38       41 </v>
   <v type="int" >       12       29       38       39       41 </v>
   <v type="int" >       12       29       39       41       42 </v>
   <v type="int" >       12       24       25       28       38 </v>
   <v type="int" >       12       25       28       29       38 </v>
   <v type="int" >       12       25       29       38       39 </v>
   <v type="int" >       12       34       35       36       44 </v>
   <v type="int" >       12       35       36       44       45 </v>
   <v type="int" >       12       36       44       45       46 </v>
   <v type="int" >       12       34       35       35       45 </v>
   <v type="int" >       12       35       35       36       45 </v>
   <v type="int" >       12       35       36       45       46 </v>
   <v type="int" >       12       34       35       44       45 </v>
   <v type="int" >       12       35       44       45       45 </v>
   <v type="int" >       12       35       45       45       46 </v>
   <v type="int" >       12       32       33       34       44 </v>
   <v type="int" >       12       33       34       35       44 </v>
   <v type="int" >       12       33       35       44       45 </v>
   <v type="int" >       12       32       33       42       44 </v>
   <v type="int" >       12       33       42       43       44 </v>
   <v type="int" >       12       33       43       44       45 </v>
   <v type="int" >       12       29       30       32       42 </v>
   <v type="int" >       12       30       32       33       42 </v>
   <v type="int" >       12       30       33       42       43 </v>
   <v type="int" >       12       29       30       39       42 </v>
   <v type="int" >       12       30       39       40       42 </v>
   <v type="int" >       12       30       40       42       43 </v>
   <v type="int" >       12       25       26       29       39 </v>
   <v type="int" >       12       26       29       30       39 </v>
   <v type="int" >       12       26       30       39       40 </v>
   <v type="int" >       12       34       35       36       46 </v>
   <v type="int" >       12       34       35       45       46 </v>
   <v type="int" >       12       34       44       45       46 </v>
   <v type="int" >       12       32       33       35       45 </v>
   <v type="int" >       12       32       34       35       45 </v>
   <v type="int" >       12       32       34       44       45 </v>
   <v type="int" >       12       32       33       43       45 </v>
   <v type="int" >       12       32       42       43       45 </v>
   <v type="int" >       12       32       42       44       45 </v>
   <v type="int" >       12       29       30       33       43 </v>
   <v type="int" >       12       29       32       33       43 </v>
   <v type="int" >       12       29       32       42       43 </v>
   <v type="int" >       12       29       30       40       43 </v>
   <v type="int" >       12       29       39       40       43 </v>
   <v type="int" >       12       29       39       42       43 </v>
   <v type="int" >       12       25       26       30       40 </v>
   <v type="int" >       12       25       29       30       40 </v>
   <v type="int" >       12       25       29       39       40 </v>
   <v type="int" >       12       31       32       34       44 </v>
   <v type="int" >       12       31       32       42       44 </v>
   <v type="int" >       12       31       41       42       44 </v>
   <v type="int" >       12       28       29       32       42 </v>
   <v type="int" >       12       28       31       32       42 </v>
   <v type="int" >       12       28       31       41       42 </v>
   <v type="int" >       12       28       29       39       42 </v>
   <v type="int" >       12       28       38       39       42 </v>
   <v type="int" >       12       28       38       41       42 </v>
   <v type="int" >       12       24       25       29       39 </v>
   <v type="int" >       12       24       28       29       39 </v>
   <v type="int" >       12       24       28       38       39 </v>
   <v type="int" >       12       27       28       31       41 </v>
   <v type="int" >       12       27       28       38       41 </v>
   <v type="int" >       12       27       37       38       41 </v>
   <v type="int" >       12       23       24       28       38 </v>
   <v type="int" >       12       23       27       28       38 </v>
   <v type="int" >       12       23       27       37       38 </v>
   <v type="int" >       12       22       23       27       37 </v>
   <v type="int" >       12       37       38       38       41 </v>
   <v type="int" >       12       38       38       41       41 </v>
   <v type="int" >       12       38       41       41       47 </v>
   <v type="int" >       12       38       39       41       42 </v>
   <v type="int" >       12       38       41       41       42 </v>
   <v type="int" >       12       41       41       42       47 </v>
   <v type="int" >       12       39       41       42       42 </v>
   <v type="int" >       24       41       42       42       48 </v>
   <v type="int" >       24       41       42       47       48 </v>
   <v type="int" >       12       39       40       42       43 </v>
   <v type="int" >       12       39       42       42       43 </v>
   <v type="int" >       12       42       42       43       48 </v>
   <v type="int" >       12       40       42       43       43 </v>
   <v type="int" >       12       42       43       43       49 </v>
   <v type="int" >       12       42       43       48       49 </v>
   <v type="int" >       12       41       42       44       47 </v>
   <v type="int" >       12       42       44       47       48 </v>
   <v type="int" >       12       44       47       48       50 </v>
   <v type="int" >       12       42       43       45       48 </v>
   <v type="int" >       12       42       44       45       48 </v>
   <v type="int" >       12       44       45       48       50 </v>
   <v type="int" >       12       43       45       48       49 </v>
   <v type="int" >       12       45       48       49       51 </v>
   <v type="int" >       12       45       48       50       51 </v>
   <v type="int" >       12       42       43       44       49 </v>
   <v type="int" >       12       43       44       45       49 </v>
   <v type="int" >       12       44       45       49       51 </v>
   <v type="int" >       12       42       44       48       49 </v>
   <v type="int" >       12       44       48       49       50 </v>
   <v type="int" >       12       44       49       50       51 </v>
   <v type="int" >       12       42       42       44       48 </v>
   <v type="int" >       12       42       44       48       50 </v>
   <v type="int" >       12       42       47       48       48 </v>
   <v type="int" >       12       42       48       48       50 </v>
   <v type="int" >       12       38       39       41       47 </v>
   <v type="int" >       12       39       41       42       47 </v>
   <v type="int" >       12       39       42       47       48 </v>
   <v type="int" >       12       44       45       46       50 </v>
   <v type="int" >       12       45       46       50       51 </v>
   <v type="int" >       12       46       50       51       52 </v>
   <v type="int" >       12       44       45       45       51 </v>
   <v type="int" >       12       45       45       46       51 </v>
   <v type="int" >       12       45       46       51       52 </v>
   <v type="int" >       12       44       45       50       51 </v>
   <v type="int" >       12       45       50       51       51 </v>
   <v type="int" >       12       45       51       51       52 </v>
   <v type="int" >       12       42       43       44       50 </v>
   <v type="int" >       12       43       44       45       50 </v>
   <v type="int" >       12       43       45       50       51 </v>
   <v type="int" >       12       42       43       48       50 </v>
   <v type="int" >       12       43       48       49       50 </v>
   <v type="int" >       12       43       49       50       51 </v>
   <v type="int" >       12       39       40       42       48 </v>
   <v type="int" >       12       40       42       43       48 </v>
   <v type="int" >       12       40       43       48       49 </v>
   <v type="int" >       12       44       45       46       52 </v>
   <v type="int" >       12       44       45       51       52 </v>
   <v type="int" >       12       44       50       51       52 </v>
   <v type="int" >       12       42       43       45       51 </v>
   <v type="int" >       12       42       44       45       51 </v>
   <v type="int" >       12       42       44       50       51 </v>
   <v type="int" >       12       42       43       49       51 </v>
   <v type="int" >       12       42       48       49       51 </v>
   <v type="int" >       12       42       48       50       51 </v>
   <v type="int" >       12       39       40       43       49 </v>
   <v type="int" >       12       39       42       43       49 </v>
   <v type="int" >       12       39       42       48       49 </v>
   <v type="int" >       12       41       42       44       50 </v>
   <v type="int" >       12       41       42       48       50 </v>
   <v type="int" >       12       41       47       48       50 </v>
   <v type="int" >       12       38       39       42       48 </v>
   <v type="int" >       12       38       41       42       48 </v>
   <v type="int" >       12       38       41       47       48 </v>
   <v type="int" >       12       37       38       41       47 </v>
   <v type="int" >       12       47       48       48       50 </v>
   <v type="int" >       12       48       48       50       50 </v>
   <v type="int" >       12       48       50       50       53 </v>
   <v type="int" >       12       48       49       50       51 </v>
   <v type="int" >       12       48       50       50       51 </v>
   <v type="int" >       12       50       50       51       53 </v>
   <v type="int" >       12       49       50       51       51 </v>
   <v type="int" >       24       50       51       51       54 </v>
   <v type="int" >       24       50       51       53       54 </v>
   <v type="int" >       12       50       51       52       53 </v>
   <v type="int" >       12       51       52       53       54 </v>
   <v type="int" >       12       52       53       54       55 </v>
   <v type="int" >       12       51       51       52       54 </v>
   <v type="int" >       12       51       52       54       55 </v>
   <v type="int" >       12       51       53       54       54 </v>
   <v type="int" >       12       51       54       54       55 </v>
   <v type="int" >       12       48       49       50       53 </v>
   <v type="int" >       12       49       50       51       53 </v>
   <v type="int" >       12       49       51       53       54 </v>
   <v type="int" >       12       50       51       52       55 </v>
   <v type="int" >       12       50       51       54       55 </v>
   <v type="int" >       12       50       53       54       55 </v>
   <v type="int" >       12       48       49       51       54 </v>
   <v type="int" >       12       48       50       51       54 </v>
   <v type="int" >       12       48       50       53       54 </v>
   <v type="int" >       12       47       48       50       53 </v>
   <v type="int" >       12       53       54       54       55 </v>
   <v type="int" >       12       54       54       55       55 </v>
   <v type="int" >       12       54       55       55       56 </v>
   <v type="int" >       12       53       54       55       56 </v>
  </varray>
  <i name="volumeweight">      0.00016667 </i>
 </kpoints>
 <parameters>
  <separator name="general" >
   <i type="string" name="SYSTEM">unknown system</i>
   <i type="logical" name="LCOMPAT"> F  </i>
  </separator>
  <separator name="electronic" >
   <i type="string" name="PREC">normal</i>
   <i name="ENMAX">    500.00000000</i>
   <i name="ENAUG">    358.96600000</i>
   <i name="EDIFF">      0.00001000</i>
   <i type="int" name="IALGO">    68</i>
   <i type="int" name="IWAVPR">    10</i>
   <i type="int" name="NBANDS">    10</i>
   <i name="NELECT">     10.00000000</i>
   <i type="int" name="TURBO">     0</i>
   <i type="int" name="IRESTART">     0</i>
   <i type="int" name="NREBOOT">     0</i>
   <i type="int" name="NMIN">     0</i>
   <i name="EREF">      0.00000000</i>
   <separator name="electronic smearing" >
    <i type="int" name="ISMEAR">    -5</i>
    <i name="SIGMA">      0.20000000</i>
    <i name="KSPACING">      0.50000000</i>
    <i type="logical" name="KGAMMA"> T  </i>
   </separator>
   <separator name="electronic projectors" >
    <i type="logical" name="LREAL"> T  </i>
    <v name="ROPT">     -0.00050000</v>
    <i type="int" name="LMAXPAW">  -100</i>
    <i type="int" name="LMAXMIX">     2</i>
    <i type="logical" name="NLSPLINE"> F  </i>
   </separator>
   <separator name="electronic startup" >
    <i type="int" name="ISTART">     0</i>
    <i type="int" name="ICHARG">     2</i>
    <i type="int" name="INIWAV">     1</i>
   </separator>
   <separator name="electronic spin" >
    <i type="int" name="ISPIN">     1</i>
    <i type="logical" name="LNONCOLLINEAR"> F  </i>
    <v name="MAGMOM">      1.00000000</v>
    <i name="NUPDOWN">     -1.00000000</i>
    <i type="logical" name="LSORBIT"> F  </i>
    <v name="SAXIS">      0.00000000      0.00000000      1.00000000</v>
    <i type="logical" name="LSPIRAL"> F  </i>
    <v name="QSPIRAL">      0.00000000      0.00000000      0.00000000</v>
    <i type="logical" name="LZEROZ"> F  </i>
   </separator>
   <separator name="electronic exchange-correlation" >
    <i type="logical" name="LASPH"> F  </i>
    <i type="logical" name="LMETAGGA"> F  </i>
   </separator>
   <separator name="electronic convergence" >
    <i type="int" name="NELM">    60</i>
    <i type="int" name="NELMDL">    -5</i>
    <i type="int" name="NELMIN">     4</i>
    <i name="ENINI">    500.00000000</i>
    <separator name="electronic convergence detail" >
     <i type="logical" name="LDIAG"> T  </i>
     <i type="logical" name="LSUBROT"> F  </i>
     <i name="WEIMIN">      0.00000000</i>
     <i name="EBREAK">      0.00000025</i>
     <i name="DEPER">      0.30000000</i>
     <i type="int" name="NRMM">     4</i>
     <i name="TIME">      0.40000000</i>
    </separator>
   </separator>
   <separator name="electronic mixer" >
    <i name="AMIX">      0.40000000</i>
    <i name="BMIX">      1.00000000</i>
    <i name="AMIN">      0.10000000</i>
    <i name="AMIX_MAG">      1.60000000</i>
    <i name="BMIX_MAG">      1.00000000</i>
    <separator name="electronic mixer details" >
     <i type="int" name="IMIX">     4</i>
     <i type="logical" name="MIXFIRST"> F  </i>
     <i type="int" name="MAXMIX">   -45</i>
     <i name="WC">    100.00000000</i>
     <i type="int" name="INIMIX">     1</i>
     <i type="int" name="MIXPRE">     1</i>
     <i type="int" name="MREMOVE">     5</i>
    </separator>
   </separator>
   <separator name="electronic dipolcorrection" >
    <i type="logical" name="LDIPOL"> F  </i>
    <i type="logical" name="LMONO"> F  </i>
    <i type="int" name="IDIPOL">     0</i>
    <i name="EPSILON">      1.00000000</i>
    <v name="DIPOL">   -100.00000000   -100.00000000   -100.00000000</v>
    <i name="EFIELD">      0.00000000</i>
   </separator>
  </separator>
  <separator name="grids" >
   <i type="int" name="NGX">    14</i>
   <i type="int" name="NGY">    14</i>
   <i type="int" name="NGZ">    14</i>
   <i type="int" name="NGXF">    28</i>
   <i type="int" name="NGYF">    28</i>
   <i type="int" name="NGZF">    28</i>
   <i type="logical" name="ADDGRID"> F  </i>
  </separator>
  <separator name="ionic" >
   <i type="int" name="NSW">     0</i>
   <i type="int" name="IBRION">    -1</i>
   <i type="int" name="ISIF">     2</i>
   <i name="PSTRESS">      0.00000000</i>
   <i name="EDIFFG">      0.00010000</i>
   <i type="int" name="NFREE">     0</i>
   <i name="POTIM">      0.50000000</i>
   <i name="SMASS">     -3.00000000</i>
   <i name="SCALEE">      1.00000000</i>
  </separator>
  <separator name="ionic md" >
   <i name="TEBEG">      0.00010000</i>
   <i name="TEEND">      0.00010000</i>
   <i type="int" name="NBLOCK">     1</i>
   <i type="int" name="KBLOCK">     1</i>
   <i type="int" name="NPACO">   256</i>
   <i name="APACO">     16.00000000</i>
  </separator>
  <separator name="symmetry" >
   <i type="int" name="ISYM">     2</i>
   <i name="SYMPREC">      0.00001000</i>
  </separator>
  <separator name="dos" >
   <i type="logical" name="LORBIT"> F  </i>
   <v name="RWIGS">     -1.00000000</v>
   <i type="int" name="NEDOS">   301</i>
   <i name="EMIN">     10.00000000</i>
   <i name="EMAX">    -10.00000000</i>
   <i name="EFERMI">      0.00000000</i>
  </separator>
  <separator name="writing" >
   <i type="int" name="NWRITE">     2</i>
   <i type="logical" name="LWAVE"> F  </i>
   <i type="logical" name="LCHARG"> T  </i>
   <i type="logical" name="LPARD"> F  </i>
   <i type="logical" name="LVTOT"> F  </i>
   <i type="logical" name="LVHAR"> F  </i>
   <i type="logical" name="LELF"> F  </i>
   <i type="logical" name="LOPTICS"> F  </i>
   <v name="STM">      0.00000000      0.00000000      0.00000000      0.00000000      0.00000000      0.00000000      0.00000000</v>
  </separator>
  <separator name="performance" >
   <i type="int" name="NPAR">     2</i>
   <i type="int" name="NSIM">     4</i>
   <i type="int" name="NBLK">    -1</i>
   <i type="logical" name="LPLANE"> T  </i>
   <i type="logical" name="LSCALAPACK"> F  </i>
   <i type="logical" name="LSCAAWARE"> F  </i>
   <i type="logical" name="LSCALU"> F  </i>
   <i type="logical" name="LASYNC"> F  </i>
   <i type="logical" name="LORBITALREAL"> F  </i>
  </separator>
  <separator name="miscellaneous" >
   <i type="int" name="IDIOT">     3</i>
   <i type="logical" name="LMUSIC"> F  </i>
   <v name="POMASS">    195.08000000</v>
   <v name="DARWINR">      0.00000000</v>
   <v name="DARWINV">      1.00000000</v>
   <i type="logical" name="LCORR"> T  </i>
  </separator>
  <i type="logical" name="GGA_COMPAT"> T  </i>
  <i type="logical" name="LBERRY"> F  </i>
  <i type="int" name="ICORELEVEL">     0</i>
  <i type="logical" name="LDAU"> F  </i>
  <i type="int" name="I_CONSTRAINED_M">     0</i>
  <separator name="electronic exchange-correlation" >
   <i type="string" name="GGA">--</i>
   <i type="int" name="VOSKOWN">     0</i>
   <i type="logical" name="LHFCALC"> F  </i>
   <i type="string" name="PRECFOCK"></i>
   <i type="logical" name="LSYMGRAD"> F  </i>
   <i type="logical" name="LHFONE"> F  </i>
   <i type="logical" name="LRHFCALC"> F  </i>
   <i type="logical" name="LTHOMAS"> F  </i>
   <i type="logical" name="LMODELHF"> F  </i>
   <i name="ENCUT4O">     -1.00000000</i>
   <i type="int" name="EXXOEP">     0</i>
   <i type="int" name="FOURORBIT">     0</i>
   <i name="AEXX">      0.00000000</i>
   <i name="HFALPHA">      0.00000000</i>
   <i name="MCALPHA">      0.00000000</i>
   <i name="ALDAX">      1.00000000</i>
   <i name="AGGAX">      1.00000000</i>
   <i name="ALDAC">      1.00000000</i>
   <i name="AGGAC">      1.00000000</i>
   <i type="int" name="NKREDX">     1</i>
   <i type="int" name="NKREDY">     1</i>
   <i type="int" name="NKREDZ">     1</i>
   <i type="logical" name="SHIFTRED"> F  </i>
   <i type="logical" name="ODDONLY"> F  </i>
   <i type="logical" name="EVENONLY"> F  </i>
   <i type="int" name="LMAXFOCK">     0</i>
   <i type="int" name="NMAXFOCKAE">     0</i>
   <i type="logical" name="LFOCKAEDFT"> F  </i>
   <i name="HFSCREEN">      0.00000000</i>
   <i name="HFSCREENC">      0.00000000</i>
   <i type="int" name="NBANDSGWLOW">     0</i>
  </separator>
  <separator name="vdW DFT" >
   <i type="logical" name="LUSE_VDW"> F  </i>
   <i name="Zab_VDW">     -0.84910000</i>
   <i name="PARAM1">      0.12340000</i>
   <i name="PARAM2">      1.00000000</i>
   <i name="PARAM3">      0.00000000</i>
  </separator>
  <separator name="model GW" >
   <i type="int" name="MODEL_GW">     0</i>
   <i name="MODEL_EPS0">      8.29440000</i>
   <i name="MODEL_ALPHA">      1.00000000</i>
  </separator>
  <separator name="linear response parameters" >
   <i type="logical" name="LEPSILON"> F  </i>
   <i type="logical" name="LRPA"> F  </i>
   <i type="logical" name="LNABLA"> F  </i>
   <i type="logical" name="LVEL"> F  </i>
   <i type="int" name="KINTER">     0</i>
   <i name="CSHIFT">      0.10000000</i>
   <i name="OMEGAMAX">     -1.00000000</i>
   <i name="DEG_THRESHOLD">      0.00200000</i>
  </separator>
  <separator name="orbital magnetization" >
   <i type="logical" name="NUCIND"> F  </i>
   <v name="MAGPOS">      0.00000000      0.00000000      0.00000000</v>
   <i type="logical" name="LNICSALL"> T  </i>
   <i type="logical" name="ORBITALMAG"> F  </i>
   <i type="logical" name="LMAGBLOCH"> F  </i>
   <i type="logical" name="LCHIMAG"> F  </i>
   <i type="logical" name="LGAUGE"> T  </i>
   <i type="int" name="MAGATOM">     0</i>
   <v name="MAGDIPOL">      0.00000000      0.00000000      0.00000000</v>
   <v name="AVECCONST">      0.00000000      0.00000000      0.00000000</v>
  </separator>
  <separator name="response functions" >
   <i type="logical" name="LADDER"> F  </i>
   <i type="logical" name="LFXC"> F  </i>
   <i type="logical" name="LHARTREE"> T  </i>
   <i type="int" name="IBSE">     0</i>
   <v type="int" name="KPOINT">    -1     0     0     0</v>
   <i type="logical" name="LTCTE"> F  </i>
   <i type="logical" name="LTETE"> F  </i>
   <i type="logical" name="LTRIPLET"> F  </i>
   <i type="logical" name="LFXCEPS"> F  </i>
   <i type="logical" name="LFXHEG"> F  </i>
   <i type="int" name="NATURALO">     0</i>
   <i type="logical" name="L2ORDER"> F  </i>
   <i type="logical" name="LUSEW"> F  </i>
   <i name="ENCUTGW">     -2.00000000</i>
   <i name="ENCUTGWSOFT">     -2.00000000</i>
   <i name="ENCUTLF">     -1.00000000</i>
   <i type="int" name="LMAXMP2">    -1</i>
   <i name="SCISSOR">      0.00000000</i>
   <i type="int" name="NOMEGA">     0</i>
   <i type="int" name="NOMEGAR">     0</i>
   <i type="int" name="NBANDSGW">    -1</i>
   <i type="int" name="NBANDSO">    -1</i>
   <i type="int" name="NBANDSV">    -1</i>
   <i type="int" name="NELM">     1</i>
   <i type="int" name="NELMHF">     1</i>
   <i type="int" name="DIM">     3</i>
   <i type="int" name="ANTIRES">     0</i>
   <i name="OMEGAMAX">    -30.00000000</i>
   <i name="OMEGAMIN">    -30.00000000</i>
   <i name="OMEGATL">   -200.00000000</i>
   <i type="int" name="OMEGAGRID">     0</i>
   <i name="CSHIFT">     -0.10000000</i>
   <i type="logical" name="SELFENERGY"> F  </i>
   <i type="logical" name="LSPECTRAL"> F  </i>
   <i type="logical" name="LSPECTRALGW"> F  </i>
   <i type="logical" name="LSINGLES"> F  </i>
   <i type="logical" name="LFERMIGW"> F  </i>
   <i type="logical" name="ODDONLYGW"> F  </i>
   <i type="logical" name="EVENONLYGW"> F  </i>
   <i type="int" name="NKREDLFX">     1</i>
   <i type="int" name="NKREDLFY">     1</i>
   <i type="int" name="NKREDLFZ">     1</i>
   <i type="int" name="MAXMEM">  1800</i>
   <i type="int" name="TELESCOPE">     0</i>
   <i type="int" name="TAUPAR">     1</i>
   <i type="int" name="OMEGAPAR">    -1</i>
   <i name="LAMBDA">      1.00000000</i>
  </separator>
  <separator name="External order field" >
   <i name="OFIELD_KAPPA">      0.00000000</i>
   <v name="OFIELD_K">      0.00000000      0.00000000      0.00000000</v>
   <i name="OFIELD_Q6_NEAR">      0.00000000</i>
   <i name="OFIELD_Q6_FAR">      0.00000000</i>
   <i name="OFIELD_A">      0.00000000</i>
  </separator>
 </parameters>
 <atominfo>
  <atoms>       1 </atoms>
  <types>       1 </types>
  <array name="atoms" >
   <dimension dim="1">ion</dimension>
   <field type="string">element</field>
   <field type="int">atomtype</field>
   <set>
    <rc><c>Pt</c><c>   1</c></rc>
   </set>
  </array>
  <array name="atomtypes" >
   <dimension dim="1">type</dimension>
   <field type="int">atomspertype</field>
   <field type="string">element</field>
   <field>mass</field>
   <field>valence</field>
   <field type="string">pseudopotential</field>
   <set>
    <rc><c>   1</c><c>Pt</c><c>    195.08000000</c><c>     10.00000000</c><c> PAW_PBE Pt 05Jan2001                   </c></rc>
   </set>
  </array>
 </atominfo>
 <structure name="initialpos" >
  <crystal>
   <varray name="basis" >
    <v>       2.40000000       0.00000000       0.00000000 </v>
    <v>       0.00000000       2.40000000       0.00000000 </v>
    <v>       0.00000000       0.00000000       2.40000000 </v>
   </varray>
   <i name="volume">     13.82400000 </i>
   <varray name="rec_basis" >
    <v>       0.41666667       0.00000000       0.00000000 </v>
    <v>       0.00000000       0.41666667       0.00000000 </v>
    <v>       0.00000000       0.00000000       0.41666667 </v>
   </varray>
  </crystal>
  <varray name="positions" >
   <v>       0.00000000       0.00000000       0.00000000 </v>
  </varray>
 </structure>
 <calculation>
  <scstep>
   <time name="dav">    0.16    0.16</time>
   <time name="total">    0.18    0.20</time>
   <energy>
    <i name="alphaZ">    105.24832176 </i>
    <i name="ewald">   -851.17666689 </i>
    <i name="hartreedc">    -74.92405184 </i>
    <i name="XCdc">      4.43121339 </i>
    <i name="pawpsdc">    573.24549325 </i>
    <i name="pawaedc">   -544.96212058 </i>
    <i name="eentropy">      0.00000000 </i>
    <i name="bandstr">    126.46156261 </i>
    <i name="atom">    729.11316681 </i>
    <i name="e_fr_energy">     67.43691852 </i>
    <i name="e_wo_entrp">     67.43691852 </i>
    <i name="e_0_energy">     67.43691852 </i>
   </energy>
  </scstep>
  <scstep>
   <time name="dav">    0.15    0.15</time>
   <time name="total">    0.16    0.17</time>
   <energy>
    <i name="e_fr_energy">     -3.66300366 </i>
    <i name="e_wo_entrp">     -3.66300366 </i>
    <i name="e_0_energy">     -3.66300366 </i>
   </energy>
  </scstep>
  <scstep>
   <time name="dav">    0.18    0.18</time>
   <time name="total">    0.19    0.20</time>
   <energy>
    <i name="e_fr_energy">     -4.81615896 </i>
    <i name="e_wo_entrp">     -4.81615896 </i>
    <i name="e_0_energy">     -4.81615896 </i>
   </energy>
  </scstep>
  <scstep>
   <time name="dav">    0.18    0.18</time>
   <time name="total">    0.19    0.20</time>
   <energy>
    <i name="e_fr_energy">     -4.82735087 </i>
    <i name="e_wo_entrp">     -4.82735087 </i>
    <i name="e_0_energy">     -4.82735087 </i>
   </energy>
  </scstep>
  <scstep>
   <time name="dav">    0.19    0.19</time>
   <time name="total">    0.21    0.21</time>
   <energy>
    <i name="e_fr_energy">     -4.82761997 </i>
    <i name="e_wo_entrp">     -4.82761997 </i>
    <i name="e_0_energy">     -4.82761997 </i>
   </energy>
  </scstep>
  <scstep>
   <time name="diag">    0.02    0.02</time>
   <time name="diis">    0.10    0.10</time>
   <time name="orth">    0.00    0.00</time>
   <time name="total">    0.14    0.15</time>
   <energy>
    <i name="e_fr_energy">     -4.59737944 </i>
    <i name="e_wo_entrp">     -4.59737944 </i>
    <i name="e_0_energy">     -4.59737944 </i>
   </energy>
  </scstep>
  <scstep>
   <time name="diag">    0.02    0.02</time>
   <time name="diis">    0.10    0.10</time>
   <time name="orth">    0.00    0.00</time>
   <time name="total">    0.15    0.15</time>
   <energy>
    <i name="e_fr_energy">     -4.54839679 </i>
    <i name="e_wo_entrp">     -4.54839679 </i>
    <i name="e_0_energy">     -4.54839679 </i>
   </energy>
  </scstep>
  <scstep>
   <time name="diag">    0.02    0.02</time>
   <time name="diis">    0.11    0.11</time>
   <time name="orth">    0.00    0.00</time>
   <time name="total">    0.15    0.16</time>
   <energy>
    <i name="e_fr_energy">     -4.54201749 </i>
    <i name="e_wo_entrp">     -4.54201749 </i>
    <i name="e_0_energy">     -4.54201749 </i>
   </energy>
  </scstep>
  <scstep>
   <time name="diag">    0.02    0.02</time>
   <time name="diis">    0.12    0.12</time>
   <time name="orth">    0.00    0.00</time>
   <time name="total">    0.17    0.17</time>
   <energy>
    <i name="e_fr_energy">     -4.54218522 </i>
    <i name="e_wo_entrp">     -4.54218522 </i>
    <i name="e_0_energy">     -4.54218522 </i>
   </energy>
  </scstep>
  <scstep>
   <time name="diag">    0.02    0.02</time>
   <time name="diis">    0.10    0.10</time>
   <time name="orth">    0.00    0.00</time>
   <time name="total">    0.14    0.15</time>
   <energy>
    <i name="e_fr_energy">     -4.54215282 </i>
    <i name="e_wo_entrp">     -4.54215282 </i>
    <i name="e_0_energy">     -4.54215282 </i>
   </energy>
  </scstep>
  <scstep>
   <time name="diag">    0.02    0.02</time>
   <time name="diis">    0.07    0.07</time>
   <time name="orth">    0.00    0.00</time>
   <time name="total">    0.11    0.11</time>
   <energy>
    <i name="alphaZ">    105.24832176 </i>
    <i name="ewald">   -851.17666689 </i>
    <i name="hartreedc">    -66.22129652 </i>
    <i name="XCdc">      4.16469416 </i>
    <i name="pawpsdc">    666.32756700 </i>
    <i name="pawaedc">   -641.97327117 </i>
    <i name="eentropy">      0.00000000 </i>
    <i name="bandstr">     49.97533627 </i>
    <i name="atom">    729.11316681 </i>
    <i name="e_fr_energy">     -4.54214858 </i>
    <i name="e_wo_entrp">     -4.54214858 </i>
    <i name="e_0_energy">     -4.54214858 </i>
   </energy>
  </scstep>
  <structure>
   <crystal>
    <varray name="basis" >
     <v>       2.40000000       0.00000000       0.00000000 </v>
     <v>       0.00000000       2.40000000       0.00000000 </v>
     <v>       0.00000000       0.00000000       2.40000000 </v>
    </varray>
    <i name="volume">     13.82400000 </i>
    <varray name="rec_basis" >
     <v>       0.41666667       0.00000000       0.00000000 </v>
     <v>       0.00000000       0.41666667       0.00000000 </v>
     <v>       0.00000000       0.00000000       0.41666667 </v>
    </varray>
   </crystal>
   <varray name="positions" >
    <v>       0.00000000       0.00000000       0.00000000 </v>
   </varray>
  </structure>
  <varray name="forces" >
   <v>       0.00000000       0.00000000       0.00000000 </v>
  </varray>
  <varray name="stress" >
   <v>    1045.94637414      -0.00000000       0.00000000 </v>
   <v>       0.00000000    1045.94637414      -0.00000000 </v>
   <v>      -0.00000000       0.00000000    1045.94637414 </v>
  </varray>
  <energy>
   <i name="e_fr_energy">     -4.54214858 </i>
   <i name="e_wo_entrp">     -4.54214858 </i>
   <i name="e_0_energy">      0.00000000 </i>
  </energy>
  <time name="totalsc">    2.05    2.11</time>
  <eigenvalues>
   <array>
    <dimension dim="1">band</dimension>
    <dimension dim="2">kpoint</dimension>
    <dimension dim="3">spin</dimension>
    <field>eigene</field>
    <field>occ</field>
    <set>
     <set comment="spin 1">
      <set comment="kpoint 1">
       <r>   -1.7019    1.0000 </r>
       <r>    1.1498    1.0000 </r>
       <r>    1.1498    1.0000 </r>
       <r>   10.0429   -0.2212 </r>
       <r>   10.0429   -0.1143 </r>
       <r>   10.0429   -0.0198 </r>
       <r>   26.5580    0.0000 </r>
       <r>   26.5580    0.0000 </r>
       <r>   26.5580    0.0000 </r>
       <r>   33.4159    0.0000 </r>
      </set>
      <set comment="kpoint 2">
       <r>   -1.3474    1.0000 </r>
       <r>    1.2267    1.0000 </r>
       <r>    1.5398    1.0000 </r>
       <r>    9.6293    0.6521 </r>
       <r>    9.6293    0.3470 </r>
       <r>   10.0753   -0.0506 </r>
       <r>   24.5283    0.0000 </r>
       <r>   27.2374    0.0000 </r>
       <r>   27.2374    0.0000 </r>
       <r>   34.1934    0.0000 </r>
      </set>
      <set comment="kpoint 3">
       <r>   -0.5057    1.0000 </r>
       <r>    1.4335    1.0000 </r>
       <r>    2.7796    1.0000 </r>
       <r>    8.6616    1.0048 </r>
       <r>    8.6616    1.0482 </r>
       <r>   10.1606   -0.0631 </r>
       <r>   21.2549    0.0000 </r>
       <r>   28.9553    0.0000 </r>
       <r>   28.9553    0.0000 </r>
       <r>   31.2217    0.0000 </r>
      </set>
      <set comment="kpoint 4">
       <r>    0.4223    1.0000 </r>
       <r>    1.7013    1.0000 </r>
       <r>    4.7682    1.0000 </r>
       <r>    7.6318    1.0000 </r>
       <r>    7.6318    1.0000 </r>
       <r>   10.2677   -0.0202 </r>
       <r>   18.4136    0.0000 </r>
       <r>   28.8160    0.0000 </r>
       <r>   31.1045    0.0000 </r>
       <r>   31.1045    0.0000 </r>
      </set>
      <set comment="kpoint 5">
       <r>    1.1677    1.0000 </r>
       <r>    1.9289    1.0000 </r>
       <r>    6.7840    1.0000 </r>
       <r>    6.8941    1.0000 </r>
       <r>    6.8941    1.0045 </r>
       <r>   10.3558   -0.0000 </r>
       <r>   16.5181    0.0000 </r>
       <r>   27.2619    0.0000 </r>
       <r>   32.6673    0.0000 </r>
       <r>   33.1111    0.0000 </r>
      </set>
      <set comment="kpoint 6">
       <r>    1.4678    1.0000 </r>
       <r>    2.0188    1.0000 </r>
       <r>    6.6302    1.0000 </r>
       <r>    6.6302    1.0000 </r>
       <r>    7.6672    1.0106 </r>
       <r>   10.3898    0.0000 </r>
       <r>   15.8699    0.0000 </r>
       <r>   26.7242    0.0000 </r>
       <r>   31.6341    0.0000 </r>
       <r>   34.0752    0.0000 </r>
      </set>
      <set comment="kpoint 7">
       <r>   -0.9854    1.0000 </r>
       <r>    1.4682    1.0000 </r>
       <r>    1.7543    1.0000 </r>
       <r>    9.1928    0.9963 </r>
       <r>    9.5962    0.6219 </r>
       <r>    9.7378    0.0623 </r>
       <r>   24.8142    0.0000 </r>
       <r>   25.4992    0.0000 </r>
       <r>   27.9226    0.0000 </r>
       <r>   33.7043    0.0000 </r>
      </set>
      <set comment="kpoint 8">
       <r>   -0.1427    1.0000 </r>
       <r>    1.7471    1.0000 </r>
       <r>    2.8980    1.0000 </r>
       <r>    8.2077    1.0024 </r>
       <r>    8.6989    1.0263 </r>
       <r>    9.7761    0.1455 </r>
       <r>   21.8254    0.0000 </r>
       <r>   26.5961    0.0000 </r>
       <r>   29.6593    0.0000 </r>
       <r>   31.6736    0.0000 </r>
      </set>
      <set comment="kpoint 9">
       <r>    0.7639    1.0000 </r>
       <r>    2.0420    1.0000 </r>
       <r>    4.6574    1.0000 </r>
       <r>    7.4220    1.0000 </r>
       <r>    7.6820    1.0000 </r>
       <r>    9.8931    0.0633 </r>
       <r>   18.9000    0.0000 </r>
       <r>   27.9207    0.0000 </r>
       <r>   29.8675    0.0000 </r>
       <r>   31.8439    0.0000 </r>
      </set>
      <set comment="kpoint 10">
       <r>    1.4857    1.0000 </r>
       <r>    2.3229    1.0000 </r>
       <r>    5.2580    1.0000 </r>
       <r>    6.9508    1.0000 </r>
       <r>    8.2408    1.0058 </r>
       <r>    9.9909   -0.0062 </r>
       <r>   16.7541    0.0000 </r>
       <r>   27.5395    0.0000 </r>
       <r>   30.3037    0.0000 </r>
       <r>   33.9396    0.0000 </r>
      </set>
      <set comment="kpoint 11">
       <r>    1.7678    1.0000 </r>
       <r>    2.4650    1.0000 </r>
       <r>    5.0970    1.0000 </r>
       <r>    6.6887    1.0000 </r>
       <r>    9.1703    0.9964 </r>
       <r>   10.0287   -0.0004 </r>
       <r>   15.8779    0.0000 </r>
       <r>   27.1178    0.0000 </r>
       <r>   31.2290    0.0000 </r>
       <r>   32.0986    0.0000 </r>
      </set>
      <set comment="kpoint 12">
       <r>    0.6177    1.0000 </r>
       <r>    2.5453    1.0000 </r>
       <r>    3.5011    1.0000 </r>
       <r>    7.2734    1.0000 </r>
       <r>    8.6791    1.0008 </r>
       <r>    8.9872    1.0596 </r>
       <r>   23.0610    0.0000 </r>
       <r>   23.2793    0.0000 </r>
       <r>   31.3872    0.0000 </r>
       <r>   31.4391    0.0000 </r>
      </set>
      <set comment="kpoint 13">
       <r>    1.3363    1.0000 </r>
       <r>    3.0061    1.0000 </r>
       <r>    4.6295    1.0000 </r>
       <r>    7.2009    1.0000 </r>
       <r>    7.8124    1.0000 </r>
       <r>    9.0047    0.9859 </r>
       <r>   19.9795    0.0000 </r>
       <r>   24.8380    0.0000 </r>
       <r>   30.1707    0.0000 </r>
       <r>   33.6453    0.0000 </r>
      </set>
      <set comment="kpoint 14">
       <r>    1.8899    1.0000 </r>
       <r>    3.2395    1.0000 </r>
       <r>    4.4508    1.0000 </r>
       <r>    7.1018    1.0000 </r>
       <r>    9.1179    1.0001 </r>
       <r>    9.3581    0.3341 </r>
       <r>   17.3099    0.0000 </r>
       <r>   26.5430    0.0000 </r>
       <r>   29.0408    0.0000 </r>
       <r>   33.0077    0.0000 </r>
      </set>
      <set comment="kpoint 15">
       <r>    2.1174    1.0000 </r>
       <r>    3.3138    1.0000 </r>
       <r>    4.2392    1.0000 </r>
       <r>    6.8451    1.0000 </r>
       <r>    9.1634    1.0007 </r>
       <r>   10.9289   -0.0090 </r>
       <r>   15.8704    0.0000 </r>
       <r>   27.6374    0.0000 </r>
       <r>   28.8732    0.0000 </r>
       <r>   30.6439    0.0000 </r>
      </set>
      <set comment="kpoint 16">
       <r>    1.7965    1.0000 </r>
       <r>    2.8429    1.0000 </r>
       <r>    6.2009    1.0000 </r>
       <r>    7.6944    1.0000 </r>
       <r>    7.8794    1.0069 </r>
       <r>    8.1402    0.9771 </r>
       <r>   20.1492    0.0000 </r>
       <r>   22.9774    0.0000 </r>
       <r>   29.7990    0.0000 </r>
       <r>   35.4736    0.0000 </r>
      </set>
      <set comment="kpoint 17">
       <r>    1.9854    1.0000 </r>
       <r>    2.4515    1.0000 </r>
       <r>    6.9073    1.0000 </r>
       <r>    7.2935    1.0000 </r>
       <r>    8.1658    1.0215 </r>
       <r>   10.2715    0.0496 </r>
       <r>   17.7235    0.0000 </r>
       <r>   24.1974    0.0000 </r>
       <r>   28.3997    0.0000 </r>
       <r>   33.0343    0.0000 </r>
      </set>
      <set comment="kpoint 18">
       <r>    1.8774    1.0000 </r>
       <r>    2.4732    1.0000 </r>
       <r>    7.0309    1.0000 </r>
       <r>    7.0449    1.0000 </r>
       <r>    8.2170    1.0304 </r>
       <r>   12.4715   -0.0014 </r>
       <r>   15.7295    0.0000 </r>
       <r>   25.9551    0.0000 </r>
       <r>   26.6762    0.0000 </r>
       <r>   31.5756    0.0000 </r>
      </set>
      <set comment="kpoint 19">
       <r>    1.2451    1.0000 </r>
       <r>    2.6546    1.0000 </r>
       <r>    7.4182    1.0000 </r>
       <r>    7.5081    1.0000 </r>
       <r>    9.5479    0.5404 </r>
       <r>   11.5071   -0.0155 </r>
       <r>   16.9659    0.0000 </r>
       <r>   23.2647    0.0000 </r>
       <r>   26.6142    0.0000 </r>
       <r>   33.9651    0.0000 </r>
      </set>
      <set comment="kpoint 20">
       <r>    0.9540    1.0000 </r>
       <r>    2.7702    1.0000 </r>
       <r>    7.2122    1.0000 </r>
       <r>    7.5267    1.0000 </r>
       <r>   10.2579    0.1208 </r>
       <r>   13.6402    0.0000 </r>
       <r>   15.1602    0.0000 </r>
       <r>   23.7398    0.0000 </r>
       <r>   25.2870    0.0000 </r>
       <r>   33.1007    0.0000 </r>
      </set>
      <set comment="kpoint 21">
       <r>    0.6363    1.0000 </r>
       <r>    2.8878    1.0000 </r>
       <r>    7.2775    1.0000 </r>
       <r>    7.2775    1.0000 </r>
       <r>   12.5256    0.0000 </r>
       <r>   14.1071    0.0000 </r>
       <r>   14.1071    0.0000 </r>
       <r>   22.8229    0.0000 </r>
       <r>   24.6867    0.0000 </r>
       <r>   33.8721    0.0000 </r>
      </set>
      <set comment="kpoint 22">
       <r>   -0.6091    1.0000 </r>
       <r>    1.8303    1.0000 </r>
       <r>    1.8303    1.0000 </r>
       <r>    9.1256    1.0032 </r>
       <r>    9.2921    0.9486 </r>
       <r>    9.2921    0.6920 </r>
       <r>   25.0317    0.0000 </r>
       <r>   26.1599    0.0000 </r>
       <r>   26.1599    0.0000 </r>
       <r>   35.2613    0.0000 </r>
      </set>
      <set comment="kpoint 23">
       <r>    0.2540    1.0000 </r>
       <r>    2.0368    1.0000 </r>
       <r>    3.0021    1.0000 </r>
       <r>    8.2552    1.0016 </r>
       <r>    8.2582    1.0147 </r>
       <r>    9.3594    0.7473 </r>
       <r>   22.3877    0.0000 </r>
       <r>   26.7546    0.0000 </r>
       <r>   27.6568    0.0000 </r>
       <r>   33.0479    0.0000 </r>
      </set>
      <set comment="kpoint 24">
       <r>    1.1740    1.0000 </r>
       <r>    2.3104    1.0000 </r>
       <r>    4.5942    1.0000 </r>
       <r>    7.1518    1.0000 </r>
       <r>    7.7550    1.0000 </r>
       <r>    9.4925    0.5058 </r>
       <r>   19.4131    0.0000 </r>
       <r>   28.1904    0.0000 </r>
       <r>   28.4954    0.0000 </r>
       <r>   32.2152    0.0000 </r>
      </set>
      <set comment="kpoint 25">
       <r>    1.9588    1.0000 </r>
       <r>    2.5527    1.0000 </r>
       <r>    4.9134    1.0000 </r>
       <r>    6.3519    1.0000 </r>
       <r>    9.0573    1.0000 </r>
       <r>    9.6071    0.1221 </r>
       <r>   17.0435    0.0000 </r>
       <r>   27.8896    0.0000 </r>
       <r>   29.5955    0.0000 </r>
       <r>   33.3564    0.0000 </r>
      </set>
      <set comment="kpoint 26">
       <r>    2.3200    1.0000 </r>
       <r>    2.6524    1.0000 </r>
       <r>    4.7012    1.0000 </r>
       <r>    6.0609    1.0000 </r>
       <r>    9.6405    0.9391 </r>
       <r>   10.2492   -0.0058 </r>
       <r>   15.9203    0.0000 </r>
       <r>   27.5218    0.0000 </r>
       <r>   30.6318    0.0000 </r>
       <r>   32.1277    0.0000 </r>
      </set>
      <set comment="kpoint 27">
       <r>    1.0763    1.0000 </r>
       <r>    2.7885    1.0000 </r>
       <r>    3.5649    1.0000 </r>
       <r>    7.3290    1.0000 </r>
       <r>    8.3250    1.0005 </r>
       <r>    8.4828    1.0649 </r>
       <r>   23.6434    0.0000 </r>
       <r>   23.8053    0.0000 </r>
       <r>   28.5981    0.0000 </r>
       <r>   33.5912    0.0000 </r>
      </set>
      <set comment="kpoint 28">
       <r>    1.8291    1.0000 </r>
       <r>    3.1782    1.0000 </r>
       <r>    4.6538    1.0000 </r>
       <r>    6.7776    1.0000 </r>
       <r>    7.9435    1.0000 </r>
       <r>    8.5945    1.0146 </r>
       <r>   20.5713    0.0000 </r>
       <r>   25.2601    0.0000 </r>
       <r>   29.4650    0.0000 </r>
       <r>   33.1075    0.0000 </r>
      </set>
      <set comment="kpoint 29">
       <r>    2.4455    1.0000 </r>
       <r>    3.3424    1.0000 </r>
       <r>    4.4987    1.0000 </r>
       <r>    6.2206    1.0000 </r>
       <r>    8.6764    1.0016 </r>
       <r>   10.1059    0.0504 </r>
       <r>   17.7320    0.0000 </r>
       <r>   26.8503    0.0000 </r>
       <r>   29.2172    0.0000 </r>
       <r>   32.0617    0.0000 </r>
      </set>
      <set comment="kpoint 30">
       <r>    2.7524    1.0000 </r>
       <r>    3.3331    1.0000 </r>
       <r>    4.3078    1.0000 </r>
       <r>    5.9495    1.0000 </r>
       <r>    8.7420    1.0033 </r>
       <r>   11.9247   -0.0021 </r>
       <r>   16.0003    0.0000 </r>
       <r>   27.9232    0.0000 </r>
       <r>   29.5690    0.0000 </r>
       <r>   29.7726    0.0000 </r>
      </set>
      <set comment="kpoint 31">
       <r>    2.2254    1.0000 </r>
       <r>    3.0907    1.0000 </r>
       <r>    6.0843    1.0000 </r>
       <r>    6.7603    1.0000 </r>
       <r>    7.7548    1.0085 </r>
       <r>    8.6324    0.7759 </r>
       <r>   20.9573    0.0000 </r>
       <r>   23.1942    0.0000 </r>
       <r>   30.0682    0.0000 </r>
       <r>   32.3051    0.0000 </r>
      </set>
      <set comment="kpoint 32">
       <r>    2.1387    1.0000 </r>
       <r>    3.0067    1.0000 </r>
       <r>    6.3985    1.0000 </r>
       <r>    6.5933    1.0000 </r>
       <r>    8.0418    1.0201 </r>
       <r>   10.9958   -0.0340 </r>
       <r>   18.3473    0.0000 </r>
       <r>   24.4044    0.0000 </r>
       <r>   28.7264    0.0000 </r>
       <r>   31.4770    0.0000 </r>
      </set>
      <set comment="kpoint 33">
       <r>    1.9754    1.0000 </r>
       <r>    3.1028    1.0000 </r>
       <r>    6.1502    1.0000 </r>
       <r>    6.6780    1.0000 </r>
       <r>    8.1588    1.0175 </r>
       <r>   13.4628   -0.0007 </r>
       <r>   16.0054    0.0000 </r>
       <r>   26.3379    0.0000 </r>
       <r>   26.5738    0.0000 </r>
       <r>   30.9606    0.0000 </r>
      </set>
      <set comment="kpoint 34">
       <r>    1.3605    1.0000 </r>
       <r>    3.2825    1.0000 </r>
       <r>    6.5587    1.0000 </r>
       <r>    6.6339    1.0000 </r>
       <r>    9.8786    0.4074 </r>
       <r>   12.3129   -0.0168 </r>
       <r>   17.7559    0.0000 </r>
       <r>   23.2973    0.0000 </r>
       <r>   26.4695    0.0000 </r>
       <r>   32.4625    0.0000 </r>
      </set>
      <set comment="kpoint 35">
       <r>    1.0724    1.0000 </r>
       <r>    3.4132    1.0000 </r>
       <r>    6.3531    1.0000 </r>
       <r>    6.6756    1.0000 </r>
       <r>   10.6049    0.0506 </r>
       <r>   14.6475    0.0000 </r>
       <r>   15.7144    0.0000 </r>
       <r>   24.0207    0.0000 </r>
       <r>   24.7018    0.0000 </r>
       <r>   32.5425    0.0000 </r>
      </set>
      <set comment="kpoint 36">
       <r>    0.7590    1.0000 </r>
       <r>    3.5434    1.0000 </r>
       <r>    6.4355    1.0000 </r>
       <r>    6.4355    1.0000 </r>
       <r>   12.5482    0.0000 </r>
       <r>   15.1305    0.0000 </r>
       <r>   15.1305    0.0000 </r>
       <r>   22.8426    0.0000 </r>
       <r>   24.0289    0.0000 </r>
       <r>   33.8818    0.0000 </r>
      </set>
      <set comment="kpoint 37">
       <r>    1.9807    1.0000 </r>
       <r>    3.7398    1.0000 </r>
       <r>    3.7398    1.0000 </r>
       <r>    7.3357    1.0000 </r>
       <r>    7.3357    1.0000 </r>
       <r>    7.8248    1.0118 </r>
       <r>   24.2617    0.0000 </r>
       <r>   25.5780    0.0000 </r>
       <r>   25.5780    0.0000 </r>
       <r>   36.0129    0.0000 </r>
      </set>
      <set comment="kpoint 38">
       <r>    2.6155    1.0000 </r>
       <r>    3.9831    1.0000 </r>
       <r>    4.7700    1.0000 </r>
       <r>    6.1329    1.0000 </r>
       <r>    7.4490    1.0000 </r>
       <r>    8.4906    0.8982 </r>
       <r>   21.8856    0.0000 </r>
       <r>   25.6915    0.0000 </r>
       <r>   27.5158    0.0000 </r>
       <r>   34.9351    0.0000 </r>
      </set>
      <set comment="kpoint 39">
       <r>    2.9964    1.0000 </r>
       <r>    4.2530    1.0000 </r>
       <r>    4.6373    1.0000 </r>
       <r>    5.2179    1.0000 </r>
       <r>    7.7817    1.0009 </r>
       <r>   11.1514   -0.0499 </r>
       <r>   18.7230    0.0000 </r>
       <r>   26.6401    0.0000 </r>
       <r>   28.8570    0.0000 </r>
       <r>   32.1199    0.0000 </r>
      </set>
      <set comment="kpoint 40">
       <r>    3.1241    1.0000 </r>
       <r>    4.4887    1.0000 </r>
       <r>    4.4896    1.0000 </r>
       <r>    4.7597    1.0000 </r>
       <r>    7.8767    1.0013 </r>
       <r>   13.6757    0.0000 </r>
       <r>   16.2852    0.0000 </r>
       <r>   27.2435    0.0000 </r>
       <r>   29.2671    0.0000 </r>
       <r>   30.7022    0.0000 </r>
      </set>
      <set comment="kpoint 41">
       <r>    2.7066    1.0000 </r>
       <r>    4.2417    1.0000 </r>
       <r>    5.4743    1.0000 </r>
       <r>    5.9379    1.0000 </r>
       <r>    7.2787    1.0154 </r>
       <r>    9.4177    0.3917 </r>
       <r>   22.9053    0.0000 </r>
       <r>   23.4915    0.0000 </r>
       <r>   28.2477    0.0000 </r>
       <r>   32.0511    0.0000 </r>
      </set>
      <set comment="kpoint 42">
       <r>    2.3931    1.0000 </r>
       <r>    4.3535    1.0000 </r>
       <r>    5.1045    1.0000 </r>
       <r>    5.8386    1.0000 </r>
       <r>    8.0680    1.0079 </r>
       <r>   12.1375   -0.0370 </r>
       <r>   19.7576    0.0000 </r>
       <r>   24.4229    0.0000 </r>
       <r>   28.9140    0.0000 </r>
       <r>   30.2659    0.0000 </r>
      </set>
      <set comment="kpoint 43">
       <r>    2.2198    1.0000 </r>
       <r>    4.5680    1.0000 </r>
       <r>    4.7092    1.0000 </r>
       <r>    5.8820    1.0000 </r>
       <r>    8.2709    0.9760 </r>
       <r>   15.3364    0.0000 </r>
       <r>   16.6022    0.0000 </r>
       <r>   25.0069    0.0000 </r>
       <r>   28.1737    0.0000 </r>
       <r>   30.4868    0.0000 </r>
      </set>
      <set comment="kpoint 44">
       <r>    1.6721    1.0000 </r>
       <r>    4.5514    1.0000 </r>
       <r>    5.0891    1.0000 </r>
       <r>    5.5809    1.0000 </r>
       <r>   10.2505    0.2457 </r>
       <r>   13.7275   -0.0054 </r>
       <r>   19.6197    0.0000 </r>
       <r>   22.7894    0.0000 </r>
       <r>   26.3368    0.0000 </r>
       <r>   31.1913    0.0000 </r>
      </set>
      <set comment="kpoint 45">
       <r>    1.3968    1.0000 </r>
       <r>    4.7484    1.0000 </r>
       <r>    4.8438    1.0000 </r>
       <r>    5.5615    1.0000 </r>
       <r>   11.0195   -0.0084 </r>
       <r>   16.6538    0.0000 </r>
       <r>   16.9419    0.0000 </r>
       <r>   23.1524    0.0000 </r>
       <r>   24.7570    0.0000 </r>
       <r>   31.8484    0.0000 </r>
      </set>
      <set comment="kpoint 46">
       <r>    1.0968    1.0000 </r>
       <r>    4.8423    1.0000 </r>
       <r>    4.8423    1.0000 </r>
       <r>    5.4169    1.0000 </r>
       <r>   12.6077    0.0000 </r>
       <r>   17.2327    0.0000 </r>
       <r>   17.2327    0.0000 </r>
       <r>   22.3687    0.0000 </r>
       <r>   22.8585    0.0000 </r>
       <r>   32.8246    0.0000 </r>
      </set>
      <set comment="kpoint 47">
       <r>    2.7632    1.0000 </r>
       <r>    4.4737    1.0000 </r>
       <r>    4.4737    1.0000 </r>
       <r>    7.2209    1.0024 </r>
       <r>    7.2209    1.0570 </r>
       <r>   10.6218   -0.0062 </r>
       <r>   23.2495    0.0000 </r>
       <r>   25.2517    0.0000 </r>
       <r>   25.2517    0.0000 </r>
       <r>   32.6342    0.0000 </r>
      </set>
      <set comment="kpoint 48">
       <r>    2.4918    1.0000 </r>
       <r>    3.6946    1.0000 </r>
       <r>    4.3913    1.0000 </r>
       <r>    7.2895    1.0090 </r>
       <r>    8.6123    0.8728 </r>
       <r>   13.3150   -0.0116 </r>
       <r>   21.0957    0.0000 </r>
       <r>   23.4535    0.0000 </r>
       <r>   27.5539    0.0000 </r>
       <r>   31.3703    0.0000 </r>
      </set>
      <set comment="kpoint 49">
       <r>    2.3282    1.0000 </r>
       <r>    3.4124    1.0000 </r>
       <r>    4.4242    1.0000 </r>
       <r>    7.3259    1.0140 </r>
       <r>    8.9727    0.6838 </r>
       <r>   17.1429    0.0000 </r>
       <r>   17.2931    0.0000 </r>
       <r>   23.0792    0.0000 </r>
       <r>   29.1392    0.0000 </r>
       <r>   30.8792    0.0000 </r>
      </set>
      <set comment="kpoint 50">
       <r>    2.0724    1.0000 </r>
       <r>    3.4977    1.0000 </r>
       <r>    3.7035    1.0000 </r>
       <r>    7.9771    0.9995 </r>
       <r>   10.4938    0.0876 </r>
       <r>   15.1567   -0.0000 </r>
       <r>   21.4353    0.0000 </r>
       <r>   21.7631    0.0000 </r>
       <r>   25.8743    0.0000 </r>
       <r>   31.1575    0.0000 </r>
      </set>
      <set comment="kpoint 51">
       <r>    1.8275    1.0000 </r>
       <r>    3.3172    1.0000 </r>
       <r>    3.6788    1.0000 </r>
       <r>    8.0808    0.9888 </r>
       <r>   11.3121   -0.0345 </r>
       <r>   18.2359    0.0000 </r>
       <r>   18.5841    0.0000 </r>
       <r>   21.3895    0.0000 </r>
       <r>   25.3862    0.0000 </r>
       <r>   31.7219    0.0000 </r>
      </set>
      <set comment="kpoint 52">
       <r>    1.5539    1.0000 </r>
       <r>    3.4057    1.0000 </r>
       <r>    3.4057    1.0000 </r>
       <r>    8.2044    0.9557 </r>
       <r>   12.6820    0.0000 </r>
       <r>   19.3998    0.0000 </r>
       <r>   19.3998    0.0000 </r>
       <r>   20.4691    0.0000 </r>
       <r>   22.7275    0.0000 </r>
       <r>   32.3548    0.0000 </r>
      </set>
      <set comment="kpoint 53">
       <r>    2.2714    1.0000 </r>
       <r>    2.7854    1.0000 </r>
       <r>    2.7854    1.0000 </r>
       <r>   10.6418    0.2972 </r>
       <r>   10.6418   -0.0025 </r>
       <r>   16.9252    0.0000 </r>
       <r>   20.1754    0.0000 </r>
       <r>   23.5832    0.0000 </r>
       <r>   23.5832    0.0000 </r>
       <r>   31.9127    0.0000 </r>
      </set>
      <set comment="kpoint 54">
       <r>    2.1234    1.0000 </r>
       <r>    2.4667    1.0000 </r>
       <r>    2.7747    1.0000 </r>
       <r>   10.6930    0.1611 </r>
       <r>   11.7773   -0.0165 </r>
       <r>   19.3288    0.0000 </r>
       <r>   19.5489    0.0000 </r>
       <r>   20.7339    0.0000 </r>
       <r>   24.3696    0.0000 </r>
       <r>   31.8397    0.0000 </r>
      </set>
      <set comment="kpoint 55">
       <r>    1.9636    1.0000 </r>
       <r>    2.4592    1.0000 </r>
       <r>    2.4592    1.0000 </r>
       <r>   11.2143    0.0009 </r>
       <r>   12.7427    0.0000 </r>
       <r>   19.0314    0.0000 </r>
       <r>   21.0783    0.0000 </r>
       <r>   21.0783    0.0000 </r>
       <r>   22.2318    0.0000 </r>
       <r>   32.2093    0.0000 </r>
      </set>
      <set comment="kpoint 56">
       <r>    2.1315    1.0000 </r>
       <r>    2.1315    1.0000 </r>
       <r>    2.1315    1.0000 </r>
       <r>   12.7660    0.0000 </r>
       <r>   12.7660    0.0000 </r>
       <r>   18.4985    0.0000 </r>
       <r>   21.7409    0.0000 </r>
       <r>   21.7409    0.0000 </r>
       <r>   21.7409    0.0000 </r>
       <r>   32.1715    0.0000 </r>
      </set>
     </set>
    </set>
   </array>
  </eigenvalues>
  <separator name="orbital magnetization" >
   <v name="MAGDIPOLOUT">      0.00000000      0.00000000      0.00000000</v>
  </separator>
  <dos>
   <i name="efermi">      9.49476166 </i>
   <total>
    <array>
     <dimension dim="1">gridpoints</dimension>
     <dimension dim="2">spin</dimension>
     <field>energy</field>
     <field>total</field>
     <field>integrated</field>
     <set>
      <set comment="spin 1">
       <r>    -3.7019     0.0000     0.0000 </r>
       <r>    -3.5629     0.0000     0.0000 </r>
       <r>    -3.4238     0.0000     0.0000 </r>
       <r>    -3.2848     0.0000     0.0000 </r>
       <r>    -3.1457     0.0000     0.0000 </r>
       <r>    -3.0067     0.0000     0.0000 </r>
       <r>    -2.8676     0.0000     0.0000 </r>
       <r>    -2.7286     0.0000     0.0000 </r>
       <r>    -2.5895     0.0000     0.0000 </r>
       <r>    -2.4505     0.0000     0.0000 </r>
       <r>    -2.3114     0.0000     0.0000 </r>
       <r>    -2.1724     0.0000     0.0000 </r>
       <r>    -2.0333     0.0000     0.0000 </r>
       <r>    -1.8943     0.0000     0.0000 </r>
       <r>    -1.7552     0.0000     0.0000 </r>
       <r>    -1.6162     0.0013     0.0000 </r>
       <r>    -1.4771     0.0089     0.0007 </r>
       <r>    -1.3381     0.0233     0.0028 </r>
       <r>    -1.1990     0.0375     0.0071 </r>
       <r>    -1.0600     0.0469     0.0130 </r>
       <r>    -0.9209     0.0525     0.0200 </r>
       <r>    -0.7819     0.0591     0.0277 </r>
       <r>    -0.6428     0.0673     0.0365 </r>
       <r>    -0.5038     0.0767     0.0465 </r>
       <r>    -0.3647     0.0862     0.0578 </r>
       <r>    -0.2257     0.0957     0.0704 </r>
       <r>    -0.0866     0.1056     0.0844 </r>
       <r>     0.0524     0.1169     0.0999 </r>
       <r>     0.1915     0.1289     0.1170 </r>
       <r>     0.3305     0.1416     0.1358 </r>
       <r>     0.4696     0.1545     0.1563 </r>
       <r>     0.6086     0.1695     0.1788 </r>
       <r>     0.7477     0.2140     0.2046 </r>
       <r>     0.8867     0.3191     0.2413 </r>
       <r>     1.0258     0.4451     0.2946 </r>
       <r>     1.1648     0.5238     0.3623 </r>
       <r>     1.3039     0.6554     0.4446 </r>
       <r>     1.4429     0.8324     0.5471 </r>
       <r>     1.5820     1.0548     0.6777 </r>
       <r>     1.7210     1.2916     0.8411 </r>
       <r>     1.8600     1.5027     1.0334 </r>
       <r>     1.9991     2.0528     1.2826 </r>
       <r>     2.1381     1.9445     1.5708 </r>
       <r>     2.2772     1.7484     1.8219 </r>
       <r>     2.4162     1.5960     2.0554 </r>
       <r>     2.5553     1.5675     2.2782 </r>
       <r>     2.6943     1.5845     2.4982 </r>
       <r>     2.8334     1.4395     2.7019 </r>
       <r>     2.9724     1.5301     2.9064 </r>
       <r>     3.1115     1.5464     3.1251 </r>
       <r>     3.2505     1.3359     3.3252 </r>
       <r>     3.3896     0.9320     3.4757 </r>
       <r>     3.5286     0.8942     3.6017 </r>
       <r>     3.6677     0.8763     3.7252 </r>
       <r>     3.8067     0.8995     3.8480 </r>
       <r>     3.9458     0.9563     3.9767 </r>
       <r>     4.0848     1.0258     4.1147 </r>
       <r>     4.2239     1.0734     4.2609 </r>
       <r>     4.3629     1.1123     4.4157 </r>
       <r>     4.5020     1.3568     4.5804 </r>
       <r>     4.6410     1.8019     4.8130 </r>
       <r>     4.7801     1.2289     5.0175 </r>
       <r>     4.9191     0.9242     5.1640 </r>
       <r>     5.0582     0.7651     5.2809 </r>
       <r>     5.1972     0.6292     5.3774 </r>
       <r>     5.3363     0.5658     5.4592 </r>
       <r>     5.4753     0.5509     5.5363 </r>
       <r>     5.6144     0.6552     5.6192 </r>
       <r>     5.7534     0.7900     5.7191 </r>
       <r>     5.8925     0.9445     5.8403 </r>
       <r>     6.0315     1.0727     5.9815 </r>
       <r>     6.1706     1.1003     6.1325 </r>
       <r>     6.3096     1.1631     6.2901 </r>
       <r>     6.4487     1.2543     6.4577 </r>
       <r>     6.5877     1.3131     6.6368 </r>
       <r>     6.7268     1.4274     6.8286 </r>
       <r>     6.8658     1.3786     7.0242 </r>
       <r>     7.0049     1.2757     7.2090 </r>
       <r>     7.1439     1.1291     7.3768 </r>
       <r>     7.2830     0.9708     7.5188 </r>
       <r>     7.4220     0.7375     7.6388 </r>
       <r>     7.5611     0.6233     7.7301 </r>
       <r>     7.7001     0.7617     7.8227 </r>
       <r>     7.8392     1.3362     7.9573 </r>
       <r>     7.9782     1.6146     8.1727 </r>
       <r>     8.1173     1.4892     8.3887 </r>
       <r>     8.2563     1.4489     8.5956 </r>
       <r>     8.3954     1.3390     8.7933 </r>
       <r>     8.5344     1.4053     8.9789 </r>
       <r>     8.6735     1.2654     9.1659 </r>
       <r>     8.8125     1.1836     9.3355 </r>
       <r>     8.9516     1.1090     9.4950 </r>
       <r>     9.0906     1.0030     9.6414 </r>
       <r>     9.2297     0.8998     9.7724 </r>
       <r>     9.3687     0.8517     9.8930 </r>
       <r>     9.5078     0.8630    10.0112 </r>
       <r>     9.6468     0.8875    10.1375 </r>
       <r>     9.7859     0.9117    10.2637 </r>
       <r>     9.9249     0.9138    10.3911 </r>
       <r>    10.0640     0.8089    10.5143 </r>
       <r>    10.2030     0.5848    10.6083 </r>
       <r>    10.3421     0.4530    10.6802 </r>
       <r>    10.4811     0.4145    10.7393 </r>
       <r>    10.6202     0.4087    10.7966 </r>
       <r>    10.7592     0.4127    10.8540 </r>
       <r>    10.8983     0.3979    10.9103 </r>
       <r>    11.0373     0.3809    10.9645 </r>
       <r>    11.1764     0.3598    11.0160 </r>
       <r>    11.3154     0.3424    11.0648 </r>
       <r>    11.4545     0.3230    11.1110 </r>
       <r>    11.5935     0.3052    11.1547 </r>
       <r>    11.7326     0.2893    11.1960 </r>
       <r>    11.8716     0.2744    11.2352 </r>
       <r>    12.0107     0.2592    11.2723 </r>
       <r>    12.1497     0.2439    11.3073 </r>
       <r>    12.2888     0.2281    11.3401 </r>
       <r>    12.4278     0.2119    11.3707 </r>
       <r>    12.5669     0.1955    11.3990 </r>
       <r>    12.7059     0.1838    11.4253 </r>
       <r>    12.8450     0.1676    11.4494 </r>
       <r>    12.9840     0.1643    11.4725 </r>
       <r>    13.1231     0.1607    11.4951 </r>
       <r>    13.2621     0.1568    11.5171 </r>
       <r>    13.4012     0.1527    11.5387 </r>
       <r>    13.5402     0.1484    11.5596 </r>
       <r>    13.6793     0.1455    11.5800 </r>
       <r>    13.8183     0.1449    11.6002 </r>
       <r>    13.9574     0.1418    11.6201 </r>
       <r>    14.0964     0.1361    11.6395 </r>
       <r>    14.2355     0.1296    11.6579 </r>
       <r>    14.3745     0.1242    11.6756 </r>
       <r>    14.5136     0.1201    11.6925 </r>
       <r>    14.6526     0.1172    11.7090 </r>
       <r>    14.7916     0.1134    11.7250 </r>
       <r>    14.9307     0.1121    11.7407 </r>
       <r>    15.0697     0.1131    11.7563 </r>
       <r>    15.2088     0.1180    11.7723 </r>
       <r>    15.3478     0.1249    11.7892 </r>
       <r>    15.4869     0.1319    11.8070 </r>
       <r>    15.6259     0.1388    11.8259 </r>
       <r>    15.7650     0.1499    11.8457 </r>
       <r>    15.9040     0.2685    11.8703 </r>
       <r>    16.0431     0.3738    11.9173 </r>
       <r>    16.1821     0.4001    11.9712 </r>
       <r>    16.3212     0.4157    12.0280 </r>
       <r>    16.4602     0.4261    12.0866 </r>
       <r>    16.5993     0.4318    12.1464 </r>
       <r>    16.7383     0.4251    12.2060 </r>
       <r>    16.8774     0.4146    12.2644 </r>
       <r>    17.0164     0.4054    12.3214 </r>
       <r>    17.1555     0.3969    12.3772 </r>
       <r>    17.2945     0.3878    12.4317 </r>
       <r>    17.4336     0.3790    12.4850 </r>
       <r>    17.5726     0.3716    12.5372 </r>
       <r>    17.7117     0.3654    12.5884 </r>
       <r>    17.8507     0.3579    12.6387 </r>
       <r>    17.9898     0.3506    12.6880 </r>
       <r>    18.1288     0.3435    12.7362 </r>
       <r>    18.2679     0.3367    12.7835 </r>
       <r>    18.4069     0.3324    12.8300 </r>
       <r>    18.5460     0.3306    12.8761 </r>
       <r>    18.6850     0.3317    12.9221 </r>
       <r>    18.8241     0.3347    12.9684 </r>
       <r>    18.9631     0.3389    13.0152 </r>
       <r>    19.1022     0.3475    13.0629 </r>
       <r>    19.2412     0.3266    13.1102 </r>
       <r>    19.3803     0.2876    13.1523 </r>
       <r>    19.5193     0.2869    13.1922 </r>
       <r>    19.6584     0.2834    13.2319 </r>
       <r>    19.7974     0.2788    13.2710 </r>
       <r>    19.9365     0.2732    13.3094 </r>
       <r>    20.0755     0.2834    13.3479 </r>
       <r>    20.2146     0.2766    13.3870 </r>
       <r>    20.3536     0.2662    13.4247 </r>
       <r>    20.4927     0.2570    13.4611 </r>
       <r>    20.6317     0.2507    13.4964 </r>
       <r>    20.7708     0.2615    13.5313 </r>
       <r>    20.9098     0.2908    13.5701 </r>
       <r>    21.0489     0.2922    13.6109 </r>
       <r>    21.1879     0.2932    13.6514 </r>
       <r>    21.3270     0.2810    13.6916 </r>
       <r>    21.4660     0.2471    13.7282 </r>
       <r>    21.6051     0.2395    13.7620 </r>
       <r>    21.7441     0.2409    13.7953 </r>
       <r>    21.8832     0.2442    13.8289 </r>
       <r>    22.0222     0.2518    13.8634 </r>
       <r>    22.1613     0.2591    13.8989 </r>
       <r>    22.3003     0.2649    13.9354 </r>
       <r>    22.4394     0.2679    13.9725 </r>
       <r>    22.5784     0.2714    14.0100 </r>
       <r>    22.7175     0.2782    14.0481 </r>
       <r>    22.8565     0.2901    14.0875 </r>
       <r>    22.9956     0.3126    14.1295 </r>
       <r>    23.1346     0.3577    14.1756 </r>
       <r>    23.2737     0.4280    14.2300 </r>
       <r>    23.4127     0.4690    14.2927 </r>
       <r>    23.5518     0.5080    14.3604 </r>
       <r>    23.6908     0.5496    14.4340 </r>
       <r>    23.8299     0.5582    14.5117 </r>
       <r>    23.9689     0.5443    14.5885 </r>
       <r>    24.1080     0.5432    14.6636 </r>
       <r>    24.2470     0.5440    14.7396 </r>
       <r>    24.3861     0.5258    14.8140 </r>
       <r>    24.5251     0.4890    14.8826 </r>
       <r>    24.6642     0.5319    14.9538 </r>
       <r>    24.8032     0.5297    15.0280 </r>
       <r>    24.9423     0.5041    15.0998 </r>
       <r>    25.0813     0.4972    15.1693 </r>
       <r>    25.2204     0.4940    15.2382 </r>
       <r>    25.3594     0.4927    15.3067 </r>
       <r>    25.4985     0.4826    15.3746 </r>
       <r>    25.6375     0.4751    15.4416 </r>
       <r>    25.7766     0.4538    15.5052 </r>
       <r>    25.9156     0.4610    15.5688 </r>
       <r>    26.0547     0.4686    15.6334 </r>
       <r>    26.1937     0.4768    15.6991 </r>
       <r>    26.3328     0.4856    15.7660 </r>
       <r>    26.4718     0.4951    15.8342 </r>
       <r>    26.6109     0.5005    15.9036 </r>
       <r>    26.7499     0.4810    15.9718 </r>
       <r>    26.8890     0.5195    16.0410 </r>
       <r>    27.0280     0.5719    16.1168 </r>
       <r>    27.1671     0.6327    16.2005 </r>
       <r>    27.3061     0.6869    16.2924 </r>
       <r>    27.4451     0.7164    16.3903 </r>
       <r>    27.5842     0.7132    16.4902 </r>
       <r>    27.7232     0.6408    16.5849 </r>
       <r>    27.8623     0.5394    16.6672 </r>
       <r>    28.0013     0.4719    16.7365 </r>
       <r>    28.1404     0.4515    16.8003 </r>
       <r>    28.2794     0.4657    16.8638 </r>
       <r>    28.4185     0.4879    16.9300 </r>
       <r>    28.5575     0.5251    17.0002 </r>
       <r>    28.6966     0.5861    17.0772 </r>
       <r>    28.8356     0.6687    17.1643 </r>
       <r>    28.9747     0.6745    17.2582 </r>
       <r>    29.1137     0.6933    17.3535 </r>
       <r>    29.2528     0.6877    17.4498 </r>
       <r>    29.3918     0.6455    17.5431 </r>
       <r>    29.5309     0.5652    17.6273 </r>
       <r>    29.6699     0.5039    17.7011 </r>
       <r>    29.8090     0.4269    17.7659 </r>
       <r>    29.9480     0.3478    17.8198 </r>
       <r>    30.0871     0.2679    17.8626 </r>
       <r>    30.2261     0.2183    17.8957 </r>
       <r>    30.3652     0.2485    17.9269 </r>
       <r>    30.5042     0.3389    17.9678 </r>
       <r>    30.6433     0.3789    18.0174 </r>
       <r>    30.7823     0.4425    18.0745 </r>
       <r>    30.9214     0.4859    18.1393 </r>
       <r>    31.0604     0.5307    18.2098 </r>
       <r>    31.1995     0.6219    18.2885 </r>
       <r>    31.3385     0.6767    18.3803 </r>
       <r>    31.4776     0.6980    18.4752 </r>
       <r>    31.6166     0.7360    18.5748 </r>
       <r>    31.7557     0.7535    18.6793 </r>
       <r>    31.8947     0.7571    18.7868 </r>
       <r>    32.0338     0.7372    18.8906 </r>
       <r>    32.1728     0.7273    18.9927 </r>
       <r>    32.3119     0.6572    19.0870 </r>
       <r>    32.4509     0.6503    19.1777 </r>
       <r>    32.5900     0.6450    19.2680 </r>
       <r>    32.7290     0.6325    19.3568 </r>
       <r>    32.8681     0.6191    19.4438 </r>
       <r>    33.0071     0.6018    19.5287 </r>
       <r>    33.1462     0.5845    19.6116 </r>
       <r>    33.2852     0.5297    19.6895 </r>
       <r>    33.4243     0.4442    19.7575 </r>
       <r>    33.5633     0.3406    19.8122 </r>
       <r>    33.7024     0.2622    19.8534 </r>
       <r>    33.8414     0.2174    19.8867 </r>
       <r>    33.9805     0.1624    19.9128 </r>
       <r>    34.1195     0.1300    19.9332 </r>
       <r>    34.2586     0.0996    19.9489 </r>
       <r>    34.3976     0.0814    19.9614 </r>
       <r>    34.5367     0.0653    19.9716 </r>
       <r>    34.6757     0.0514    19.9797 </r>
       <r>    34.8148     0.0396    19.9860 </r>
       <r>    34.9538     0.0297    19.9908 </r>
       <r>    35.0929     0.0206    19.9943 </r>
       <r>    35.2319     0.0136    19.9966 </r>
       <r>    35.3710     0.0087    19.9982 </r>
       <r>    35.5100     0.0052    19.9991 </r>
       <r>    35.6491     0.0027    19.9997 </r>
       <r>    35.7881     0.0010    19.9999 </r>
       <r>    35.9272     0.0002    20.0000 </r>
       <r>    36.0662     0.0000    20.0000 </r>
       <r>    36.2053     0.0000    20.0000 </r>
       <r>    36.3443     0.0000    20.0000 </r>
       <r>    36.4834     0.0000    20.0000 </r>
       <r>    36.6224     0.0000    20.0000 </r>
       <r>    36.7615     0.0000    20.0000 </r>
       <r>    36.9005     0.0000    20.0000 </r>
       <r>    37.0396     0.0000    20.0000 </r>
       <r>    37.1786     0.0000    20.0000 </r>
       <r>    37.3177     0.0000    20.0000 </r>
       <r>    37.4567     0.0000    20.0000 </r>
       <r>    37.5958     0.0000    20.0000 </r>
       <r>    37.7348     0.0000    20.0000 </r>
       <r>    37.8739     0.0000    20.0000 </r>
       <r>    38.0129     0.0000    20.0000 </r>
      </set>
     </set>
    </array>
   </total>
  </dos>
 </calculation>
 <structure name="finalpos" >
  <crystal>
   <varray name="basis" >
    <v>       2.40000000       0.00000000       0.00000000 </v>
    <v>       0.00000000       2.40000000       0.00000000 </v>
    <v>       0.00000000       0.00000000       2.40000000 </v>
   </varray>
   <i name="volume">     13.82400000 </i>
   <varray name="rec_basis" >
    <v>       0.41666667       0.00000000       0.00000000 </v>
    <v>       0.00000000       0.41666667       0.00000000 </v>
    <v>       0.00000000       0.00000000       0.41666667 </v>
   </varray>
  </crystal>
  <varray name="positions" >
   <v>       0.00000000       0.00000000       0.00000000 </v>
  </varray>
 </structure>
</modeling>
