unknown system                          
   2.60000000000000     
     1.034252    0.000000   -0.000000
     0.000000    1.034252   -0.000000
     0.000000    0.000000    1.034252
   Pt
     1
Direct
  0.000000  0.000000  0.000000
 
   40   40   40
  66.779      66.009      63.792      60.382      56.135      51.431      46.592      41.841      37.290      32.969    
  28.872      25.004      21.406      18.152      15.329      13.004      11.205      9.9083      9.0572      8.5713    
  8.4084      8.5713      9.0572      9.9083      11.205      13.004      15.329      18.152      21.406      25.004    
  28.872      32.969      37.290      41.841      46.592      51.431      56.135      60.382      63.792      66.009    
  66.009      65.263      63.114      59.806      55.679      51.095      46.362      41.693      37.197      32.904    
  28.816      24.945      21.340      18.080      15.256      12.935      11.141      9.8511      9.0052      8.5219    
  8.3596      8.5219      9.0052      9.8511      11.141      12.935      15.256      18.080      21.340      24.945    
  28.816      32.904      37.197      41.693      46.362      51.095      55.679      59.806      63.114      65.263    
  63.792      63.114      61.159      58.139      54.351      50.107      45.674      41.237      36.894      32.683    
  28.622      24.746      21.125      17.855      15.032      12.723      10.950      9.6813      8.8511      8.3753    
  8.2155      8.3753      8.8511      9.6813      10.950      12.723      15.032      17.855      21.125      24.746    
  28.622      32.683      36.894      41.237      45.674      50.107      54.351      58.139      61.159      63.114    
  60.382      59.806      58.139      55.548      52.261      48.520      44.531      40.438      36.324      32.238    
  28.224      24.352      20.723      17.452      14.645      12.368      10.634      9.4042      8.6008      8.1378    
  7.9822      8.1378      8.6008      9.4042      10.634      12.368      14.645      17.452      20.723      24.352    
  28.224      32.238      36.324      40.438      44.531      48.520      52.261      55.548      58.139      59.806    
  56.135      55.679      54.351      52.261      49.560      46.407      42.936      39.246      35.405      31.475    
  27.535      23.693      20.082      16.841      14.082      11.869      10.202      9.0294      8.2638      7.8187    
  7.6698      7.8187      8.2638      9.0294      10.202      11.869      14.082      16.841      20.082      23.693    
  27.535      31.475      35.405      39.246      42.936      46.407      49.560      52.261      54.351      55.679    
  51.431      51.095      50.107      48.520      46.407      43.843      40.892      37.610      34.055      30.306    
  26.473      22.704      19.162      16.004      13.344      11.235      9.6657      8.5712      7.8528      7.4313    
  7.2915      7.4313      7.8528      8.5712      9.6657      11.235      13.344      16.004      19.162      22.704    
  26.473      30.306      34.055      37.610      40.892      43.843      46.407      48.520      50.107      51.095    
  46.592      46.362      45.674      44.531      42.936      40.892      38.405      35.497      32.220      28.671    
  24.991      21.357      17.955      14.948      12.445      10.487      9.0476      8.0476      7.3832      6.9913    
  6.8626      6.9913      7.3832      8.0476      9.0476      10.487      12.445      14.948      17.955      21.357    
  24.991      28.671      32.220      35.497      38.405      40.892      42.936      44.531      45.674      46.362    
  41.841      41.693      41.237      40.438      39.246      37.610      35.497      32.907      29.893      26.569    
  23.096      19.672      16.490      13.708      11.424      9.6602      8.3749      7.4786      6.8726      6.5163    
  6.3997      6.5163      6.8726      7.4786      8.3749      9.6602      11.424      13.708      16.490      19.672    
  23.096      26.569      29.893      32.907      35.497      37.610      39.246      40.438      41.237      41.693    
  37.290      37.197      36.894      36.324      35.405      34.055      32.220      29.893      27.134      24.064    
  20.862      17.724      14.839      12.351      10.335      8.7950      7.6768      6.8840      6.3403      6.0238    
  5.9200      6.0238      6.3403      6.8840      7.6768      8.7950      10.335      12.351      14.839      17.724    
  20.862      24.064      27.134      29.893      32.220      34.055      35.405      36.324      36.894      37.197    
  32.969      32.904      32.683      32.238      31.475      30.306      28.671      26.569      24.064      21.288    
  18.414      15.631      13.106      10.958      9.2390      7.9348      6.9788      6.2834      5.8060      5.5304    
  5.4400      5.5304      5.8060      6.2834      6.9788      7.9348      9.2390      10.958      13.106      15.631    
  18.414      21.288      24.064      26.569      28.671      30.306      31.475      32.238      32.683      32.904    
  28.872      28.816      28.622      28.224      27.535      26.473      24.991      23.096      20.862      18.414    
  15.915      13.532      11.402      9.6143      8.1945      7.1136      6.3000      5.6972      5.2872      5.0507    
  4.9739      5.0507      5.2872      5.6972      6.3000      7.1136      8.1945      9.6143      11.402      13.532    
  15.915      18.414      20.862      23.096      24.991      26.473      27.535      28.224      28.622      28.816    
  25.004      24.945      24.746      24.352      23.693      22.704      21.357      19.672      17.724      15.631    
  13.532      11.564      9.8303      8.3883      7.2423      6.3499      5.6572      5.1448      4.7975      4.5977    
  4.5326      4.5977      4.7975      5.1448      5.6572      6.3499      7.2423      8.3883      9.8303      11.564    
  13.532      15.631      17.724      19.672      21.357      22.704      23.693      24.352      24.746      24.945    
  21.406      21.340      21.125      20.723      20.082      19.162      17.955      16.490      14.839      13.106    
  11.402      9.8303      8.4602      7.3207      6.3979      5.6527      5.0693      4.6395      4.3479      4.1802    
  4.1255      4.1802      4.3479      4.6395      5.0693      5.6527      6.3979      7.3207      8.4602      9.8303    
  11.402      13.106      14.839      16.490      17.955      19.162      20.082      20.723      21.125      21.340    
  18.152      18.080      17.855      17.452      16.841      16.004      14.948      13.708      12.351      10.958    
  9.6143      8.3883      7.3207      6.4172      5.6578      5.0354      4.5495      4.1903      3.9461      3.8048    
  3.7587      3.8048      3.9461      4.1903      4.5495      5.0354      5.6578      6.4172      7.3207      8.3883    
  9.6143      10.958      12.351      13.708      14.948      16.004      16.841      17.452      17.855      18.080    
  15.329      15.256      15.032      14.645      14.082      13.344      12.445      11.424      10.335      9.2390    
  8.1945      7.2423      6.3979      5.6578      5.0262      4.5092      4.1037      3.8024      3.5958      3.4758    
  3.4364      3.4758      3.5958      3.8024      4.1037      4.5092      5.0262      5.6578      6.3979      7.2423    
  8.1945      9.2390      10.335      11.424      12.445      13.344      14.082      14.645      15.032      15.256    
  13.004      12.935      12.723      12.368      11.869      11.235      10.487      9.6602      8.7950      7.9348    
  7.1136      6.3499      5.6527      5.0354      4.5092      4.0762      3.7341      3.4773      3.2996      3.1954    
  3.1611      3.1954      3.2996      3.4773      3.7341      4.0762      4.5092      5.0354      5.6527      6.3499    
  7.1136      7.9348      8.7950      9.6602      10.487      11.235      11.869      12.368      12.723      12.935    
  11.205      11.141      10.950      10.634      10.202      9.6657      9.0476      8.3749      7.6768      6.9788    
  6.3000      5.6572      5.0693      4.5495      4.1037      3.7341      3.4388      3.2146      3.0577      2.9650    
  2.9343      2.9650      3.0577      3.2146      3.4388      3.7341      4.1037      4.5495      5.0693      5.6572    
  6.3000      6.9788      7.6768      8.3749      9.0476      9.6657      10.202      10.634      10.950      11.141    
  9.9083      9.8511      9.6813      9.4042      9.0294      8.5712      8.0476      7.4786      6.8840      6.2834    
  5.6972      5.1448      4.6395      4.1903      3.8024      3.4773      3.2146      3.0128      2.8703      2.7854    
  2.7572      2.7854      2.8703      3.0128      3.2146      3.4773      3.8024      4.1903      4.6395      5.1448    
  5.6972      6.2834      6.8840      7.4786      8.0476      8.5712      9.0294      9.4042      9.6813      9.8511    
  9.0572      9.0052      8.8511      8.6008      8.2638      7.8528      7.3832      6.8726      6.3403      5.8060    
  5.2872      4.7975      4.3479      3.9461      3.5958      3.2996      3.0577      2.8703      2.7367      2.6568    
  2.6302      2.6568      2.7367      2.8703      3.0577      3.2996      3.5958      3.9461      4.3479      4.7975    
  5.2872      5.8060      6.3403      6.8726      7.3832      7.8528      8.2638      8.6008      8.8511      9.0052    
  8.5713      8.5219      8.3753      8.1378      7.8187      7.4313      6.9913      6.5163      6.0238      5.5304    
  5.0507      4.5977      4.1802      3.8048      3.4758      3.1954      2.9650      2.7854      2.6568      2.5796    
  2.5538      2.5796      2.6568      2.7854      2.9650      3.1954      3.4758      3.8048      4.1802      4.5977    
  5.0507      5.5304      6.0238      6.5163      6.9913      7.4313      7.8187      8.1378      8.3753      8.5219    
  8.4084      8.3596      8.2155      7.9822      7.6698      7.2915      6.8626      6.3997      5.9200      5.4400    
  4.9739      4.5326      4.1255      3.7587      3.4364      3.1611      2.9343      2.7572      2.6302      2.5538    
  2.5283      2.5538      2.6302      2.7572      2.9343      3.1611      3.4364      3.7587      4.1255      4.5326    
  4.9739      5.4400      5.9200      6.3997      6.8626      7.2915      7.6698      7.9822      8.2155      8.3596    
  8.5713      8.5219      8.3753      8.1378      7.8187      7.4313      6.9913      6.5163      6.0238      5.5304    
  5.0507      4.5977      4.1802      3.8048      3.4758      3.1954      2.9650      2.7854      2.6568      2.5796    
  2.5538      2.5796      2.6568      2.7854      2.9650      3.1954      3.4758      3.8048      4.1802      4.5977    
  5.0507      5.5304      6.0238      6.5163      6.9913      7.4313      7.8187      8.1378      8.3753      8.5219    
  9.0572      9.0052      8.8511      8.6008      8.2638      7.8528      7.3832      6.8726      6.3403      5.8060    
  5.2872      4.7975      4.3479      3.9461      3.5958      3.2996      3.0577      2.8703      2.7367      2.6568    
  2.6302      2.6568      2.7367      2.8703      3.0577      3.2996      3.5958      3.9461      4.3479      4.7975    
  5.2872      5.8060      6.3403      6.8726      7.3832      7.8528      8.2638      8.6008      8.8511      9.0052    
  9.9083      9.8511      9.6813      9.4042      9.0294      8.5712      8.0476      7.4786      6.8840      6.2834    
  5.6972      5.1448      4.6395      4.1903      3.8024      3.4773      3.2146      3.0128      2.8703      2.7854    
  2.7572      2.7854      2.8703      3.0128      3.2146      3.4773      3.8024      4.1903      4.6395      5.1448    
  5.6972      6.2834      6.8840      7.4786      8.0476      8.5712      9.0294      9.4042      9.6813      9.8511    
  11.205      11.141      10.950      10.634      10.202      9.6657      9.0476      8.3749      7.6768      6.9788    
  6.3000      5.6572      5.0693      4.5495      4.1037      3.7341      3.4388      3.2146      3.0577      2.9650    
  2.9343      2.9650      3.0577      3.2146      3.4388      3.7341      4.1037      4.5495      5.0693      5.6572    
  6.3000      6.9788      7.6768      8.3749      9.0476      9.6657      10.202      10.634      10.950      11.141    
  13.004      12.935      12.723      12.368      11.869      11.235      10.487      9.6602      8.7950      7.9348    
  7.1136      6.3499      5.6527      5.0354      4.5092      4.0762      3.7341      3.4773      3.2996      3.1954    
  3.1611      3.1954      3.2996      3.4773      3.7341      4.0762      4.5092      5.0354      5.6527      6.3499    
  7.1136      7.9348      8.7950      9.6602      10.487      11.235      11.869      12.368      12.723      12.935    
  15.329      15.256      15.032      14.645      14.082      13.344      12.445      11.424      10.335      9.2390    
  8.1945      7.2423      6.3979      5.6578      5.0262      4.5092      4.1037      3.8024      3.5958      3.4758    
  3.4364      3.4758      3.5958      3.8024      4.1037      4.5092      5.0262      5.6578      6.3979      7.2423    
  8.1945      9.2390      10.335      11.424      12.445      13.344      14.082      14.645      15.032      15.256    
  18.152      18.080      17.855      17.452      16.841      16.004      14.948      13.708      12.351      10.958    
  9.6143      8.3883      7.3207      6.4172      5.6578      5.0354      4.5495      4.1903      3.9461      3.8048    
  3.7587      3.8048      3.9461      4.1903      4.5495      5.0354      5.6578      6.4172      7.3207      8.3883    
  9.6143      10.958      12.351      13.708      14.948      16.004      16.841      17.452      17.855      18.080    
  21.406      21.340      21.125      20.723      20.082      19.162      17.955      16.490      14.839      13.106    
  11.402      9.8303      8.4602      7.3207      6.3979      5.6527      5.0693      4.6395      4.3479      4.1802    
  4.1255      4.1802      4.3479      4.6395      5.0693      5.6527      6.3979      7.3207      8.4602      9.8303    
  11.402      13.106      14.839      16.490      17.955      19.162      20.082      20.723      21.125      21.340    
  25.004      24.945      24.746      24.352      23.693      22.704      21.357      19.672      17.724      15.631    
  13.532      11.564      9.8303      8.3883      7.2423      6.3499      5.6572      5.1448      4.7975      4.5977    
  4.5326      4.5977      4.7975      5.1448      5.6572      6.3499      7.2423      8.3883      9.8303      11.564    
  13.532      15.631      17.724      19.672      21.357      22.704      23.693      24.352      24.746      24.945    
  28.872      28.816      28.622      28.224      27.535      26.473      24.991      23.096      20.862      18.414    
  15.915      13.532      11.402      9.6143      8.1945      7.1136      6.3000      5.6972      5.2872      5.0507    
  4.9739      5.0507      5.2872      5.6972      6.3000      7.1136      8.1945      9.6143      11.402      13.532    
  15.915      18.414      20.862      23.096      24.991      26.473      27.535      28.224      28.622      28.816    
  32.969      32.904      32.683      32.238      31.475      30.306      28.671      26.569      24.064      21.288    
  18.414      15.631      13.106      10.958      9.2390      7.9348      6.9788      6.2834      5.8060      5.5304    
  5.4400      5.5304      5.8060      6.2834      6.9788      7.9348      9.2390      10.958      13.106      15.631    
  18.414      21.288      24.064      26.569      28.671      30.306      31.475      32.238      32.683      32.904    
  37.290      37.197      36.894      36.324      35.405      34.055      32.220      29.893      27.134      24.064    
  20.862      17.724      14.839      12.351      10.335      8.7950      7.6768      6.8840      6.3403      6.0238    
  5.9200      6.0238      6.3403      6.8840      7.6768      8.7950      10.335      12.351      14.839      17.724    
  20.862      24.064      27.134      29.893      32.220      34.055      35.405      36.324      36.894      37.197    
  41.841      41.693      41.237      40.438      39.246      37.610      35.497      32.907      29.893      26.569    
  23.096      19.672      16.490      13.708      11.424      9.6602      8.3749      7.4786      6.8726      6.5163    
  6.3997      6.5163      6.8726      7.4786      8.3749      9.6602      11.424      13.708      16.490      19.672    
  23.096      26.569      29.893      32.907      35.497      37.610      39.246      40.438      41.237      41.693    
  46.592      46.362      45.674      44.531      42.936      40.892      38.405      35.497      32.220      28.671    
  24.991      21.357      17.955      14.948      12.445      10.487      9.0476      8.0476      7.3832      6.9913    
  6.8626      6.9913      7.3832      8.0476      9.0476      10.487      12.445      14.948      17.955      21.357    
  24.991      28.671      32.220      35.497      38.405      40.892      42.936      44.531      45.674      46.362    
  51.431      51.095      50.107      48.520      46.407      43.843      40.892      37.610      34.055      30.306    
  26.473      22.704      19.162      16.004      13.344      11.235      9.6657      8.5712      7.8528      7.4313    
  7.2915      7.4313      7.8528      8.5712      9.6657      11.235      13.344      16.004      19.162      22.704    
  26.473      30.306      34.055      37.610      40.892      43.843      46.407      48.520      50.107      51.095    
  56.135      55.679      54.351      52.261      49.560      46.407      42.936      39.246      35.405      31.475    
  27.535      23.693      20.082      16.841      14.082      11.869      10.202      9.0294      8.2638      7.8187    
  7.6698      7.8187      8.2638      9.0294      10.202      11.869      14.082      16.841      20.082      23.693    
  27.535      31.475      35.405      39.246      42.936      46.407      49.560      52.261      54.351      55.679    
  60.382      59.806      58.139      55.548      52.261      48.520      44.531      40.438      36.324      32.238    
  28.224      24.352      20.723      17.452      14.645      12.368      10.634      9.4042      8.6008      8.1378    
  7.9822      8.1378      8.6008      9.4042      10.634      12.368      14.645      17.452      20.723      24.352    
  28.224      32.238      36.324      40.438      44.531      48.520      52.261      55.548      58.139      59.806    
  63.792      63.114      61.159      58.139      54.351      50.107      45.674      41.237      36.894      32.683    
  28.622      24.746      21.125      17.855      15.032      12.723      10.950      9.6813      8.8511      8.3753    
  8.2155      8.3753      8.8511      9.6813      10.950      12.723      15.032      17.855      21.125      24.746    
  28.622      32.683      36.894      41.237      45.674      50.107      54.351      58.139      61.159      63.114    
  66.009      65.263      63.114      59.806      55.679      51.095      46.362      41.693      37.197      32.904    
  28.816      24.945      21.340      18.080      15.256      12.935      11.141      9.8511      9.0052      8.5219    
  8.3596      8.5219      9.0052      9.8511      11.141      12.935      15.256      18.080      21.340      24.945    
  28.816      32.904      37.197      41.693      46.362      51.095      55.679      59.806      63.114      65.263    
  66.009      65.263      63.114      59.806      55.679      51.095      46.362      41.693      37.197      32.904    
  28.816      24.945      21.340      18.080      15.256      12.935      11.141      9.8511      9.0052      8.5219    
  8.3596      8.5219      9.0052      9.8511      11.141      12.935      15.256      18.080      21.340      24.945    
  28.816      32.904      37.197      41.693      46.362      51.095      55.679      59.806      63.114      65.263    
  65.263      64.541      62.458      59.248      55.237      50.768      46.137      41.547      37.102      32.837    
  28.757      24.883      21.271      18.007      15.183      12.865      11.077      9.7943      8.9535      8.4727    
  8.3112      8.4727      8.9535      9.7943      11.077      12.865      15.183      18.007      21.271      24.883    
  28.757      32.837      37.102      41.547      46.137      50.768      55.237      59.248      62.458      64.541    
  63.114      62.458      60.563      57.631      53.946      49.805      45.463      41.096      36.798      32.610    
  28.555      24.677      21.052      17.779      14.957      12.653      10.886      9.6253      8.8004      8.3271    
  8.1681      8.3271      8.8004      9.6253      10.886      12.653      14.957      17.779      21.052      24.677    
  28.555      32.610      36.798      41.096      45.463      49.805      53.946      57.631      60.563      62.458    
  59.806      59.248      57.631      55.113      51.911      48.255      44.340      40.302      36.224      32.155    
  28.146      24.273      20.641      17.370      14.567      12.297      10.572      9.3497      8.5517      8.0911    
  7.9365      8.0911      8.5517      9.3497      10.572      12.297      14.567      17.370      20.641      24.273    
  28.146      32.155      36.224      40.302      44.340      48.255      51.911      55.113      57.631      59.248    
  55.679      55.237      53.946      51.911      49.275      46.184      42.767      39.115      35.299      31.381    
  27.444      23.602      19.992      16.754      14.003      11.799      10.141      8.9772      8.2168      7.7743    
  7.6263      7.7743      8.2168      8.9772      10.141      11.799      14.003      16.754      19.992      23.602    
  27.444      31.381      35.299      39.115      42.767      46.184      49.275      51.911      53.946      55.237    
  51.095      50.768      49.805      48.255      46.184      43.660      40.742      37.484      33.942      30.199    
  26.369      22.602      19.065      15.914      13.264      11.167      9.6082      8.5219      7.8084      7.3895    
  7.2506      7.3895      7.8084      8.5219      9.6082      11.167      13.264      15.914      19.065      22.602    
  26.369      30.199      33.942      37.484      40.742      43.660      46.184      48.255      49.805      50.768    
  46.362      46.137      45.463      44.340      42.767      40.742      38.270      35.372      32.100      28.553    
  24.876      21.247      17.853      14.857      12.367      10.423      8.9939      8.0017      7.3418      6.9525    
  6.8247      6.9525      7.3418      8.0017      8.9939      10.423      12.367      14.857      17.853      21.247    
  24.876      28.553      32.100      35.372      38.270      40.742      42.767      44.340      45.463      46.137    
  41.693      41.547      41.096      40.302      39.115      37.484      35.372      32.781      29.767      26.443    
  22.975      19.559      16.388      13.620      11.350      9.6003      8.3257      7.4364      6.8345      6.4808    
  6.3651      6.4808      6.8345      7.4364      8.3257      9.6003      11.350      13.620      16.388      19.559    
  22.975      26.443      29.767      32.781      35.372      37.484      39.115      40.302      41.096      41.547    
  37.197      37.102      36.798      36.224      35.299      33.942      32.100      29.767      27.005      23.936    
  20.739      17.612      14.742      12.269      10.268      8.7411      7.6326      6.8456      6.3057      5.9918    
  5.8888      5.9918      6.3057      6.8456      7.6326      8.7411      10.268      12.269      14.742      17.612    
  20.739      23.936      27.005      29.767      32.100      33.942      35.299      36.224      36.798      37.102    
  32.904      32.837      32.610      32.155      31.381      30.199      28.553      26.443      23.936      21.163    
  18.297      15.526      13.016      10.884      9.1800      7.8876      6.9394      6.2489      5.7751      5.5016    
  5.4120      5.5016      5.7751      6.2489      6.9394      7.8876      9.1800      10.884      13.016      15.526    
  18.297      21.163      23.936      26.443      28.553      30.199      31.381      32.155      32.610      32.837    
  28.816      28.757      28.555      28.146      27.444      26.369      24.876      22.975      20.739      18.297    
  15.808      13.439      11.324      9.5510      8.1441      7.0727      6.2651      5.6666      5.2599      5.0252    
  4.9490      5.0252      5.2599      5.6666      6.2651      7.0727      8.1441      9.5510      11.324      13.439    
  15.808      18.297      20.739      22.975      24.876      26.369      27.444      28.146      28.555      28.757    
  24.945      24.883      24.677      24.273      23.602      22.602      21.247      19.559      17.612      15.526    
  13.439      11.484      9.7645      8.3354      7.1998      6.3144      5.6266      5.1181      4.7734      4.5751    
  4.5106      4.5751      4.7734      5.1181      5.6266      6.3144      7.1998      8.3354      9.7645      11.484    
  13.439      15.526      17.612      19.559      21.247      22.602      23.602      24.273      24.677      24.883    
  21.340      21.271      21.052      20.641      19.992      19.065      17.853      16.388      14.742      13.016    
  11.324      9.7645      8.4063      7.2772      6.3618      5.6219      5.0428      4.6162      4.3268      4.1603    
  4.1060      4.1603      4.3268      4.6162      5.0428      5.6219      6.3618      7.2772      8.4063      9.7645    
  11.324      13.016      14.742      16.388      17.853      19.065      19.992      20.641      21.052      21.271    
  18.080      18.007      17.779      17.370      16.754      15.914      14.857      13.620      12.269      10.884    
  9.5510      8.3354      7.2772      6.3810      5.6269      5.0090      4.5266      4.1700      3.9275      3.7872    
  3.7415      3.7872      3.9275      4.1700      4.5266      5.0090      5.6269      6.3810      7.2772      8.3354    
  9.5510      10.884      12.269      13.620      14.857      15.914      16.754      17.370      17.779      18.007    
  15.256      15.183      14.957      14.567      14.003      13.264      12.367      11.350      10.268      9.1800    
  8.1441      7.1998      6.3618      5.6269      4.9998      4.4865      4.0839      3.7847      3.5795      3.4602    
  3.4210      3.4602      3.5795      3.7847      4.0839      4.4865      4.9998      5.6269      6.3618      7.1998    
  8.1441      9.1800      10.268      11.350      12.367      13.264      14.003      14.567      14.957      15.183    
  12.935      12.865      12.653      12.297      11.799      11.167      10.423      9.6003      8.7411      7.8876    
  7.0727      6.3144      5.6219      5.0090      4.4865      4.0565      3.7168      3.4616      3.2850      3.1814    
  3.1473      3.1814      3.2850      3.4616      3.7168      4.0565      4.4865      5.0090      5.6219      6.3144    
  7.0727      7.8876      8.7411      9.6003      10.423      11.167      11.799      12.297      12.653      12.865    
  11.141      11.077      10.886      10.572      10.141      9.6082      8.9939      8.3257      7.6326      6.9394    
  6.2651      5.6266      5.0428      4.5266      4.0839      3.7168      3.4233      3.2005      3.0445      2.9524    
  2.9219      2.9524      3.0445      3.2005      3.4233      3.7168      4.0839      4.5266      5.0428      5.6266    
  6.2651      6.9394      7.6326      8.3257      8.9939      9.6082      10.141      10.572      10.886      11.077    
  9.8511      9.7943      9.6253      9.3497      8.9772      8.5219      8.0017      7.4364      6.8456      6.2489    
  5.6666      5.1181      4.6162      4.1700      3.7847      3.4616      3.2005      2.9999      2.8581      2.7737    
  2.7457      2.7737      2.8581      2.9999      3.2005      3.4616      3.7847      4.1700      4.6162      5.1181    
  5.6666      6.2489      6.8456      7.4364      8.0017      8.5219      8.9772      9.3497      9.6253      9.7943    
  9.0052      8.9535      8.8004      8.5517      8.2168      7.8084      7.3418      6.8345      6.3057      5.7751    
  5.2599      4.7734      4.3268      3.9275      3.5795      3.2850      3.0445      2.8581      2.7254      2.6459    
  2.6194      2.6459      2.7254      2.8581      3.0445      3.2850      3.5795      3.9275      4.3268      4.7734    
  5.2599      5.7751      6.3057      6.8345      7.3418      7.8084      8.2168      8.5517      8.8004      8.9535    
  8.5219      8.4727      8.3271      8.0911      7.7743      7.3895      6.9525      6.4808      5.9918      5.5016    
  5.0252      4.5751      4.1603      3.7872      3.4602      3.1814      2.9524      2.7737      2.6459      2.5690    
  2.5434      2.5690      2.6459      2.7737      2.9524      3.1814      3.4602      3.7872      4.1603      4.5751    
  5.0252      5.5016      5.9918      6.4808      6.9525      7.3895      7.7743      8.0911      8.3271      8.4727    
  8.3596      8.3112      8.1681      7.9365      7.6263      7.2506      6.8247      6.3651      5.8888      5.4120    
  4.9490      4.5106      4.1060      3.7415      3.4210      3.1473      2.9219      2.7457      2.6194      2.5434    
  2.5181      2.5434      2.6194      2.7457      2.9219      3.1473      3.4210      3.7415      4.1060      4.5106    
  4.9490      5.4120      5.8888      6.3651      6.8247      7.2506      7.6263      7.9365      8.1681      8.3112    
  8.5219      8.4727      8.3271      8.0911      7.7743      7.3895      6.9525      6.4808      5.9918      5.5016    