unknown system                          
   2.60000000000000     
     1.010884    0.000000   -0.000000
    -0.000000    1.010884    0.000000
    -0.000000    0.000000    1.010884
   Pt
     1
Direct
  0.000000 -0.000000  0.000000
 
   40   40   40
 0.69086944685E+02 0.68272489852E+02 0.65928622854E+02 0.62329066120E+02 0.57855503779E+02
 0.52910247741E+02 0.47835311939E+02 0.42861799729E+02 0.38102622580E+02 0.33584416072E+02
 0.29300655977E+02 0.25260230891E+02 0.21512351919E+02 0.18141532967E+02 0.15239312448E+02
 0.12871509835E+02 0.11056359103E+02 0.97604595953E+01 0.89112631566E+01 0.84219084847E+01
 0.82573716695E+01 0.84219084847E+01 0.89112631566E+01 0.97604595953E+01 0.11056359103E+02
 0.12871509835E+02 0.15239312448E+02 0.18141532967E+02 0.21512351919E+02 0.25260230891E+02
 0.29300655977E+02 0.33584416072E+02 0.38102622580E+02 0.42861799729E+02 0.47835311939E+02
 0.52910247741E+02 0.57855503779E+02 0.62329066120E+02 0.65928622854E+02 0.68272489852E+02
 0.68272489852E+02 0.67484118082E+02 0.65214152503E+02 0.61724239844E+02 0.57378934600E+02
 0.52562070150E+02 0.47599637708E+02 0.42712144312E+02 0.38008767562E+02 0.33518822305E+02
 0.29242788854E+02 0.25198395955E+02 0.21443188285E+02 0.18067100403E+02 0.15164312548E+02
 0.12800529876E+02 0.10992134994E+02 0.97033993530E+01 0.88594134352E+01 0.83725694304E+01
 0.82089167577E+01 0.83725694304E+01 0.88594134352E+01 0.97033993530E+01 0.10992134994E+02
 0.12800529876E+02 0.15164312548E+02 0.18067100403E+02 0.21443188285E+02 0.25198395955E+02
 0.29242788854E+02 0.33518822305E+02 0.38008767562E+02 0.42712144312E+02 0.47599637708E+02
 0.52562070150E+02 0.57378934600E+02 0.61724239844E+02 0.65214152503E+02 0.67484118082E+02
 0.65928622854E+02 0.65214152503E+02 0.63153492096E+02 0.59973959346E+02 0.55991436592E+02
 0.51537441026E+02 0.46892792908E+02 0.42248412081E+02 0.37703191153E+02 0.33294280551E+02
 0.29042582699E+02 0.24991011989E+02 0.21219538728E+02 0.17833772702E+02 0.14934321146E+02
 0.12586204183E+02 0.10800269897E+02 0.95339788080E+01 0.87058151025E+01 0.82265861442E+01
 0.80657001398E+01 0.82265861442E+01 0.87058151025E+01 0.95339788080E+01 0.10800269897E+02
 0.12586204183E+02 0.14934321146E+02 0.17833772702E+02 0.21219538728E+02 0.24991011989E+02
 0.29042582699E+02 0.33294280551E+02 0.37703191153E+02 0.42248412081E+02 0.46892792908E+02
 0.51537441026E+02 0.55991436592E+02 0.59973959346E+02 0.63153492096E+02 0.65214152503E+02
 0.62329066120E+02 0.61724239844E+02 0.59973959346E+02 0.57254220740E+02 0.53808377791E+02
 0.49890371085E+02 0.45714610708E+02 0.41429274031E+02 0.37119541762E+02 0.32835555596E+02
 0.28628848687E+02 0.24579266167E+02 0.20799448702E+02 0.17415961842E+02 0.14537426204E+02
 0.12226240565E+02 0.10483998765E+02 0.92577763167E+01 0.84562996548E+01 0.79900163022E+01
 0.78340168399E+01 0.79900163022E+01 0.84562996548E+01 0.92577763167E+01 0.10483998765E+02
 0.12226240565E+02 0.14537426204E+02 0.17415961842E+02 0.20799448702E+02 0.24579266167E+02
 0.28628848687E+02 0.32835555596E+02 0.37119541762E+02 0.41429274031E+02 0.45714610708E+02
 0.49890371085E+02 0.53808377791E+02 0.57254220740E+02 0.59973959346E+02 0.61724239844E+02
 0.57855503779E+02 0.57378934600E+02 0.55991436592E+02 0.53808377791E+02 0.50987810356E+02
 0.47693235376E+02 0.44062736809E+02 0.40196831051E+02 0.36167221601E+02 0.32041329372E+02
 0.27907573333E+02 0.23888275501E+02 0.20131325422E+02 0.16784808165E+02 0.13962879778E+02
 0.11722000907E+02 0.10051177816E+02 0.88846338997E+01 0.81203132138E+01 0.76727073534E+01
 0.75239445370E+01 0.76727073534E+01 0.81203132138E+01 0.88846338997E+01 0.10051177816E+02
 0.11722000907E+02 0.13962879778E+02 0.16784808165E+02 0.20131325422E+02 0.23888275501E+02
 0.27907573333E+02 0.32041329372E+02 0.36167221601E+02 0.40196831051E+02 0.44062736809E+02
 0.47693235376E+02 0.50987810356E+02 0.53808377791E+02 0.55991436592E+02 0.57378934600E+02
 0.52910247741E+02 0.52562070150E+02 0.51537441026E+02 0.49890371085E+02 0.47693235376E+02
 0.45019786122E+02 0.41934001613E+02 0.38492213758E+02 0.34756625868E+02 0.30814926094E+02
 0.26792946024E+02 0.22853502100E+02 0.19175917782E+02 0.15923579906E+02 0.13210932751E+02
 0.11083858508E+02 0.95163351729E+01 0.84288118753E+01 0.77106573895E+01 0.72878945620E+01
 0.71486625400E+01 0.72878945620E+01 0.77106573895E+01 0.84288118753E+01 0.95163351729E+01
 0.11083858508E+02 0.13210932751E+02 0.15923579906E+02 0.19175917782E+02 0.22853502100E+02
 0.26792946024E+02 0.30814926094E+02 0.34756625868E+02 0.38492213758E+02 0.41934001613E+02
 0.45019786122E+02 0.47693235376E+02 0.49890371085E+02 0.51537441026E+02 0.52562070150E+02
 0.47835311939E+02 0.47599637708E+02 0.46892792908E+02 0.45714610708E+02 0.44062736809E+02
 0.41934001613E+02 0.39331093367E+02 0.36276434169E+02 0.32828668163E+02 0.29096057801E+02
 0.25237430512E+02 0.21447426952E+02 0.17925665796E+02 0.14841108347E+02 0.12300569129E+02
 0.10334567878E+02 0.89013848113E+01 0.79079797268E+01 0.72429536842E+01 0.68515294768E+01
 0.67235287454E+01 0.68515294768E+01 0.72429536842E+01 0.79079797268E+01 0.89013848113E+01
 0.10334567878E+02 0.12300569129E+02 0.14841108347E+02 0.17925665796E+02 0.21447426952E+02
 0.25237430512E+02 0.29096057801E+02 0.32828668163E+02 0.36276434169E+02 0.39331093367E+02
 0.41934001613E+02 0.44062736809E+02 0.45714610708E+02 0.46892792908E+02 0.47599637708E+02
 0.42861799729E+02 0.42712144312E+02 0.42248412081E+02 0.41429274031E+02 0.40196831051E+02
 0.38492213758E+02 0.36276434169E+02 0.33551840634E+02 0.30379791835E+02 0.26886620333E+02
 0.23254588041E+02 0.19695937342E+02 0.16416590605E+02 0.13578007527E+02 0.11271697859E+02
 0.95090037280E+01 0.82335434550E+01 0.73416168446E+01 0.67351749369E+01 0.63810301739E+01
 0.62651986932E+01 0.63810301739E+01 0.67351749369E+01 0.73416168446E+01 0.82335434550E+01
 0.95090037280E+01 0.11271697859E+02 0.13578007527E+02 0.16416590605E+02 0.19695937342E+02
 0.23254588041E+02 0.26886620333E+02 0.30379791835E+02 0.33551840634E+02 0.36276434169E+02
 0.38492213758E+02 0.40196831051E+02 0.41429274031E+02 0.42248412081E+02 0.42712144312E+02
 0.38102622580E+02 0.38008767562E+02 0.37703191153E+02 0.37119541762E+02 0.36167221601E+02
 0.34756625868E+02 0.32828668163E+02 0.30379791835E+02 0.27478052623E+02 0.24262380183E+02
 0.20925890447E+02 0.17682151596E+02 0.14727126492E+02 0.12203620618E+02 0.10180567167E+02
 0.86494301231E+01 0.75408520594E+01 0.67495048656E+01 0.62071216590E+01 0.58936470132E+01
 0.57908300453E+01 0.58936470132E+01 0.62071216590E+01 0.67495048656E+01 0.75408520594E+01
 0.86494301231E+01 0.10180567167E+02 0.12203620618E+02 0.14727126492E+02 0.17682151596E+02
 0.20925890447E+02 0.24262380183E+02 0.27478052623E+02 0.30379791835E+02 0.32828668163E+02
 0.34756625868E+02 0.36167221601E+02 0.37119541762E+02 0.37703191153E+02 0.38008767562E+02
 0.33584416072E+02 0.33518822305E+02 0.33294280551E+02 0.32835555596E+02 0.32041329372E+02
 0.30814926094E+02 0.29096057801E+02 0.26886620333E+02 0.24262380183E+02 0.21367617772E+02
 0.18391365575E+02 0.15533251156E+02 0.12965720285E+02 0.10803645156E+02 0.90895549194E+01
 0.77972754002E+01 0.68471174677E+01 0.61521897508E+01 0.56783110126E+01 0.54055815328E+01
 0.53166509964E+01 0.54055815328E+01 0.56783110126E+01 0.61521897508E+01 0.68471174677E+01
 0.77972754002E+01 0.90895549194E+01 0.10803645156E+02 0.12965720285E+02 0.15533251156E+02
 0.18391365575E+02 0.21367617772E+02 0.24262380183E+02 0.26886620333E+02 0.29096057801E+02
 0.30814926094E+02 0.32041329372E+02 0.32835555596E+02 0.33294280551E+02 0.33518822305E+02
 0.29300655977E+02 0.29242788854E+02 0.29042582699E+02 0.28628848687E+02 0.27907573333E+02
 0.26792946024E+02 0.25237430512E+02 0.23254588041E+02 0.20925890447E+02 0.18391365575E+02
 0.15824022299E+02 0.13396954355E+02 0.11248843964E+02 0.94626335873E+01 0.80545344377E+01
 0.69834162026E+01 0.61713678250E+01 0.55711602918E+01 0.51653325882E+01 0.49318235016E+01
 0.48562423238E+01 0.49318235016E+01 0.51653325882E+01 0.55711602918E+01 0.61713678250E+01
 0.69834162026E+01 0.80545344377E+01 0.94626335873E+01 0.11248843964E+02 0.13396954355E+02
 0.15824022299E+02 0.18391365575E+02 0.20925890447E+02 0.23254588041E+02 0.25237430512E+02
 0.26792946024E+02 0.27907573333E+02 0.28628848687E+02 0.29042582699E+02 0.29242788854E+02
 0.25260230891E+02 0.25198395955E+02 0.24991011989E+02 0.24579266167E+02 0.23888275501E+02
 0.22853502100E+02 0.21447426952E+02 0.19695937342E+02 0.17682151596E+02 0.15533251156E+02
 0.13396954355E+02 0.11410835298E+02 0.96777602730E+01 0.82464621594E+01 0.71124527143E+01
 0.62239235890E+01 0.55329621013E+01 0.50250141741E+01 0.46816137330E+01 0.44847848182E+01
 0.44206007931E+01 0.44847848182E+01 0.46816137330E+01 0.50250141741E+01 0.55329621013E+01
 0.62239235890E+01 0.71124527143E+01 0.82464621594E+01 0.96777602730E+01 0.11410835298E+02
 0.13396954355E+02 0.15533251156E+02 0.17682151596E+02 0.19695937342E+02 0.21447426952E+02
 0.22853502100E+02 0.23888275501E+02 0.24579266167E+02 0.24991011989E+02 0.25198395955E+02
 0.21512351919E+02 0.21443188285E+02 0.21219538728E+02 0.20799448702E+02 0.20131325422E+02
 0.19175917782E+02 0.17925665796E+02 0.16416590605E+02 0.14727126492E+02 0.12965720285E+02
 0.11248843964E+02 0.96777602730E+01 0.83176723352E+01 0.71907855379E+01 0.62736721219E+01
 0.55303316591E+01 0.49513584078E+01 0.45260602165E+01 0.42383481744E+01 0.40728975350E+01
 0.40190394529E+01 0.40728975350E+01 0.42383481744E+01 0.45260602165E+01 0.49513584078E+01
 0.55303316591E+01 0.62736721219E+01 0.71907855379E+01 0.83176723352E+01 0.96777602730E+01
 0.11248843964E+02 0.12965720285E+02 0.14727126492E+02 0.16416590605E+02 0.17925665796E+02
 0.19175917782E+02 0.20131325422E+02 0.20799448702E+02 0.21219538728E+02 0.21443188285E+02
 0.18141532967E+02 0.18067100403E+02 0.17833772702E+02 0.17415961842E+02 0.16784808165E+02
 0.15923579906E+02 0.14841108347E+02 0.13578007527E+02 0.12203620618E+02 0.10803645156E+02
 0.94626335873E+01 0.82464621594E+01 0.71907855379E+01 0.62936661650E+01 0.55366947165E+01
 0.49188982543E+01 0.44379678330E+01 0.40832689283E+01 0.38421813780E+01 0.37028461971E+01
 0.36573800082E+01 0.37028461971E+01 0.38421813780E+01 0.40832689283E+01 0.44379678330E+01
 0.49188982543E+01 0.55366947165E+01 0.62936661650E+01 0.71907855379E+01 0.82464621594E+01
 0.94626335873E+01 0.10803645156E+02 0.12203620618E+02 0.13578007527E+02 0.14841108347E+02
 0.15923579906E+02 0.16784808165E+02 0.17415961842E+02 0.17833772702E+02 0.18067100403E+02
 0.15239312448E+02 0.15164312548E+02 0.14934321146E+02 0.14537426204E+02 0.13962879778E+02
 0.13210932751E+02 0.12300569129E+02 0.11271697859E+02 0.10180567167E+02 0.90895549194E+01
 0.80545344377E+01 0.71124527143E+01 0.62736721219E+01 0.55366947165E+01 0.49102018282E+01
 0.43988891983E+01 0.39985036144E+01 0.37011426068E+01 0.34972285765E+01 0.33786463298E+01
 0.33397272871E+01 0.33786463298E+01 0.34972285765E+01 0.37011426068E+01 0.39985036144E+01
 0.43988891983E+01 0.49102018282E+01 0.55366947165E+01 0.62736721219E+01 0.71124527143E+01
 0.80545344377E+01 0.90895549194E+01 0.10180567167E+02 0.11271697859E+02 0.12300569129E+02
 0.13210932751E+02 0.13962879778E+02 0.14537426204E+02 0.14934321146E+02 0.15164312548E+02
 0.12871509835E+02 0.12800529876E+02 0.12586204183E+02 0.12226240565E+02 0.11722000907E+02
 0.11083858508E+02 0.10334567878E+02 0.95090037280E+01 0.86494301231E+01 0.77972754002E+01
 0.69834162026E+01 0.62239235890E+01 0.55303316591E+01 0.49188982543E+01 0.43988891983E+01
 0.39716654665E+01 0.36343060924E+01 0.33809523371E+01 0.32055140580E+01 0.31025640951E+01
 0.30686836886E+01 0.31025640951E+01 0.32055140580E+01 0.33809523371E+01 0.36343060924E+01
 0.39716654665E+01 0.43988891983E+01 0.49188982543E+01 0.55303316591E+01 0.62239235890E+01
 0.69834162026E+01 0.77972754002E+01 0.86494301231E+01 0.95090037280E+01 0.10334567878E+02
 0.11083858508E+02 0.11722000907E+02 0.12226240565E+02 0.12586204183E+02 0.12800529876E+02
 0.11056359103E+02 0.10992134994E+02 0.10800269897E+02 0.10483998765E+02 0.10051177816E+02
 0.95163351729E+01 0.89013848113E+01 0.82335434550E+01 0.75408520594E+01 0.68471174677E+01
 0.61713678250E+01 0.55329621013E+01 0.49513584078E+01 0.44379678330E+01 0.39985036144E+01
 0.36343060924E+01 0.33433116222E+01 0.31222757589E+01 0.29674735666E+01 0.28759446825E+01
 0.28456389903E+01 0.28759446825E+01 0.29674735666E+01 0.31222757589E+01 0.33433116222E+01
 0.36343060924E+01 0.39985036144E+01 0.44379678330E+01 0.49513584078E+01 0.55329621013E+01
 0.61713678250E+01 0.68471174677E+01 0.75408520594E+01 0.82335434550E+01 0.89013848113E+01
 0.95163351729E+01 0.10051177816E+02 0.10483998765E+02 0.10800269897E+02 0.10992134994E+02
 0.97604595953E+01 0.97033993530E+01 0.95339788080E+01 0.92577763167E+01 0.88846338997E+01
 0.84288118753E+01 0.79079797268E+01 0.73416168446E+01 0.67495048656E+01 0.61521897508E+01
 0.55711602918E+01 0.50250141741E+01 0.45260602165E+01 0.40832689283E+01 0.37011426068E+01
 0.33809523371E+01 0.31222757589E+01 0.29235052314E+01 0.27830182273E+01 0.26993165922E+01
 0.26715393654E+01 0.26993165922E+01 0.27830182273E+01 0.29235052314E+01 0.31222757589E+01
 0.33809523371E+01 0.37011426068E+01 0.40832689283E+01 0.45260602165E+01 0.50250141741E+01
 0.55711602918E+01 0.61521897508E+01 0.67495048656E+01 0.73416168446E+01 0.79079797268E+01
 0.84288118753E+01 0.88846338997E+01 0.92577763167E+01 0.95339788080E+01 0.97033993530E+01
 0.89112631566E+01 0.88594134352E+01 0.87058151025E+01 0.84562996548E+01 0.81203132138E+01
 0.77106573895E+01 0.72429536842E+01 0.67351749369E+01 0.62071216590E+01 0.56783110126E+01
 0.51653325882E+01 0.46816137330E+01 0.42383481744E+01 0.38421813780E+01 0.34972285765E+01
 0.32055140580E+01 0.29674735666E+01 0.27830182273E+01 0.26516554899E+01 0.25730350536E+01
 0.25468429024E+01 0.25730350536E+01 0.26516554899E+01 0.27830182273E+01 0.29674735666E+01
 0.32055140580E+01 0.34972285765E+01 0.38421813780E+01 0.42383481744E+01 0.46816137330E+01
 0.51653325882E+01 0.56783110126E+01 0.62071216590E+01 0.67351749369E+01 0.72429536842E+01
 0.77106573895E+01 0.81203132138E+01 0.84562996548E+01 0.87058151025E+01 0.88594134352E+01
 0.84219084847E+01 0.83725694304E+01 0.82265861442E+01 0.79900163022E+01 0.76727073534E+01
 0.72878945620E+01 0.68515294768E+01 0.63810301739E+01 0.58936470132E+01 0.54055815328E+01
 0.49318235016E+01 0.44847848182E+01 0.40728975350E+01 0.37028461971E+01 0.33786463298E+01
 0.31025640951E+01 0.28759446825E+01 0.26993165922E+01 0.25730350536E+01 0.24971956450E+01
 0.24719221580E+01 0.24971956450E+01 0.25730350536E+01 0.26993165922E+01 0.28759446825E+01
 0.31025640951E+01 0.33786463298E+01 0.37028461971E+01 0.40728975350E+01 0.44847848182E+01
 0.49318235016E+01 0.54055815328E+01 0.58936470132E+01 0.63810301739E+01 0.68515294768E+01
 0.72878945620E+01 0.76727073534E+01 0.79900163022E+01 0.82265861442E+01 0.83725694304E+01
 0.82573716695E+01 0.82089167577E+01 0.80657001398E+01 0.78340168399E+01 0.75239445370E+01
 0.71486625400E+01 0.67235287454E+01 0.62651986932E+01 0.57908300453E+01 0.53166509964E+01
 0.48562423238E+01 0.44206007931E+01 0.40190394529E+01 0.36573800082E+01 0.33397272871E+01
 0.30686836886E+01 0.28456389903E+01 0.26715393654E+01 0.25468429024E+01 0.24719221580E+01
 0.24469141023E+01 0.24719221580E+01 0.25468429024E+01 0.26715393654E+01 0.28456389903E+01
 0.30686836886E+01 0.33397272871E+01 0.36573800082E+01 0.40190394529E+01 0.44206007931E+01
 0.48562423238E+01 0.53166509964E+01 0.57908300453E+01 0.62651986932E+01 0.67235287454E+01
 0.71486625400E+01 0.75239445370E+01 0.78340168399E+01 0.80657001398E+01 0.82089167577E+01
 0.84219084847E+01 0.83725694304E+01 0.82265861442E+01 0.79900163022E+01 0.76727073534E+01
 0.72878945620E+01 0.68515294768E+01 0.63810301739E+01 0.58936470132E+01 0.54055815328E+01
 0.49318235016E+01 0.44847848182E+01 0.40728975350E+01 0.37028461971E+01 0.33786463298E+01
 0.31025640951E+01 0.28759446825E+01 0.26993165922E+01 0.25730350536E+01 0.24971956450E+01
 0.24719221580E+01 0.24971956450E+01 0.25730350536E+01 0.26993165922E+01 0.28759446825E+01
 0.31025640951E+01 0.33786463298E+01 0.37028461971E+01 0.40728975350E+01 0.44847848182E+01
 0.49318235016E+01 0.54055815328E+01 0.58936470132E+01 0.63810301739E+01 0.68515294768E+01
 0.72878945620E+01 0.76727073534E+01 0.79900163022E+01 0.82265861442E+01 0.83725694304E+01
 0.89112631566E+01 0.88594134352E+01 0.87058151025E+01 0.84562996548E+01 0.81203132138E+01
 0.77106573895E+01 0.72429536842E+01 0.67351749369E+01 0.62071216590E+01 0.56783110126E+01
 0.51653325882E+01 0.46816137330E+01 0.42383481744E+01 0.38421813780E+01 0.34972285765E+01
 0.32055140580E+01 0.29674735666E+01 0.27830182273E+01 0.26516554899E+01 0.25730350536E+01
 0.25468429024E+01 0.25730350536E+01 0.26516554899E+01 0.27830182273E+01 0.29674735666E+01
 0.32055140580E+01 0.34972285765E+01 0.38421813780E+01 0.42383481744E+01 0.46816137330E+01
 0.51653325882E+01 0.56783110126E+01 0.62071216590E+01 0.67351749369E+01 0.72429536842E+01
 0.77106573895E+01 0.81203132138E+01 0.84562996548E+01 0.87058151025E+01 0.88594134352E+01
 0.97604595953E+01 0.97033993530E+01 0.95339788080E+01 0.92577763167E+01 0.88846338997E+01
 0.84288118753E+01 0.79079797268E+01 0.73416168446E+01 0.67495048656E+01 0.61521897508E+01
 0.55711602918E+01 0.50250141741E+01 0.45260602165E+01 0.40832689283E+01 0.37011426068E+01
 0.33809523371E+01 0.31222757589E+01 0.29235052314E+01 0.27830182273E+01 0.26993165922E+01
 0.26715393654E+01 0.26993165922E+01 0.27830182273E+01 0.29235052314E+01 0.31222757589E+01
 0.33809523371E+01 0.37011426068E+01 0.40832689283E+01 0.45260602165E+01 0.50250141741E+01
 0.55711602918E+01 0.61521897508E+01 0.67495048656E+01 0.73416168446E+01 0.79079797268E+01
 0.84288118753E+01 0.88846338997E+01 0.92577763167E+01 0.95339788080E+01 0.97033993530E+01
 0.11056359103E+02 0.10992134994E+02 0.10800269897E+02 0.10483998765E+02 0.10051177816E+02
 0.95163351729E+01 0.89013848113E+01 0.82335434550E+01 0.75408520594E+01 0.68471174677E+01
 0.61713678250E+01 0.55329621013E+01 0.49513584078E+01 0.44379678330E+01 0.39985036144E+01
 0.36343060924E+01 0.33433116222E+01 0.31222757589E+01 0.29674735666E+01 0.28759446825E+01
 0.28456389903E+01 0.28759446825E+01 0.29674735666E+01 0.31222757589E+01 0.33433116222E+01
 0.36343060924E+01 0.39985036144E+01 0.44379678330E+01 0.49513584078E+01 0.55329621013E+01
 0.61713678250E+01 0.68471174677E+01 0.75408520594E+01 0.82335434550E+01 0.89013848113E+01
 0.95163351729E+01 0.10051177816E+02 0.10483998765E+02 0.10800269897E+02 0.10992134994E+02
 0.12871509835E+02 0.12800529876E+02 0.12586204183E+02 0.12226240565E+02 0.11722000907E+02
 0.11083858508E+02 0.10334567878E+02 0.95090037280E+01 0.86494301231E+01 0.77972754002E+01
 0.69834162026E+01 0.62239235890E+01 0.55303316591E+01 0.49188982543E+01 0.43988891983E+01
 0.39716654665E+01 0.36343060924E+01 0.33809523371E+01 0.32055140580E+01 0.31025640951E+01
 0.30686836886E+01 0.31025640951E+01 0.32055140580E+01 0.33809523371E+01 0.36343060924E+01
 0.39716654665E+01 0.43988891983E+01 0.49188982543E+01 0.55303316591E+01 0.62239235890E+01
 0.69834162026E+01 0.77972754002E+01 0.86494301231E+01 0.95090037280E+01 0.10334567878E+02
 0.11083858508E+02 0.11722000907E+02 0.12226240565E+02 0.12586204183E+02 0.12800529876E+02
 0.15239312448E+02 0.15164312548E+02 0.14934321146E+02 0.14537426204E+02 0.13962879778E+02
 0.13210932751E+02 0.12300569129E+02 0.11271697859E+02 0.10180567167E+02 0.90895549194E+01
 0.80545344377E+01 0.71124527143E+01 0.62736721219E+01 0.55366947165E+01 0.49102018282E+01
 0.43988891983E+01 0.39985036144E+01 0.37011426068E+01 0.34972285765E+01 0.33786463298E+01
 0.33397272871E+01 0.33786463298E+01 0.34972285765E+01 0.37011426068E+01 0.39985036144E+01
 0.43988891983E+01 0.49102018282E+01 0.55366947165E+01 0.62736721219E+01 0.71124527143E+01
 0.80545344377E+01 0.90895549194E+01 0.10180567167E+02 0.11271697859E+02 0.12300569129E+02
 0.13210932751E+02 0.13962879778E+02 0.14537426204E+02 0.14934321146E+02 0.15164312548E+02
 0.18141532967E+02 0.18067100403E+02 0.17833772702E+02 0.17415961842E+02 0.16784808165E+02
 0.15923579906E+02 0.14841108347E+02 0.13578007527E+02 0.12203620618E+02 0.10803645156E+02
 0.94626335873E+01 0.82464621594E+01 0.71907855379E+01 0.62936661650E+01 0.55366947165E+01
 0.49188982543E+01 0.44379678330E+01 0.40832689283E+01 0.38421813780E+01 0.37028461971E+01
 0.36573800082E+01 0.37028461971E+01 0.38421813780E+01 0.40832689283E+01 0.44379678330E+01
 0.49188982543E+01 0.55366947165E+01 0.62936661650E+01 0.71907855379E+01 0.82464621594E+01
 0.94626335873E+01 0.10803645156E+02 0.12203620618E+02 0.13578007527E+02 0.14841108347E+02
 0.15923579906E+02 0.16784808165E+02 0.17415961842E+02 0.17833772702E+02 0.18067100403E+02
 0.21512351919E+02 0.21443188285E+02 0.21219538728E+02 0.20799448702E+02 0.20131325422E+02
 0.19175917782E+02 0.17925665796E+02 0.16416590605E+02 0.14727126492E+02 0.12965720285E+02
 0.11248843964E+02 0.96777602730E+01 0.83176723352E+01 0.71907855379E+01 0.62736721219E+01
 0.55303316591E+01 0.49513584078E+01 0.45260602165E+01 0.42383481744E+01 0.40728975350E+01
 0.40190394529E+01 0.40728975350E+01 0.42383481744E+01 0.45260602165E+01 0.49513584078E+01
 0.55303316591E+01 0.62736721219E+01 0.71907855379E+01 0.83176723352E+01 0.96777602730E+01
 0.11248843964E+02 0.12965720285E+02 0.14727126492E+02 0.16416590605E+02 0.17925665796E+02
 0.19175917782E+02 0.20131325422E+02 0.20799448702E+02 0.21219538728E+02 0.21443188285E+02
 0.25260230891E+02 0.25198395955E+02 0.24991011989E+02 0.24579266167E+02 0.23888275501E+02
 0.22853502100E+02 0.21447426952E+02 0.19695937342E+02 0.17682151596E+02 0.15533251156E+02
 0.13396954355E+02 0.11410835298E+02 0.96777602730E+01 0.82464621594E+01 0.71124527143E+01
 0.62239235890E+01 0.55329621013E+01 0.50250141741E+01 0.46816137330E+01 0.44847848182E+01
 0.44206007931E+01 0.44847848182E+01 0.46816137330E+01 0.50250141741E+01 0.55329621013E+01
 0.62239235890E+01 0.71124527143E+01 0.82464621594E+01 0.96777602730E+01 0.11410835298E+02
 0.13396954355E+02 0.15533251156E+02 0.17682151596E+02 0.19695937342E+02 0.21447426952E+02
 0.22853502100E+02 0.23888275501E+02 0.24579266167E+02 0.24991011989E+02 0.25198395955E+02
 0.29300655977E+02 0.29242788854E+02 0.29042582699E+02 0.28628848687E+02 0.27907573333E+02
 0.26792946024E+02 0.25237430512E+02 0.23254588041E+02 0.20925890447E+02 0.18391365575E+02
 0.15824022299E+02 0.13396954355E+02 0.11248843964E+02 0.94626335873E+01 0.80545344377E+01
 0.69834162026E+01 0.61713678250E+01 0.55711602918E+01 0.51653325882E+01 0.49318235016E+01
 0.48562423238E+01 0.49318235016E+01 0.51653325882E+01 0.55711602918E+01 0.61713678250E+01
 0.69834162026E+01 0.80545344377E+01 0.94626335873E+01 0.11248843964E+02 0.13396954355E+02
 0.15824022299E+02 0.18391365575E+02 0.20925890447E+02 0.23254588041E+02 0.25237430512E+02
 0.26792946024E+02 0.27907573333E+02 0.28628848687E+02 0.29042582699E+02 0.29242788854E+02
 0.33584416072E+02 0.33518822305E+02 0.33294280551E+02 0.32835555596E+02 0.32041329372E+02
 0.30814926094E+02 0.29096057801E+02 0.26886620333E+02 0.24262380183E+02 0.21367617772E+02
 0.18391365575E+02 0.15533251156E+02 0.12965720285E+02 0.10803645156E+02 0.90895549194E+01
 0.77972754002E+01 0.68471174677E+01 0.61521897508E+01 0.56783110126E+01 0.54055815328E+01
 0.53166509964E+01 0.54055815328E+01 0.56783110126E+01 0.61521897508E+01 0.68471174677E+01
 0.77972754002E+01 0.90895549194E+01 0.10803645156E+02 0.12965720285E+02 0.15533251156E+02
 0.18391365575E+02 0.21367617772E+02 0.24262380183E+02 0.26886620333E+02 0.29096057801E+02
 0.30814926094E+02 0.32041329372E+02 0.32835555596E+02 0.33294280551E+02 0.33518822305E+02
 0.38102622580E+02 0.38008767562E+02 0.37703191153E+02 0.37119541762E+02 0.36167221601E+02
 0.34756625868E+02 0.32828668163E+02 0.30379791835E+02 0.27478052623E+02 0.24262380183E+02
 0.20925890447E+02 0.17682151596E+02 0.14727126492E+02 0.12203620618E+02 0.10180567167E+02
 0.86494301231E+01 0.75408520594E+01 0.67495048656E+01 0.62071216590E+01 0.58936470132E+01
 0.57908300453E+01 0.58936470132E+01 0.62071216590E+01 0.67495048656E+01 0.75408520594E+01
 0.86494301231E+01 0.10180567167E+02 0.12203620618E+02 0.14727126492E+02 0.17682151596E+02
 0.20925890447E+02 0.24262380183E+02 0.27478052623E+02 0.30379791835E+02 0.32828668163E+02
 0.34756625868E+02 0.36167221601E+02 0.37119541762E+02 0.37703191153E+02 0.38008767562E+02
 0.42861799729E+02 0.42712144312E+02 0.42248412081E+02 0.41429274031E+02 0.40196831051E+02
 0.38492213758E+02 0.36276434169E+02 0.33551840634E+02 0.30379791835E+02 0.26886620333E+02
 0.23254588041E+02 0.19695937342E+02 0.16416590605E+02 0.13578007527E+02 0.11271697859E+02
 0.95090037280E+01 0.82335434550E+01 0.73416168446E+01 0.67351749369E+01 0.63810301739E+01
 0.62651986932E+01 0.63810301739E+01 0.67351749369E+01 0.73416168446E+01 0.82335434550E+01
 0.95090037280E+01 0.11271697859E+02 0.13578007527E+02 0.16416590605E+02 0.19695937342E+02
 0.23254588041E+02 0.26886620333E+02 0.30379791835E+02 0.33551840634E+02 0.36276434169E+02
 0.38492213758E+02 0.40196831051E+02 0.41429274031E+02 0.42248412081E+02 0.42712144312E+02
 0.47835311939E+02 0.47599637708E+02 0.46892792908E+02 0.45714610708E+02 0.44062736809E+02
 0.41934001613E+02 0.39331093367E+02 0.36276434169E+02 0.32828668163E+02 0.29096057801E+02
 0.25237430512E+02 0.21447426952E+02 0.17925665796E+02 0.14841108347E+02 0.12300569129E+02
 0.10334567878E+02 0.89013848113E+01 0.79079797268E+01 0.72429536842E+01 0.68515294768E+01
 0.67235287454E+01 0.68515294768E+01 0.72429536842E+01 0.79079797268E+01 0.89013848113E+01
 0.10334567878E+02 0.12300569129E+02 0.14841108347E+02 0.17925665796E+02 0.21447426952E+02
 0.25237430512E+02 0.29096057801E+02 0.32828668163E+02 0.36276434169E+02 0.39331093367E+02
 0.41934001613E+02 0.44062736809E+02 0.45714610708E+02 0.46892792908E+02 0.47599637708E+02
 0.52910247741E+02 0.52562070150E+02 0.51537441026E+02 0.49890371085E+02 0.47693235376E+02
 0.45019786122E+02 0.41934001613E+02 0.38492213758E+02 0.34756625868E+02 0.30814926094E+02
 0.26792946024E+02 0.22853502100E+02 0.19175917782E+02 0.15923579906E+02 0.13210932751E+02
 0.11083858508E+02 0.95163351729E+01 0.84288118753E+01 0.77106573895E+01 0.72878945620E+01
 0.71486625400E+01 0.72878945620E+01 0.77106573895E+01 0.84288118753E+01 0.95163351729E+01
 0.11083858508E+02 0.13210932751E+02 0.15923579906E+02 0.19175917782E+02 0.22853502100E+02
 0.26792946024E+02 0.30814926094E+02 0.34756625868E+02 0.38492213758E+02 0.41934001613E+02
 0.45019786122E+02 0.47693235376E+02 0.49890371085E+02 0.51537441026E+02 0.52562070150E+02
 0.57855503779E+02 0.57378934600E+02 0.55991436592E+02 0.53808377791E+02 0.50987810356E+02
 0.47693235376E+02 0.44062736809E+02 0.40196831051E+02 0.36167221601E+02 0.32041329372E+02
 0.27907573333E+02 0.23888275501E+02 0.20131325422E+02 0.16784808165E+02 0.13962879778E+02
 0.11722000907E+02 0.10051177816E+02 0.88846338997E+01 0.81203132138E+01 0.76727073534E+01
 0.75239445370E+01 0.76727073534E+01 0.81203132138E+01 0.88846338997E+01 0.10051177816E+02
 0.11722000907E+02 0.13962879778E+02 0.16784808165E+02 0.20131325422E+02 0.23888275501E+02
 0.27907573333E+02 0.32041329372E+02 0.36167221601E+02 0.40196831051E+02 0.44062736809E+02
 0.47693235376E+02 0.50987810356E+02 0.53808377791E+02 0.55991436592E+02 0.57378934600E+02
 0.62329066120E+02 0.61724239844E+02 0.59973959346E+02 0.57254220740E+02 0.53808377791E+02
 0.49890371085E+02 0.45714610708E+02 0.41429274031E+02 0.37119541762E+02 0.32835555596E+02
 0.28628848687E+02 0.24579266167E+02 0.20799448702E+02 0.17415961842E+02 0.14537426204E+02
 0.12226240565E+02 0.10483998765E+02 0.92577763167E+01 0.84562996548E+01 0.79900163022E+01
 0.78340168399E+01 0.79900163022E+01 0.84562996548E+01 0.92577763167E+01 0.10483998765E+02
 0.12226240565E+02 0.14537426204E+02 0.17415961842E+02 0.20799448702E+02 0.24579266167E+02
 0.28628848687E+02 0.32835555596E+02 0.37119541762E+02 0.41429274031E+02 0.45714610708E+02
 0.49890371085E+02 0.53808377791E+02 0.57254220740E+02 0.59973959346E+02 0.61724239844E+02
 0.65928622854E+02 0.65214152503E+02 0.63153492096E+02 0.59973959346E+02 0.55991436592E+02
 0.51537441026E+02 0.46892792908E+02 0.42248412081E+02 0.37703191153E+02 0.33294280551E+02
 0.29042582699E+02 0.24991011989E+02 0.21219538728E+02 0.17833772702E+02 0.14934321146E+02
 0.12586204183E+02 0.10800269897E+02 0.95339788080E+01 0.87058151025E+01 0.82265861442E+01
 0.80657001398E+01 0.82265861442E+01 0.87058151025E+01 0.95339788080E+01 0.10800269897E+02
 0.12586204183E+02 0.14934321146E+02 0.17833772702E+02 0.21219538728E+02 0.24991011989E+02
 0.29042582699E+02 0.33294280551E+02 0.37703191153E+02 0.42248412081E+02 0.46892792908E+02
 0.51537441026E+02 0.55991436592E+02 0.59973959346E+02 0.63153492096E+02 0.65214152503E+02
 0.68272489852E+02 0.67484118082E+02 0.65214152503E+02 0.61724239844E+02 0.57378934600E+02
 0.52562070150E+02 0.47599637708E+02 0.42712144312E+02 0.38008767562E+02 0.33518822305E+02
 0.29242788854E+02 0.25198395955E+02 0.21443188285E+02 0.18067100403E+02 0.15164312548E+02
 0.12800529876E+02 0.10992134994E+02 0.97033993530E+01 0.88594134352E+01 0.83725694304E+01
 0.82089167577E+01 0.83725694304E+01 0.88594134352E+01 0.97033993530E+01 0.10992134994E+02
 0.12800529876E+02 0.15164312548E+02 0.18067100403E+02 0.21443188285E+02 0.25198395955E+02
 0.29242788854E+02 0.33518822305E+02 0.38008767562E+02 0.42712144312E+02 0.47599637708E+02
 0.52562070150E+02 0.57378934600E+02 0.61724239844E+02 0.65214152503E+02 0.67484118082E+02
 0.68272489852E+02 0.67484118082E+02 0.65214152503E+02 0.61724239844E+02 0.57378934600E+02
 0.52562070150E+02 0.47599637708E+02 0.42712144312E+02 0.38008767562E+02 0.33518822305E+02
 0.29242788854E+02 0.25198395955E+02 0.21443188285E+02 0.18067100403E+02 0.15164312548E+02
 0.12800529876E+02 0.10992134994E+02 0.97033993530E+01 0.88594134352E+01 0.83725694304E+01
 0.82089167577E+01 0.83725694304E+01 0.88594134352E+01 0.97033993530E+01 0.10992134994E+02
 0.12800529876E+02 0.15164312548E+02 0.18067100403E+02 0.21443188285E+02 0.25198395955E+02