    1    1   80    1
  0.1757600E+02  0.2600000E-09  0.2600000E-09  0.2600000E-09  0.5000000E-15
  1.000000000000000E-004
  CAR 
 unknown system                          
     10     56     10
 
  0.0000000E+00  0.0000000E+00  0.0000000E+00  0.1000000E-02
    1       -2.997080   1.000000
    2       -0.259950   1.000000
    3       -0.259950   1.000000
    4        5.627249   0.050201
    5        5.627249   0.050201
    6        5.627249   0.050201
    7       20.764006   0.000000
    8       20.764006   0.000000
    9       20.764006   0.000000
   10       26.176479   0.000000
 
  0.1000000E+00  0.0000000E+00  0.0000000E+00  0.6000000E-02
    1       -2.721958   1.000000
    2       -0.208976   1.000000
    3       -0.008188   1.000000
    4        5.385397   0.526807
    5        5.385397   0.526807
    6        5.646525   0.037603
    7       18.942851   0.000000
    8       21.251630   0.000000
    9       21.251630   0.000000
   10       27.068522   0.000000
 
  0.2000000E+00  0.0000000E+00  0.0000000E+00  0.6000000E-02
    1       -2.030225   1.000000
    2       -0.072657   1.000000
    3        0.794532   1.000000
    4        4.802042   0.999986
    5        4.802042   0.999986
    6        5.697282   0.016254
    7       15.965684   0.000000
    8       22.541552   0.000000
    9       22.541552   0.000000
   10       25.761502   0.000000
 
  0.3000000E+00  0.0000000E+00  0.0000000E+00  0.6000000E-02
    1       -1.242646   1.000000
    2        0.101993   1.000000
    3        2.189813   1.000000
    4        4.159216   1.000000
    5        4.159216   1.000000
    6        5.760664   0.004851
    7       13.157387   0.000000
    8       24.047332   0.000000
    9       24.258875   0.000000
   10       24.258875   0.000000
 
  0.4000000E+00  0.0000000E+00  0.0000000E+00  0.6000000E-02
    1       -0.643087   1.000000
    2        0.248739   1.000000
    3        3.687747   1.000000
    4        3.687747   1.000000
    5        3.900474   1.000000
    6        5.812503   0.001574
    7       10.834746   0.000000
    8       22.914967   0.000000
    9       25.950967   0.000000
   10       25.950977   0.000000
 
  0.5000000E+00  0.0000000E+00  0.0000000E+00  0.3000000E-02
    1       -0.415890   1.000000
    2        0.306086   1.000000
    3        3.517066   1.000000
    4        3.517066   1.000000
    5        4.889528   0.999824
    6        5.832393   0.000989
    7        9.706178   0.000000
    8       22.520895   0.000000
    9       25.537021   0.000000
   10       26.792083   0.000000
 
  0.1000000E+00  0.1000000E+00  0.0000000E+00  0.1200000E-01
    1       -2.442678   1.000000
    2       -0.053951   1.000000
    3        0.134609   1.000000
    4        5.130476   0.969245
    5        5.369715   0.570693
    6        5.445184   0.361103
    7       19.100183   0.000000
    8       19.680459   0.000000
    9       21.742357   0.000000
   10       27.210876   0.000000
 
  0.2000000E+00  0.1000000E+00  0.0000000E+00  0.2400000E-01
    1       -1.747895   1.000000
    2        0.127601   1.000000
    3        0.879236   1.000000
    4        4.532838   1.000000
    5        4.824642   0.999972
    6        5.470380   0.296783
    7       16.363634   0.000000
    8       20.482275   0.000000
    9       23.043320   0.000000
   10       26.009763   0.000000
 
  0.3000000E+00  0.1000000E+00  0.0000000E+00  0.2400000E-01
    1       -0.970465   1.000000
    2        0.318096   1.000000
    3        2.140424   1.000000
    4        4.022655   1.000000
    5        4.189437   1.000000
    6        5.539384   0.153484
    7       13.509878   0.000000
    8       21.765877   0.000000
    9       24.583415   0.000000
   10       24.785609   0.000000
 
  0.4000000E+00  0.1000000E+00  0.0000000E+00  0.2400000E-01
    1       -0.379952   1.000000
    2        0.489216   1.000000
    3        2.715176   1.000000
    4        3.722077   1.000000
    5        4.767274   0.999995
    6        5.596503   0.077007
    7       11.045283   0.000000
    8       22.627011   0.000000
    9       24.040911   0.000000
   10       26.542658   0.000000
 
  0.5000000E+00  0.1000000E+00  0.0000000E+00  0.1200000E-01
    1       -0.155045   1.000000
    2        0.566111   1.000000
    3        2.628281   1.000000
    4        3.552726   1.000000
    5        5.618536   0.056905
    6        5.822324   0.001254
    7        9.728022   0.000000
    8       22.605554   0.000000
    9       25.008987   0.000000
   10       25.085724   0.000000
 
  0.2000000E+00  0.2000000E+00  0.0000000E+00  0.1200000E-01
    1       -1.090657   1.000000
    2        0.633259   1.000000
    3        1.289537   1.000000
    4        3.946579   1.000000
    5        4.816053   0.999979
    6        4.988269   0.997982
    7       17.325749   0.000000
    8       17.427424   0.000000
    9       24.374869   0.000000
   10       25.685492   0.000000
 
  0.3000000E+00  0.2000000E+00  0.0000000E+00  0.2400000E-01
    1       -0.439260   1.000000
    2        0.981944   1.000000
    3        2.122553   1.000000
    4        3.855674   1.000000
    5        4.267599   1.000000
    6        5.001129   0.997319
    7       14.360745   0.000000
    8       18.741252   0.000000
    9       24.704309   0.000000
   10       26.164058   0.000000
 
  0.4000000E+00  0.2000000E+00  0.0000000E+00  0.2400000E-01
    1        0.022599   1.000000
    2        1.238161   1.000000
    3        1.983532   1.000000
    4        3.813102   1.000000
    5        5.067502   0.989696
    6        5.556178   0.127068
    7       11.588937   0.000000
    8       20.290380   0.000000
    9       23.517571   0.000000
   10       26.069479   0.000000
 
  0.5000000E+00  0.2000000E+00  0.0000000E+00  0.1200000E-01
    1        0.197491   1.000000
    2        1.434981   1.000000
    3        1.704934   1.000000
    4        3.647390   1.000000
    5        5.093968   0.983330
    6        7.171645   0.000000
    7        9.784913   0.000000
    8       21.946874   0.000000
    9       22.059157   0.000000
   10       24.942877   0.000000
 
  0.3000000E+00  0.3000000E+00  0.0000000E+00  0.1200000E-01
    1       -0.011908   1.000000
    2        1.029518   1.000000
    3        3.114318   1.000000
    4        4.199436   1.000000
    5        4.307504   1.000000
    6        4.458297   1.000000
    7       14.591437   0.000000
    8       16.730960   0.000000
    9       23.818520   0.000000
   10       27.828749   0.000000
 
  0.4000000E+00  0.3000000E+00  0.0000000E+00  0.2400000E-01
    1        0.284810   1.000000
    2        0.683870   1.000000
    3        3.585968   1.000000
    4        3.927607   1.000000
    5        4.473919   1.000000
    6        6.237453   0.000000
    7       12.161623   0.000000
    8       17.696372   0.000000
    9       22.003260   0.000000
   10       26.554840   0.000000
 
  0.5000000E+00  0.3000000E+00  0.0000000E+00  0.1200000E-01
    1        0.462471   1.000000
    2        0.468788   1.000000
    3        3.664112   1.000000
    4        3.767060   1.000000
    5        4.503984   1.000000
    6        8.443923   0.000000
    7        9.851146   0.000000
    8       18.857393   0.000000
    9       20.571217   0.000000
   10       25.924941   0.000000
 
  0.4000000E+00  0.4000000E+00  0.0000000E+00  0.1200000E-01
    1        0.023814   1.000000
    2        0.602293   1.000000
    3        4.001063   1.000000
    4        4.053904   1.000000
    5        5.415127   0.443154
    6        7.327410   0.000000
    7       11.787680   0.000000
    8       16.161291   0.000000
    9       20.155549   0.000000
   10       27.364529   0.000000
 
  0.5000000E+00  0.4000000E+00  0.0000000E+00  0.1200000E-01
    1       -0.163534   1.000000
    2        0.674336   1.000000
    3        3.866182   1.000000
    4        4.064721   1.000000
    5        5.921385   0.000099
    6        9.444089   0.000000
    7        9.881135   0.000000
    8       16.092586   0.000000
    9       19.218427   0.000000
   10       27.140935   0.000000
 
  0.5000000E+00  0.5000000E+00  0.0000000E+00  0.3000000E-02
    1       -0.378999   1.000000
    2        0.753399   1.000000
    3        3.904673   1.000000
    4        3.904673   1.000000
    5        7.193728   0.000000
    6        9.850528   0.000000
    7        9.850528   0.000000
    8       14.719560   0.000000
    9       18.667997   0.000000
   10       27.752723   0.000000
 
  0.1000000E+00  0.1000000E+00  0.1000000E+00  0.8000000E-02
    1       -2.156550   1.000000
    2        0.185298   1.000000
    3        0.185298   1.000000
    4        5.095153   0.982979
    5        5.186038   0.930153
    6        5.186038   0.930153
    7       19.229155   0.000000
    8       20.138377   0.000000
    9       20.138377   0.000000
   10       28.805180   0.000000
 
  0.2000000E+00  0.1000000E+00  0.1000000E+00  0.2400000E-01
    1       -1.450411   1.000000
    2        0.322244   1.000000
    3        0.952643   1.000000
    4        4.560821   1.000000
    5        4.562676   1.000000
    6        5.226584   0.883021
    7       16.754826   0.000000
    8       20.565715   0.000000
    9       21.281401   0.000000
   10       27.171092   0.000000
 
  0.3000000E+00  0.1000000E+00  0.1000000E+00  0.2400000E-01
    1       -0.666984   1.000000
    2        0.501823   1.000000
    3        2.112243   1.000000
    4        3.874515   1.000000
    5        4.215869   1.000000
    6        5.304440   0.738816
    7       13.871990   0.000000
    8       21.784694   0.000000
    9       22.483937   0.000000
   10       25.978641   0.000000
 
  0.4000000E+00  0.1000000E+00  0.1000000E+00  0.2400000E-01
    1       -0.050215   1.000000
    2        0.658663   1.000000
    3        2.481169   1.000000
    4        3.364060   1.000000
    5        5.263248   0.824065
    6        5.388846   0.517094
    7       11.283901   0.000000
    8       22.868413   0.000000
    9       23.127851   0.000000
   10       25.997610   0.000000
 
  0.5000000E+00  0.1000000E+00  0.1000000E+00  0.1200000E-01
    1        0.205379   1.000000
    2        0.722427   1.000000
    3        2.373039   1.000000
    4        3.176681   1.000000
    5        5.389604   0.514958
    6        6.545740   0.000000
    7        9.766265   0.000000
    8       22.791633   0.000000
    9       24.434937   0.000000
   10       25.011465   0.000000
 
  0.2000000E+00  0.2000000E+00  0.1000000E+00  0.2400000E-01
    1       -0.760150   1.000000
    2        0.811616   1.000000
    3        1.333394   1.000000
    4        3.982006   1.000000
    5        4.600041   1.000000
    6        4.694709   1.000000
    7       17.709587   0.000000
    8       17.812787   0.000000
    9       22.008440   0.000000
   10       27.372034   0.000000
 
  0.3000000E+00  0.2000000E+00  0.1000000E+00  0.4800000E-01
    1       -0.082031   1.000000
    2        1.105566   1.000000
    3        2.137421   1.000000
    4        3.628455   1.000000
    5        4.328086   1.000000
    6        4.759608   0.999996
    7       14.756605   0.000000
    8       19.065508   0.000000
    9       23.130973   0.000000
   10       26.273733   0.000000
 
  0.4000000E+00  0.2000000E+00  0.1000000E+00  0.4800000E-01
    1        0.425638   1.000000
    2        1.308791   1.000000
    3        2.007637   1.000000
    4        3.289496   1.000000
    5        4.806155   0.999984
    6        5.997630   0.000010
    7       11.897959   0.000000
    8       20.572095   0.000000
    9       23.575773   0.000000
   10       24.847155   0.000000
 
  0.5000000E+00  0.2000000E+00  0.1000000E+00  0.2400000E-01
    1        0.641889   1.000000
    2        1.446650   1.000000
    3        1.755603   1.000000
    4        3.116199   1.000000
    5        4.843257   0.999952
    6        7.815369   0.000000
    7        9.867337   0.000000
    8       22.199749   0.000000
    9       22.428063   0.000000
   10       24.138301   0.000000
 
  0.3000000E+00  0.3000000E+00  0.1000000E+00  0.2400000E-01
    1        0.339560   1.000000
    2        1.154785   1.000000
    3        3.061000   1.000000
    4        3.617542   1.000000
    5        4.217107   1.000000
    6        4.794857   0.999989
    7       15.110577   0.000000
    8       16.945023   0.000000
    9       23.918222   0.000000
   10       24.829993   0.000000
 
  0.4000000E+00  0.3000000E+00  0.1000000E+00  0.4800000E-01
    1        0.546256   1.000000
    2        0.915249   1.000000
    3        3.393865   1.000000
    4        3.431426   1.000000
    5        4.371760   1.000000
    6        6.662813   0.000000
    7       12.579002   0.000000
    8       17.960034   0.000000
    9       22.142958   0.000000
   10       25.037065   0.000000
 
  0.5000000E+00  0.3000000E+00  0.1000000E+00  0.2400000E-01
    1        0.527878   1.000000
    2        0.906690   1.000000
    3        3.239148   1.000000
    4        3.482051   1.000000
    5        4.440523   1.000000
    6        9.073262   0.000000
    7       10.014988   0.000000
    8       19.277618   0.000000
    9       20.467338   0.000000
   10       25.164326   0.000000
 
  0.4000000E+00  0.4000000E+00  0.1000000E+00  0.2400000E-01
    1        0.104798   1.000000
    2        1.034907   1.000000
    3        3.493102   1.000000
    4        3.537386   1.000000
    5        5.584023   0.090570
    6        7.808974   0.000000
    7       12.323442   0.000000
    8       16.337135   0.000000
    9       20.064891   0.000000
   10       26.017942   0.000000
 
  0.5000000E+00  0.4000000E+00  0.1000000E+00  0.2400000E-01
    1       -0.083567   1.000000
    2        1.118413   1.000000
    3        3.359416   1.000000
    4        3.561768   1.000000
    5        6.083654   0.000001
    6       10.083404   0.000000
    7       10.241926   0.000000
    8       16.324523   0.000000
    9       19.010037   0.000000
   10       26.417943   0.000000
 
  0.5000000E+00  0.5000000E+00  0.1000000E+00  0.6000000E-02
    1       -0.295889   1.000000
    2        1.204158   1.000000
    3        3.407576   1.000000
    4        3.407576   1.000000
    5        7.206943   0.000000
    6       10.501587   0.000000
    7       10.501587   0.000000
    8       14.758976   0.000000
    9       18.422970   0.000000
   10       27.553234   0.000000
 
  0.2000000E+00  0.2000000E+00  0.2000000E+00  0.8000000E-02
    1       -0.020799   1.000000
    2        1.453988   1.000000
    3        1.453988   1.000000
    4        3.998904   1.000000
    5        3.998904   1.000000
    6        4.256899   1.000000
    7       18.288789   0.000000
    8       19.054495   0.000000
    9       19.054495   0.000000
   10       29.159761   0.000000
 
  0.3000000E+00  0.2000000E+00  0.2000000E+00  0.2400000E-01
    1        0.609738   1.000000
    2        1.623381   1.000000
    3        2.206099   1.000000
    4        3.234332   1.000000
    5        4.046645   1.000000
    6        4.672942   1.000000
    7       15.726577   0.000000
    8       19.513260   0.000000
    9       20.631690   0.000000
   10       27.217147   0.000000
 
  0.4000000E+00  0.2000000E+00  0.2000000E+00  0.2400000E-01
    1        1.063532   1.000000
    2        1.810268   1.000000
    3        2.053718   1.000000
    4        2.634310   1.000000
    5        4.244608   1.000000
    6        6.684558   0.000000
    7       12.677548   0.000000
    8       20.693297   0.000000
    9       22.218690   0.000000
   10       24.983916   0.000000
 
  0.5000000E+00  0.2000000E+00  0.2000000E+00  0.1200000E-01
    1        1.301368   1.000000
    2        1.831648   1.000000
    3        1.937615   1.000000
    4        2.362178   1.000000
    5        4.298738   1.000000
    6        9.080345   0.000000
    7       10.079714   0.000000
    8       21.704098   0.000000
    9       23.369173   0.000000
   10       23.370229   0.000000
 
  0.3000000E+00  0.3000000E+00  0.2000000E+00  0.2400000E-01
    1        0.873264   1.000000
    2        1.828496   1.000000
    3        2.751027   1.000000
    4        3.068221   1.000000
    5        3.861803   1.000000
    6        5.335593   0.662543
    7       16.423608   0.000000
    8       17.450154   0.000000
    9       21.277122   0.000000
   10       25.081184   0.000000
 
  0.4000000E+00  0.3000000E+00  0.2000000E+00  0.4800000E-01
    1        0.778718   1.000000
    2        1.898775   1.000000
    3        2.529419   1.000000
    4        2.972774   1.000000
    5        4.347980   1.000000
    6        7.416336   0.000000
    7       13.594872   0.000000
    8       18.515711   0.000000
    9       21.755658   0.000000
   10       23.496420   0.000000
 
  0.5000000E+00  0.3000000E+00  0.2000000E+00  0.2400000E-01
    1        0.688931   1.000000
    2        2.066811   1.000000
    3        2.236296   1.000000
    4        2.997839   1.000000
    5        4.475711   1.000000
    6       10.389853   0.000000
    7       10.412752   0.000000
    8       19.903028   0.000000
    9       20.363605   0.000000
   10       24.099473   0.000000
 
  0.4000000E+00  0.4000000E+00  0.2000000E+00  0.2400000E-01
    1        0.314983   1.000000
    2        2.065548   1.000000
    3        2.562945   1.000000
    4        2.749931   1.000000
    5        5.791226   0.002536
    6        8.747404   0.000000
    7       13.628828   0.000000
    8       16.702820   0.000000
    9       19.671815   0.000000
   10       24.319495   0.000000
 
  0.5000000E+00  0.4000000E+00  0.2000000E+00  0.2400000E-01
    1        0.133280   1.000000
    2        2.249725   1.000000
    3        2.344828   1.000000
    4        2.737343   1.000000
    5        6.298558   0.000000
    6       11.055569   0.000000
    7       11.476648   0.000000
    8       16.957529   0.000000
    9       18.357904   0.000000
   10       25.148714   0.000000
 
  0.5000000E+00  0.5000000E+00  0.2000000E+00  0.6000000E-02
    1       -0.069357   1.000000
    2        2.400938   1.000000
    3        2.400938   1.000000
    4        2.493637   1.000000
    5        7.241712   0.000000
    6       11.949236   0.000000
    7       11.949236   0.000000
    8       14.869460   0.000000
    9       17.715202   0.000000
   10       26.026422   0.000000
 
  0.3000000E+00  0.3000000E+00  0.3000000E+00  0.8000000E-02
    1        0.985239   1.000000
    2        2.154860   1.000000
    3        2.154860   1.000000
    4        3.780969   1.000000
    5        3.780969   1.000000
    6        6.238867   0.000000
    7       17.988057   0.000000
    8       18.103048   0.000000
    9       18.103048   0.000000
   10       25.381108   0.000000
 
  0.4000000E+00  0.3000000E+00  0.3000000E+00  0.2400000E-01
    1        0.849289   1.000000
    2        1.658025   1.000000
    3        2.093005   1.000000
    4        3.810520   1.000000
    5        4.693121   1.000000
    6        8.302483   0.000000
    7       14.776608   0.000000
    8       18.474524   0.000000
    9       19.795262   0.000000
   10       23.695059   0.000000
 
  0.5000000E+00  0.3000000E+00  0.3000000E+00  0.1200000E-01
    1        0.754441   1.000000
    2        1.474626   1.000000
    3        2.106234   1.000000
    4        3.830123   1.000000
    5        4.930647   0.999486
    6       10.984863   0.000000
    7       11.791667   0.000000
    8       18.677442   0.000000
    9       20.768944   0.000000
   10       22.963104   0.000000
 
  0.4000000E+00  0.4000000E+00  0.3000000E+00  0.2400000E-01
    1        0.577196   1.000000
    2        1.516496   1.000000
    3        1.655434   1.000000
    4        4.257055   1.000000
    5        5.932889   0.000071
    6        9.811046   0.000000
    7       15.195258   0.000000
    8       16.841260   0.000000
    9       18.647112   0.000000
   10       23.484797   0.000000
 
  0.5000000E+00  0.4000000E+00  0.3000000E+00  0.2400000E-01
    1        0.415329   1.000000
    2        1.401315   1.000000
    3        1.631586   1.000000
    4        4.321683   1.000000
    5        6.463367   0.000000
    6       11.996326   0.000000
    7       12.985225   0.000000
    8       17.372679   0.000000
    9       17.643262   0.000000
   10       24.309414   0.000000
 
  0.5000000E+00  0.5000000E+00  0.3000000E+00  0.6000000E-02
    1        0.230644   1.000000
    2        1.453894   1.000000
    3        1.453894   1.000000
    4        4.399235   1.000000
    5        7.284970   0.000000
    6       13.546871   0.000000
    7       13.546871   0.000000
    8       15.034217   0.000000
    9       16.746386   0.000000
   10       24.979878   0.000000
 
  0.4000000E+00  0.4000000E+00  0.4000000E+00  0.8000000E-02
    1        0.701313   1.000000
    2        1.043659   1.000000
    3        1.043659   1.000000
    4        6.019860   0.000005
    5        6.019860   0.000005
    6       11.268807   0.000000
    7       16.569420   0.000000
    8       16.569420   0.000000
    9       16.598439   0.000000
   10       23.167062   0.000000
 
  0.5000000E+00  0.4000000E+00  0.4000000E+00  0.1200000E-01
    1        0.602136   1.000000
    2        0.829841   1.000000
    3        1.030414   1.000000
    4        6.049955   0.000002
    5        6.744778   0.000000
    6       13.166520   0.000000
    7       14.238889   0.000000
    8       16.418964   0.000000
    9       17.168581   0.000000
   10       22.985360   0.000000
 
  0.5000000E+00  0.5000000E+00  0.4000000E+00  0.6000000E-02
    1        0.492506   1.000000
    2        0.818881   1.000000
    3        0.818881   1.000000
    4        6.384027   0.000000
    5        7.320203   0.000000
    6       14.848176   0.000000
    7       14.848176   0.000000
    8       15.239241   0.000000
    9       15.920677   0.000000
   10       23.351043   0.000000
 
  0.5000000E+00  0.5000000E+00  0.5000000E+00  0.1000000E-02
    1        0.597772   1.000000
    2        0.597772   1.000000
    3        0.597772   1.000000
    4        7.333757   0.000000
    5        7.333757   0.000000
    6       15.377862   0.000000
    7       15.377862   0.000000
    8       15.377862   0.000000
    9       15.599850   0.000000
   10       21.714005   0.000000
