       N       E                     dE             d eps       ncg     rms          rms(c)
DAV:   1     0.598865752298E+02    0.59887E+02   -0.52793E+03  1184   0.941E+02
DAV:   2    -0.471217318165E+01   -0.64599E+02   -0.60234E+02  1130   0.217E+02
DAV:   3    -0.596239714509E+01   -0.12502E+01   -0.12412E+01  1378   0.376E+01
DAV:   4    -0.597499639784E+01   -0.12599E-01   -0.12594E-01  1358   0.364E+00
DAV:   5    -0.597528719774E+01   -0.29080E-03   -0.29080E-03  1312   0.481E-01    0.360E+00
RMM:   6    -0.565757098735E+01    0.31772E+00   -0.40557E-01  1120   0.858E+00    0.106E+00
RMM:   7    -0.563684834514E+01    0.20723E-01   -0.50294E-02  1120   0.212E+00    0.366E-01
RMM:   8    -0.563346898846E+01    0.33794E-02   -0.33181E-03  1120   0.891E-01    0.434E-02
RMM:   9    -0.563342933657E+01    0.39652E-04   -0.28270E-04  1132   0.187E-01    0.141E-02
RMM:  10    -0.563342990956E+01   -0.57299E-06   -0.22424E-05   891   0.436E-02
   1 F= -.56334299E+01 E0= -.56205954E+01  d E =-.563343E+01
       N       E                     dE             d eps       ncg     rms          rms(c)
DAV:   1    -0.664405354945E+01   -0.10106E+01   -0.27008E+01  1216   0.820E+01    0.582E+00
RMM:   2    -0.563148080428E+01    0.10126E+01   -0.23093E+00  1120   0.214E+01    0.102E+00
RMM:   3    -0.559101058453E+01    0.40470E-01   -0.57464E-02  1120   0.223E+00    0.194E-01
RMM:   4    -0.559885752762E+01   -0.78469E-02   -0.37983E-03  1120   0.863E-01    0.638E-02
RMM:   5    -0.559930927308E+01   -0.45175E-03   -0.69038E-04  1122   0.370E-01    0.442E-02
RMM:   6    -0.559926223786E+01    0.47035E-04   -0.11099E-04  1117   0.161E-01    0.240E-03
RMM:   7    -0.559926434415E+01   -0.21063E-05   -0.83404E-06   768   0.222E-02
   2 F= -.55992643E+01 E0= -.55847384E+01  d E =0.341656E-01
       N       E                     dE             d eps       ncg     rms          rms(c)
DAV:   1    -0.608792329662E+01   -0.48866E+00   -0.11475E+01  1210   0.533E+01    0.372E+00
RMM:   2    -0.564304387707E+01    0.44488E+00   -0.85877E-01  1120   0.128E+01    0.122E-01
RMM:   3    -0.564486682022E+01   -0.18229E-02   -0.18004E-02  1121   0.108E+00    0.761E-02
RMM:   4    -0.564485525799E+01    0.11562E-04   -0.35182E-04  1096   0.275E-01    0.491E-02
RMM:   5    -0.564484279529E+01    0.12463E-04   -0.10859E-04  1117   0.135E-01    0.949E-03
RMM:   6    -0.564484246050E+01    0.33479E-06   -0.19083E-05   826   0.531E-02
   3 F= -.56448425E+01 E0= -.56314208E+01  d E =-.455781E-01
       N       E                     dE             d eps       ncg     rms          rms(c)
DAV:   1    -0.564546380993E+01   -0.62101E-03   -0.13980E-02  1244   0.189E+00    0.131E-01
RMM:   2    -0.564493986154E+01    0.52395E-03   -0.10270E-03  1120   0.443E-01    0.332E-03
RMM:   3    -0.564494205405E+01   -0.21925E-05   -0.21727E-05   761   0.384E-02    0.450E-04
RMM:   4    -0.564494217576E+01   -0.12171E-06   -0.10107E-06   559   0.150E-02
   4 F= -.56449422E+01 E0= -.56315600E+01  d E =-.997153E-04
       N       E                     dE             d eps       ncg     rms          rms(c)
DAV:   1    -0.564541438266E+01   -0.47233E-03   -0.12611E-02  1214   0.179E+00    0.125E-01
RMM:   2    -0.564493096525E+01    0.48342E-03   -0.93286E-04  1120   0.421E-01    0.319E-03
RMM:   3    -0.564493274036E+01   -0.17751E-05   -0.20448E-05   734   0.374E-02    0.552E-04
RMM:   4    -0.564493289630E+01   -0.15594E-06   -0.11410E-06   561   0.176E-02
   5 F= -.56449329E+01 E0= -.56315876E+01  d E =0.927946E-05
       N       E                     dE             d eps       ncg     rms          rms(c)
DAV:   1    -0.564509862089E+01   -0.16588E-03   -0.38395E-03  1216   0.988E-01    0.690E-02
RMM:   2    -0.564495020960E+01    0.14841E-03   -0.27614E-04  1120   0.229E-01    0.251E-03
RMM:   3    -0.564495067234E+01   -0.46274E-06   -0.64586E-06   568   0.215E-02    0.604E-04
RMM:   4    -0.564495068965E+01   -0.17313E-07   -0.53280E-07   546   0.127E-02
   6 F= -.56449507E+01 E0= -.56315851E+01  d E =-.177934E-04
