 vasp.5.4.1 05Feb16 (build Mar 02 2016 14:09:44) complex                        
  
 executed on   Abel-impi-ifc-cuda date 2019.09.20  09:37:28
 running on    4 total cores
 distrk:  each k-point on    4 cores,    1 groups
 distr:  one band on NCORES_PER_BAND=   2 cores,    2 groups


--------------------------------------------------------------------------------------------------------


 INCAR:
 POTCAR:   PAW_PBE Pt 05Jan2001                   
 POTCAR:   PAW_PBE Pt 05Jan2001                   
  local pseudopotential read in
  partial core-charges read in
  atomic valenz-charges read in
  non local Contribution for L=           2  read in
    real space projection operators read in
  non local Contribution for L=           2  read in
    real space projection operators read in
  non local Contribution for L=           0  read in
    real space projection operators read in
  non local Contribution for L=           0  read in
    real space projection operators read in
  non local Contribution for L=           1  read in
    real space projection operators read in
  non local Contribution for L=           1  read in
    real space projection operators read in
    PAW grid and wavefunctions read in
 
   number of l-projection  operators is LMAX  =           6
   number of lm-projection operators is LMMAX =          18
 

 ----------------------------------------------------------------------------- 
|                                                                             |
|  ADVICE TO THIS USER RUNNING 'VASP/VAMP'   (HEAR YOUR MASTER'S VOICE ...):  |
|                                                                             |
|      You have a (more or less) 'small supercell' and for smaller cells      |
|      it is recommended  to use the reciprocal-space projection scheme!      |
|      The real space optimization is not  efficient for small cells and it   |
|      is also less accurate ...                                              |
|      Therefore set LREAL=.FALSE. in the  INCAR file                         |
|                                                                             |
 ----------------------------------------------------------------------------- 

 Optimization of the real space projectors (new method)

 maximal supplied QI-value         = 15.12
 optimisation between [QCUT,QGAM] = [ 11.34, 22.83] = [ 36.00,145.93] Ry 
 Optimized for a Real-space Cutoff    1.56 Angstroem

   l    n(q)    QCUT    max X(q) W(low)/X(q) W(high)/X(q)  e(spline) 
   2     10    11.338     3.643    0.58E-05    0.18E-04    0.79E-07
   2     10    11.338    46.462    0.14E-03    0.41E-03    0.78E-06
   0     11    11.338    13.796    0.17E-04    0.37E-05    0.56E-08
   0     11    11.338    57.669    0.42E-04    0.70E-04    0.20E-06
   1     10    11.338     7.440    0.30E-05    0.11E-04    0.38E-07
   1     10    11.338    10.255    0.32E-04    0.36E-04    0.14E-06
 PAW_PBE Pt 05Jan2001                   :
 energy of atom  1       EATOM= -729.1171
 kinetic energy error for atom=    0.0039 (will be added to EATOM!!)
 
 
 POSCAR: Pt_sc                                   
  positions in direct lattice
  No initial velocities read in
 exchange correlation table for  LEXCH =        8
   RHO(1)=    0.500       N(1)  =     2000
   RHO(2)=  100.500       N(2)  =     4000
 


--------------------------------------------------------------------------------------------------------


 ion  position               nearest neighbor table
   1  0.000  0.000  0.000-
 
  LATTYP: Found a simple cubic cell.
 ALAT       =     2.6000000000
  
  Lattice vectors:
  
 A1 = (   2.6000000000,   0.0000000000,   0.0000000000)
 A2 = (   0.0000000000,   2.6000000000,   0.0000000000)
 A3 = (   0.0000000000,   0.0000000000,   2.6000000000)


Analysis of symmetry for initial positions (statically):
=====================================================================
 Subroutine PRICEL returns:
 Original cell was already a primitive cell.
 

 Routine SETGRP: Setting up the symmetry group for a 
 simple cubic supercell.


 Subroutine GETGRP returns: Found 48 space group operations
 (whereof 48 operations were pure point group operations)
 out of a pool of 48 trial point group operations.


The static configuration has the point symmetry O_h .


Analysis of symmetry for dynamics (positions and initial velocities):
=====================================================================
 Subroutine PRICEL returns:
 Original cell was already a primitive cell.
 

 Routine SETGRP: Setting up the symmetry group for a 
 simple cubic supercell.


 Subroutine GETGRP returns: Found 48 space group operations
 (whereof 48 operations were pure point group operations)
 out of a pool of 48 trial point group operations.


The dynamic configuration has the point symmetry O_h .


 Subroutine INISYM returns: Found 48 space group operations
 (whereof 48 operations are pure point group operations),
 and found     1 'primitive' translations

 
 
 KPOINTS: k-density: 4.0                          

Automatic generation of k-mesh.
Space group operators:
 irot       det(A)        alpha          n_x          n_y          n_z        tau_x        tau_y        tau_z
    1     1.000000     0.000000     1.000000     0.000000     0.000000     0.000000     0.000000     0.000000
    2    -1.000000     0.000000     1.000000     0.000000     0.000000     0.000000     0.000000     0.000000
    3     1.000000   120.000000    -0.577350    -0.577350    -0.577350     0.000000     0.000000     0.000000
    4    -1.000000   120.000000    -0.577350    -0.577350    -0.577350     0.000000     0.000000     0.000000
    5     1.000000   120.000000     0.577350     0.577350     0.577350     0.000000     0.000000     0.000000
    6    -1.000000   120.000000     0.577350     0.577350     0.577350     0.000000     0.000000     0.000000
    7     1.000000    90.000000     0.000000     0.000000    -1.000000     0.000000     0.000000     0.000000
    8    -1.000000    90.000000     0.000000     0.000000    -1.000000     0.000000     0.000000     0.000000
    9     1.000000   180.000000     0.000000     0.707107     0.707107     0.000000     0.000000     0.000000
   10    -1.000000   180.000000     0.000000     0.707107     0.707107     0.000000     0.000000     0.000000
   11     1.000000    90.000000     0.000000     1.000000     0.000000     0.000000     0.000000     0.000000
   12    -1.000000    90.000000     0.000000     1.000000     0.000000     0.000000     0.000000     0.000000
   13     1.000000   180.000000     0.000000     0.000000     1.000000     0.000000     0.000000     0.000000
   14    -1.000000   180.000000     0.000000     0.000000     1.000000     0.000000     0.000000     0.000000
   15     1.000000   120.000000    -0.577350     0.577350     0.577350     0.000000     0.000000     0.000000
   16    -1.000000   120.000000    -0.577350     0.577350     0.577350     0.000000     0.000000     0.000000
   17     1.000000   120.000000    -0.577350     0.577350    -0.577350     0.000000     0.000000     0.000000
   18    -1.000000   120.000000    -0.577350     0.577350    -0.577350     0.000000     0.000000     0.000000
   19     1.000000    90.000000     0.000000     0.000000     1.000000     0.000000     0.000000     0.000000
   20    -1.000000    90.000000     0.000000     0.000000     1.000000     0.000000     0.000000     0.000000
   21     1.000000    90.000000    -1.000000     0.000000     0.000000     0.000000     0.000000     0.000000
   22    -1.000000    90.000000    -1.000000     0.000000     0.000000     0.000000     0.000000     0.000000
   23     1.000000   180.000000     0.707107     0.000000     0.707107     0.000000     0.000000     0.000000
   24    -1.000000   180.000000     0.707107     0.000000     0.707107     0.000000     0.000000     0.000000
   25     1.000000   120.000000     0.577350    -0.577350     0.577350     0.000000     0.000000     0.000000
   26    -1.000000   120.000000     0.577350    -0.577350     0.577350     0.000000     0.000000     0.000000
   27     1.000000   120.000000    -0.577350    -0.577350     0.577350     0.000000     0.000000     0.000000
   28    -1.000000   120.000000    -0.577350    -0.577350     0.577350     0.000000     0.000000     0.000000
   29     1.000000   180.000000     1.000000     0.000000     0.000000     0.000000     0.000000     0.000000
   30    -1.000000   180.000000     1.000000     0.000000     0.000000     0.000000     0.000000     0.000000
   31     1.000000    90.000000     0.000000    -1.000000     0.000000     0.000000     0.000000     0.000000
   32    -1.000000    90.000000     0.000000    -1.000000     0.000000     0.000000     0.000000     0.000000
   33     1.000000   180.000000     0.707107     0.707107     0.000000     0.000000     0.000000     0.000000
   34    -1.000000   180.000000     0.707107     0.707107     0.000000     0.000000     0.000000     0.000000
   35     1.000000    90.000000     1.000000     0.000000     0.000000     0.000000     0.000000     0.000000
   36    -1.000000    90.000000     1.000000     0.000000     0.000000     0.000000     0.000000     0.000000
   37     1.000000   120.000000     0.577350    -0.577350    -0.577350     0.000000     0.000000     0.000000
   38    -1.000000   120.000000     0.577350    -0.577350    -0.577350     0.000000     0.000000     0.000000
   39     1.000000   180.000000     0.000000     1.000000     0.000000     0.000000     0.000000     0.000000
   40    -1.000000   180.000000     0.000000     1.000000     0.000000     0.000000     0.000000     0.000000
   41     1.000000   120.000000     0.577350     0.577350    -0.577350     0.000000     0.000000     0.000000
   42    -1.000000   120.000000     0.577350     0.577350    -0.577350     0.000000     0.000000     0.000000
   43     1.000000   180.000000     0.000000    -0.707107     0.707107     0.000000     0.000000     0.000000
   44    -1.000000   180.000000     0.000000    -0.707107     0.707107     0.000000     0.000000     0.000000
   45     1.000000   180.000000     0.707107    -0.707107     0.000000     0.000000     0.000000     0.000000
   46    -1.000000   180.000000     0.707107    -0.707107     0.000000     0.000000     0.000000     0.000000
   47     1.000000   180.000000     0.707107     0.000000    -0.707107     0.000000     0.000000     0.000000
   48    -1.000000   180.000000     0.707107     0.000000    -0.707107     0.000000     0.000000     0.000000
 
 Subroutine IBZKPT returns following result:
 ===========================================
 
 Found     56 irreducible k-points:
 
 Following reciprocal coordinates:
            Coordinates               Weight
  0.000000  0.000000  0.000000      1.000000
  0.100000  0.000000  0.000000      6.000000
  0.200000  0.000000  0.000000      6.000000
  0.300000  0.000000  0.000000      6.000000
  0.400000  0.000000  0.000000      6.000000
  0.500000  0.000000  0.000000      3.000000
  0.100000  0.100000  0.000000     12.000000
  0.200000  0.100000  0.000000     24.000000
  0.300000  0.100000  0.000000     24.000000
  0.400000  0.100000  0.000000     24.000000
  0.500000  0.100000  0.000000     12.000000
  0.200000  0.200000  0.000000     12.000000
  0.300000  0.200000  0.000000     24.000000
  0.400000  0.200000  0.000000     24.000000
  0.500000  0.200000  0.000000     12.000000
  0.300000  0.300000  0.000000     12.000000
  0.400000  0.300000  0.000000     24.000000
  0.500000  0.300000  0.000000     12.000000
  0.400000  0.400000  0.000000     12.000000
  0.500000  0.400000  0.000000     12.000000
  0.500000  0.500000  0.000000      3.000000
  0.100000  0.100000  0.100000      8.000000
  0.200000  0.100000  0.100000     24.000000
  0.300000  0.100000  0.100000     24.000000
  0.400000  0.100000  0.100000     24.000000
  0.500000  0.100000  0.100000     12.000000
  0.200000  0.200000  0.100000     24.000000
  0.300000  0.200000  0.100000     48.000000
  0.400000  0.200000  0.100000     48.000000
  0.500000  0.200000  0.100000     24.000000
  0.300000  0.300000  0.100000     24.000000
  0.400000  0.300000  0.100000     48.000000
  0.500000  0.300000  0.100000     24.000000
  0.400000  0.400000  0.100000     24.000000
  0.500000  0.400000  0.100000     24.000000
  0.500000  0.500000  0.100000      6.000000
  0.200000  0.200000  0.200000      8.000000
  0.300000  0.200000  0.200000     24.000000
  0.400000  0.200000  0.200000     24.000000
  0.500000  0.200000  0.200000     12.000000
  0.300000  0.300000  0.200000     24.000000
  0.400000  0.300000  0.200000     48.000000
  0.500000  0.300000  0.200000     24.000000
  0.400000  0.400000  0.200000     24.000000
  0.500000  0.400000  0.200000     24.000000
  0.500000  0.500000  0.200000      6.000000
  0.300000  0.300000  0.300000      8.000000
  0.400000  0.300000  0.300000     24.000000
  0.500000  0.300000  0.300000     12.000000
  0.400000  0.400000  0.300000     24.000000
  0.500000  0.400000  0.300000     24.000000
  0.500000  0.500000  0.300000      6.000000
  0.400000  0.400000  0.400000      8.000000
  0.500000  0.400000  0.400000     12.000000
  0.500000  0.500000  0.400000      6.000000
  0.500000  0.500000  0.500000      1.000000
 
 Following cartesian coordinates:
            Coordinates               Weight
  0.000000  0.000000  0.000000      1.000000
  0.100000  0.000000  0.000000      6.000000
  0.200000  0.000000  0.000000      6.000000
  0.300000  0.000000  0.000000      6.000000
  0.400000  0.000000  0.000000      6.000000
  0.500000  0.000000  0.000000      3.000000
  0.100000  0.100000  0.000000     12.000000
  0.200000  0.100000  0.000000     24.000000
  0.300000  0.100000  0.000000     24.000000
  0.400000  0.100000  0.000000     24.000000
  0.500000  0.100000  0.000000     12.000000
  0.200000  0.200000  0.000000     12.000000
  0.300000  0.200000  0.000000     24.000000
  0.400000  0.200000  0.000000     24.000000
  0.500000  0.200000  0.000000     12.000000
  0.300000  0.300000  0.000000     12.000000
  0.400000  0.300000  0.000000     24.000000
  0.500000  0.300000  0.000000     12.000000
  0.400000  0.400000  0.000000     12.000000
  0.500000  0.400000  0.000000     12.000000
  0.500000  0.500000  0.000000      3.000000
  0.100000  0.100000  0.100000      8.000000
  0.200000  0.100000  0.100000     24.000000
  0.300000  0.100000  0.100000     24.000000
  0.400000  0.100000  0.100000     24.000000
  0.500000  0.100000  0.100000     12.000000
  0.200000  0.200000  0.100000     24.000000
  0.300000  0.200000  0.100000     48.000000
  0.400000  0.200000  0.100000     48.000000
  0.500000  0.200000  0.100000     24.000000
  0.300000  0.300000  0.100000     24.000000
  0.400000  0.300000  0.100000     48.000000
  0.500000  0.300000  0.100000     24.000000
  0.400000  0.400000  0.100000     24.000000
  0.500000  0.400000  0.100000     24.000000
  0.500000  0.500000  0.100000      6.000000
  0.200000  0.200000  0.200000      8.000000
  0.300000  0.200000  0.200000     24.000000
  0.400000  0.200000  0.200000     24.000000
  0.500000  0.200000  0.200000     12.000000
  0.300000  0.300000  0.200000     24.000000
  0.400000  0.300000  0.200000     48.000000
  0.500000  0.300000  0.200000     24.000000
  0.400000  0.400000  0.200000     24.000000
  0.500000  0.400000  0.200000     24.000000
  0.500000  0.500000  0.200000      6.000000
  0.300000  0.300000  0.300000      8.000000
  0.400000  0.300000  0.300000     24.000000
  0.500000  0.300000  0.300000     12.000000
  0.400000  0.400000  0.300000     24.000000
  0.500000  0.400000  0.300000     24.000000
  0.500000  0.500000  0.300000      6.000000
  0.400000  0.400000  0.400000      8.000000
  0.500000  0.400000  0.400000     12.000000
  0.500000  0.500000  0.400000      6.000000
  0.500000  0.500000  0.500000      1.000000
 


--------------------------------------------------------------------------------------------------------




 Dimension of arrays:
   k-points           NKPTS =     56   k-points in BZ     NKDIM =     56   number of bands    NBANDS=     10
   number of dos      NEDOS =    301   number of ions     NIONS =      1
   non local maximal  LDIM  =      6   non local SUM 2l+1 LMDIM =     18
   total plane-waves  NPLWV =   8000
   max r-space proj   IRMAX =   7346   max aug-charges    IRDMAX= 220720
   dimension x,y,z NGX =    20 NGY =   20 NGZ =   20
   dimension x,y,z NGXF=    40 NGYF=   40 NGZF=   40
   support grid    NGXF=    80 NGYF=   80 NGZF=   80
   ions per type =               1
 NGX,Y,Z   is equivalent  to a cutoff of  12.79, 12.79, 12.79 a.u.
 NGXF,Y,Z  is equivalent  to a cutoff of  25.58, 25.58, 25.58 a.u.


 I would recommend the setting:
   dimension x,y,z NGX =    19 NGY =   19 NGZ =   19
 SYSTEM =  unknown system                          
 POSCAR =  Pt_sc                                   

 Startparameter for this run:
   NWRITE =      1    write-flag & timer
   PREC   = accura    normal or accurate (medium, high low for compatibility)
   ISTART =      0    job   : 0-new  1-cont  2-samecut
   ICHARG =      2    charge: 1-file 2-atom 10-const
   ISPIN  =      1    spin polarized calculation?
   LNONCOLLINEAR =      F non collinear calculations
   LSORBIT =      F    spin-orbit coupling
   INIWAV =      1    electr: 0-lowe 1-rand  2-diag
   LASPH  =      F    aspherical Exc in radial PAW
   METAGGA=      F    non-selfconsistent MetaGGA calc.

 Electronic Relaxation 1
   ENCUT  =  500.0 eV  36.75 Ry    6.06 a.u.   4.74  4.74  4.74*2*pi/ulx,y,z
   ENINI  =  500.0     initial cutoff
   ENAUG  =  359.0 eV  augmentation charge cutoff
   NELM   =     60;   NELMIN=  4; NELMDL= -5     # of ELM steps 
   EDIFF  = 0.1E-04   stopping-criterion for ELM
   LREAL  =      T    real-space projection
   NLSPLINE    = F    spline interpolate recip. space projectors
   LCOMPAT=      F    compatible to vasp.4.4
   GGA_COMPAT  = T    GGA compatible to vasp.4.4-vasp.4.6
   LMAXPAW     = -100 max onsite density
   LMAXMIX     =    2 max onsite mixed and CHGCAR
   VOSKOWN=      0    Vosko Wilk Nusair interpolation
   ROPT   =   -0.00025
 Ionic relaxation
   EDIFFG = -.1E-01   stopping-criterion for IOM
   NSW    =     80    number of steps for IOM
   NBLOCK =      1;   KBLOCK =     80    inner block; outer block 
   IBRION =      1    ionic relax: 0-MD 1-quasi-New 2-CG
   NFREE  =      0    steps in history (QN), initial steepest desc. (CG)
   ISIF   =      3    stress and relaxation
   IWAVPR =     11    prediction:  0-non 1-charg 2-wave 3-comb
   ISYM   =      2    0-nonsym 1-usesym 2-fastsym
   LCORR  =      T    Harris-Foulkes like correction to forces

   POTIM  = 0.5000    time-step for ionic-motion
   TEIN   =    0.0    initial temperature
   TEBEG  =    0.0;   TEEND  =   0.0 temperature during run
   SMASS  =  -3.00    Nose mass-parameter (am)
   estimated Nose-frequenzy (Omega)   =  0.10E-29 period in steps =****** mass=  -0.154E-27a.u.
   SCALEE = 1.0000    scale energy and forces
   NPACO  =    256;   APACO  = 16.0  distance and # of slots for P.C.
   PSTRESS=    0.0 pullay stress

  Mass of Ions in am
   POMASS = 195.08
  Ionic Valenz
   ZVAL   =  10.00
  Atomic Wigner-Seitz radii
   RWIGS  =  -1.00
  virtual crystal weights 
   VCA    =   1.00
   NELECT =      10.0000    total number of electrons
   NUPDOWN=      -1.0000    fix difference up-down

 DOS related values:
   EMIN   =  10.00;   EMAX   =-10.00  energy-range for DOS
   EFERMI =   0.00
   ISMEAR =     0;   SIGMA  =   0.20  broadening in eV -4-tet -1-fermi 0-gaus

 Electronic relaxation 2 (details)
   IALGO  =     68    algorithm
   LDIAG  =      T    sub-space diagonalisation (order eigenvalues)
   LSUBROT=      F    optimize rotation matrix (better conditioning)
   TURBO    =      0    0=normal 1=particle mesh
   IRESTART =      0    0=no restart 2=restart with 2 vectors
   NREBOOT  =      0    no. of reboots
   NMIN     =      0    reboot dimension
   EREF     =   0.00    reference energy to select bands
   IMIX   =      4    mixing-type and parameters
     AMIX     =   0.40;   BMIX     =  1.00
     AMIX_MAG =   1.60;   BMIX_MAG =  1.00
     AMIN     =   0.10
     WC   =   100.;   INIMIX=   1;  MIXPRE=   1;  MAXMIX=  80

 Intra band minimization:
   WEIMIN = 0.0010     energy-eigenvalue tresh-hold
   EBREAK =  0.25E-06  absolut break condition
   DEPER  =   0.30     relativ break condition  

   TIME   =   0.40     timestep for ELM

  volume/ion in A,a.u.               =      17.58       118.61
  Fermi-wavevector in a.u.,A,eV,Ry     =   1.356547  2.563502 25.037707  1.840220
  Thomas-Fermi vector in A             =   2.483541
 
 Write flags
   LWAVE  =      T    write WAVECAR
   LCHARG =      T    write CHGCAR
   LVTOT  =      F    write LOCPOT, total local potential
   LVHAR  =      F    write LOCPOT, Hartree potential only
   LELF   =      F    write electronic localiz. function (ELF)
   LORBIT =      0    0 simple, 1 ext, 2 COOP (PROOUT)


 Dipole corrections
   LMONO  =      F    monopole corrections only (constant potential shift)
   LDIPOL =      F    correct potential (dipole corrections)
   IDIPOL =      0    1-x, 2-y, 3-z, 4-all directions 
   EPSILON=  1.0000000 bulk dielectric constant

 Exchange correlation treatment:
   GGA     =    --    GGA type
   LEXCH   =     8    internal setting for exchange type
   VOSKOWN=      0    Vosko Wilk Nusair interpolation
   LHFCALC =     F    Hartree Fock is set to
   LHFONE  =     F    Hartree Fock one center treatment
   AEXX    =    0.0000 exact exchange contribution

 Linear response parameters
   LEPSILON=     F    determine dielectric tensor
   LRPA    =     F    only Hartree local field effects (RPA)
   LNABLA  =     F    use nabla operator in PAW spheres
   LVEL    =     F    velocity operator in full k-point grid
   LINTERFAST=   F  fast interpolation
   KINTER  =     0    interpolate to denser k-point grid
   CSHIFT  =0.1000    complex shift for real part using Kramers Kronig
   OMEGAMAX=  -1.0    maximum frequency
   DEG_THRESHOLD= 0.2000000E-02 threshold for treating states as degnerate
   RTIME   =    0.100 relaxation time in fs

 Orbital magnetization related:
   ORBITALMAG=     F  switch on orbital magnetization
   LCHIMAG   =     F  perturbation theory with respect to B field
   DQ        =  0.001000  dq finite difference perturbation B field



--------------------------------------------------------------------------------------------------------


 quasi-Newton-method for relaxation of ions
 charge density and potential will be updated during run
 non-spin polarized calculation
 RMM-DIIS sequential band-by-band and
  variant of blocked Davidson during initial phase
 perform sub-space diagonalisation
    before iterative eigenvector-optimisation
 modified Broyden-mixing scheme, WC =      100.0
 initial mixing is a Kerker type mixing with AMIX =  0.4000 and BMIX =      1.0000
 Hartree-type preconditioning will be used
 using additional bands            5
 real space projection scheme for non local part
 use partial core corrections
 calculate Harris-corrections to forces 
   (improved forces if not selfconsistent)
 use gradient corrections 
 use of overlap-Matrix (Vanderbilt PP)
 Gauss-broadening in eV      SIGMA  =   0.20


--------------------------------------------------------------------------------------------------------


  energy-cutoff  :      500.00
  volume of cell :       17.58
      direct lattice vectors                 reciprocal lattice vectors
     2.600000000  0.000000000  0.000000000     0.384615385  0.000000000  0.000000000
     0.000000000  2.600000000  0.000000000     0.000000000  0.384615385  0.000000000
     0.000000000  0.000000000  2.600000000     0.000000000  0.000000000  0.384615385

  length of vectors
     2.600000000  2.600000000  2.600000000     0.384615385  0.384615385  0.384615385


 
 k-points in units of 2pi/SCALE and weight: k-density: 4.0                          
   0.00000000  0.00000000  0.00000000       0.001
   0.10000000  0.00000000  0.00000000       0.006
   0.20000000  0.00000000  0.00000000       0.006
   0.30000000  0.00000000  0.00000000       0.006
   0.40000000  0.00000000  0.00000000       0.006
   0.50000000  0.00000000  0.00000000       0.003
   0.10000000  0.10000000  0.00000000       0.012
   0.20000000  0.10000000  0.00000000       0.024
   0.30000000  0.10000000  0.00000000       0.024
   0.40000000  0.10000000  0.00000000       0.024
   0.50000000  0.10000000  0.00000000       0.012
   0.20000000  0.20000000  0.00000000       0.012
   0.30000000  0.20000000  0.00000000       0.024
   0.40000000  0.20000000  0.00000000       0.024
   0.50000000  0.20000000  0.00000000       0.012
   0.30000000  0.30000000  0.00000000       0.012
   0.40000000  0.30000000  0.00000000       0.024
   0.50000000  0.30000000  0.00000000       0.012
   0.40000000  0.40000000  0.00000000       0.012
   0.50000000  0.40000000  0.00000000       0.012
   0.50000000  0.50000000  0.00000000       0.003
   0.10000000  0.10000000  0.10000000       0.008
   0.20000000  0.10000000  0.10000000       0.024
   0.30000000  0.10000000  0.10000000       0.024
   0.40000000  0.10000000  0.10000000       0.024
   0.50000000  0.10000000  0.10000000       0.012
   0.20000000  0.20000000  0.10000000       0.024
   0.30000000  0.20000000  0.10000000       0.048
   0.40000000  0.20000000  0.10000000       0.048
   0.50000000  0.20000000  0.10000000       0.024
   0.30000000  0.30000000  0.10000000       0.024
   0.40000000  0.30000000  0.10000000       0.048
   0.50000000  0.30000000  0.10000000       0.024
   0.40000000  0.40000000  0.10000000       0.024
   0.50000000  0.40000000  0.10000000       0.024
   0.50000000  0.50000000  0.10000000       0.006
   0.20000000  0.20000000  0.20000000       0.008
   0.30000000  0.20000000  0.20000000       0.024
   0.40000000  0.20000000  0.20000000       0.024
   0.50000000  0.20000000  0.20000000       0.012
   0.30000000  0.30000000  0.20000000       0.024
   0.40000000  0.30000000  0.20000000       0.048
   0.50000000  0.30000000  0.20000000       0.024
   0.40000000  0.40000000  0.20000000       0.024
   0.50000000  0.40000000  0.20000000       0.024
   0.50000000  0.50000000  0.20000000       0.006
   0.30000000  0.30000000  0.30000000       0.008
   0.40000000  0.30000000  0.30000000       0.024
   0.50000000  0.30000000  0.30000000       0.012
   0.40000000  0.40000000  0.30000000       0.024
   0.50000000  0.40000000  0.30000000       0.024
   0.50000000  0.50000000  0.30000000       0.006
   0.40000000  0.40000000  0.40000000       0.008
   0.50000000  0.40000000  0.40000000       0.012
   0.50000000  0.50000000  0.40000000       0.006
   0.50000000  0.50000000  0.50000000       0.001
 
 k-points in reciprocal lattice and weights: k-density: 4.0                          
   0.00000000  0.00000000  0.00000000       0.001
   0.10000000  0.00000000  0.00000000       0.006
   0.20000000  0.00000000  0.00000000       0.006
   0.30000000  0.00000000  0.00000000       0.006
   0.40000000  0.00000000  0.00000000       0.006
   0.50000000  0.00000000  0.00000000       0.003
   0.10000000  0.10000000  0.00000000       0.012
   0.20000000  0.10000000  0.00000000       0.024
   0.30000000  0.10000000  0.00000000       0.024
   0.40000000  0.10000000  0.00000000       0.024
   0.50000000  0.10000000  0.00000000       0.012
   0.20000000  0.20000000  0.00000000       0.012
   0.30000000  0.20000000  0.00000000       0.024
   0.40000000  0.20000000  0.00000000       0.024
   0.50000000  0.20000000  0.00000000       0.012
   0.30000000  0.30000000  0.00000000       0.012
   0.40000000  0.30000000  0.00000000       0.024
   0.50000000  0.30000000  0.00000000       0.012
   0.40000000  0.40000000  0.00000000       0.012
   0.50000000  0.40000000  0.00000000       0.012
   0.50000000  0.50000000  0.00000000       0.003
   0.10000000  0.10000000  0.10000000       0.008
   0.20000000  0.10000000  0.10000000       0.024
   0.30000000  0.10000000  0.10000000       0.024
   0.40000000  0.10000000  0.10000000       0.024
   0.50000000  0.10000000  0.10000000       0.012
   0.20000000  0.20000000  0.10000000       0.024
   0.30000000  0.20000000  0.10000000       0.048
   0.40000000  0.20000000  0.10000000       0.048
   0.50000000  0.20000000  0.10000000       0.024
   0.30000000  0.30000000  0.10000000       0.024
   0.40000000  0.30000000  0.10000000       0.048
   0.50000000  0.30000000  0.10000000       0.024
   0.40000000  0.40000000  0.10000000       0.024
   0.50000000  0.40000000  0.10000000       0.024
   0.50000000  0.50000000  0.10000000       0.006
   0.20000000  0.20000000  0.20000000       0.008
   0.30000000  0.20000000  0.20000000       0.024
   0.40000000  0.20000000  0.20000000       0.024
   0.50000000  0.20000000  0.20000000       0.012
   0.30000000  0.30000000  0.20000000       0.024
   0.40000000  0.30000000  0.20000000       0.048
   0.50000000  0.30000000  0.20000000       0.024
   0.40000000  0.40000000  0.20000000       0.024
   0.50000000  0.40000000  0.20000000       0.024
   0.50000000  0.50000000  0.20000000       0.006
   0.30000000  0.30000000  0.30000000       0.008
   0.40000000  0.30000000  0.30000000       0.024
   0.50000000  0.30000000  0.30000000       0.012
   0.40000000  0.40000000  0.30000000       0.024
   0.50000000  0.40000000  0.30000000       0.024
   0.50000000  0.50000000  0.30000000       0.006
   0.40000000  0.40000000  0.40000000       0.008
   0.50000000  0.40000000  0.40000000       0.012
   0.50000000  0.50000000  0.40000000       0.006
   0.50000000  0.50000000  0.50000000       0.001
 
 position of ions in fractional coordinates (direct lattice) 
   0.00000000  0.00000000  0.00000000
 
 position of ions in cartesian coordinates  (Angst):
   0.00000000  0.00000000  0.00000000
 


--------------------------------------------------------------------------------------------------------


 k-point  1 :   0.0000 0.0000 0.0000  plane waves:     461
 k-point  2 :   0.1000 0.0000 0.0000  plane waves:     453
 k-point  3 :   0.2000 0.0000 0.0000  plane waves:     445
 k-point  4 :   0.3000 0.0000 0.0000  plane waves:     442
 k-point  5 :   0.4000 0.0000 0.0000  plane waves:     442
 k-point  6 :   0.5000 0.0000 0.0000  plane waves:     466
 k-point  7 :   0.1000 0.1000 0.0000  plane waves:     455
 k-point  8 :   0.2000 0.1000 0.0000  plane waves:     449
 k-point  9 :   0.3000 0.1000 0.0000  plane waves:     440
 k-point 10 :   0.4000 0.1000 0.0000  plane waves:     447
 k-point 11 :   0.5000 0.1000 0.0000  plane waves:     456
 k-point 12 :   0.2000 0.2000 0.0000  plane waves:     447
 k-point 13 :   0.3000 0.2000 0.0000  plane waves:     440
 k-point 14 :   0.4000 0.2000 0.0000  plane waves:     446
 k-point 15 :   0.5000 0.2000 0.0000  plane waves:     446
 k-point 16 :   0.3000 0.3000 0.0000  plane waves:     441
 k-point 17 :   0.4000 0.3000 0.0000  plane waves:     449
 k-point 18 :   0.5000 0.3000 0.0000  plane waves:     444
 k-point 19 :   0.4000 0.4000 0.0000  plane waves:     446
 k-point 20 :   0.5000 0.4000 0.0000  plane waves:     448
 k-point 21 :   0.5000 0.5000 0.0000  plane waves:     428
 k-point 22 :   0.1000 0.1000 0.1000  plane waves:     458
 k-point 23 :   0.2000 0.1000 0.1000  plane waves:     449
 k-point 24 :   0.3000 0.1000 0.1000  plane waves:     442
 k-point 25 :   0.4000 0.1000 0.1000  plane waves:     448
 k-point 26 :   0.5000 0.1000 0.1000  plane waves:     448
 k-point 27 :   0.2000 0.2000 0.1000  plane waves:     444
 k-point 28 :   0.3000 0.2000 0.1000  plane waves:     442
 k-point 29 :   0.4000 0.2000 0.1000  plane waves:     446
 k-point 30 :   0.5000 0.2000 0.1000  plane waves:     448
 k-point 31 :   0.3000 0.3000 0.1000  plane waves:     442
 k-point 32 :   0.4000 0.3000 0.1000  plane waves:     451
 k-point 33 :   0.5000 0.3000 0.1000  plane waves:     450
 k-point 34 :   0.4000 0.4000 0.1000  plane waves:     443
 k-point 35 :   0.5000 0.4000 0.1000  plane waves:     446
 k-point 36 :   0.5000 0.5000 0.1000  plane waves:     444
 k-point 37 :   0.2000 0.2000 0.2000  plane waves:     440
 k-point 38 :   0.3000 0.2000 0.2000  plane waves:     445
 k-point 39 :   0.4000 0.2000 0.2000  plane waves:     445
 k-point 40 :   0.5000 0.2000 0.2000  plane waves:     444
 k-point 41 :   0.3000 0.3000 0.2000  plane waves:     448
 k-point 42 :   0.4000 0.3000 0.2000  plane waves:     445
 k-point 43 :   0.5000 0.3000 0.2000  plane waves:     448
 k-point 44 :   0.4000 0.4000 0.2000  plane waves:     444
 k-point 45 :   0.5000 0.4000 0.2000  plane waves:     446
 k-point 46 :   0.5000 0.5000 0.2000  plane waves:     440
 k-point 47 :   0.3000 0.3000 0.3000  plane waves:     447
 k-point 48 :   0.4000 0.3000 0.3000  plane waves:     447
 k-point 49 :   0.5000 0.3000 0.3000  plane waves:     454
 k-point 50 :   0.4000 0.4000 0.3000  plane waves:     447
 k-point 51 :   0.5000 0.4000 0.3000  plane waves:     442
 k-point 52 :   0.5000 0.5000 0.3000  plane waves:     444
 k-point 53 :   0.4000 0.4000 0.4000  plane waves:     456
 k-point 54 :   0.5000 0.4000 0.4000  plane waves:     452
 k-point 55 :   0.5000 0.5000 0.4000  plane waves:     448
 k-point 56 :   0.5000 0.5000 0.5000  plane waves:     432

 maximum and minimum number of plane-waves per node :       236      210

 maximum number of plane-waves:       466
 maximum index in each direction: 
   IXMAX=    4   IYMAX=    4   IZMAX=    4
   IXMIN=   -5   IYMIN=   -5   IZMIN=   -5

 NGX is ok and might be reduce to  20
 NGY is ok and might be reduce to  20
 NGZ is ok and might be reduce to  20

 real space projection operators:
  total allocation   :        994.92 KBytes
  max/ min on nodes  :        497.81        497.11


 parallel 3D FFT for wavefunctions:
    minimum data exchange during FFTs selected (reduces bandwidth)
 parallel 3D FFT for charge:
    minimum data exchange during FFTs selected (reduces bandwidth)


 total amount of memory used by VASP on root node    35349. kBytes
========================================================================

   base      :      30000. kBytes
   nonlr-proj:        734. kBytes
   fftplans  :       2507. kBytes
   grid      :        956. kBytes
   one-center:         15. kBytes
   wavefun   :       1137. kBytes
 
     INWAV:  cpu time    0.0000: real time    0.0004
 Broyden mixing: mesh for mixing (old mesh)
   NGX =  9   NGY =  9   NGZ =  9
  (NGX  = 40   NGY  = 40   NGZ  = 40)
  gives a total of    729 points

 initial charge density was supplied:
 charge density of overlapping atoms calculated
 number of electron      10.0000000 magnetization 
 keeping initial charge density in first step


--------------------------------------------------------------------------------------------------------


 Maximum index for non-local projection operator         3535
 Maximum index for augmentation-charges        53511 (set IRDMAX)


--------------------------------------------------------------------------------------------------------


 First call to EWALD:  gamma=   0.682
 Maximum number of real-space cells 3x 3x 3
 Maximum number of reciprocal cells 3x 3x 3

 FEWALD executed in parallel
    FEWALD:  cpu time    0.0010: real time    0.0015


----------------------------------------- Iteration    1(   1)  ---------------------------------------


    POTLOK:  cpu time    0.0090: real time    0.0094
    SETDIJ:  cpu time    0.0220: real time    0.0224
     EDDAV:  cpu time    0.2840: real time    0.2854
       DOS:  cpu time    0.0010: real time    0.0030
    --------------------------------------------
      LOOP:  cpu time    0.3190: real time    0.3302

 eigenvalue-minimisations  :  1184
 total energy-change (2. order) : 0.5988658E+02  (-0.5279294E+03)
 number of electron      10.0000000 magnetization 
 augmentation part       10.0000000 magnetization 

 Free energy of the ion-electron system (eV)
  ---------------------------------------------------
  alpha Z        PSCENC =        82.78065544
  Ewald energy   TEWEN  =      -785.70153867
  -Hartree energ DENC   =       -96.73794297
  -exchange      EXHF   =         0.00000000
  -V(xc)+E(xc)   XCENC  =         3.43131851
  PAW double counting   =       573.24549325     -544.96212058
  entropy T*S    EENTRO =        -0.01509424
  eigenvalues    EBANDS =        98.73263767
  atomic energy  EATOM  =       729.11316681
  Solvation  Ediel_sol  =         0.00000000
  ---------------------------------------------------
  free energy    TOTEN  =        59.88657523 eV

  energy without entropy =       59.90166947  energy(sigma->0) =       59.89412235


--------------------------------------------------------------------------------------------------------




----------------------------------------- Iteration    1(   2)  ---------------------------------------


     EDDAV:  cpu time    0.2700: real time    0.2723
       DOS:  cpu time    0.0010: real time    0.0010
    --------------------------------------------
      LOOP:  cpu time    0.2730: real time    0.2763

 eigenvalue-minimisations  :  1130
 total energy-change (2. order) :-0.6459875E+02  (-0.6023435E+02)
 number of electron      10.0000000 magnetization 
 augmentation part       10.0000000 magnetization 

 Free energy of the ion-electron system (eV)
  ---------------------------------------------------
  alpha Z        PSCENC =        82.78065544
  Ewald energy   TEWEN  =      -785.70153867
  -Hartree energ DENC   =       -96.73794297
  -exchange      EXHF   =         0.00000000
  -V(xc)+E(xc)   XCENC  =         3.43131851
  PAW double counting   =       573.24549325     -544.96212058
  entropy T*S    EENTRO =        -0.01786426
  eigenvalues    EBANDS =        34.13665928
  atomic energy  EATOM  =       729.11316681
  Solvation  Ediel_sol  =         0.00000000
  ---------------------------------------------------
  free energy    TOTEN  =        -4.71217318 eV

  energy without entropy =       -4.69430892  energy(sigma->0) =       -4.70324105


--------------------------------------------------------------------------------------------------------




----------------------------------------- Iteration    1(   3)  ---------------------------------------


     EDDAV:  cpu time    0.3210: real time    0.3217
       DOS:  cpu time    0.0010: real time    0.0011
    --------------------------------------------
      LOOP:  cpu time    0.3240: real time    0.3280

 eigenvalue-minimisations  :  1378
 total energy-change (2. order) :-0.1250224E+01  (-0.1241151E+01)
 number of electron      10.0000000 magnetization 
 augmentation part       10.0000000 magnetization 

 Free energy of the ion-electron system (eV)
  ---------------------------------------------------
  alpha Z        PSCENC =        82.78065544
  Ewald energy   TEWEN  =      -785.70153867
  -Hartree energ DENC   =       -96.73794297
  -exchange      EXHF   =         0.00000000
  -V(xc)+E(xc)   XCENC  =         3.43131851
  PAW double counting   =       573.24549325     -544.96212058
  entropy T*S    EENTRO =        -0.01915830
  eigenvalues    EBANDS =        32.88772936
  atomic energy  EATOM  =       729.11316681
  Solvation  Ediel_sol  =         0.00000000
  ---------------------------------------------------
  free energy    TOTEN  =        -5.96239715 eV

  energy without entropy =       -5.94323884  energy(sigma->0) =       -5.95281799


--------------------------------------------------------------------------------------------------------




----------------------------------------- Iteration    1(   4)  ---------------------------------------


     EDDAV:  cpu time    0.3170: real time    0.3165
       DOS:  cpu time    0.0010: real time    0.0011
    --------------------------------------------
      LOOP:  cpu time    0.3190: real time    0.3227

 eigenvalue-minimisations  :  1358
 total energy-change (2. order) :-0.1259925E-01  (-0.1259430E-01)
 number of electron      10.0000000 magnetization 
 augmentation part       10.0000000 magnetization 

 Free energy of the ion-electron system (eV)
  ---------------------------------------------------
  alpha Z        PSCENC =        82.78065544
  Ewald energy   TEWEN  =      -785.70153867
  -Hartree energ DENC   =       -96.73794297
  -exchange      EXHF   =         0.00000000
  -V(xc)+E(xc)   XCENC  =         3.43131851
  PAW double counting   =       573.24549325     -544.96212058
  entropy T*S    EENTRO =        -0.01912647
  eigenvalues    EBANDS =        32.87509828
  atomic energy  EATOM  =       729.11316681
  Solvation  Ediel_sol  =         0.00000000
  ---------------------------------------------------
  free energy    TOTEN  =        -5.97499640 eV

  energy without entropy =       -5.95586993  energy(sigma->0) =       -5.96543316


--------------------------------------------------------------------------------------------------------




----------------------------------------- Iteration    1(   5)  ---------------------------------------


     EDDAV:  cpu time    0.3070: real time    0.3076
       DOS:  cpu time    0.0010: real time    0.0011
    CHARGE:  cpu time    0.0300: real time    0.0300
    MIXING:  cpu time    0.0010: real time    0.0006
    --------------------------------------------
      LOOP:  cpu time    0.3399: real time    0.3437

 eigenvalue-minimisations  :  1312
 total energy-change (2. order) :-0.2907999E-03  (-0.2907952E-03)
 number of electron      10.0000000 magnetization 
 augmentation part        2.9035040 magnetization 

 Broyden mixing:
  rms(total) = 0.36047E+00    rms(broyden)= 0.36046E+00
  rms(prec ) = 0.12949E+01
  weight for this iteration     100.00

 Free energy of the ion-electron system (eV)
  ---------------------------------------------------
  alpha Z        PSCENC =        82.78065544
  Ewald energy   TEWEN  =      -785.70153867
  -Hartree energ DENC   =       -96.73794297
  -exchange      EXHF   =         0.00000000
  -V(xc)+E(xc)   XCENC  =         3.43131851
  PAW double counting   =       573.24549325     -544.96212058
  entropy T*S    EENTRO =        -0.01912702
  eigenvalues    EBANDS =        32.87480803
  atomic energy  EATOM  =       729.11316681
  Solvation  Ediel_sol  =         0.00000000
  ---------------------------------------------------
  free energy    TOTEN  =        -5.97528720 eV

  energy without entropy =       -5.95616017  energy(sigma->0) =       -5.96572369


--------------------------------------------------------------------------------------------------------




----------------------------------------- Iteration    1(   6)  ---------------------------------------


    POTLOK:  cpu time    0.0080: real time    0.0088
    SETDIJ:  cpu time    0.0210: real time    0.0210
    EDDIAG:  cpu time    0.0390: real time    0.0387
  RMM-DIIS:  cpu time    0.1810: real time    0.1817
    ORTHCH:  cpu time    0.0050: real time    0.0047
       DOS:  cpu time    0.0010: real time    0.0011
    CHARGE:  cpu time    0.0300: real time    0.0292
    MIXING:  cpu time    0.0000: real time    0.0008
    --------------------------------------------
      LOOP:  cpu time    0.2860: real time    0.2909

 eigenvalue-minimisations  :  1120
 total energy-change (2. order) : 0.3177162E+00  (-0.4055696E-01)
 number of electron      10.0000000 magnetization 
 augmentation part        3.0540120 magnetization 

 Broyden mixing:
  rms(total) = 0.10569E+00    rms(broyden)= 0.10569E+00
  rms(prec ) = 0.33286E+00
  weight for this iteration     100.00

 eigenvalues of (default mixing * dielectric matrix)
  average eigenvalue GAMMA=   1.3256
  1.3256

 Free energy of the ion-electron system (eV)
  ---------------------------------------------------
  alpha Z        PSCENC =        82.78065544
  Ewald energy   TEWEN  =      -785.70153867
  -Hartree energ DENC   =       -89.40464854
  -exchange      EXHF   =         0.00000000
  -V(xc)+E(xc)   XCENC  =         3.17698821
  PAW double counting   =       577.02696762     -550.12248868
  entropy T*S    EENTRO =        -0.02517905
  eigenvalues    EBANDS =        27.49850587
  atomic energy  EATOM  =       729.11316681
  Solvation  Ediel_sol  =         0.00000000
  ---------------------------------------------------
  free energy    TOTEN  =        -5.65757099 eV

  energy without entropy =       -5.63239194  energy(sigma->0) =       -5.64498146


--------------------------------------------------------------------------------------------------------




----------------------------------------- Iteration    1(   7)  ---------------------------------------


    POTLOK:  cpu time    0.0090: real time    0.0088
    SETDIJ:  cpu time    0.0210: real time    0.0210
    EDDIAG:  cpu time    0.0380: real time    0.0383
  RMM-DIIS:  cpu time    0.1810: real time    0.1813
    ORTHCH:  cpu time    0.0050: real time    0.0047
       DOS:  cpu time    0.0010: real time    0.0012
    CHARGE:  cpu time    0.0290: real time    0.0291
    MIXING:  cpu time    0.0010: real time    0.0006
    --------------------------------------------
      LOOP:  cpu time    0.2860: real time    0.2892

 eigenvalue-minimisations  :  1120
 total energy-change (2. order) : 0.2072264E-01  (-0.5029443E-02)
 number of electron      10.0000000 magnetization 
 augmentation part        3.0947594 magnetization 

 Broyden mixing:
  rms(total) = 0.36640E-01    rms(broyden)= 0.36639E-01
  rms(prec ) = 0.64698E-01
  weight for this iteration     100.00

 eigenvalues of (default mixing * dielectric matrix)
  average eigenvalue GAMMA=   1.9187
  1.2574  2.5799

 Free energy of the ion-electron system (eV)
  ---------------------------------------------------
  alpha Z        PSCENC =        82.78065544
  Ewald energy   TEWEN  =      -785.70153867
  -Hartree energ DENC   =       -87.10925456
  -exchange      EXHF   =         0.00000000
  -V(xc)+E(xc)   XCENC  =         3.10345081
  PAW double counting   =       587.77190116     -561.63834592
  entropy T*S    EENTRO =        -0.02571902
  eigenvalues    EBANDS =        26.06883560
  atomic energy  EATOM  =       729.11316681
  Solvation  Ediel_sol  =         0.00000000
  ---------------------------------------------------
  free energy    TOTEN  =        -5.63684835 eV

  energy without entropy =       -5.61112933  energy(sigma->0) =       -5.62398884


--------------------------------------------------------------------------------------------------------




----------------------------------------- Iteration    1(   8)  ---------------------------------------


    POTLOK:  cpu time    0.0090: real time    0.0087
    SETDIJ:  cpu time    0.0210: real time    0.0211
    EDDIAG:  cpu time    0.0380: real time    0.0384
  RMM-DIIS:  cpu time    0.1820: real time    0.1824
    ORTHCH:  cpu time    0.0050: real time    0.0048
       DOS:  cpu time    0.0010: real time    0.0011
    CHARGE:  cpu time    0.0290: real time    0.0292
    MIXING:  cpu time    0.0020: real time    0.0006
    --------------------------------------------
      LOOP:  cpu time    0.2880: real time    0.3022

 eigenvalue-minimisations  :  1120
 total energy-change (2. order) : 0.3379357E-02  (-0.3318078E-03)
 number of electron      10.0000000 magnetization 
 augmentation part        3.0897109 magnetization 

 Broyden mixing:
  rms(total) = 0.43415E-02    rms(broyden)= 0.43413E-02
  rms(prec ) = 0.11176E-01
  weight for this iteration     100.00

 eigenvalues of (default mixing * dielectric matrix)
  average eigenvalue GAMMA=   1.6598
  1.2286  1.2286  2.5223

 Free energy of the ion-electron system (eV)
  ---------------------------------------------------
  alpha Z        PSCENC =        82.78065544
  Ewald energy   TEWEN  =      -785.70153867
  -Hartree energ DENC   =       -86.78321202
  -exchange      EXHF   =         0.00000000
  -V(xc)+E(xc)   XCENC  =         3.09894162
  PAW double counting   =       602.78710125     -577.21803101
  entropy T*S    EENTRO =        -0.02564795
  eigenvalues    EBANDS =        26.31509553
  atomic energy  EATOM  =       729.11316681
  Solvation  Ediel_sol  =         0.00000000
  ---------------------------------------------------
  free energy    TOTEN  =        -5.63346899 eV

  energy without entropy =       -5.60782104  energy(sigma->0) =       -5.62064502


--------------------------------------------------------------------------------------------------------




----------------------------------------- Iteration    1(   9)  ---------------------------------------


    POTLOK:  cpu time    0.0090: real time    0.0087
    SETDIJ:  cpu time    0.0210: real time    0.0211
    EDDIAG:  cpu time    0.0380: real time    0.0383
  RMM-DIIS:  cpu time    0.1850: real time    0.1849
    ORTHCH:  cpu time    0.0040: real time    0.0047
       DOS:  cpu time    0.0020: real time    0.0012
    CHARGE:  cpu time    0.0290: real time    0.0292
    MIXING:  cpu time    0.0010: real time    0.0006
    --------------------------------------------
      LOOP:  cpu time    0.2890: real time    0.2947

 eigenvalue-minimisations  :  1132
 total energy-change (2. order) : 0.3965189E-04  (-0.2826977E-04)
 number of electron      10.0000000 magnetization 
 augmentation part        3.0923619 magnetization 

 Broyden mixing:
  rms(total) = 0.14082E-02    rms(broyden)= 0.14079E-02
  rms(prec ) = 0.42537E-02
  weight for this iteration     100.00

 eigenvalues of (default mixing * dielectric matrix)
  average eigenvalue GAMMA=   1.9815
  1.0599  1.1714  3.2339  2.4609

 Free energy of the ion-electron system (eV)
  ---------------------------------------------------
  alpha Z        PSCENC =        82.78065544
  Ewald energy   TEWEN  =      -785.70153867
  -Hartree energ DENC   =       -86.71453883
  -exchange      EXHF   =         0.00000000
  -V(xc)+E(xc)   XCENC  =         3.09669931
  PAW double counting   =       602.46908298     -576.88195138
  entropy T*S    EENTRO =        -0.02567822
  eigenvalues    EBANDS =        26.23067324
  atomic energy  EATOM  =       729.11316681
  Solvation  Ediel_sol  =         0.00000000
  ---------------------------------------------------
  free energy    TOTEN  =        -5.63342934 eV

  energy without entropy =       -5.60775112  energy(sigma->0) =       -5.62059023


--------------------------------------------------------------------------------------------------------




----------------------------------------- Iteration    1(  10)  ---------------------------------------


    POTLOK:  cpu time    0.0090: real time    0.0087
    SETDIJ:  cpu time    0.0210: real time    0.0210
    EDDIAG:  cpu time    0.0370: real time    0.0382
  RMM-DIIS:  cpu time    0.1460: real time    0.1445
    ORTHCH:  cpu time    0.0040: real time    0.0047
       DOS:  cpu time    0.0010: real time    0.0011
    --------------------------------------------
      LOOP:  cpu time    0.2190: real time    0.2233

 eigenvalue-minimisations  :   891
 total energy-change (2. order) :-0.5729868E-06  (-0.2242352E-05)
 number of electron      10.0000000 magnetization 
 augmentation part        3.0923619 magnetization 

 Free energy of the ion-electron system (eV)
  ---------------------------------------------------
  alpha Z        PSCENC =        82.78065544
  Ewald energy   TEWEN  =      -785.70153867
  -Hartree energ DENC   =       -86.76701690
  -exchange      EXHF   =         0.00000000
  -V(xc)+E(xc)   XCENC  =         3.09888719
  PAW double counting   =       602.90815120     -577.29945875
  entropy T*S    EENTRO =        -0.02566906
  eigenvalues    EBANDS =        26.25939284
  atomic energy  EATOM  =       729.11316681
  Solvation  Ediel_sol  =         0.00000000
  ---------------------------------------------------
  free energy    TOTEN  =        -5.63342991 eV

  energy without entropy =       -5.60776085  energy(sigma->0) =       -5.62059538


--------------------------------------------------------------------------------------------------------




 average (electrostatic) potential at core
  the test charge radii are     1.2059
  (the norm of the test charge is              1.0000)
       1 -50.7105
 
 
 
 E-fermi :   5.8256     XC(G=0): -12.4283     alpha+bet :-11.3748


 k-point     1 :       0.0000    0.0000    0.0000
  band No.  band energies     occupation 
      1      -2.8719      2.00000
      2      -0.1068      2.00000
      3      -0.1068      2.00000
      4       6.0821      0.06962
      5       6.0821      0.06962
      6       6.0821      0.06962
      7      21.3921      0.00000
      8      21.3921      0.00000
      9      21.3921      0.00000
     10      26.9639      0.00000

 k-point     2 :       0.1000    0.0000    0.0000
  band No.  band energies     occupation 
      1      -2.5886      2.00000
      2      -0.0532      2.00000
      3       0.1580      2.00000
      4       5.8244      1.00663
      5       5.8244      1.00663
      6       6.1026      0.05007
      7      19.5494      0.00000
      8      21.8991      0.00000
      9      21.8991      0.00000
     10      27.8784      0.00000

 k-point     3 :       0.2000    0.0000    0.0000
  band No.  band energies     occupation 
      1      -1.8796      2.00000
      2       0.0902      2.00000
      3       1.0014      2.00000
      4       5.2046      1.99999
      5       5.2046      1.99999
      6       6.1566      0.01923
      7      16.5391      0.00000
      8      23.2344      0.00000
      9      23.2344      0.00000
     10      26.3715      0.00000

 k-point     4 :       0.3000    0.0000    0.0000
  band No.  band energies     occupation 
      1      -1.0751      2.00000
      2       0.2742      2.00000
      3       2.4539      2.00000
      4       4.5242      2.00000
      5       4.5242      2.00000
      6       6.2241      0.00483
      7      13.7199      0.00000
      8      24.5791      0.00000
      9      25.0010      0.00000
     10      25.0010      0.00000

 k-point     5 :       0.4000    0.0000    0.0000
  band No.  band energies     occupation 
      1      -0.4593      2.00000
      2       0.4290      2.00000
      3       4.0265      2.00000
      4       4.0265      2.00000
      5       4.1966      2.00000
      6       6.2793      0.00133
      7      11.4257      0.00000
      8      23.3998      0.00000
      9      26.7322      0.00000
     10      26.7523      0.00000

 k-point     6 :       0.5000    0.0000    0.0000
  band No.  band energies     occupation 
      1      -0.2244      2.00000
      2       0.4895      2.00000
      3       3.8466      2.00000
      4       3.8466      2.00000
      5       5.1709      2.00000
      6       6.3005      0.00078
      7      10.3412      0.00000
      8      22.9900      0.00000
      9      26.1934      0.00000
     10      27.5901      0.00000

 k-point     7 :       0.1000    0.1000    0.0000
  band No.  band energies     occupation 
      1      -2.3008      2.00000
      2       0.1099      2.00000
      3       0.3079      2.00000
      4       5.5526      1.94638
      5       5.8072      1.10326
      6       5.8886      0.65596
      7      19.7176      0.00000
      8      20.3124      0.00000
      9      22.4094      0.00000
     10      27.9424      0.00000

 k-point     8 :       0.2000    0.1000    0.0000
  band No.  band energies     occupation 
      1      -1.5889      2.00000
      2       0.3010      2.00000
      3       1.0899      2.00000
      4       4.9180      2.00000
      5       5.2286      1.99998
      6       5.9151      0.52683
      7      16.9539      0.00000
      8      21.1440      0.00000
      9      23.7564      0.00000
     10      26.6414      0.00000

 k-point     9 :       0.3000    0.1000    0.0000
  band No.  band energies     occupation 
      1      -0.7952      2.00000
      2       0.5017      2.00000
      3       2.4002      2.00000
      4       4.3795      2.00000
      5       4.5563      2.00000
      6       5.9885      0.24915
      7      14.0857      0.00000
      8      22.4464      0.00000
      9      25.1560      0.00000
     10      25.5491      0.00000

 k-point    10 :       0.4000    0.1000    0.0000
  band No.  band energies     occupation 
      1      -0.1891      2.00000
      2       0.6829      2.00000
      3       2.9851      2.00000
      4       4.0630      2.00000
      5       5.1259      2.00000
      6       6.0494      0.11346
      7      11.6387      0.00000
      8      23.2019      0.00000
      9      24.6937      0.00000
     10      27.3550      0.00000

 k-point    11 :       0.5000    0.1000    0.0000
  band No.  band energies     occupation 
      1       0.0431      2.00000
      2       0.7651      2.00000
      3       2.8932      2.00000
      4       3.8844      2.00000
      5       6.0729      0.08030
      6       6.1620      0.01735
      7      10.3619      0.00000
      8      23.1092      0.00000
      9      25.7436      0.00000
     10      25.7869      0.00000

 k-point    12 :       0.2000    0.2000    0.0000
  band No.  band energies     occupation 
      1      -0.9180      2.00000
      2       0.8327      2.00000
      3       1.5203      2.00000
      4       4.2975      2.00000
      5       5.2190      1.99998
      6       5.4037      1.99714
      7      17.9467      0.00000
      8      18.0563      0.00000
      9      25.1352      0.00000
     10      26.3135      0.00000

 k-point    13 :       0.3000    0.2000    0.0000
  band No.  band energies     occupation 
      1      -0.2565      2.00000
      2       1.1942      2.00000
      3       2.3837      2.00000
      4       4.2038      2.00000
      5       4.6394      2.00000
      6       5.4170      1.99613
      7      14.9609      0.00000
      8      19.4001      0.00000
      9      25.3058      0.00000
     10      26.9741      0.00000

 k-point    14 :       0.4000    0.2000    0.0000
  band No.  band energies     occupation 
      1       0.2169      2.00000
      2       1.4537      2.00000
      3       2.2379      2.00000
      4       4.1597      2.00000
      5       5.4878      1.98309
      6       5.9495      0.38067
      7      12.1842      0.00000
      8      20.9732      0.00000
      9      24.1366      0.00000
     10      26.7953      0.00000

 k-point    15 :       0.5000    0.2000    0.0000
  band No.  band energies     occupation 
      1       0.3978      2.00000
      2       1.6396      2.00000
      3       1.9648      2.00000
      4       3.9850      2.00000
      5       5.5160      1.97140
      6       7.5562      0.00000
      7      10.4135      0.00000
      8      22.6743      0.00000
      9      22.7045      0.00000
     10      25.5477      0.00000

 k-point    16 :       0.3000    0.3000    0.0000
  band No.  band energies     occupation 
      1       0.1767      2.00000
      2       1.2246      2.00000
      3       3.4321      2.00000
      4       4.5592      2.00000
      5       4.6818      2.00000
      6       4.8430      2.00000
      7      15.1837      0.00000
      8      17.4034      0.00000
      9      24.4817      0.00000
     10      28.6842      0.00000

 k-point    17 :       0.4000    0.3000    0.0000
  band No.  band energies     occupation 
      1       0.4763      2.00000
      2       0.8635      2.00000
      3       3.9267      2.00000
      4       4.2815      2.00000
      5       4.8595      2.00000
      6       6.6547      0.00000
      7      12.7422      0.00000
      8      18.3980      0.00000
      9      22.6996      0.00000
     10      27.2360      0.00000

 k-point    18 :       0.5000    0.3000    0.0000
  band No.  band energies     occupation 
      1       0.6206      2.00000
      2       0.6776      2.00000
      3       4.0090      2.00000
      4       4.1123      2.00000
      5       4.8915      2.00000
      6       8.8581      0.00000
      7      10.4605      0.00000
      8      19.6190      0.00000
      9      21.2236      0.00000
     10      26.5365      0.00000

 k-point    19 :       0.4000    0.4000    0.0000
  band No.  band energies     occupation 
      1       0.1628      2.00000
      2       0.8156      2.00000
      3       4.3598      2.00000
      4       4.4161      2.00000
      5       5.8419      0.90778
      6       7.7595      0.00000
      7      12.3229      0.00000
      8      16.9194      0.00000
      9      20.8375      0.00000
     10      28.0584      0.00000

 k-point    20 :       0.5000    0.4000    0.0000
  band No.  band energies     occupation 
      1      -0.0350      2.00000
      2       0.8923      2.00000
      3       4.2178      2.00000
      4       4.4276      2.00000
      5       6.3709      0.00012
      6       9.8762      0.00000
      7      10.4257      0.00000
      8      16.8860      0.00000
      9      19.8664      0.00000
     10      27.7850      0.00000

 k-point    21 :       0.5000    0.5000    0.0000
  band No.  band energies     occupation 
      1      -0.2606      2.00000
      2       0.9752      2.00000
      3       4.2588      2.00000
      4       4.2588      2.00000
      5       7.7382      0.00000
      6      10.2888      0.00000
      7      10.2888      0.00000
      8      15.5547      0.00000
      9      19.3116      0.00000
     10      28.4150      0.00000

 k-point    22 :       0.1000    0.1000    0.1000
  band No.  band energies     occupation 
      1      -2.0057      2.00000
      2       0.3612      2.00000
      3       0.3612      2.00000
      4       5.5144      1.97220
      5       5.6122      1.86864
      6       5.6122      1.86864
      7      19.8541      0.00000
      8      20.7901      0.00000
      9      20.7901      0.00000
     10      29.5234      0.00000

 k-point    23 :       0.2000    0.1000    0.1000
  band No.  band energies     occupation 
      1      -1.2818      2.00000
      2       0.5052      2.00000
      3       1.1667      2.00000
      4       4.9480      2.00000
      5       4.9497      2.00000
      6       5.6552      1.77152
      7      17.3615      0.00000
      8      21.2333      0.00000
      9      21.9715      0.00000
     10      27.8181      0.00000

 k-point    24 :       0.3000    0.1000    0.1000
  band No.  band energies     occupation 
      1      -0.4816      2.00000
      2       0.6942      2.00000
      3       2.3696      2.00000
      4       4.2211      2.00000
      5       4.5853      2.00000
      6       5.7382      1.46320
      7      14.4623      0.00000
      8      22.4768      0.00000
      9      23.1619      0.00000
     10      26.6385      0.00000

 k-point    25 :       0.4000    0.1000    0.1000
  band No.  band energies     occupation 
      1       0.1537      2.00000
      2       0.8596      2.00000
      3       2.7392      2.00000
      4       3.6821      2.00000
      5       5.6583      1.76307
      6       5.8212      1.02449
      7      11.8819      0.00000
      8      23.4347      0.00000
      9      23.8294      0.00000
     10      26.7902      0.00000

 k-point    26 :       0.5000    0.1000    0.1000
  band No.  band energies     occupation 
      1       0.4201      2.00000
      2       0.9269      2.00000
      3       2.6226      2.00000
      4       3.4845      2.00000
      5       5.8291      0.97980
      6       6.9216      0.00000
      7      10.4006      0.00000
      8      23.3154      0.00000
      9      25.1014      0.00000
     10      25.7876      0.00000

 k-point    27 :       0.2000    0.2000    0.1000
  band No.  band energies     occupation 
      1      -0.5759      2.00000
      2       1.0188      2.00000
      3       1.5662      2.00000
      4       4.3349      2.00000
      5       4.9897      2.00000
      6       5.0907      2.00000
      7      18.3465      0.00000
      8      18.4578      0.00000
      9      22.7215      0.00000
     10      28.0502      0.00000

 k-point    28 :       0.3000    0.2000    0.1000
  band No.  band energies     occupation 
      1       0.1135      2.00000
      2       1.3236      2.00000
      3       2.3994      2.00000
      4       3.9611      2.00000
      5       4.7041      2.00000
      6       5.1595      2.00000
      7      15.3748      0.00000
      8      19.7340      0.00000
      9      23.8350      0.00000
     10      27.0049      0.00000

 k-point    29 :       0.4000    0.2000    0.1000
  band No.  band energies     occupation 
      1       0.6352      2.00000
      2       1.5275      2.00000
      3       2.2642      2.00000
      4       3.6017      2.00000
      5       5.2095      1.99999
      6       6.4208      0.00003
      7      12.5034      0.00000
      8      21.2576      0.00000
      9      24.1986      0.00000
     10      25.6264      0.00000

 k-point    30 :       0.5000    0.2000    0.1000
  band No.  band energies     occupation 
      1       0.8611      2.00000
      2       1.6518      2.00000
      3       2.0175      2.00000
      4       3.4189      2.00000
      5       5.2492      1.99995
      6       8.2340      0.00000
      7      10.4998      0.00000
      8      22.8256      0.00000
      9      23.2067      0.00000
     10      24.7449      0.00000

 k-point    31 :       0.3000    0.3000    0.1000
  band No.  band energies     occupation 
      1       0.5378      2.00000
      2       1.3600      2.00000
      3       3.3737      2.00000
      4       3.9483      2.00000
      5       4.5875      2.00000
      6       5.1902      1.99999
      7      15.7296      0.00000
      8      17.6189      0.00000
      9      24.5919      0.00000
     10      25.6372      0.00000

 k-point    32 :       0.4000    0.3000    0.1000
  band No.  band energies     occupation 
      1       0.7258      2.00000
      2       1.1282      2.00000
      3       3.7134      2.00000
      4       3.7589      2.00000
      5       4.7532      2.00000
      6       7.1087      0.00000
      7      13.1785      0.00000
      8      18.6608      0.00000
      9      22.8535      0.00000
     10      25.7297      0.00000

 k-point    33 :       0.5000    0.3000    0.1000
  band No.  band energies     occupation 
      1       0.6894      2.00000
      2       1.1344      2.00000
      3       3.5492      2.00000
      4       3.8132      2.00000
      5       4.8263      2.00000
      6       9.5219      0.00000
      7      10.6339      0.00000
      8      20.0583      0.00000
      9      21.1003      0.00000
     10      25.7932      0.00000

 k-point    34 :       0.4000    0.4000    0.1000
  band No.  band energies     occupation 
      1       0.2472      2.00000
      2       1.2678      2.00000
      3       3.8179      2.00000
      4       3.8650      2.00000
      5       6.0259      0.15659
      6       8.2722      0.00000
      7      12.8833      0.00000
      8      17.0904      0.00000
      9      20.7346      0.00000
     10      26.7114      0.00000

 k-point    35 :       0.5000    0.4000    0.1000
  band No.  band energies     occupation 
      1       0.0490      2.00000
      2       1.3561      2.00000
      3       3.6773      2.00000
      4       3.8911      2.00000
      5       6.5496      0.00000
      6      10.5506      0.00000
      7      10.8063      0.00000
      8      17.1214      0.00000
      9      19.6272      0.00000
     10      27.0790      0.00000

 k-point    36 :       0.5000    0.5000    0.1000
  band No.  band energies     occupation 
      1      -0.1734      2.00000
      2       1.4462      2.00000
      3       3.7286      2.00000
      4       3.7286      2.00000
      5       7.7522      0.00000
      6      10.9754      0.00000
      7      10.9754      0.00000
      8      15.5919      0.00000
      9      19.0326      0.00000
     10      28.2602      0.00000

 k-point    37 :       0.2000    0.2000    0.2000
  band No.  band energies     occupation 
      1       0.1809      2.00000
      2       1.6926      2.00000
      3       1.6926      2.00000
      4       4.3517      2.00000
      5       4.3517      2.00000
      6       4.6292      2.00000
      7      18.9306      0.00000
      8      19.7519      0.00000
      9      19.7519      0.00000
     10      29.9122      0.00000

 k-point    38 :       0.3000    0.2000    0.2000
  band No.  band energies     occupation 
      1       0.8171      2.00000
      2       1.8701      2.00000
      3       2.4729      2.00000
      4       3.5437      2.00000
      5       4.4045      2.00000
      6       5.0667      2.00000
      7      16.3797      0.00000
      8      20.1783      0.00000
      9      21.3732      0.00000
     10      28.0054      0.00000

 k-point    39 :       0.4000    0.2000    0.2000
  band No.  band energies     occupation 
      1       1.2712      2.00000
      2       2.0664      2.00000
      3       2.3186      2.00000
      4       2.9113      2.00000
      5       4.6153      2.00000
      6       7.1435      0.00000
      7      13.3031      0.00000
      8      21.3436      0.00000
      9      22.9609      0.00000
     10      25.7547      0.00000

 k-point    40 :       0.5000    0.2000    0.2000
  band No.  band energies     occupation 
      1       1.4997      2.00000
      2       2.1031      2.00000
      3       2.2030      2.00000
      4       2.6222      2.00000
      5       4.6732      2.00000
      6       9.5480      0.00000
      7      10.7182      0.00000
      8      22.3072      0.00000
      9      24.0091      0.00000
     10      24.1641      0.00000

 k-point    41 :       0.3000    0.3000    0.2000
  band No.  band energies     occupation 
      1       1.0690      2.00000
      2       2.0812      2.00000
      3       3.0387      2.00000
      4       3.3719      2.00000
      5       4.2169      2.00000
      6       5.7536      1.38887
      7      17.1033      0.00000
      8      18.1127      0.00000
      9      22.0176      0.00000
     10      25.8367      0.00000

 k-point    42 :       0.4000    0.3000    0.2000
  band No.  band energies     occupation 
      1       0.9561      2.00000
      2       2.1580      2.00000
      3       2.8025      2.00000
      4       3.2738      2.00000
      5       4.7315      2.00000
      6       7.9005      0.00000
      7      14.2327      0.00000
      8      19.1824      0.00000
      9      22.4952      0.00000
     10      24.2318      0.00000

 k-point    43 :       0.5000    0.3000    0.2000
  band No.  band energies     occupation 
      1       0.8589      2.00000
      2       2.3409      2.00000
      3       2.4889      2.00000
      4       3.3004      2.00000
      5       4.8663      2.00000
      6      10.8942      0.00000
      7      11.0490      0.00000
      8      20.4653      0.00000
      9      21.1926      0.00000
     10      24.7837      0.00000

 k-point    44 :       0.4000    0.4000    0.2000
  band No.  band energies     occupation 
      1       0.4677      2.00000
      2       2.3300      2.00000
      3       2.8341      2.00000
      4       3.0440      2.00000
      5       6.2489      0.00276
      6       9.2582      0.00000
      7      14.2432      0.00000
      8      17.4135      0.00000
      9      20.3207      0.00000
     10      25.0589      0.00000

 k-point    45 :       0.5000    0.4000    0.2000
  band No.  band energies     occupation 
      1       0.2769      2.00000
      2       2.5259      2.00000
      3       2.6040      2.00000
      4       3.0295      2.00000
      5       6.7831      0.00000
      6      11.6615      0.00000
      7      12.0051      0.00000
      8      17.7609      0.00000
      9      18.8915      0.00000
     10      25.8592      0.00000

 k-point    46 :       0.5000    0.5000    0.2000
  band No.  band energies     occupation 
      1       0.0647      2.00000
      2       2.6637      2.00000
      3       2.6637      2.00000
      4       2.7941      2.00000
      5       7.7893      0.00000
      6      12.4878      0.00000
      7      12.4878      0.00000
      8      15.6925      0.00000
      9      18.2363      0.00000
     10      26.7477      0.00000

 k-point    47 :       0.3000    0.3000    0.3000
  band No.  band energies     occupation 
      1       1.1766      2.00000
      2       2.4051      2.00000
      3       2.4051      2.00000
      4       4.1360      2.00000
      5       4.1360      2.00000
      6       6.6859      0.00000
      7      18.5774      0.00000
      8      18.8492      0.00000
      9      18.8492      0.00000
     10      26.1668      0.00000

 k-point    48 :       0.4000    0.3000    0.3000
  band No.  band energies     occupation 
      1       1.0296      2.00000
      2       1.8809      2.00000
      3       2.3404      2.00000
      4       4.1686      2.00000
      5       5.0954      2.00000
      6       8.8154      0.00000
      7      15.4428      0.00000
      8      19.0161      0.00000
      9      20.6052      0.00000
     10      24.5203      0.00000

 k-point    49 :       0.5000    0.3000    0.3000
  band No.  band energies     occupation 
      1       0.9287      2.00000
      2       1.6878      2.00000
      3       2.3550      2.00000
      4       4.1897      2.00000
      5       5.3449      1.99932
      6      11.6313      0.00000
      7      12.3394      0.00000
      8      19.1640      0.00000
      9      21.6309      0.00000
     10      23.8255      0.00000

 k-point    50 :       0.4000    0.4000    0.3000
  band No.  band energies     occupation 
      1       0.7440      2.00000
      2       1.7328      2.00000
      3       1.8787      2.00000
      4       4.6388      2.00000
      5       6.4005      0.00005
      6      10.3590      0.00000
      7      15.8666      0.00000
      8      17.4172      0.00000
      9      19.3263      0.00000
     10      24.3211      0.00000

 k-point    51 :       0.5000    0.4000    0.3000
  band No.  band energies     occupation 
      1       0.5741      2.00000
      2       1.6114      2.00000
      3       1.8543      2.00000
      4       4.7072      2.00000
      5       6.9601      0.00000
      6      12.6369      0.00000
      7      13.5628      0.00000
      8      17.8164      0.00000
      9      18.4365      0.00000
     10      25.1948      0.00000

 k-point    52 :       0.5000    0.5000    0.3000
  band No.  band energies     occupation 
      1       0.3807      2.00000
      2       1.6672      2.00000
      3       1.6672      2.00000
      4       4.7892      2.00000
      5       7.8354      0.00000
      6      14.1431      0.00000
      7      14.1431      0.00000
      8      15.8270      0.00000
      9      17.1684      0.00000
     10      25.7518      0.00000

 k-point    53 :       0.4000    0.4000    0.4000
  band No.  band energies     occupation 
      1       0.8756      2.00000
      2       1.2361      2.00000
      3       1.2361      2.00000
      4       6.4933      0.00000
      5       6.4933      0.00000
      6      11.8503      0.00000
      7      17.0033      0.00000
      8      17.2851      0.00000
      9      17.2851      0.00000
     10      24.1304      0.00000

 k-point    54 :       0.5000    0.4000    0.4000
  band No.  band energies     occupation 
      1       0.7718      2.00000
      2       1.0117      2.00000
      3       1.2227      2.00000
      4       6.5255      0.00000
      5       7.2596      0.00000
      6      13.8209      0.00000
      7      14.8430      0.00000
      8      16.8104      0.00000
      9      17.9027      0.00000
     10      23.9736      0.00000

 k-point    55 :       0.5000    0.5000    0.4000
  band No.  band energies     occupation 
      1       0.6574      2.00000
      2       1.0007      2.00000
      3       1.0007      2.00000
      4       6.8783      0.00000
      5       7.8730      0.00000
      6      15.4831      0.00000
      7      15.4831      0.00000
      8      15.9585      0.00000
      9      16.2740      0.00000
     10      24.5185      0.00000

 k-point    56 :       0.5000    0.5000    0.5000
  band No.  band energies     occupation 
      1       0.7688      2.00000
      2       0.7688      2.00000
      3       0.7688      2.00000
      4       7.8874      0.00000
      5       7.8874      0.00000
      6      15.9292      0.00000
      7      16.0266      0.00000
      8      16.0266      0.00000
      9      16.0266      0.00000
     10      22.8493      0.00000


--------------------------------------------------------------------------------------------------------


 soft charge-density along one line, spin component           1
         0         1         2         3         4         5         6         7         8         9
 total charge-density along one line
 
 pseudopotential strength for first ion, spin component:           1
 -8.084  -0.000   0.000  -0.000   0.000  -0.165   0.000  -0.000
 -0.000  -8.084  -0.000  -0.000  -0.000   0.000  -0.165   0.000
  0.000  -0.000  -8.170  -0.000  -0.000  -0.000   0.000  -0.156
 -0.000  -0.000  -0.000  -8.084   0.000   0.000   0.000   0.000
  0.000  -0.000  -0.000   0.000  -8.170  -0.000   0.000   0.000
 -0.165   0.000  -0.000   0.000  -0.000   0.218  -0.000   0.000
  0.000  -0.165   0.000   0.000   0.000  -0.000   0.218  -0.000
 -0.000   0.000  -0.156   0.000   0.000   0.000  -0.000   0.217
  0.000   0.000   0.000  -0.165  -0.000  -0.000  -0.000  -0.000
 -0.000   0.000   0.000  -0.000  -0.156   0.000  -0.000   0.000
  0.000   0.000  -0.000   0.000   0.000  -0.000  -0.000   0.000
 -0.000  -0.000   0.000  -0.000  -0.000   0.000   0.000  -0.000
 -0.000   0.000   0.000   0.000   0.000   0.000  -0.000  -0.000
  0.000  -0.000   0.000   0.000   0.000  -0.000   0.000  -0.000
 -0.000   0.000   0.000   0.000  -0.000   0.000  -0.000  -0.000
  0.000  -0.000  -0.000  -0.000   0.000  -0.000   0.000   0.000
 -0.000   0.000  -0.000  -0.000  -0.000   0.000  -0.000   0.000
  0.000  -0.000  -0.000  -0.000   0.000  -0.000   0.000   0.000
 total augmentation occupancy for first ion, spin component:           1
  1.859  -0.000   0.000  -0.000   0.000  -0.061   0.000   0.000   0.000  -0.000   0.000  -0.000   0.000   0.000   0.000   0.000
  0.000   1.859  -0.000   0.000  -0.000   0.000  -0.061  -0.000  -0.000  -0.000   0.000   0.000   0.000   0.000   0.000   0.000
 -0.000   0.000   1.587   0.000   0.000  -0.000   0.000   0.367   0.000   0.000   0.000  -0.000   0.000   0.000   0.000   0.000
  0.000   0.000  -0.000   1.859  -0.000  -0.000  -0.000  -0.000  -0.061   0.000   0.000   0.000   0.000   0.000   0.000   0.000
 -0.000  -0.000   0.000  -0.000   1.587  -0.000  -0.000   0.000   0.000   0.367   0.000   0.000   0.000   0.000   0.000   0.000
 -0.061  -0.000  -0.000  -0.000  -0.000   0.251  -0.000   0.000  -0.000   0.000   0.000  -0.000   0.000   0.000   0.000   0.000
  0.000  -0.061  -0.000  -0.000  -0.000   0.000   0.251  -0.000  -0.000  -0.000  -0.000  -0.000   0.000   0.000   0.000   0.000
 -0.000   0.000   0.367   0.000   0.000   0.000  -0.000   0.272  -0.000   0.000   0.000  -0.000   0.000   0.000   0.000   0.000
  0.000  -0.000  -0.000  -0.061   0.000  -0.000  -0.000  -0.000   0.251   0.000   0.000   0.000   0.000   0.000   0.000   0.000
  0.000  -0.000   0.000   0.000   0.367   0.000   0.000  -0.000   0.000   0.272   0.000   0.000   0.000   0.000   0.000   0.000
  0.000   0.000   0.000   0.000   0.000   0.000   0.000   0.000   0.000   0.000   1.343  -0.330   0.000   0.000   0.000   0.000
 -0.000   0.000  -0.000   0.000   0.000  -0.000  -0.000  -0.000   0.000   0.000  -0.330   0.151   0.000   0.000   0.000   0.000
  0.000   0.000   0.000   0.000   0.000   0.000   0.000   0.000   0.000   0.000   0.000   0.000   0.170  -0.000  -0.000  -0.007
  0.000   0.000   0.000   0.000   0.000   0.000   0.000   0.000   0.000   0.000   0.000   0.000  -0.000   0.170   0.000   0.000
  0.000   0.000   0.000   0.000   0.000   0.000   0.000   0.000   0.000   0.000   0.000   0.000   0.000  -0.000   0.170   0.000
  0.000   0.000   0.000   0.000   0.000   0.000   0.000   0.000   0.000   0.000   0.000   0.000  -0.007   0.000   0.000   0.000
[...]
      1       0.5279      2.00000
      2       0.9067      2.00000
      3       3.2391      2.00000
      4       3.4821      2.00000
      5       4.4405      2.00000
      6       9.0733      0.00000
      7      10.0150      0.00000
      8      19.2776      0.00000
      9      20.4673      0.00000
     10      25.1643      0.00000

 k-point    34 :       0.4000    0.4000    0.1000
  band No.  band energies     occupation 
      1       0.1048      2.00000
      2       1.0349      2.00000
      3       3.4931      2.00000
      4       3.5374      2.00000
      5       5.5840      0.18114
      6       7.8090      0.00000
      7      12.3234      0.00000
      8      16.3371      0.00000
      9      20.0649      0.00000
     10      26.0179      0.00000

 k-point    35 :       0.5000    0.4000    0.1000
  band No.  band energies     occupation 
      1      -0.0836      2.00000
      2       1.1184      2.00000
      3       3.3594      2.00000
      4       3.5618      2.00000
      5       6.0837      0.00000
      6      10.0834      0.00000
      7      10.2419      0.00000
      8      16.3245      0.00000
      9      19.0100      0.00000
     10      26.4179      0.00000

 k-point    36 :       0.5000    0.5000    0.1000
  band No.  band energies     occupation 
      1      -0.2959      2.00000
      2       1.2042      2.00000
      3       3.4076      2.00000
      4       3.4076      2.00000
      5       7.2069      0.00000
      6      10.5016      0.00000
      7      10.5016      0.00000
      8      14.7590      0.00000
      9      18.4230      0.00000
     10      27.5532      0.00000

 k-point    37 :       0.2000    0.2000    0.2000
  band No.  band energies     occupation 
      1      -0.0208      2.00000
      2       1.4540      2.00000
      3       1.4540      2.00000
      4       3.9989      2.00000
      5       3.9989      2.00000
      6       4.2569      2.00000
      7      18.2888      0.00000
      8      19.0545      0.00000
      9      19.0545      0.00000
     10      29.1598      0.00000

 k-point    38 :       0.3000    0.2000    0.2000
  band No.  band energies     occupation 
      1       0.6097      2.00000
      2       1.6234      2.00000
      3       2.2061      2.00000
      4       3.2343      2.00000
      5       4.0466      2.00000
      6       4.6729      2.00000
      7      15.7266      0.00000
      8      19.5133      0.00000
      9      20.6317      0.00000
     10      27.2171      0.00000

 k-point    39 :       0.4000    0.2000    0.2000
  band No.  band energies     occupation 
      1       1.0635      2.00000
      2       1.8103      2.00000
      3       2.0537      2.00000
      4       2.6343      2.00000
      5       4.2446      2.00000
      6       6.6846      0.00000
      7      12.6775      0.00000
      8      20.6933      0.00000
      9      22.2187      0.00000
     10      24.9839      0.00000

 k-point    40 :       0.5000    0.2000    0.2000
  band No.  band energies     occupation 
      1       1.3014      2.00000
      2       1.8316      2.00000
      3       1.9376      2.00000
      4       2.3622      2.00000
      5       4.2987      2.00000
      6       9.0803      0.00000
      7      10.0797      0.00000
      8      21.7041      0.00000
      9      23.3692      0.00000
     10      23.3702      0.00000

 k-point    41 :       0.3000    0.3000    0.2000
  band No.  band energies     occupation 
      1       0.8733      2.00000
      2       1.8285      2.00000
      3       2.7510      2.00000
      4       3.0682      2.00000
      5       3.8618      2.00000
      6       5.3356      1.32509
      7      16.4236      0.00000
      8      17.4502      0.00000
      9      21.2771      0.00000
     10      25.0812      0.00000

 k-point    42 :       0.4000    0.3000    0.2000
  band No.  band energies     occupation 
      1       0.7787      2.00000
      2       1.8988      2.00000
      3       2.5294      2.00000
      4       2.9728      2.00000
      5       4.3480      2.00000
      6       7.4163      0.00000
      7      13.5949      0.00000
      8      18.5157      0.00000
      9      21.7557      0.00000
     10      23.4964      0.00000

 k-point    43 :       0.5000    0.3000    0.2000
  band No.  band energies     occupation 
      1       0.6889      2.00000
      2       2.0668      2.00000
      3       2.2363      2.00000
      4       2.9978      2.00000
      5       4.4757      2.00000
      6      10.3899      0.00000
      7      10.4128      0.00000
      8      19.9030      0.00000
      9      20.3636      0.00000
     10      24.0995      0.00000

 k-point    44 :       0.4000    0.4000    0.2000
  band No.  band energies     occupation 
      1       0.3150      2.00000
      2       2.0655      2.00000
      3       2.5629      2.00000
      4       2.7499      2.00000
      5       5.7912      0.00507
      6       8.7474      0.00000
      7      13.6288      0.00000
      8      16.7028      0.00000
      9      19.6718      0.00000
     10      24.3195      0.00000

 k-point    45 :       0.5000    0.4000    0.2000
  band No.  band energies     occupation 
      1       0.1333      2.00000
      2       2.2497      2.00000
      3       2.3448      2.00000
      4       2.7373      2.00000
      5       6.2986      0.00000
      6      11.0556      0.00000
      7      11.4766      0.00000
      8      16.9575      0.00000
      9      18.3579      0.00000
     10      25.1487      0.00000

 k-point    46 :       0.5000    0.5000    0.2000
  band No.  band energies     occupation 
      1      -0.0694      2.00000
      2       2.4009      2.00000
      3       2.4009      2.00000
      4       2.4936      2.00000
      5       7.2417      0.00000
      6      11.9492      0.00000
      7      11.9492      0.00000
      8      14.8695      0.00000
      9      17.7152      0.00000
     10      26.0264      0.00000

 k-point    47 :       0.3000    0.3000    0.3000
  band No.  band energies     occupation 
      1       0.9852      2.00000
      2       2.1549      2.00000
      3       2.1549      2.00000
      4       3.7810      2.00000
      5       3.7810      2.00000
      6       6.2389      0.00000
      7      17.9881      0.00000
      8      18.1030      0.00000
      9      18.1030      0.00000
     10      25.3811      0.00000

 k-point    48 :       0.4000    0.3000    0.3000
  band No.  band energies     occupation 
      1       0.8493      2.00000
      2       1.6580      2.00000
      3       2.0930      2.00000
      4       3.8105      2.00000
      5       4.6931      2.00000
      6       8.3025      0.00000
      7      14.7766      0.00000
      8      18.4745      0.00000
      9      19.7953      0.00000
     10      23.6951      0.00000

 k-point    49 :       0.5000    0.3000    0.3000
  band No.  band energies     occupation 
      1       0.7544      2.00000
      2       1.4746      2.00000
      3       2.1062      2.00000
      4       3.8301      2.00000
      5       4.9306      1.99897
      6      10.9849      0.00000
      7      11.7917      0.00000
      8      18.6774      0.00000
      9      20.7689      0.00000
     10      22.9631      0.00000

 k-point    50 :       0.4000    0.4000    0.3000
  band No.  band energies     occupation 
      1       0.5772      2.00000
      2       1.5165      2.00000
      3       1.6554      2.00000
      4       4.2571      2.00000
      5       5.9329      0.00014
      6       9.8110      0.00000
      7      15.1953      0.00000
      8      16.8413      0.00000
      9      18.6471      0.00000
     10      23.4848      0.00000

 k-point    51 :       0.5000    0.4000    0.3000
  band No.  band energies     occupation 
      1       0.4153      2.00000
      2       1.4013      2.00000
      3       1.6316      2.00000
      4       4.3217      2.00000
      5       6.4634      0.00000
      6      11.9963      0.00000
      7      12.9852      0.00000
      8      17.3727      0.00000
      9      17.6433      0.00000
     10      24.3094      0.00000

 k-point    52 :       0.5000    0.5000    0.3000
  band No.  band energies     occupation 
      1       0.2306      2.00000
      2       1.4539      2.00000
      3       1.4539      2.00000
      4       4.3992      2.00000
      5       7.2850      0.00000
      6      13.5469      0.00000
      7      13.5469      0.00000
      8      15.0342      0.00000
      9      16.7464      0.00000
     10      24.9799      0.00000

 k-point    53 :       0.4000    0.4000    0.4000
  band No.  band energies     occupation 
      1       0.7013      2.00000
      2       1.0437      2.00000
      3       1.0437      2.00000
      4       6.0199      0.00001
      5       6.0199      0.00001
      6      11.2688      0.00000
      7      16.5694      0.00000
      8      16.5694      0.00000
      9      16.5984      0.00000
     10      23.1671      0.00000

 k-point    54 :       0.5000    0.4000    0.4000
  band No.  band energies     occupation 
      1       0.6021      2.00000
      2       0.8298      2.00000
      3       1.0304      2.00000
      4       6.0500      0.00000
      5       6.7448      0.00000
      6      13.1665      0.00000
      7      14.2389      0.00000
      8      16.4190      0.00000
      9      17.1686      0.00000
     10      22.9854      0.00000

 k-point    55 :       0.5000    0.5000    0.4000
  band No.  band energies     occupation 
      1       0.4925      2.00000
      2       0.8189      2.00000
      3       0.8189      2.00000
      4       6.3840      0.00000
      5       7.3202      0.00000
      6      14.8482      0.00000
      7      14.8482      0.00000
      8      15.2392      0.00000
      9      15.9207      0.00000
     10      23.3510      0.00000

 k-point    56 :       0.5000    0.5000    0.5000
  band No.  band energies     occupation 
      1       0.5978      2.00000
      2       0.5978      2.00000
      3       0.5978      2.00000
      4       7.3338      0.00000
      5       7.3338      0.00000
      6      15.3779      0.00000
      7      15.3779      0.00000
      8      15.3779      0.00000
      9      15.5999      0.00000
     10      21.7140      0.00000


--------------------------------------------------------------------------------------------------------


 soft charge-density along one line, spin component           1
         0         1         2         3         4         5         6         7         8         9
 total charge-density along one line
 
 pseudopotential strength for first ion, spin component:           1
 -8.214  -0.000   0.000  -0.000  -0.000  -0.148   0.000  -0.000
 -0.000  -8.214  -0.000  -0.000  -0.000   0.000  -0.148   0.000
  0.000  -0.000  -8.299  -0.000   0.000  -0.000   0.000  -0.140
 -0.000  -0.000  -0.000  -8.214   0.000   0.000   0.000   0.000
 -0.000  -0.000   0.000   0.000  -8.299   0.000   0.000  -0.000
 -0.148   0.000  -0.000   0.000   0.000   0.216  -0.000   0.000
  0.000  -0.148   0.000   0.000   0.000  -0.000   0.216  -0.000
 -0.000   0.000  -0.140   0.000  -0.000   0.000  -0.000   0.215
  0.000   0.000   0.000  -0.148  -0.000  -0.000  -0.000  -0.000
  0.000   0.000  -0.000  -0.000  -0.140  -0.000  -0.000   0.000
  0.000   0.000  -0.000   0.000   0.000  -0.000  -0.000   0.000
 -0.000  -0.000   0.000  -0.000  -0.000   0.000   0.000  -0.000
  0.000   0.000   0.000   0.000  -0.000   0.000  -0.000  -0.000
  0.000  -0.000   0.000   0.000   0.000  -0.000   0.000  -0.000
 -0.000   0.000   0.000   0.000  -0.000   0.000  -0.000  -0.000
 -0.000  -0.000   0.000  -0.000   0.000   0.000   0.000   0.000
 -0.000   0.000  -0.000  -0.000  -0.000   0.000  -0.000   0.000
  0.000  -0.000  -0.000  -0.000   0.000  -0.000   0.000   0.000
 total augmentation occupancy for first ion, spin component:           1
  1.860  -0.000  -0.000   0.000  -0.000  -0.074   0.000   0.000  -0.000   0.000  -0.000   0.000   0.000   0.000   0.000   0.000
 -0.000   1.860   0.000   0.000  -0.000  -0.000  -0.074   0.000   0.000  -0.000   0.000  -0.000   0.000   0.000   0.000   0.000
 -0.000   0.000   1.579  -0.000  -0.000  -0.000   0.000   0.339  -0.000  -0.000   0.000   0.000   0.000   0.000   0.000   0.000
  0.000   0.000  -0.000   1.860  -0.000   0.000   0.000  -0.000  -0.074   0.000   0.000   0.000   0.000   0.000   0.000   0.000
 -0.000  -0.000  -0.000  -0.000   1.579   0.000   0.000  -0.000  -0.000   0.339  -0.000   0.000   0.000   0.000   0.000   0.000
 -0.074  -0.000   0.000   0.000   0.000   0.228  -0.000  -0.000   0.000   0.000   0.000   0.000   0.000   0.000   0.000   0.000
  0.000  -0.074   0.000  -0.000   0.000  -0.000   0.228   0.000   0.000  -0.000  -0.000  -0.000   0.000   0.000   0.000   0.000
  0.000   0.000   0.339  -0.000  -0.000  -0.000   0.000   0.244  -0.000  -0.000   0.000  -0.000   0.000   0.000   0.000   0.000
 -0.000   0.000  -0.000  -0.074   0.000   0.000   0.000  -0.000   0.228  -0.000   0.000  -0.000   0.000   0.000   0.000   0.000
  0.000  -0.000  -0.000   0.000   0.339   0.000  -0.000  -0.000  -0.000   0.244  -0.000   0.000   0.000   0.000   0.000   0.000
 -0.000  -0.000   0.000   0.000  -0.000  -0.000   0.000   0.000   0.000  -0.000   1.314  -0.313   0.000   0.000   0.000   0.000
  0.000  -0.000   0.000   0.000   0.000  -0.000  -0.000  -0.000  -0.000   0.000  -0.313   0.137   0.000   0.000   0.000   0.000
  0.000   0.000   0.000   0.000   0.000   0.000   0.000   0.000   0.000   0.000   0.000   0.000   0.158   0.000   0.000  -0.007
  0.000   0.000   0.000   0.000   0.000   0.000   0.000   0.000   0.000   0.000   0.000   0.000   0.000   0.158  -0.000  -0.000
  0.000   0.000   0.000   0.000   0.000   0.000   0.000   0.000   0.000   0.000   0.000   0.000   0.000  -0.000   0.158   0.000
  0.000   0.000   0.000   0.000   0.000   0.000   0.000   0.000   0.000   0.000   0.000   0.000  -0.007  -0.000  -0.000   0.000
  0.000   0.000   0.000   0.000   0.000   0.000   0.000   0.000   0.000   0.000   0.000   0.000  -0.000  -0.007  -0.000   0.000
  0.000   0.000   0.000   0.000   0.000   0.000   0.000   0.000   0.000   0.000   0.000   0.000  -0.000   0.000  -0.007  -0.000


------------------------ aborting loop because EDIFF is reached ----------------------------------------


    CHARGE:  cpu time    0.0280: real time    0.0290
    FORLOC:  cpu time    0.0000: real time    0.0004
    FORNL :  cpu time    0.2210: real time    0.2206
    STRESS:  cpu time    0.6859: real time    0.6849
    FORCOR:  cpu time    0.0080: real time    0.0090
    FORHAR:  cpu time    0.0020: real time    0.0015
    MIXING:  cpu time    0.0010: real time    0.0010
    OFIELD:  cpu time    0.0000: real time    0.0000

  FORCE on cell =-STRESS in cart. coord.  units (eV):
  Direction    XX          YY          ZZ          XY          YZ          ZX
  --------------------------------------------------------------------------------------
  Alpha Z    80.13537    80.13537    80.13537
  Ewald    -259.08056  -259.08056  -259.08056     0.00000     0.00000    -0.00000
  Hartree    29.94708    29.94708    29.94708    -0.00000    -0.00000    -0.00000
  E(xc)     -44.37936   -44.37936   -44.37936    -0.00000     0.00000    -0.00000
  Local      42.40429    42.40429    42.40429    -0.00000    -0.00000    -0.00000
  n-local   -43.93514   -30.10348   -24.78400     1.72958     0.42016     0.60773
  augment    38.80979    38.80979    38.80979     0.00000     0.00000     0.00000
  Kinetic   142.71168   142.68164   149.93482     1.42011     1.16954     0.65743
  Fock        0.00000     0.00000     0.00000     0.00000     0.00000     0.00000
  -------------------------------------------------------------------------------------
  Total       0.00513     0.00513     0.00513    -0.00000     0.00000    -0.00000
  in kB       0.45245     0.45245     0.45245    -0.00000     0.00000    -0.00000
  external pressure =        0.45 kB  Pullay stress =        0.00 kB


 VOLUME and BASIS-vectors are now :
 -----------------------------------------------------------------------------
  energy-cutoff  :      500.00
  volume of cell :       18.16
      direct lattice vectors                 reciprocal lattice vectors
     2.628299652  0.000000000 -0.000000000     0.380474121  0.000000000  0.000000000
    -0.000000000  2.628299652  0.000000000    -0.000000000  0.380474121 -0.000000000
    -0.000000000  0.000000000  2.628299652     0.000000000 -0.000000000  0.380474121

  length of vectors
     2.628299652  2.628299652  2.628299652     0.380474121  0.380474121  0.380474121


 FORCES acting on ions
    electron-ion (+dipol)            ewald-force                    non-local-force                 convergence-correction
 -----------------------------------------------------------------------------------------------
   -.115E-14 0.182E-13 -.870E-14   -.117E-14 0.119E-14 0.101E-14   -.327E-25 0.439E-25 0.000E+00   0.236E-14 0.316E-14 -.150E-13
 -----------------------------------------------------------------------------------------------
   -.115E-14 0.182E-13 -.870E-14   -.117E-14 0.119E-14 0.101E-14   -.327E-25 0.439E-25 0.000E+00   0.236E-14 0.316E-14 -.150E-13
 
 
 POSITION                                       TOTAL-FORCE (eV/Angst)
 -----------------------------------------------------------------------------------
      0.00000     -0.00000     -0.00000        -0.000000      0.000000      0.000000
 -----------------------------------------------------------------------------------
    total drift:                                0.000000      0.000000     -0.000000


--------------------------------------------------------------------------------------------------------



  FREE ENERGIE OF THE ION-ELECTRON SYSTEM (eV)
  ---------------------------------------------------
  free  energy   TOTEN  =        -5.64495069 eV

  energy  without entropy=       -5.61821955  energy(sigma->0) =       -5.63158512
 
 d Force = 0.0000000E+00[ 0.000E+00, 0.000E+00]  d Energy = 0.1779336E-04-0.178E-04
 d Force = 0.0000000E+00[ 0.000E+00, 0.000E+00]  d Ewald  =-0.3112945E+00 0.311E+00


--------------------------------------------------------------------------------------------------------


    POTLOK:  cpu time    0.0290: real time    0.0293


--------------------------------------------------------------------------------------------------------


 Quasi-Newton relaxation of ions (Broydens 2nd method)
  g(Force)  = 0.329E-69   g(Stress)= 0.380E-05

 retain information from N=  1 steps
 eigenvalues of (default step * inverse Hessian matrix)
  average eigenvalue of G=   0.4031
 eigenvalue spectrum of G is  0.4031


--------------------------------------------------------------------------------------------------------


  
 reached required accuracy - stopping structural energy minimisation
 writing wavefunctions
     LOOP+:  cpu time    2.0277: real time    2.0883
    4ORBIT:  cpu time    0.0000: real time    0.0000

 total amount of memory used by VASP on root node    35349. kBytes
========================================================================

   base      :      30000. kBytes
   nonlr-proj:        734. kBytes
   fftplans  :       2507. kBytes
   grid      :        956. kBytes
   one-center:         15. kBytes
   wavefun   :       1137. kBytes
 
  
  
 General timing and accounting informations for this job:
 ========================================================
  
                  Total CPU time used (sec):       16.724
                            User time (sec):       15.061
                          System time (sec):        1.664
                         Elapsed time (sec):       18.900
  
                   Maximum memory used (kb):       60344.
                   Average memory used (kb):           0.
  
                          Minor page faults:       804646
                          Major page faults:          164
                 Voluntary context switches:         2585
