unknown system                          
           1
     2.689056    0.000000   -0.000000
     0.000000    2.689056   -0.000000
     0.000000    0.000000    2.689056
   Pt
   1
Direct configuration=     1
   0.00000000  0.00000000  0.00000000
unknown system                          
           1
     2.631166    0.000000   -0.000000
     0.000000    2.631166   -0.000000
    -0.000000    0.000000    2.631166
   Pt
   1
Direct configuration=     2
   0.00000000  0.00000000  0.00000000
unknown system                          
           1
     2.629173    0.000000   -0.000000
    -0.000000    2.629173    0.000000
    -0.000000    0.000000    2.629173
   Pt
   1
Direct configuration=     3
   0.00000000 -0.00000000 -0.00000000
unknown system                          
           1
     2.627247    0.000000   -0.000000
    -0.000000    2.627247    0.000000
    -0.000000    0.000000    2.627247
   Pt
   1
Direct configuration=     4
   0.00000000 -0.00000000 -0.00000000
unknown system                          
           1
     2.628300    0.000000   -0.000000
    -0.000000    2.628300    0.000000
    -0.000000    0.000000    2.628300
   Pt
   1
Direct configuration=     5
   0.00000000 -0.00000000  0.00000000
unknown system                          
           1
     2.628300    0.000000   -0.000000
    -0.000000    2.628300    0.000000
    -0.000000    0.000000    2.628300
   Pt
   1
Direct configuration=     6
   0.00000000 -0.00000000  0.00000000
