  35  35   0   0
  0.1675905E+02  0.3946846E-09  0.3946846E-09  0.3765450E-08  0.5000000E-15
  1.000000000000000E-004
  CAR 
 unknown system                          
     10.39356672    -35.09874992  301      1.18137260      1.00000000
    -35.099  0.0000E+00  0.0000E+00
    -34.947  0.0000E+00  0.0000E+00
    -34.795  0.0000E+00  0.0000E+00
    -34.644  0.0000E+00  0.0000E+00
    -34.492  0.0000E+00  0.0000E+00
    -34.341  0.0000E+00  0.0000E+00
    -34.189  0.0000E+00  0.0000E+00
    -34.037  0.0000E+00  0.0000E+00
    -33.886  0.0000E+00  0.0000E+00
    -33.734  0.0000E+00  0.0000E+00
    -33.582  0.0000E+00  0.0000E+00
    -33.431  0.0000E+00  0.0000E+00
    -33.279  0.0000E+00  0.0000E+00
    -33.127  0.0000E+00  0.0000E+00
    -32.976  0.0000E+00  0.2000E+01
    -32.824  0.0000E+00  0.2000E+01
    -32.672  0.0000E+00  0.2000E+01
    -32.521  0.0000E+00  0.2000E+01
    -32.369  0.7181E+02  0.2633E+01
    -32.218  0.1033E+03  0.7260E+01
    -32.066  0.0000E+00  0.1000E+02
    -31.914  0.3853E+02  0.1205E+02
    -31.763  0.0000E+00  0.1400E+02
    -31.611  0.0000E+00  0.1400E+02
    -31.459  0.0000E+00  0.1400E+02
    -31.308  0.0000E+00  0.1400E+02
    -31.156  0.0000E+00  0.1400E+02
    -31.004  0.0000E+00  0.1400E+02
    -30.853  0.0000E+00  0.1400E+02
    -30.701  0.0000E+00  0.1400E+02
    -30.550  0.0000E+00  0.1400E+02
    -30.398  0.0000E+00  0.1400E+02
    -30.246  0.0000E+00  0.1400E+02
    -30.095  0.0000E+00  0.1400E+02
    -29.943  0.0000E+00  0.1400E+02
    -29.791  0.0000E+00  0.1400E+02
    -29.640  0.0000E+00  0.1400E+02
    -29.488  0.0000E+00  0.1400E+02
    -29.336  0.0000E+00  0.1400E+02
    -29.185  0.0000E+00  0.1400E+02
    -29.033  0.0000E+00  0.1400E+02
    -28.881  0.0000E+00  0.1400E+02
    -28.730  0.0000E+00  0.1400E+02
    -28.578  0.0000E+00  0.1400E+02
    -28.427  0.0000E+00  0.1400E+02
    -28.275  0.0000E+00  0.1400E+02
    -28.123  0.0000E+00  0.1400E+02
    -27.972  0.0000E+00  0.1400E+02
    -27.820  0.0000E+00  0.1400E+02
    -27.668  0.0000E+00  0.1400E+02
    -27.517  0.0000E+00  0.1400E+02
    -27.365  0.0000E+00  0.1400E+02
    -27.213  0.0000E+00  0.1400E+02
    -27.062  0.0000E+00  0.1400E+02
    -26.910  0.0000E+00  0.1400E+02
    -26.758  0.0000E+00  0.1400E+02
    -26.607  0.0000E+00  0.1400E+02
    -26.455  0.0000E+00  0.1400E+02
    -26.304  0.0000E+00  0.1400E+02
    -26.152  0.0000E+00  0.1400E+02
    -26.000  0.0000E+00  0.1400E+02
    -25.849  0.0000E+00  0.1400E+02
    -25.697  0.0000E+00  0.1400E+02
    -25.545  0.0000E+00  0.1400E+02
    -25.394  0.0000E+00  0.1400E+02
    -25.242  0.0000E+00  0.1400E+02
    -25.090  0.0000E+00  0.1400E+02
    -24.939  0.0000E+00  0.1400E+02
    -24.787  0.0000E+00  0.1400E+02
    -24.636  0.0000E+00  0.1400E+02
    -24.484  0.0000E+00  0.1400E+02
    -24.332  0.0000E+00  0.1400E+02
    -24.181  0.0000E+00  0.1400E+02
    -24.029  0.0000E+00  0.1400E+02
    -23.877  0.0000E+00  0.1400E+02
    -23.726  0.0000E+00  0.1400E+02
    -23.574  0.0000E+00  0.1400E+02
    -23.422  0.0000E+00  0.1400E+02
    -23.271  0.0000E+00  0.1400E+02
    -23.119  0.0000E+00  0.1400E+02
    -22.967  0.0000E+00  0.1400E+02
    -22.816  0.0000E+00  0.1400E+02
    -22.664  0.0000E+00  0.1400E+02
    -22.513  0.0000E+00  0.1400E+02
    -22.361  0.0000E+00  0.1400E+02
    -22.209  0.0000E+00  0.1400E+02
    -22.058  0.0000E+00  0.1400E+02
    -21.906  0.0000E+00  0.1400E+02
    -21.754  0.0000E+00  0.1400E+02
    -21.603  0.0000E+00  0.1400E+02
    -21.451  0.0000E+00  0.1400E+02
    -21.299  0.0000E+00  0.1400E+02
    -21.148  0.0000E+00  0.1400E+02
    -20.996  0.0000E+00  0.1400E+02
    -20.844  0.0000E+00  0.1400E+02
    -20.693  0.0000E+00  0.1400E+02
    -20.541  0.0000E+00  0.1400E+02
    -20.390  0.0000E+00  0.1400E+02
    -20.238  0.0000E+00  0.1400E+02
    -20.086  0.0000E+00  0.1400E+02
    -19.935  0.0000E+00  0.1400E+02
    -19.783  0.0000E+00  0.1400E+02
    -19.631  0.0000E+00  0.1400E+02
    -19.480  0.0000E+00  0.1400E+02
    -19.328  0.0000E+00  0.1400E+02
    -19.176  0.0000E+00  0.1400E+02
    -19.025  0.0000E+00  0.1400E+02
    -18.873  0.0000E+00  0.1400E+02
    -18.722  0.0000E+00  0.1400E+02
    -18.570  0.0000E+00  0.1400E+02
    -18.418  0.0000E+00  0.1400E+02
    -18.267  0.0000E+00  0.1400E+02
    -18.115  0.0000E+00  0.1400E+02
    -17.963  0.0000E+00  0.1400E+02
    -17.812  0.0000E+00  0.1400E+02
    -17.660  0.0000E+00  0.1400E+02
    -17.508  0.0000E+00  0.1400E+02
    -17.357  0.0000E+00  0.1400E+02
    -17.205  0.0000E+00  0.1400E+02
    -17.053  0.9803E-01  0.1400E+02
    -16.902  0.9946E+01  0.1511E+02
    -16.750  0.1337E+02  0.1660E+02
    -16.599  0.1444E+02  0.1844E+02
    -16.447  0.1757E+02  0.2091E+02
    -16.295  0.1700E+02  0.2394E+02
    -16.144  0.1261E+02  0.2607E+02
    -15.992  0.2439E+02  0.2902E+02
    -15.840  0.4353E+02  0.3470E+02
    -15.689  0.1747E+03  0.4135E+02
    -15.537  0.5707E+02  0.4770E+02
    -15.385  0.6873E+01  0.5189E+02
    -15.234  0.1464E+02  0.5576E+02
    -15.082  0.4414E+00  0.5597E+02
    -14.930  0.3368E+02  0.5783E+02
    -14.779  0.0000E+00  0.6000E+02
    -14.627  0.2176E+00  0.6001E+02
    -14.476  0.1316E+02  0.6077E+02
    -14.324  0.3394E+02  0.6465E+02
    -14.172  0.6088E+02  0.7217E+02
    -14.021  0.8271E+02  0.8176E+02
    -13.869  0.3855E+02  0.9048E+02
    -13.717  0.2548E+02  0.9509E+02
    -13.566  0.6522E+01  0.9777E+02
    -13.414  0.0000E+00  0.9800E+02
    -13.262  0.0000E+00  0.9800E+02
    -13.111  0.0000E+00  0.9800E+02
    -12.959  0.0000E+00  0.9800E+02
    -12.808  0.0000E+00  0.9800E+02
    -12.656  0.0000E+00  0.9800E+02
    -12.504  0.0000E+00  0.9800E+02
    -12.353  0.0000E+00  0.9800E+02
    -12.201  0.0000E+00  0.9800E+02
    -12.049  0.0000E+00  0.9800E+02
    -11.898  0.0000E+00  0.9800E+02
    -11.746  0.0000E+00  0.9800E+02
    -11.594  0.0000E+00  0.9800E+02
    -11.443  0.0000E+00  0.9800E+02
    -11.291  0.0000E+00  0.9800E+02
    -11.139  0.0000E+00  0.9800E+02
    -10.988  0.0000E+00  0.9800E+02
    -10.836  0.0000E+00  0.9800E+02
    -10.685  0.0000E+00  0.9800E+02
    -10.533  0.0000E+00  0.9800E+02
    -10.381  0.0000E+00  0.9800E+02
    -10.230  0.0000E+00  0.9800E+02
    -10.078  0.0000E+00  0.9800E+02
     -9.926  0.0000E+00  0.9800E+02
     -9.775  0.0000E+00  0.9800E+02
     -9.623  0.0000E+00  0.9800E+02
     -9.471  0.0000E+00  0.9800E+02
     -9.320  0.0000E+00  0.9800E+02
     -9.168  0.0000E+00  0.9800E+02
     -9.016  0.0000E+00  0.9800E+02
     -8.865  0.0000E+00  0.9800E+02
     -8.713  0.0000E+00  0.9800E+02
     -8.562  0.0000E+00  0.9800E+02
     -8.410  0.0000E+00  0.9800E+02
     -8.258  0.0000E+00  0.9800E+02
     -8.107  0.0000E+00  0.9800E+02
     -7.955  0.0000E+00  0.9800E+02
     -7.803  0.0000E+00  0.9800E+02
     -7.652  0.0000E+00  0.9800E+02
     -7.500  0.0000E+00  0.9800E+02
     -7.348  0.0000E+00  0.9800E+02
     -7.197  0.0000E+00  0.9800E+02
     -7.045  0.0000E+00  0.9800E+02
     -6.894  0.0000E+00  0.9800E+02
     -6.742  0.0000E+00  0.9800E+02
     -6.590  0.0000E+00  0.9800E+02
     -6.439  0.0000E+00  0.9800E+02
     -6.287  0.0000E+00  0.9800E+02
     -6.135  0.0000E+00  0.9800E+02
     -5.984  0.0000E+00  0.9800E+02
     -5.832  0.0000E+00  0.9800E+02
     -5.680  0.0000E+00  0.9800E+02
     -5.529  0.0000E+00  0.9800E+02
     -5.377  0.0000E+00  0.9800E+02
     -5.225  0.0000E+00  0.9800E+02
     -5.074  0.0000E+00  0.9800E+02
     -4.922  0.0000E+00  0.9800E+02
     -4.771  0.0000E+00  0.9800E+02
     -4.619  0.0000E+00  0.9800E+02
     -4.467  0.0000E+00  0.9800E+02
     -4.316  0.0000E+00  0.9800E+02
     -4.164  0.0000E+00  0.9800E+02
     -4.012  0.0000E+00  0.9800E+02
     -3.861  0.9156E+01  0.9896E+02
     -3.709  0.2044E+02  0.1013E+03
     -3.557  0.1846E+02  0.1037E+03
     -3.406  0.2326E+02  0.1078E+03
     -3.254  0.3856E+02  0.1126E+03
     -3.102  0.2809E+02  0.1170E+03
     -2.951  0.3602E+02  0.1213E+03
     -2.799  0.3032E+02  0.1258E+03
     -2.648  0.3834E+02  0.1310E+03
     -2.496  0.4047E+02  0.1370E+03
     -2.344  0.3647E+02  0.1432E+03
     -2.193  0.3449E+02  0.1491E+03
     -2.041  0.3389E+02  0.1546E+03
     -1.889  0.2383E+02  0.1591E+03
     -1.738  0.2039E+02  0.1625E+03
     -1.586  0.1994E+02  0.1656E+03
     -1.434  0.2018E+02  0.1686E+03
     -1.283  0.2070E+02  0.1716E+03
     -1.131  0.2961E+02  0.1745E+03
     -0.980  0.1563E+02  0.1772E+03
     -0.828  0.2039E+02  0.1807E+03
     -0.676  0.3820E+02  0.1852E+03
     -0.525  0.4190E+02  0.1907E+03
     -0.373  0.3177E+02  0.1961E+03
     -0.221  0.3731E+02  0.2026E+03
     -0.070  0.3473E+02  0.2078E+03
      0.082  0.2351E+02  0.2119E+03
      0.234  0.1865E+02  0.2165E+03
      0.385  0.1984E+02  0.2197E+03
      0.537  0.8459E+01  0.2218E+03
      0.689  0.9540E+01  0.2232E+03
      0.840  0.9048E+00  0.2238E+03
      0.992  0.6370E+00  0.2239E+03
      1.143  0.0000E+00  0.2240E+03
      1.295  0.0000E+00  0.2240E+03
      1.447  0.0000E+00  0.2240E+03
      1.598  0.0000E+00  0.2240E+03
      1.750  0.0000E+00  0.2240E+03
      1.902  0.0000E+00  0.2240E+03
      2.053  0.0000E+00  0.2240E+03
      2.205  0.1862E+01  0.2241E+03
      2.357  0.3753E+01  0.2246E+03
      2.508  0.5508E+01  0.2253E+03
      2.660  0.7376E+01  0.2262E+03
      2.812  0.8368E+01  0.2274E+03
      2.963  0.1111E+02  0.2289E+03
      3.115  0.1171E+02  0.2306E+03
      3.266  0.1559E+02  0.2326E+03
      3.418  0.1683E+02  0.2351E+03
      3.570  0.1757E+02  0.2377E+03
      3.721  0.2317E+02  0.2409E+03
      3.873  0.3139E+02  0.2451E+03
      4.025  0.2874E+02  0.2496E+03
      4.176  0.2719E+02  0.2537E+03
      4.328  0.1860E+02  0.2577E+03
      4.480  0.1003E+02  0.2601E+03
      4.631  0.3231E+01  0.2613E+03
      4.783  0.1132E+01  0.2618E+03
      4.934  0.1124E+01  0.2620E+03
      5.086  0.1117E+01  0.2621E+03
      5.238  0.1110E+01  0.2623E+03
      5.389  0.1102E+01  0.2625E+03
      5.541  0.1095E+01  0.2626E+03
      5.693  0.1088E+01  0.2628E+03
      5.844  0.1080E+01  0.2630E+03
      5.996  0.1073E+01  0.2631E+03
      6.148  0.1282E+01  0.2633E+03
      6.299  0.1560E+01  0.2635E+03
      6.451  0.1742E+01  0.2638E+03
      6.603  0.1908E+01  0.2640E+03
      6.754  0.2431E+01  0.2644E+03
      6.906  0.2396E+01  0.2647E+03
      7.057  0.2382E+01  0.2651E+03
      7.209  0.2406E+01  0.2655E+03
      7.361  0.2080E+01  0.2658E+03
      7.512  0.1940E+01  0.2661E+03
      7.664  0.1722E+01  0.2664E+03
      7.816  0.1518E+01  0.2667E+03
      7.967  0.2372E+01  0.2670E+03
      8.119  0.8269E+00  0.2673E+03
      8.271  0.3138E+01  0.2678E+03
      8.422  0.0000E+00  0.2680E+03
      8.574  0.0000E+00  0.2680E+03
      8.726  0.0000E+00  0.2680E+03
      8.877  0.0000E+00  0.2680E+03
      9.029  0.0000E+00  0.2680E+03
      9.180  0.0000E+00  0.2680E+03
      9.332  0.0000E+00  0.2680E+03
      9.484  0.0000E+00  0.2680E+03
      9.635  0.0000E+00  0.2680E+03
      9.787  0.0000E+00  0.2680E+03
      9.939  0.0000E+00  0.2680E+03
     10.090  0.0000E+00  0.2680E+03
     10.242  0.0000E+00  0.2680E+03
     10.394  0.0000E+00  0.2680E+03
