       N       E                     dE             d eps       ncg     rms          rms(c)
DAV:   1     0.283767948440E+04    0.28377E+04   -0.97604E+04  2776   0.154E+03
DAV:   2     0.352331060568E+03   -0.24853E+04   -0.23578E+04  2928   0.410E+02
DAV:   3    -0.295710812586E+03   -0.64804E+03   -0.62385E+03  3474   0.198E+02
DAV:   4    -0.350550993119E+03   -0.54840E+02   -0.54622E+02  3424   0.637E+01
DAV:   5    -0.353495888493E+03   -0.29449E+01   -0.29428E+01  4440   0.143E+01    0.488E+01
RMM:   6    -0.283397317325E+03    0.70099E+02   -0.48968E+02  2923   0.495E+01    0.185E+01
RMM:   7    -0.277377584438E+03    0.60197E+01   -0.21300E+01  3213   0.133E+01    0.951E+00
RMM:   8    -0.276240674149E+03    0.11369E+01   -0.52119E+00  3666   0.599E+00    0.452E+00
RMM:   9    -0.275978030978E+03    0.26264E+00   -0.24950E+00  3604   0.439E+00    0.140E+00
RMM:  10    -0.275904976158E+03    0.73055E-01   -0.34291E-01  4344   0.129E+00    0.970E-01
RMM:  11    -0.275875540313E+03    0.29436E-01   -0.27623E-01  4141   0.101E+00    0.440E-01
RMM:  12    -0.275867261865E+03    0.82784E-02   -0.83128E-02  4314   0.595E-01    0.373E-01
RMM:  13    -0.275860866124E+03    0.63957E-02   -0.31110E-02  4934   0.313E-01    0.241E-01
RMM:  14    -0.275854400867E+03    0.64653E-02   -0.27311E-02  4279   0.316E-01    0.159E-01
RMM:  15    -0.275852248879E+03    0.21520E-02   -0.95181E-03  4721   0.182E-01    0.762E-02
RMM:  16    -0.275852270252E+03   -0.21374E-04   -0.52950E-03  4646   0.117E-01    0.703E-02
RMM:  17    -0.275852596740E+03   -0.32649E-03   -0.31564E-03  4370   0.965E-02    0.458E-02
RMM:  18    -0.275852997238E+03   -0.40050E-03   -0.11588E-03  4393   0.577E-02    0.194E-02
RMM:  19    -0.275854350033E+03   -0.13528E-02   -0.59702E-04  4108   0.358E-02    0.148E-02
RMM:  20    -0.275855079253E+03   -0.72922E-03   -0.33394E-04  3850   0.289E-02    0.163E-02
RMM:  21    -0.275855427003E+03   -0.34775E-03   -0.16125E-04  3607   0.233E-02    0.689E-03
RMM:  22    -0.275855603827E+03   -0.17682E-03   -0.70038E-05  2963   0.150E-02    0.405E-03
RMM:  23    -0.275855658184E+03   -0.54357E-04   -0.29918E-05  2314   0.106E-02    0.198E-03
RMM:  24    -0.275855672823E+03   -0.14639E-04   -0.16163E-05  2115   0.879E-03    0.197E-03
RMM:  25    -0.275855677190E+03   -0.43673E-05   -0.91656E-06  1995   0.791E-03
   1 F= -.27585568E+03 E0= -.27585568E+03  d E =0.000000E+00
