 vasp.5.4.4.18Apr17-6-g9f103f2a35 (build Jun 30 2017 11:15:00) complex          
  
 executed on    STALLO_VASP_5.4.4 date 2019.11.04  15:07:11
 running on    4 total cores
 distrk:  each k-point on    4 cores,    1 groups
 distr:  one band on NCORES_PER_BAND=   2 cores,    2 groups


--------------------------------------------------------------------------------------------------------


 INCAR:
 POTCAR:   PAW_PBE O 08Apr2002                    
 POTCAR:   PAW_PBE Sr_sv 07Sep2000                
 POTCAR:   PAW_PBE Ti 08Apr2002                   
 POTCAR:   PAW_PBE O 08Apr2002                    
   VRHFIN =O: s2p4                                                              
   LEXCH  = PE                                                                  
   EATOM  =   432.3788 eV,   31.7789 Ry                                         
                                                                                
   TITEL  = PAW_PBE O 08Apr2002                                                 
   LULTRA =        F    use ultrasoft PP ?                                      
   IUNSCR =        0    unscreen: 0-lin 1-nonlin 2-no                           
   RPACOR =     .000    partial core radius                                     
   POMASS =   16.000; ZVAL   =    6.000    mass and valenz                      
   RCORE  =    1.520    outmost cutoff radius                                   
   RWIGS  =    1.550; RWIGS  =     .820    wigner-seitz radius (au A)           
   ENMAX  =  400.000; ENMIN  =  300.000 eV                                      
   ICORE  =        2    local potential                                         
   LCOR   =        T    correct aug charges                                     
   LPAW   =        T    paw PP                                                  
   EAUG   =  605.392                                                            
   DEXC   =     .000                                                            
   RMAX   =    2.264    core radius for proj-oper                               
   RAUG   =    1.300    factor for augmentation sphere                          
   RDEP   =    1.550    radius for radial grids                                 
   QCUT   =   -5.520; QGAM   =   11.041    optimization parameters              
                                                                                
   Description                                                                  
     l     E      TYP  RCUT    TYP  RCUT                                        
     0   .000     23  1.200                                                     
     0  -.700     23  1.200                                                     
     1   .000     23  1.520                                                     
     1   .600     23  1.520                                                     
     2   .000      7  1.500                                                     
  local pseudopotential read in
  atomic valenz-charges read in
  non local Contribution for L=           0  read in
    real space projection operators read in
  non local Contribution for L=           0  read in
    real space projection operators read in
  non local Contribution for L=           1  read in
    real space projection operators read in
  non local Contribution for L=           1  read in
    real space projection operators read in
    PAW grid and wavefunctions read in
 
   number of l-projection  operators is LMAX  =           4
   number of lm-projection operators is LMMAX =           8
 
 POTCAR:   PAW_PBE Sr_sv 07Sep2000                
   VRHFIN =Sr: 4s4p5s                                                           
   LEXCH  = PE                                                                  
   EATOM  =   842.4562 eV,   61.9188 Ry                                         
                                                                                
   TITEL  = PAW_PBE Sr_sv 07Sep2000                                             
   LULTRA =        F    use ultrasoft PP ?                                      
   IUNSCR =        1    unscreen: 0-lin 1-nonlin 2-no                           
   RPACOR =    2.200    partial core radius                                     
   POMASS =   87.620; ZVAL   =   10.000    mass and valenz                      
   RCORE  =    2.500    outmost cutoff radius                                   
   RWIGS  =    4.040; RWIGS  =    2.138    wigner-seitz radius (au A)           
   ENMAX  =  229.282; ENMIN  =  171.961 eV                                      
   RCLOC  =    2.201    cutoff for local pot                                    
   LCOR   =        T    correct aug charges                                     
   LPAW   =        T    paw PP                                                  
   EAUG   =  366.804                                                            
   DEXC   =     .000                                                            
   RMAX   =    3.045    core radius for proj-oper                               
   RAUG   =    1.300    factor for augmentation sphere                          
   RDEP   =    2.562    radius for radial grids                                 
   QCUT   =   -4.105; QGAM   =    8.210    optimization parameters              
                                                                                
   Description                                                                  
     l     E      TYP  RCUT    TYP  RCUT                                        
     0   .000     23  2.480                                                     
     0   .000     23  2.480                                                     
     1   .000     23  2.500                                                     
     1   .000     23  2.500                                                     
     2   .000     23  2.500                                                     
     2   .000     23  2.500                                                     
  local pseudopotential read in
  partial core-charges read in
  atomic valenz-charges read in
  non local Contribution for L=           0  read in
    real space projection operators read in
  non local Contribution for L=           0  read in
    real space projection operators read in
  non local Contribution for L=           1  read in
    real space projection operators read in
  non local Contribution for L=           1  read in
    real space projection operators read in
  non local Contribution for L=           2  read in
    real space projection operators read in
  non local Contribution for L=           2  read in
    real space projection operators read in
    PAW grid and wavefunctions read in
 
   number of l-projection  operators is LMAX  =           6
   number of lm-projection operators is LMMAX =          18
 
 POTCAR:   PAW_PBE Ti 08Apr2002                   
   VRHFIN =Ti: d3 s1                                                            
   LEXCH  = PE                                                                  
   EATOM  =    94.7929 eV,    6.9671 Ry                                         
                                                                                
   TITEL  = PAW_PBE Ti 08Apr2002                                                
   LULTRA =        F    use ultrasoft PP ?                                      
   IUNSCR =        1    unscreen: 0-lin 1-nonlin 2-no                           
   RPACOR =    2.200    partial core radius                                     
   POMASS =   47.880; ZVAL   =    4.000    mass and valenz                      
   RCORE  =    2.800    outmost cutoff radius                                   
   RWIGS  =    2.500; RWIGS  =    1.323    wigner-seitz radius (au A)           
   ENMAX  =  178.330; ENMIN  =  133.747 eV                                      
   RCLOC  =    2.215    cutoff for local pot                                    
   LCOR   =        T    correct aug charges                                     
   LPAW   =        T    paw PP                                                  
   EAUG   =  328.883                                                            
   DEXC   =    -.043                                                            
   RMAX   =    3.453    core radius for proj-oper                               
   RAUG   =    1.300    factor for augmentation sphere                          
   RDEP   =    2.885    radius for radial grids                                 
   QCUT   =   -3.620; QGAM   =    7.241    optimization parameters              
                                                                                
   Description                                                                  
     l     E      TYP  RCUT    TYP  RCUT                                        
     2   .000     23  2.800                                                     
     2   .000     23  2.800                                                     
     0   .000     23  2.800                                                     
     0  1.500     23  2.800                                                     
     1  -.400     23  2.800                                                     
     3   .000      7   .000                                                     
  local pseudopotential read in
  partial core-charges read in
  atomic valenz-charges read in
  non local Contribution for L=           2  read in
    real space projection operators read in
  non local Contribution for L=           2  read in
    real space projection operators read in
  non local Contribution for L=           0  read in
    real space projection operators read in
  non local Contribution for L=           0  read in
    real space projection operators read in
  non local Contribution for L=           1  read in
    real space projection operators read in
    PAW grid and wavefunctions read in
 
   number of l-projection  operators is LMAX  =           5
   number of lm-projection operators is LMMAX =          15
 

 ----------------------------------------------------------------------------- 
|                                                                             |
|  ADVICE TO THIS USER RUNNING 'VASP/VAMP'   (HEAR YOUR MASTER'S VOICE ...):  |
|                                                                             |
|      You have a (more or less) 'large supercell' and for larger cells       |
|      it might be more efficient to use real space projection operators      |
|      So try LREAL= Auto  in the INCAR   file.                               |
|      Mind: If you want to do a very accurate calculations keep the          |
|      reciprocal projection scheme          (i.e. LREAL=.FALSE.)             |
|                                                                             |
 ----------------------------------------------------------------------------- 

 PAW_PBE O 08Apr2002                    :
 energy of atom  1       EATOM= -432.3788
 kinetic energy error for atom=    0.0224 (will be added to EATOM!!)
 PAW_PBE Sr_sv 07Sep2000                :
 energy of atom  2       EATOM= -842.4562
 kinetic energy error for atom=    0.0012 (will be added to EATOM!!)
 PAW_PBE Ti 08Apr2002                   :
 energy of atom  3       EATOM=  -94.7929
 kinetic energy error for atom=    0.0002 (will be added to EATOM!!)
 
 
 POSCAR:  O Sr Ti                                
  positions in direct lattice
  No initial velocities read in
 exchange correlation table for  LEXCH =        8
   RHO(1)=    0.500       N(1)  =     2000
   RHO(2)=  100.500       N(2)  =     4000
 


--------------------------------------------------------------------------------------------------------


 ion  position               nearest neighbor table
   1  0.500  0.500  0.159-  29 1.97  22 2.79  22 2.79  22 2.79  22 2.79
   2  0.500  0.000  0.212-  29 1.97  29 1.97  22 2.79  23 2.79  22 2.79  23 2.79
   3  0.000  0.500  0.212-  29 1.97  29 1.97  22 2.79  22 2.79  23 2.79  23 2.79
   4  0.500  0.500  0.264-  29 1.97  30 1.97  23 2.79  23 2.79  23 2.79  23 2.79
   5  0.500  0.000  0.317-  30 1.97  30 1.97  23 2.79  24 2.79  23 2.79  24 2.79
   6  0.000  0.500  0.317-  30 1.97  30 1.97  23 2.79  23 2.79  24 2.79  24 2.79
   7  0.500  0.500  0.369-  30 1.97  31 1.97  24 2.79  24 2.79  24 2.79  24 2.79
   8  0.500  0.000  0.421-  31 1.97  31 1.97  24 2.79  25 2.79  24 2.79  25 2.79
   9  0.000  0.500  0.421-  31 1.97  31 1.97  24 2.79  24 2.79  25 2.79  25 2.79
  10  0.500  0.500  0.474-  32 1.97  31 1.97  25 2.79  25 2.79  25 2.79  25 2.79
  11  0.500  0.000  0.526-  32 1.97  32 1.97  25 2.79  25 2.79  26 2.79  26 2.79
  12  0.000  0.500  0.526-  32 1.97  32 1.97  25 2.79  25 2.79  26 2.79  26 2.79
  13  0.500  0.500  0.579-  32 1.97  33 1.97  26 2.79  26 2.79  26 2.79  26 2.79
  14  0.500  0.000  0.631-  33 1.97  33 1.97  26 2.79  27 2.79  26 2.79  27 2.79
  15  0.000  0.500  0.631-  33 1.97  33 1.97  26 2.79  26 2.79  27 2.79  27 2.79
  16  0.500  0.500  0.683-  33 1.97  34 1.97  27 2.79  27 2.79  27 2.79  27 2.79
  17  0.500  0.000  0.736-  34 1.97  34 1.97  27 2.79  28 2.79  27 2.79  28 2.79
  18  0.000  0.500  0.736-  34 1.97  34 1.97  27 2.79  27 2.79  28 2.79  28 2.79
  19  0.500  0.500  0.788-  34 1.97  35 1.97  28 2.79  28 2.79  28 2.79  28 2.79
  20  0.500  0.000  0.841-  35 1.97  35 1.97  28 2.79  28 2.79
  21  0.000  0.500  0.841-  35 1.97  35 1.97  28 2.79  28 2.79
  22  0.000  0.000  0.159-   1 2.79   1 2.79   1 2.79   1 2.79   3 2.79   3 2.79   2 2.79   2 2.79
                            29 3.42  29 3.42  29 3.42  29 3.42  23 3.95
  23  0.000  0.000  0.264-   4 2.79   4 2.79   4 2.79   4 2.79   6 2.79   3 2.79   3 2.79   6 2.79
                             2 2.79   2 2.79   5 2.79   5 2.79  30 3.42  29 3.42  29 3.42  29 3.42
  24  0.000  0.000  0.369-   7 2.79   7 2.79   7 2.79   7 2.79   9 2.79   6 2.79   6 2.79   9 2.79
                             5 2.79   5 2.79   8 2.79   8 2.79  31 3.42  30 3.42  30 3.42  30 3.42
  25  0.000  0.000  0.474-  11 2.79  12 2.79  12 2.79  11 2.79  10 2.79  10 2.79  10 2.79  10 2.79
                             8 2.79   9 2.79   9 2.79   8 2.79  32 3.42  32 3.42  32 3.42  32 3.42
  26  0.000  0.000  0.579-  13 2.79  13 2.79  13 2.79  13 2.79  15 2.79  12 2.79  12 2.79  15 2.79
                            11 2.79  11 2.79  14 2.79  14 2.79  33 3.42  32 3.42  32 3.42  32 3.42
  27  0.000  0.000  0.683-  16 2.79  16 2.79  16 2.79  16 2.79  18 2.79  15 2.79  15 2.79  18 2.79
                            14 2.79  14 2.79  17 2.79  17 2.79  34 3.42  33 3.42  33 3.42  33 3.42
  28  0.000  0.000  0.788-  19 2.79  19 2.79  19 2.79  19 2.79  21 2.79  18 2.79  18 2.79  21 2.79
                            17 2.79  17 2.79  20 2.79  20 2.79  35 3.42  34 3.42  34 3.42  34 3.42
  29  0.500  0.500  0.212-   2 1.97   3 1.97   2 1.97   3 1.97   1 1.97   4 1.97  22 3.42  22 3.42
                            23 3.42  23 3.42  22 3.42  23 3.42  22 3.42  23 3.42
  30  0.500  0.500  0.317-   5 1.97   6 1.97   5 1.97   6 1.97   4 1.97   7 1.97  23 3.42  23 3.42
                            24 3.42  24 3.42  23 3.42  24 3.42  23 3.42  24 3.42
  31  0.500  0.500  0.421-   8 1.97   9 1.97   8 1.97   9 1.97   7 1.97  10 1.97  24 3.42  24 3.42
                            25 3.42  25 3.42  24 3.42  25 3.42  24 3.42  25 3.42
  32  0.500  0.500  0.526-  10 1.97  11 1.97  12 1.97  11 1.97  12 1.97  13 1.97  25 3.42  25 3.42
                            25 3.42  25 3.42  26 3.42  26 3.42  26 3.42  26 3.42
  33  0.500  0.500  0.631-  14 1.97  15 1.97  14 1.97  15 1.97  13 1.97  16 1.97  26 3.42  26 3.42
                            27 3.42  27 3.42  26 3.42  27 3.42  26 3.42  27 3.42
  34  0.500  0.500  0.736-  17 1.97  18 1.97  17 1.97  18 1.97  16 1.97  19 1.97  27 3.42  27 3.42
                            28 3.42  28 3.42  27 3.42  28 3.42  27 3.42  28 3.42
  35  0.500  0.500  0.841-  20 1.97  21 1.97  20 1.97  21 1.97  19 1.97  28 3.42  28 3.42  28 3.42
                            28 3.42
 
  LATTYP: Found a simple tetragonal cell.
 ALAT       =     3.9468463416
 C/A-ratio  =     9.5404021240
  
  Lattice vectors:
  
 A1 = (   3.9468463416,   0.0000000000,   0.0000000000)
 A2 = (   0.0000000000,   3.9468463416,   0.0000000000)
 A3 = (   0.0000000000,   0.0000000000,  37.6545012205)


Analysis of symmetry for initial positions (statically):
=====================================================================
 Subroutine PRICEL returns:
 Original cell was already a primitive cell.
 

 Routine SETGRP: Setting up the symmetry group for a 
 simple tetragonal supercell.


 Subroutine GETGRP returns: Found  8 space group operations
 (whereof  8 operations were pure point group operations)
 out of a pool of 16 trial point group operations.


The static configuration has the point symmetry C_4v.


Analysis of symmetry for dynamics (positions and initial velocities):
=====================================================================
 Subroutine PRICEL returns:
 Original cell was already a primitive cell.
 

 Routine SETGRP: Setting up the symmetry group for a 
 simple tetragonal supercell.


 Subroutine GETGRP returns: Found  8 space group operations
 (whereof  8 operations were pure point group operations)
 out of a pool of 16 trial point group operations.


The dynamic configuration has the point symmetry C_4v.


 Subroutine INISYM returns: Found  8 space group operations
 (whereof  8 operations are pure point group operations),
 and found     1 'primitive' translations

 
 
 KPOINTS: k-density: 4.0                          

Automatic generation of k-mesh.
Space group operators:
 irot       det(A)        alpha          n_x          n_y          n_z        tau_x        tau_y        tau_z
    1     1.000000     0.000000     1.000000     0.000000     0.000000     0.000000     0.000000     0.000000
    2     1.000000    90.000000     0.000000     0.000000    -1.000000     0.000000     0.000000     0.000000
    3     1.000000   179.999999     0.000000     0.000000     1.000000     0.000000     0.000000     0.000000
    4     1.000000    90.000000     0.000000     0.000000     1.000000     0.000000     0.000000     0.000000
    5    -1.000000   180.000000     0.000000     1.000000     0.000000     0.000000     0.000000     0.000000
    6    -1.000000   180.000000     0.707107     0.707107     0.000000     0.000000     0.000000     0.000000
    7    -1.000000   180.000000     1.000000     0.000000     0.000000     0.000000     0.000000     0.000000
    8    -1.000000   180.000000     0.707107    -0.707107     0.000000     0.000000     0.000000     0.000000
 
 Subroutine IBZKPT returns following result:
 ===========================================
 
 Found     10 irreducible k-points:
 
 Following reciprocal coordinates:
            Coordinates               Weight
  0.000000  0.000000  0.000000      1.000000
  0.142857  0.000000  0.000000      4.000000
  0.285714  0.000000  0.000000      4.000000
  0.428571  0.000000  0.000000      4.000000
  0.142857  0.142857  0.000000      4.000000
  0.285714  0.142857  0.000000      8.000000
  0.428571  0.142857  0.000000      8.000000
  0.285714  0.285714  0.000000      4.000000
  0.428571  0.285714  0.000000      8.000000
  0.428571  0.428571  0.000000      4.000000
 
 Following cartesian coordinates:
            Coordinates               Weight
  0.000000  0.000000  0.000000      1.000000
  0.036195  0.000000  0.000000      4.000000
  0.072391  0.000000  0.000000      4.000000
  0.108586  0.000000  0.000000      4.000000
  0.036195  0.036195  0.000000      4.000000
  0.072391  0.036195  0.000000      8.000000
  0.108586  0.036195  0.000000      8.000000
  0.072391  0.072391  0.000000      4.000000
  0.108586  0.072391  0.000000      8.000000
  0.108586  0.108586  0.000000      4.000000
 
 TETIRR: Found     65 inequivalent tetrahedra from      294


--------------------------------------------------------------------------------------------------------




 Dimension of arrays:
   k-points           NKPTS =     10   k-points in BZ     NKDIM =     10   number of bands    NBANDS=    134
   number of dos      NEDOS =    301   number of ions     NIONS =     35
   non local maximal  LDIM  =      6   non local SUM 2l+1 LMDIM =     18
   total plane-waves  NPLWV = 120960
   max r-space proj   IRMAX =      1   max aug-charges    IRDMAX=  14440
   dimension x,y,z NGX =    24 NGY =   24 NGZ =  210
   dimension x,y,z NGXF=    48 NGYF=   48 NGZF=  420
   support grid    NGXF=    48 NGYF=   48 NGZF=  420
   ions per type =              21   7   7
   NGX,Y,Z   is equivalent  to a cutoff of  10.11, 10.11,  9.27 a.u.
   NGXF,Y,Z  is equivalent  to a cutoff of  20.22, 20.22, 18.54 a.u.

 SYSTEM =  unknown system                          
 POSCAR =   O Sr Ti                                

 Startparameter for this run:
   NWRITE =      2    write-flag & timer
   PREC   = normal    normal or accurate (medium, high low for compatibility)
   ISTART =      0    job   : 0-new  1-cont  2-samecut
   ICHARG =      2    charge: 1-file 2-atom 10-const
   ISPIN  =      1    spin polarized calculation?
   LNONCOLLINEAR =      F non collinear calculations
   LSORBIT =      F    spin-orbit coupling
   INIWAV =      1    electr: 0-lowe 1-rand  2-diag
   LASPH  =      F    aspherical Exc in radial PAW
   METAGGA=      F    non-selfconsistent MetaGGA calc.

 Electronic Relaxation 1
   ENCUT  =  500.0 eV  36.75 Ry    6.06 a.u.   7.20  7.20 68.65*2*pi/ulx,y,z
   ENINI  =  500.0     initial cutoff
   ENAUG  =  605.4 eV  augmentation charge cutoff
   NELM   =     60;   NELMIN=  4; NELMDL= -5     # of ELM steps 
   EDIFF  = 0.1E-04   stopping-criterion for ELM
   LREAL  =      F    real-space projection
   NLSPLINE    = F    spline interpolate recip. space projectors
   LCOMPAT=      F    compatible to vasp.4.4
   GGA_COMPAT  = T    GGA compatible to vasp.4.4-vasp.4.6
   LMAXPAW     = -100 max onsite density
   LMAXMIX     =    2 max onsite mixed and CHGCAR
   VOSKOWN=      0    Vosko Wilk Nusair interpolation
   ROPT   =    0.00000   0.00000   0.00000
 Ionic relaxation
   EDIFFG = 0.1E-03   stopping-criterion for IOM
   NSW    =      0    number of steps for IOM
   NBLOCK =      1;   KBLOCK =      1    inner block; outer block 
   IBRION =     -1    ionic relax: 0-MD 1-quasi-New 2-CG
   NFREE  =      0    steps in history (QN), initial steepest desc. (CG)
   ISIF   =      2    stress and relaxation
   IWAVPR =     10    prediction:  0-non 1-charg 2-wave 3-comb
   ISYM   =      2    0-nonsym 1-usesym 2-fastsym
   LCORR  =      T    Harris-Foulkes like correction to forces

   POTIM  = 0.5000    time-step for ionic-motion
   TEIN   =    0.0    initial temperature
   TEBEG  =    0.0;   TEEND  =   0.0 temperature during run
   SMASS  =  -3.00    Nose mass-parameter (am)
   estimated Nose-frequenzy (Omega)   =  0.10E-29 period in steps =****** mass=  -0.356E-27a.u.
   SCALEE = 1.0000    scale energy and forces
   NPACO  =    256;   APACO  = 16.0  distance and # of slots for P.C.
   PSTRESS=    0.0 pullay stress

  Mass of Ions in am
   POMASS =  16.00 87.62 47.88
  Ionic Valenz
   ZVAL   =   6.00 10.00  4.00
  Atomic Wigner-Seitz radii
   RWIGS  =  -1.00 -1.00 -1.00
  virtual crystal weights 
   VCA    =   1.00  1.00  1.00
   NELECT =     224.0000    total number of electrons
   NUPDOWN=      -1.0000    fix difference up-down

 DOS related values:
   EMIN   =  10.00;   EMAX   =-10.00  energy-range for DOS
   EFERMI =   0.00
   ISMEAR =    -5;   SIGMA  =   0.20  broadening in eV -4-tet -1-fermi 0-gaus

 Electronic relaxation 2 (details)
   IALGO  =     68    algorithm
   LDIAG  =      T    sub-space diagonalisation (order eigenvalues)
   LSUBROT=      F    optimize rotation matrix (better conditioning)
   TURBO    =      0    0=normal 1=particle mesh
   IRESTART =      0    0=no restart 2=restart with 2 vectors
   NREBOOT  =      0    no. of reboots
   NMIN     =      0    reboot dimension
   EREF     =   0.00    reference energy to select bands
   IMIX   =      4    mixing-type and parameters
     AMIX     =   0.40;   BMIX     =  1.00
     AMIX_MAG =   1.60;   BMIX_MAG =  1.00
     AMIN     =   0.10
     WC   =   100.;   INIMIX=   1;  MIXPRE=   1;  MAXMIX= -45

 Intra band minimization:
   WEIMIN = 0.0000     energy-eigenvalue tresh-hold
   EBREAK =  0.19E-07  absolut break condition
   DEPER  =   0.30     relativ break condition  

   TIME   =   0.40     timestep for ELM

  volume/ion in A,a.u.               =      16.76       113.10
  Fermi-wavevector in a.u.,A,eV,Ry     =   1.187732  2.244488 19.193832  1.410707
  Thomas-Fermi vector in A             =   2.323877
 
 Write flags
   LWAVE        =      F    write WAVECAR
   LDOWNSAMPLE  =      F    k-point downsampling of WAVECAR
   LCHARG       =      T    write CHGCAR
   LVTOT        =      F    write LOCPOT, total local potential
   LVHAR        =      F    write LOCPOT, Hartree potential only
   LELF         =      F    write electronic localiz. function (ELF)
   LORBIT       =      0    0 simple, 1 ext, 2 COOP (PROOUT), +10 PAW based schemes


 Dipole corrections
   LMONO  =      F    monopole corrections only (constant potential shift)
   LDIPOL =      F    correct potential (dipole corrections)
   IDIPOL =      0    1-x, 2-y, 3-z, 4-all directions 
   EPSILON=  1.0000000 bulk dielectric constant

 Exchange correlation treatment:
   GGA     =    --    GGA type
   LEXCH   =     8    internal setting for exchange type
   VOSKOWN=      0    Vosko Wilk Nusair interpolation
   LHFCALC =     F    Hartree Fock is set to
   LHFONE  =     F    Hartree Fock one center treatment
   AEXX    =    0.0000 exact exchange contribution

 Linear response parameters
   LEPSILON=     F    determine dielectric tensor
   LRPA    =     F    only Hartree local field effects (RPA)
   LNABLA  =     F    use nabla operator in PAW spheres
   LVEL    =     F    velocity operator in full k-point grid
   LINTERFAST=   F  fast interpolation
   KINTER  =     0    interpolate to denser k-point grid
   CSHIFT  =0.1000    complex shift for real part using Kramers Kronig
   OMEGAMAX=  -1.0    maximum frequency
   DEG_THRESHOLD= 0.2000000E-02 threshold for treating states as degnerate
   RTIME   =   -0.100 relaxation time in fs
  (WPLASMAI=    0.000 imaginary part of plasma frequency in eV, 0.658/RTIME)
   DFIELD  = 0.0000000 0.0000000 0.0000000 field for delta impulse in time
 
 Orbital magnetization related:
   ORBITALMAG=     F  switch on orbital magnetization
   LCHIMAG   =     F  perturbation theory with respect to B field
   DQ        =  0.001000  dq finite difference perturbation B field
   LLRAUG    =     F  two centre corrections for induced B field



--------------------------------------------------------------------------------------------------------


 Static calculation
 charge density and potential will be updated during run
 non-spin polarized calculation
 RMM-DIIS sequential band-by-band and
  variant of blocked Davidson during initial phase
 perform sub-space diagonalisation
    before iterative eigenvector-optimisation
 modified Broyden-mixing scheme, WC =      100.0
 initial mixing is a Kerker type mixing with AMIX =  0.4000 and BMIX =      1.0000
 Hartree-type preconditioning will be used
 using additional bands           22
 reciprocal scheme for non local part
 use partial core corrections
 calculate Harris-corrections to forces 
   (improved forces if not selfconsistent)
 use gradient corrections 
 use of overlap-Matrix (Vanderbilt PP)
 Fermi weights with tetrahedron method with Bloechl corrections


--------------------------------------------------------------------------------------------------------


  energy-cutoff  :      500.00
  volume of cell :      586.57
      direct lattice vectors                 reciprocal lattice vectors
     3.946846342  0.000000000  0.000000000     0.253366844  0.000000000  0.000000000
     0.000000000  3.946846342  0.000000000     0.000000000  0.253366844  0.000000000
     0.000000000  0.000000000 37.654501221     0.000000000  0.000000000  0.026557250

  length of vectors
     3.946846342  3.946846342 37.654501221     0.253366844  0.253366844  0.026557250


 
 k-points in units of 2pi/SCALE and weight: k-density: 4.0                          
   0.00000000  0.00000000  0.00000000       0.020
   0.03619526  0.00000000  0.00000000       0.082
   0.07239053  0.00000000  0.00000000       0.082
   0.10858579  0.00000000  0.00000000       0.082
   0.03619526  0.03619526  0.00000000       0.082
   0.07239053  0.03619526  0.00000000       0.163
   0.10858579  0.03619526  0.00000000       0.163
   0.07239053  0.07239053  0.00000000       0.082
   0.10858579  0.07239053  0.00000000       0.163
   0.10858579  0.10858579  0.00000000       0.082
 
 k-points in reciprocal lattice and weights: k-density: 4.0                          
   0.00000000  0.00000000  0.00000000       0.020
   0.14285714  0.00000000  0.00000000       0.082
   0.28571429  0.00000000  0.00000000       0.082
   0.42857143  0.00000000  0.00000000       0.082
   0.14285714  0.14285714  0.00000000       0.082
   0.28571429  0.14285714  0.00000000       0.163
   0.42857143  0.14285714  0.00000000       0.163
   0.28571429  0.28571429  0.00000000       0.082
   0.42857143  0.28571429  0.00000000       0.163
   0.42857143  0.42857143  0.00000000       0.082
 
 position of ions in fractional coordinates (direct lattice) 
   0.50000000  0.50000000  0.15934350
   0.50000000  0.00000000  0.21175219
   0.00000000  0.50000000  0.21175219
   0.50000000  0.50000000  0.26416088
   0.50000000  0.00000000  0.31656958
   0.00000000  0.50000000  0.31656958
   0.50000000  0.50000000  0.36897827
   0.50000000  0.00000000  0.42138696
   0.00000000  0.50000000  0.42138696
   0.50000000  0.50000000  0.47379565
   0.50000000  0.00000000  0.52620435
   0.00000000  0.50000000  0.52620435
   0.50000000  0.50000000  0.57861304
   0.50000000  0.00000000  0.63102173
   0.00000000  0.50000000  0.63102173
   0.50000000  0.50000000  0.68343042
   0.50000000  0.00000000  0.73583912
   0.00000000  0.50000000  0.73583912
   0.50000000  0.50000000  0.78824781
   0.50000000  0.00000000  0.84065650
   0.00000000  0.50000000  0.84065650
   0.00000000  0.00000000  0.15934350
   0.00000000  0.00000000  0.26416088
   0.00000000  0.00000000  0.36897827
   0.00000000  0.00000000  0.47379565
   0.00000000  0.00000000  0.57861304
   0.00000000  0.00000000  0.68343042
   0.00000000  0.00000000  0.78824781
   0.50000000  0.50000000  0.21175219
   0.50000000  0.50000000  0.31656958
   0.50000000  0.50000000  0.42138696
   0.50000000  0.50000000  0.52620435
   0.50000000  0.50000000  0.63102173
   0.50000000  0.50000000  0.73583912
   0.50000000  0.50000000  0.84065650
 
 position of ions in cartesian coordinates  (Angst):
   1.97342317  1.97342317  6.00000000
   1.97342317  0.00000000  7.97342317
   0.00000000  1.97342317  7.97342317
   1.97342317  1.97342317  9.94684634
   1.97342317  0.00000000 11.92026951
   0.00000000  1.97342317 11.92026951
   1.97342317  1.97342317 13.89369268
   1.97342317  0.00000000 15.86711585
   0.00000000  1.97342317 15.86711585
   1.97342317  1.97342317 17.84053902
   1.97342317  0.00000000 19.81396220
   0.00000000  1.97342317 19.81396220
   1.97342317  1.97342317 21.78738537
   1.97342317  0.00000000 23.76080854
   0.00000000  1.97342317 23.76080854
   1.97342317  1.97342317 25.73423171
   1.97342317  0.00000000 27.70765488
   0.00000000  1.97342317 27.70765488
   1.97342317  1.97342317 29.68107805
   1.97342317  0.00000000 31.65450122
   0.00000000  1.97342317 31.65450122
   0.00000000  0.00000000  6.00000000
   0.00000000  0.00000000  9.94684634
   0.00000000  0.00000000 13.89369268
   0.00000000  0.00000000 17.84053902
   0.00000000  0.00000000 21.78738537
   0.00000000  0.00000000 25.73423171
   0.00000000  0.00000000 29.68107805
   1.97342317  1.97342317  7.97342317
   1.97342317  1.97342317 11.92026951
   1.97342317  1.97342317 15.86711585
   1.97342317  1.97342317 19.81396220
   1.97342317  1.97342317 23.76080854
   1.97342317  1.97342317 27.70765488
   1.97342317  1.97342317 31.65450122
 


--------------------------------------------------------------------------------------------------------


 k-point  1 :   0.0000 0.0000 0.0000  plane waves:   14801
 k-point  2 :   0.1429 0.0000 0.0000  plane waves:   14883
 k-point  3 :   0.2857 0.0000 0.0000  plane waves:   14890
 k-point  4 :   0.4286 0.0000 0.0000  plane waves:   14920
 k-point  5 :   0.1429 0.1429 0.0000  plane waves:   14862
 k-point  6 :   0.2857 0.1429 0.0000  plane waves:   14885
 k-point  7 :   0.4286 0.1429 0.0000  plane waves:   14915
 k-point  8 :   0.2857 0.2857 0.0000  plane waves:   14906
 k-point  9 :   0.4286 0.2857 0.0000  plane waves:   14878
 k-point 10 :   0.4286 0.4286 0.0000  plane waves:   14906

 maximum and minimum number of plane-waves per node :      7479     7396

 maximum number of plane-waves:     14920
 maximum index in each direction: 
   IXMAX=    7   IYMAX=    7   IZMAX=   68
   IXMIN=   -7   IYMIN=   -7   IZMIN=  -68


 parallel 3D FFT for wavefunctions:
    minimum data exchange during FFTs selected (reduces bandwidth)
 parallel 3D FFT for charge:
    minimum data exchange during FFTs selected (reduces bandwidth)


 total amount of memory used by VASP MPI-rank0   177082. kBytes
=======================================================================

   base      :      30000. kBytes
   nonl-proj :      36502. kBytes
   fftplans  :       9989. kBytes
   grid      :      17961. kBytes
   one-center:        279. kBytes
   wavefun   :      82351. kBytes
 
     INWAV:  cpu time    0.0000: real time    0.0000
 Broyden mixing: mesh for mixing (old mesh)
   NGX = 15   NGY = 15   NGZ =137
  (NGX  = 48   NGY  = 48   NGZ  =420)
  gives a total of  30825 points

 initial charge density was supplied:
 charge density of overlapping atoms calculated
 number of electron     224.0000000 magnetization 
 keeping initial charge density in first step


--------------------------------------------------------------------------------------------------------


 Maximum index for augmentation-charges         3430 (set IRDMAX)


--------------------------------------------------------------------------------------------------------


 First call to EWALD:  gamma=   0.212
 Maximum number of real-space cells 5x 5x 1
 Maximum number of reciprocal cells 2x 2x11

    FEWALD:  cpu time    0.0020: real time    0.0026


--------------------------------------- Iteration      1(   1)  ---------------------------------------


    POTLOK:  cpu time    0.1540: real time    0.2454
    SETDIJ:  cpu time    0.0200: real time    0.0217
     EDDAV:  cpu time   18.2272: real time   18.2300
 BZINTS: Fermi energy: 17.447941;224.000000 electrons
         Band energy: 597.605068;  BLOECHL correction: -0.038089
       DOS:  cpu time    0.0120: real time    0.0119
    --------------------------------------------
      LOOP:  cpu time   18.4132: real time   18.5090

 eigenvalue-minimisations  :  2776
 total energy-change (2. order) : 0.2837679E+04  (-0.9760441E+04)
 number of electron     224.0000000 magnetization 
 augmentation part      224.0000000 magnetization 

 Free energy of the ion-electron system (eV)
  ---------------------------------------------------
  alpha Z        PSCENC =       922.44539610
  Ewald energy   TEWEN  =     52375.90857009
  -Hartree energ DENC   =    -67611.84510757
  -exchange      EXHF   =         0.00000000
  -V(xc)+E(xc)   XCENC  =       571.54653676
  PAW double counting   =      9335.29080768    -8993.49122446
  entropy T*S    EENTRO =         0.00000000
  eigenvalues    EBANDS =       597.60506800
  atomic energy  EATOM  =     15640.21943780
  Solvation  Ediel_sol  =         0.00000000
  ---------------------------------------------------
  free energy    TOTEN  =      2837.67948440 eV

  energy without entropy =     2837.67948440  energy(sigma->0) =     2837.67948440


--------------------------------------------------------------------------------------------------------




--------------------------------------- Iteration      1(   2)  ---------------------------------------


     EDDAV:  cpu time   18.7831: real time   18.7845
 BZINTS: Fermi energy:  6.636241;224.000000 electrons
         Band energy:***********;  BLOECHL correction: -0.140916
       DOS:  cpu time    0.0110: real time    0.0118
    --------------------------------------------
      LOOP:  cpu time   18.7941: real time   18.7963

 eigenvalue-minimisations  :  2928
 total energy-change (2. order) :-0.2485348E+04  (-0.2357844E+04)
 number of electron     224.0000000 magnetization 
 augmentation part      224.0000000 magnetization 

 Free energy of the ion-electron system (eV)
  ---------------------------------------------------
  alpha Z        PSCENC =       922.44539610
  Ewald energy   TEWEN  =     52375.90857009
  -Hartree energ DENC   =    -67611.84510757
  -exchange      EXHF   =         0.00000000
  -V(xc)+E(xc)   XCENC  =       571.54653676
  PAW double counting   =      9335.29080768    -8993.49122446
  entropy T*S    EENTRO =         0.00000000
  eigenvalues    EBANDS =     -1887.74335583
  atomic energy  EATOM  =     15640.21943780
  Solvation  Ediel_sol  =         0.00000000
  ---------------------------------------------------
  free energy    TOTEN  =       352.33106057 eV

  energy without entropy =      352.33106057  energy(sigma->0) =      352.33106057


--------------------------------------------------------------------------------------------------------




--------------------------------------- Iteration      1(   3)  ---------------------------------------


     EDDAV:  cpu time   21.5557: real time   21.5555
 BZINTS: Fermi energy: -1.108030;224.000000 electrons
         Band energy:***********;  BLOECHL correction:  0.000000
       DOS:  cpu time    0.0010: real time    0.0019
    --------------------------------------------
      LOOP:  cpu time   21.5567: real time   21.5574

 eigenvalue-minimisations  :  3474
 total energy-change (2. order) :-0.6480419E+03  (-0.6238488E+03)
 number of electron     224.0000000 magnetization 
 augmentation part      224.0000000 magnetization 

 Free energy of the ion-electron system (eV)
  ---------------------------------------------------
  alpha Z        PSCENC =       922.44539610
  Ewald energy   TEWEN  =     52375.90857009
  -Hartree energ DENC   =    -67611.84510757
  -exchange      EXHF   =         0.00000000
  -V(xc)+E(xc)   XCENC  =       571.54653676
  PAW double counting   =      9335.29080768    -8993.49122446
  entropy T*S    EENTRO =         0.00000000
  eigenvalues    EBANDS =     -2535.78522898
  atomic energy  EATOM  =     15640.21943780
  Solvation  Ediel_sol  =         0.00000000
  ---------------------------------------------------
  free energy    TOTEN  =      -295.71081259 eV

  energy without entropy =     -295.71081259  energy(sigma->0) =     -295.71081259


--------------------------------------------------------------------------------------------------------




--------------------------------------- Iteration      1(   4)  ---------------------------------------


     EDDAV:  cpu time   21.2788: real time   21.2751
 BZINTS: Fermi energy: -2.698386;224.000000 electrons
         Band energy:***********;  BLOECHL correction:  0.000000
       DOS:  cpu time    0.0010: real time    0.0022
    --------------------------------------------
      LOOP:  cpu time   21.2798: real time   21.2773

 eigenvalue-minimisations  :  3424
 total energy-change (2. order) :-0.5484018E+02  (-0.5462231E+02)
 number of electron     224.0000000 magnetization 
 augmentation part      224.0000000 magnetization 

 Free energy of the ion-electron system (eV)
  ---------------------------------------------------
  alpha Z        PSCENC =       922.44539610
  Ewald energy   TEWEN  =     52375.90857009
  -Hartree energ DENC   =    -67611.84510757
  -exchange      EXHF   =         0.00000000
  -V(xc)+E(xc)   XCENC  =       571.54653676
  PAW double counting   =      9335.29080768    -8993.49122446
  entropy T*S    EENTRO =         0.00000000
  eigenvalues    EBANDS =     -2590.62540952
  atomic energy  EATOM  =     15640.21943780
  Solvation  Ediel_sol  =         0.00000000
  ---------------------------------------------------
  free energy    TOTEN  =      -350.55099312 eV

  energy without entropy =     -350.55099312  energy(sigma->0) =     -350.55099312


--------------------------------------------------------------------------------------------------------




--------------------------------------- Iteration      1(   5)  ---------------------------------------


     EDDAV:  cpu time   26.3560: real time   26.3546
 BZINTS: Fermi energy: -2.777861;224.000000 electrons
         Band energy:***********;  BLOECHL correction:  0.000000
       DOS:  cpu time    0.0020: real time    0.0022
    CHARGE:  cpu time    0.4819: real time    0.4823
    MIXING:  cpu time    0.0050: real time    0.0042
    --------------------------------------------
      LOOP:  cpu time   26.8449: real time   26.8433

 eigenvalue-minimisations  :  4440
 total energy-change (2. order) :-0.2944895E+01  (-0.2942805E+01)
 number of electron     223.9999501 magnetization 
 augmentation part       23.8071758 magnetization 

 Broyden mixing:
  rms(total) = 0.48803E+01    rms(broyden)= 0.48796E+01
  rms(prec ) = 0.50356E+01
  weight for this iteration     100.00

 Free energy of the ion-electron system (eV)
  ---------------------------------------------------
  alpha Z        PSCENC =       922.44539610
  Ewald energy   TEWEN  =     52375.90857009
  -Hartree energ DENC   =    -67611.84510757
  -exchange      EXHF   =         0.00000000
  -V(xc)+E(xc)   XCENC  =       571.54653676
  PAW double counting   =      9335.29080768    -8993.49122446
  entropy T*S    EENTRO =         0.00000000
  eigenvalues    EBANDS =     -2593.57030489
  atomic energy  EATOM  =     15640.21943780
  Solvation  Ediel_sol  =         0.00000000
  ---------------------------------------------------
  free energy    TOTEN  =      -353.49588849 eV

  energy without entropy =     -353.49588849  energy(sigma->0) =     -353.49588849


--------------------------------------------------------------------------------------------------------




--------------------------------------- Iteration      1(   6)  ---------------------------------------


    POTLOK:  cpu time    0.1440: real time    0.1487
    SETDIJ:  cpu time    0.0200: real time    0.0196
    EDDIAG:  cpu time    1.6018: real time    1.6019
  RMM-DIIS:  cpu time   13.1010: real time   13.1012
    ORTHCH:  cpu time    0.4059: real time    0.4058
 BZINTS: Fermi energy:  1.064935;224.000000 electrons
         Band energy:***********;  BLOECHL correction: -0.079794
       DOS:  cpu time    0.0110: real time    0.0112
    CHARGE:  cpu time    0.4919: real time    0.4924
    MIXING:  cpu time    0.0040: real time    0.0039
    --------------------------------------------
      LOOP:  cpu time   15.7796: real time   15.7847

 eigenvalue-minimisations  :  2923
 total energy-change (2. order) : 0.7009857E+02  (-0.4896790E+02)
 number of electron     223.9999662 magnetization 
 augmentation part       24.8307657 magnetization 

 Broyden mixing:
  rms(total) = 0.18534E+01    rms(broyden)= 0.18519E+01
  rms(prec ) = 0.18956E+01
  weight for this iteration     100.00

 eigenvalues of (default mixing * dielectric matrix)
  average eigenvalue GAMMA=   0.7637
  0.7637

 Free energy of the ion-electron system (eV)
  ---------------------------------------------------
  alpha Z        PSCENC =       922.44539610
  Ewald energy   TEWEN  =     52375.90857009
  -Hartree energ DENC   =    -68073.05094003
  -exchange      EXHF   =         0.00000000
  -V(xc)+E(xc)   XCENC  =       605.91857934
  PAW double counting   =     10387.31319581   -10068.17629458
  entropy T*S    EENTRO =         0.00000000
  eigenvalues    EBANDS =     -2073.97526187
  atomic energy  EATOM  =     15640.21943780
  Solvation  Ediel_sol  =         0.00000000
  ---------------------------------------------------
  free energy    TOTEN  =      -283.39731733 eV

  energy without entropy =     -283.39731733  energy(sigma->0) =     -283.39731733


--------------------------------------------------------------------------------------------------------




--------------------------------------- Iteration      1(   7)  ---------------------------------------


    POTLOK:  cpu time    0.1440: real time    0.1507
    SETDIJ:  cpu time    0.0200: real time    0.0194
    EDDIAG:  cpu time    1.5978: real time    1.5972
  RMM-DIIS:  cpu time   14.4758: real time   14.4731
    ORTHCH:  cpu time    0.4109: real time    0.4108
 BZINTS: Fermi energy:  0.603442;224.000000 electrons
         Band energy:***********;  BLOECHL correction:  0.000000
       DOS:  cpu time    0.0010: real time    0.0020
    CHARGE:  cpu time    0.4889: real time    0.4875
    MIXING:  cpu time    0.0040: real time    0.0041
    --------------------------------------------
      LOOP:  cpu time   17.1424: real time   17.1447

 eigenvalue-minimisations  :  3213
 total energy-change (2. order) : 0.6019733E+01  (-0.2130041E+01)
 number of electron     223.9999640 magnetization 
 augmentation part       23.6443871 magnetization 

 Broyden mixing:
  rms(total) = 0.95115E+00    rms(broyden)= 0.95105E+00
  rms(prec ) = 0.96761E+00
  weight for this iteration     100.00

 eigenvalues of (default mixing * dielectric matrix)
  average eigenvalue GAMMA=   1.0006
  1.0673  0.9340

 Free energy of the ion-electron system (eV)
  ---------------------------------------------------
  alpha Z        PSCENC =       922.44539610
  Ewald energy   TEWEN  =     52375.90857009
  -Hartree energ DENC   =    -68085.03241233
  -exchange      EXHF   =         0.00000000
  -V(xc)+E(xc)   XCENC  =       599.15286736
  PAW double counting   =     10405.97500975   -10095.24157297
  entropy T*S    EENTRO =         0.00000000
  eigenvalues    EBANDS =     -2040.80488024
  atomic energy  EATOM  =     15640.21943780
  Solvation  Ediel_sol  =         0.00000000
  ---------------------------------------------------
  free energy    TOTEN  =      -277.37758444 eV

  energy without entropy =     -277.37758444  energy(sigma->0) =     -277.37758444


--------------------------------------------------------------------------------------------------------




--------------------------------------- Iteration      1(   8)  ---------------------------------------


    POTLOK:  cpu time    0.1450: real time    0.1507
    SETDIJ:  cpu time    0.0200: real time    0.0200
    EDDIAG:  cpu time    1.6198: real time    1.6189
  RMM-DIIS:  cpu time   16.3965: real time   16.3924
    ORTHCH:  cpu time    0.4069: real time    0.4072
 BZINTS: Fermi energy:  0.431731;224.000000 electrons
         Band energy:***********;  BLOECHL correction:  0.000000
       DOS:  cpu time    0.0010: real time    0.0022
    CHARGE:  cpu time    0.4819: real time    0.4817
    MIXING:  cpu time    0.0050: real time    0.0043
    --------------------------------------------
      LOOP:  cpu time   19.0761: real time   19.0774

 eigenvalue-minimisations  :  3666
 total energy-change (2. order) : 0.1136910E+01  (-0.5211918E+00)
 number of electron     223.9999639 magnetization 
 augmentation part       23.9859970 magnetization 

 Broyden mixing:
  rms(total) = 0.45163E+00    rms(broyden)= 0.45159E+00
  rms(prec ) = 0.46162E+00
  weight for this iteration     100.00

 eigenvalues of (default mixing * dielectric matrix)
  average eigenvalue GAMMA=   1.2620
  2.2246  0.8878  0.6737

 Free energy of the ion-electron system (eV)
  ---------------------------------------------------
  alpha Z        PSCENC =       922.44539610
  Ewald energy   TEWEN  =     52375.90857009
  -Hartree energ DENC   =    -68072.34921586
  -exchange      EXHF   =         0.00000000
  -V(xc)+E(xc)   XCENC  =       598.46520890
  PAW double counting   =     10546.07261736   -10242.18979708
  entropy T*S    EENTRO =         0.00000000
  eigenvalues    EBANDS =     -2044.81289147
  atomic energy  EATOM  =     15640.21943780
  Solvation  Ediel_sol  =         0.00000000
  ---------------------------------------------------
  free energy    TOTEN  =      -276.24067415 eV

  energy without entropy =     -276.24067415  energy(sigma->0) =     -276.24067415


--------------------------------------------------------------------------------------------------------




--------------------------------------- Iteration      1(   9)  ---------------------------------------


    POTLOK:  cpu time    0.1450: real time    0.1495
    SETDIJ:  cpu time    0.0200: real time    0.0195
    EDDIAG:  cpu time    1.6038: real time    1.6029
  RMM-DIIS:  cpu time   16.3605: real time   16.3567
    ORTHCH:  cpu time    0.4069: real time    0.4074
 BZINTS: Fermi energy:  0.569042;224.000000 electrons
         Band energy:***********;  BLOECHL correction:  0.000000
       DOS:  cpu time    0.0020: real time    0.0022
    CHARGE:  cpu time    0.4809: real time    0.4817
    MIXING:  cpu time    0.0060: real time    0.0052
    --------------------------------------------
      LOOP:  cpu time   19.0251: real time   19.0252

 eigenvalue-minimisations  :  3604
 total energy-change (2. order) : 0.2626432E+00  (-0.2495040E+00)
 number of electron     223.9999634 magnetization 
 augmentation part       24.0877077 magnetization 

 Broyden mixing:
  rms(total) = 0.13996E+00    rms(broyden)= 0.13986E+00
  rms(prec ) = 0.14990E+00
  weight for this iteration     100.00

 eigenvalues of (default mixing * dielectric matrix)
  average eigenvalue GAMMA=   1.1332
  2.2118  0.7944  0.7944  0.7320

 Free energy of the ion-electron system (eV)
  ---------------------------------------------------
  alpha Z        PSCENC =       922.44539610
  Ewald energy   TEWEN  =     52375.90857009
  -Hartree energ DENC   =    -68075.31729405
  -exchange      EXHF   =         0.00000000
  -V(xc)+E(xc)   XCENC  =       597.68285565
  PAW double counting   =     10715.42380143   -10418.48806626
  entropy T*S    EENTRO =         0.00000000
  eigenvalues    EBANDS =     -2033.85273174
  atomic energy  EATOM  =     15640.21943780
  Solvation  Ediel_sol  =         0.00000000
  ---------------------------------------------------
  free energy    TOTEN  =      -275.97803098 eV

  energy without entropy =     -275.97803098  energy(sigma->0) =     -275.97803098


--------------------------------------------------------------------------------------------------------




--------------------------------------- Iteration      1(  10)  ---------------------------------------


    POTLOK:  cpu time    0.1460: real time    0.1510
    SETDIJ:  cpu time    0.0200: real time    0.0197
    EDDIAG:  cpu time    1.6208: real time    1.6208
  RMM-DIIS:  cpu time   19.6940: real time   19.6895
    ORTHCH:  cpu time    0.4269: real time    0.4264
 BZINTS: Fermi energy:  0.558906;224.000000 electrons
         Band energy:***********;  BLOECHL correction:  0.000000
       DOS:  cpu time    0.0010: real time    0.0020
    CHARGE:  cpu time    0.4999: real time    0.4999
    MIXING:  cpu time    0.0050: real time    0.0047
    --------------------------------------------
      LOOP:  cpu time   22.4136: real time   22.4140

 eigenvalue-minimisations  :  4344
 total energy-change (2. order) : 0.7305482E-01  (-0.3429131E-01)
 number of electron     223.9999634 magnetization 
 augmentation part       23.9813607 magnetization 

 Broyden mixing:
  rms(total) = 0.97024E-01    rms(broyden)= 0.97013E-01
  rms(prec ) = 0.10379E+00
  weight for this iteration     100.00

 eigenvalues of (default mixing * dielectric matrix)
  average eigenvalue GAMMA=   1.1613
  2.1932  1.1391  1.1391  0.7221  0.6128

 Free energy of the ion-electron system (eV)
  ---------------------------------------------------
  alpha Z        PSCENC =       922.44539610
  Ewald energy   TEWEN  =     52375.90857009
  -Hartree energ DENC   =    -68100.71304661
  -exchange      EXHF   =         0.00000000
  -V(xc)+E(xc)   XCENC  =       598.14814198
  PAW double counting   =     10744.85606940   -10448.51797202
  entropy T*S    EENTRO =         0.00000000
  eigenvalues    EBANDS =     -2008.25157290
  atomic energy  EATOM  =     15640.21943780
  Solvation  Ediel_sol  =         0.00000000
  ---------------------------------------------------
  free energy    TOTEN  =      -275.90497616 eV

  energy without entropy =     -275.90497616  energy(sigma->0) =     -275.90497616


--------------------------------------------------------------------------------------------------------




--------------------------------------- Iteration      1(  11)  ---------------------------------------


    POTLOK:  cpu time    0.1460: real time    0.1477
    SETDIJ:  cpu time    0.0200: real time    0.0195
    EDDIAG:  cpu time    1.6028: real time    1.6033
  RMM-DIIS:  cpu time   18.7272: real time   18.7220
    ORTHCH:  cpu time    0.4089: real time    0.4090
 BZINTS: Fermi energy:  0.642202;224.000000 electrons
         Band energy:***********;  BLOECHL correction:  0.000000
       DOS:  cpu time    0.0010: real time    0.0019
    CHARGE:  cpu time    0.4809: real time    0.4814
    MIXING:  cpu time    0.0060: real time    0.0049
    --------------------------------------------
      LOOP:  cpu time   21.3927: real time   21.3896

 eigenvalue-minimisations  :  4141
 total energy-change (2. order) : 0.2943585E-01  (-0.2762278E-01)
 number of electron     223.9999636 magnetization 
 augmentation part       23.8932227 magnetization 

 Broyden mixing:
  rms(total) = 0.44024E-01    rms(broyden)= 0.43996E-01
  rms(prec ) = 0.50447E-01
  weight for this iteration     100.00

 eigenvalues of (default mixing * dielectric matrix)
  average eigenvalue GAMMA=   1.2312
  2.1280  2.1280  0.8967  0.8967  0.7313  0.6061

 Free energy of the ion-electron system (eV)
  ---------------------------------------------------
  alpha Z        PSCENC =       922.44539610
  Ewald energy   TEWEN  =     52375.90857009
  -Hartree energ DENC   =    -68130.29511801
  -exchange      EXHF   =         0.00000000
  -V(xc)+E(xc)   XCENC  =       598.83223871
  PAW double counting   =     10775.36243418   -10479.19359447
  entropy T*S    EENTRO =         0.00000000
  eigenvalues    EBANDS =     -1979.15490472
  atomic energy  EATOM  =     15640.21943780
  Solvation  Ediel_sol  =         0.00000000
  ---------------------------------------------------
  free energy    TOTEN  =      -275.87554031 eV

  energy without entropy =     -275.87554031  energy(sigma->0) =     -275.87554031


--------------------------------------------------------------------------------------------------------




--------------------------------------- Iteration      1(  12)  ---------------------------------------


    POTLOK:  cpu time    0.1470: real time    0.1502
    SETDIJ:  cpu time    0.0200: real time    0.0194
    EDDIAG:  cpu time    1.5888: real time    1.5888
  RMM-DIIS:  cpu time   19.3581: real time   19.3538
    ORTHCH:  cpu time    0.4069: real time    0.4069
 BZINTS: Fermi energy:  0.802731;224.000000 electrons
         Band energy:***********;  BLOECHL correction:  0.000000
       DOS:  cpu time    0.0020: real time    0.0022
    CHARGE:  cpu time    0.4819: real time    0.4816
    MIXING:  cpu time    0.0050: real time    0.0051
    --------------------------------------------
      LOOP:  cpu time   22.0097: real time   22.0080

 eigenvalue-minimisations  :  4314
 total energy-change (2. order) : 0.8278448E-02  (-0.8312753E-02)
 number of electron     223.9999635 magnetization 
 augmentation part       23.8084707 magnetization 

 Broyden mixing:
  rms(total) = 0.37251E-01    rms(broyden)= 0.37246E-01
  rms(prec ) = 0.42010E-01
  weight for this iteration     100.00

 eigenvalues of (default mixing * dielectric matrix)
  average eigenvalue GAMMA=   1.1871
  2.1919  2.1919  0.9421  0.9421  0.8137  0.6142  0.6142

 Free energy of the ion-electron system (eV)
  ---------------------------------------------------
  alpha Z        PSCENC =       922.44539610
  Ewald energy   TEWEN  =     52375.90857009
  -Hartree energ DENC   =    -68145.68959702
  -exchange      EXHF   =         0.00000000
  -V(xc)+E(xc)   XCENC  =       598.96840134
  PAW double counting   =     10783.62648827   -10487.08705828
  entropy T*S    EENTRO =         0.00000000
  eigenvalues    EBANDS =     -1964.25890017
  atomic energy  EATOM  =     15640.21943780
  Solvation  Ediel_sol  =         0.00000000
  ---------------------------------------------------
  free energy    TOTEN  =      -275.86726187 eV

  energy without entropy =     -275.86726187  energy(sigma->0) =     -275.86726187


--------------------------------------------------------------------------------------------------------




--------------------------------------- Iteration      1(  13)  ---------------------------------------


    POTLOK:  cpu time    0.1480: real time    0.1514
    SETDIJ:  cpu time    0.0200: real time    0.0195
    EDDIAG:  cpu time    1.5888: real time    1.5887
  RMM-DIIS:  cpu time   21.9547: real time   21.9492
    ORTHCH:  cpu time    0.4059: real time    0.4066
 BZINTS: Fermi energy:  0.867808;224.000000 electrons
         Band energy:***********;  BLOECHL correction:  0.000000
       DOS:  cpu time    0.0010: real time    0.0019
    CHARGE:  cpu time    0.4829: real time    0.4820
    MIXING:  cpu time    0.0060: real time    0.0054
    --------------------------------------------
      LOOP:  cpu time   24.6073: real time   24.6046

 eigenvalue-minimisations  :  4934
 total energy-change (2. order) : 0.6395741E-02  (-0.3111026E-02)
 number of electron     223.9999636 magnetization 
 augmentation part       23.8214663 magnetization 

 Broyden mixing:
  rms(total) = 0.24127E-01    rms(broyden)= 0.24125E-01
  rms(prec ) = 0.28520E-01
  weight for this iteration     100.00

 eigenvalues of (default mixing * dielectric matrix)
  average eigenvalue GAMMA=   1.3333
  2.6214  2.6214  1.1940  1.1940  0.8803  0.8803  0.6374  0.6374

 Free energy of the ion-electron system (eV)
  ---------------------------------------------------
  alpha Z        PSCENC =       922.44539610
  Ewald energy   TEWEN  =     52375.90857009
  -Hartree energ DENC   =    -68151.70889328
  -exchange      EXHF   =         0.00000000
  -V(xc)+E(xc)   XCENC  =       599.01456961
  PAW double counting   =     10788.11924309   -10491.48113295
  entropy T*S    EENTRO =         0.00000000
  eigenvalues    EBANDS =     -1958.37805659
  atomic energy  EATOM  =     15640.21943780
  Solvation  Ediel_sol  =         0.00000000
  ---------------------------------------------------
  free energy    TOTEN  =      -275.86086612 eV

  energy without entropy =     -275.86086612  energy(sigma->0) =     -275.86086612


--------------------------------------------------------------------------------------------------------




--------------------------------------- Iteration      1(  14)  ---------------------------------------


    POTLOK:  cpu time    0.1480: real time    0.1521
    SETDIJ:  cpu time    0.0200: real time    0.0195
    EDDIAG:  cpu time    1.5898: real time    1.5892
  RMM-DIIS:  cpu time   19.1541: real time   19.1496
    ORTHCH:  cpu time    0.4069: real time    0.4070
 BZINTS: Fermi energy:  1.035062;224.000000 electrons
         Band energy:***********;  BLOECHL correction:  0.000000
       DOS:  cpu time    0.0010: real time    0.0022
    CHARGE:  cpu time    0.4819: real time    0.4819
    MIXING:  cpu time    0.0060: real time    0.0056
    --------------------------------------------
      LOOP:  cpu time   21.8077: real time   21.8072

 eigenvalue-minimisations  :  4279
 total energy-change (2. order) : 0.6465258E-02  (-0.2731105E-02)
 number of electron     223.9999635 magnetization 
 augmentation part       23.8229461 magnetization 

 Broyden mixing:
  rms(total) = 0.15902E-01    rms(broyden)= 0.15895E-01
  rms(prec ) = 0.18819E-01
  weight for this iteration     100.00

 eigenvalues of (default mixing * dielectric matrix)
  average eigenvalue GAMMA=   1.3551
  3.1614  2.5527  1.4016  1.0382  1.0382  0.8865  0.8865  0.6153  0.6153

 Free energy of the ion-electron system (eV)
  ---------------------------------------------------
  alpha Z        PSCENC =       922.44539610
  Ewald energy   TEWEN  =     52375.90857009
  -Hartree energ DENC   =    -68162.73303746
  -exchange      EXHF   =         0.00000000
  -V(xc)+E(xc)   XCENC  =       598.92755125
  PAW double counting   =     10782.99170811   -10485.75338088
  entropy T*S    EENTRO =         0.00000000
  eigenvalues    EBANDS =     -1947.86064587
  atomic energy  EATOM  =     15640.21943780
  Solvation  Ediel_sol  =         0.00000000
  ---------------------------------------------------
  free energy    TOTEN  =      -275.85440087 eV

  energy without entropy =     -275.85440087  energy(sigma->0) =     -275.85440087


--------------------------------------------------------------------------------------------------------




--------------------------------------- Iteration      1(  15)  ---------------------------------------


    POTLOK:  cpu time    0.1470: real time    0.1489
    SETDIJ:  cpu time    0.0200: real time    0.0195
    EDDIAG:  cpu time    1.5898: real time    1.5892
  RMM-DIIS:  cpu time   21.2088: real time   21.2044
    ORTHCH:  cpu time    0.4069: real time    0.4071
 BZINTS: Fermi energy:  1.074195;224.000000 electrons
         Band energy:***********;  BLOECHL correction:  0.000000
       DOS:  cpu time    0.0020: real time    0.0022
    CHARGE:  cpu time    0.4829: real time    0.4826
    MIXING:  cpu time    0.0060: real time    0.0059
    --------------------------------------------
      LOOP:  cpu time   23.8634: real time   23.8597

 eigenvalue-minimisations  :  4721
 total energy-change (2. order) : 0.2151988E-02  (-0.9518063E-03)
 number of electron     223.9999635 magnetization 
 augmentation part       23.8326242 magnetization 

 Broyden mixing:
  rms(total) = 0.76208E-02    rms(broyden)= 0.76169E-02
  rms(prec ) = 0.10338E-01
  weight for this iteration     100.00

 eigenvalues of (default mixing * dielectric matrix)
  average eigenvalue GAMMA=   1.3429
  3.4829  2.3890  1.2676  1.2676  1.2694  0.9012  0.9012  0.7412  0.6047  0.6047

 Free energy of the ion-electron system (eV)
  ---------------------------------------------------
  alpha Z        PSCENC =       922.44539610
  Ewald energy   TEWEN  =     52375.90857009
  -Hartree energ DENC   =    -68171.40647943
  -exchange      EXHF   =         0.00000000
  -V(xc)+E(xc)   XCENC  =       599.00613017
  PAW double counting   =     10784.54119918   -10487.21545190
  entropy T*S    EENTRO =         0.00000000
  eigenvalues    EBANDS =     -1939.35105090
  atomic energy  EATOM  =     15640.21943780
  Solvation  Ediel_sol  =         0.00000000
  ---------------------------------------------------
  free energy    TOTEN  =      -275.85224888 eV

  energy without entropy =     -275.85224888  energy(sigma->0) =     -275.85224888


--------------------------------------------------------------------------------------------------------




--------------------------------------- Iteration      1(  16)  ---------------------------------------


    POTLOK:  cpu time    0.1460: real time    0.1478
    SETDIJ:  cpu time    0.0190: real time    0.0195
    EDDIAG:  cpu time    1.5898: real time    1.5887
  RMM-DIIS:  cpu time   20.7269: real time   20.7227
    ORTHCH:  cpu time    0.4069: real time    0.4064
 BZINTS: Fermi energy:  1.104022;224.000000 electrons
         Band energy:***********;  BLOECHL correction:  0.000000
       DOS:  cpu time    0.0010: real time    0.0022
    CHARGE:  cpu time    0.4829: real time    0.4820
    MIXING:  cpu time    0.0060: real time    0.0062
    --------------------------------------------
      LOOP:  cpu time   23.3784: real time   23.3754

 eigenvalue-minimisations  :  4646
 total energy-change (2. order) :-0.2137353E-04  (-0.5294954E-03)
 number of electron     223.9999635 magnetization 
 augmentation part       23.8231919 magnetization 

 Broyden mixing:
  rms(total) = 0.70334E-02    rms(broyden)= 0.70311E-02
  rms(prec ) = 0.88059E-02
  weight for this iteration     100.00

 eigenvalues of (default mixing * dielectric matrix)
  average eigenvalue GAMMA=   1.5087
  4.6246  2.5961  2.1372  1.4060  1.0916  1.0916  0.8688  0.8688  0.6955  0.6078
  0.6078

 Free energy of the ion-electron system (eV)
  ---------------------------------------------------
  alpha Z        PSCENC =       922.44539610
  Ewald energy   TEWEN  =     52375.90857009
  -Hartree energ DENC   =    -68177.58831662
  -exchange      EXHF   =         0.00000000
  -V(xc)+E(xc)   XCENC  =       599.05062855
  PAW double counting   =     10785.67644730   -10488.41224209
  entropy T*S    EENTRO =         0.00000000
  eigenvalues    EBANDS =     -1933.15219139
  atomic energy  EATOM  =     15640.21943780
  Solvation  Ediel_sol  =         0.00000000
  ---------------------------------------------------
  free energy    TOTEN  =      -275.85227025 eV

  energy without entropy =     -275.85227025  energy(sigma->0) =     -275.85227025


--------------------------------------------------------------------------------------------------------




--------------------------------------- Iteration      1(  17)  ---------------------------------------


    POTLOK:  cpu time    0.1460: real time    0.1484
    SETDIJ:  cpu time    0.0200: real time    0.0195
    EDDIAG:  cpu time    1.5888: real time    1.5885
  RMM-DIIS:  cpu time   19.5440: real time   19.5398
    ORTHCH:  cpu time    0.4069: real time    0.4069
 BZINTS: Fermi energy:  1.159487;224.000000 electrons
         Band energy:***********;  BLOECHL correction:  0.000000
       DOS:  cpu time    0.0020: real time    0.0022
    CHARGE:  cpu time    0.4809: real time    0.4815
    MIXING:  cpu time    0.0070: real time    0.0064
    --------------------------------------------
      LOOP:  cpu time   22.1956: real time   22.1933

 eigenvalue-minimisations  :  4370
 total energy-change (2. order) :-0.3264880E-03  (-0.3156369E-03)
 number of electron     223.9999635 magnetization 
 augmentation part       23.8139105 magnetization 

 Broyden mixing:
  rms(total) = 0.45779E-02    rms(broyden)= 0.45766E-02
  rms(prec ) = 0.52773E-02
  weight for this iteration     100.00

 eigenvalues of (default mixing * dielectric matrix)
  average eigenvalue GAMMA=   1.5350
  5.4725  2.7519  2.3492  1.1482  1.1482  1.1094  0.9676  0.8297  0.8297  0.6148
  0.6148  0.5838

 Free energy of the ion-electron system (eV)
  ---------------------------------------------------
  alpha Z        PSCENC =       922.44539610
  Ewald energy   TEWEN  =     52375.90857009
  -Hartree energ DENC   =    -68185.44109648
  -exchange      EXHF   =         0.00000000
  -V(xc)+E(xc)   XCENC  =       599.01456645
  PAW double counting   =     10782.87992221   -10485.57878124
  entropy T*S    EENTRO =         0.00000000
  eigenvalues    EBANDS =     -1925.30061166
  atomic energy  EATOM  =     15640.21943780
  Solvation  Ediel_sol  =         0.00000000
  ---------------------------------------------------
  free energy    TOTEN  =      -275.85259674 eV

  energy without entropy =     -275.85259674  energy(sigma->0) =     -275.85259674


--------------------------------------------------------------------------------------------------------




--------------------------------------- Iteration      1(  18)  ---------------------------------------


    POTLOK:  cpu time    0.1480: real time    0.1501
    SETDIJ:  cpu time    0.0200: real time    0.0200
    EDDIAG:  cpu time    1.5898: real time    1.5894
WARNING in EDDRMM: call to ZHEGV failed, returncode =   8  4     58
  RMM-DIIS:  cpu time   19.6390: real time   19.6348
    ORTHCH:  cpu time    0.4069: real time    0.4067
 BZINTS: Fermi energy:  1.095982;224.000000 electrons
         Band energy:***********;  BLOECHL correction:  0.000000
       DOS:  cpu time    0.0010: real time    0.0019
    CHARGE:  cpu time    0.4819: real time    0.4815
    MIXING:  cpu time    0.0070: real time    0.0068
    --------------------------------------------
      LOOP:  cpu time   22.2936: real time   22.2912

 eigenvalue-minimisations  :  4393
 total energy-change (2. order) :-0.4004973E-03  (-0.1158780E-03)
 number of electron     223.9999635 magnetization 
 augmentation part       23.8169385 magnetization 

 Broyden mixing:
  rms(total) = 0.19426E-02    rms(broyden)= 0.19405E-02
  rms(prec ) = 0.25458E-02
  weight for this iteration     100.00

 eigenvalues of (default mixing * dielectric matrix)
  average eigenvalue GAMMA=   1.6236
  6.2072  2.9956  2.0324  2.0324  1.1589  1.1589  1.1185  0.9291  0.8350  0.8350
  0.6149  0.6149  0.5739

 Free energy of the ion-electron system (eV)
  ---------------------------------------------------
  alpha Z        PSCENC =       922.44539610
  Ewald energy   TEWEN  =     52375.90857009
  -Hartree energ DENC   =    -68187.36710625
  -exchange      EXHF   =         0.00000000
  -V(xc)+E(xc)   XCENC  =       599.01440092
  PAW double counting   =     10782.55135176   -10485.23854162
  entropy T*S    EENTRO =         0.00000000
  eigenvalues    EBANDS =     -1923.38650604
  atomic energy  EATOM  =     15640.21943780
  Solvation  Ediel_sol  =         0.00000000
  ---------------------------------------------------
  free energy    TOTEN  =      -275.85299724 eV

  energy without entropy =     -275.85299724  energy(sigma->0) =     -275.85299724


--------------------------------------------------------------------------------------------------------




--------------------------------------- Iteration      1(  19)  ---------------------------------------


    POTLOK:  cpu time    0.1460: real time    0.1499
    SETDIJ:  cpu time    0.0200: real time    0.0195
    EDDIAG:  cpu time    1.5918: real time    1.5921
  RMM-DIIS:  cpu time   18.4112: real time   18.4069
    ORTHCH:  cpu time    0.4069: real time    0.4071
 BZINTS: Fermi energy:  1.132324;224.000000 electrons
         Band energy:***********;  BLOECHL correction:  0.000000
       DOS:  cpu time    0.0020: real time    0.0019
    CHARGE:  cpu time    0.4819: real time    0.4821
    MIXING:  cpu time    0.0070: real time    0.0070
    --------------------------------------------
      LOOP:  cpu time   21.0668: real time   21.0665

 eigenvalue-minimisations  :  4108
 total energy-change (2. order) :-0.1352795E-02  (-0.5970244E-04)
 number of electron     223.9999635 magnetization 
 augmentation part       23.8159644 magnetization 

 Broyden mixing:
  rms(total) = 0.14835E-02    rms(broyden)= 0.14828E-02
  rms(prec ) = 0.16998E-02
  weight for this iteration     100.00

 eigenvalues of (default mixing * dielectric matrix)
  average eigenvalue GAMMA=   1.6704
  6.8936  3.0977  2.3109  2.3109  1.2031  1.2031  1.2093  0.8979  0.8979  0.7626
  0.7626  0.6237  0.6237  0.5883

 Free energy of the ion-electron system (eV)
  ---------------------------------------------------
  alpha Z        PSCENC =       922.44539610
  Ewald energy   TEWEN  =     52375.90857009
  -Hartree energ DENC   =    -68188.68726009
  -exchange      EXHF   =         0.00000000
  -V(xc)+E(xc)   XCENC  =       599.01570196
  PAW double counting   =     10782.61101961   -10485.25982542
  entropy T*S    EENTRO =         0.00000000
  eigenvalues    EBANDS =     -1922.10739009
  atomic energy  EATOM  =     15640.21943780
  Solvation  Ediel_sol  =         0.00000000
  ---------------------------------------------------
  free energy    TOTEN  =      -275.85435003 eV

  energy without entropy =     -275.85435003  energy(sigma->0) =     -275.85435003


--------------------------------------------------------------------------------------------------------




--------------------------------------- Iteration      1(  20)  ---------------------------------------


    POTLOK:  cpu time    0.1460: real time    0.1497
    SETDIJ:  cpu time    0.0200: real time    0.0194
    EDDIAG:  cpu time    1.5938: real time    1.5934
  RMM-DIIS:  cpu time   17.4164: real time   17.4123
    ORTHCH:  cpu time    0.4069: real time    0.4068
 BZINTS: Fermi energy:  1.119007;224.000000 electrons
         Band energy:***********;  BLOECHL correction:  0.000000
       DOS:  cpu time    0.0020: real time    0.0022
    CHARGE:  cpu time    0.4809: real time    0.4810
    MIXING:  cpu time    0.0070: real time    0.0074
    --------------------------------------------
      LOOP:  cpu time   20.0729: real time   20.0722

 eigenvalue-minimisations  :  3850
 total energy-change (2. order) :-0.7292202E-03  (-0.3339398E-04)
 number of electron     223.9999635 magnetization 
 augmentation part       23.8157189 magnetization 

 Broyden mixing:
  rms(total) = 0.16259E-02    rms(broyden)= 0.16257E-02
  rms(prec ) = 0.17328E-02
  weight for this iteration     100.00

 eigenvalues of (default mixing * dielectric matrix)
  average eigenvalue GAMMA=   1.7142
  7.5564  3.6221  2.4019  2.4019  1.1579  1.1579  1.2242  1.2242  0.8580  0.8580
  0.7802  0.6194  0.6194  0.6519  0.5798

 Free energy of the ion-electron system (eV)
  ---------------------------------------------------
  alpha Z        PSCENC =       922.44539610
  Ewald energy   TEWEN  =     52375.90857009
  -Hartree energ DENC   =    -68189.24851115
  -exchange      EXHF   =         0.00000000
  -V(xc)+E(xc)   XCENC  =       599.02433295
  PAW double counting   =     10783.28531042   -10485.94331214
  entropy T*S    EENTRO =         0.00000000
  eigenvalues    EBANDS =     -1921.54630333
  atomic energy  EATOM  =     15640.21943780
  Solvation  Ediel_sol  =         0.00000000
  ---------------------------------------------------
  free energy    TOTEN  =      -275.85507925 eV

  energy without entropy =     -275.85507925  energy(sigma->0) =     -275.85507925


--------------------------------------------------------------------------------------------------------




--------------------------------------- Iteration      1(  21)  ---------------------------------------


    POTLOK:  cpu time    0.1500: real time    0.1521
    SETDIJ:  cpu time    0.0200: real time    0.0198
    EDDIAG:  cpu time    1.5928: real time    1.5923
  RMM-DIIS:  cpu time   16.2565: real time   16.2533
    ORTHCH:  cpu time    0.4069: real time    0.4065
 BZINTS: Fermi energy:  1.137147;224.000000 electrons
         Band energy:***********;  BLOECHL correction:  0.000000
       DOS:  cpu time    0.0020: real time    0.0022
    CHARGE:  cpu time    0.4849: real time    0.4850
    MIXING:  cpu time    0.0080: real time    0.0076
    --------------------------------------------
      LOOP:  cpu time   18.9211: real time   18.9189

 eigenvalue-minimisations  :  3607
 total energy-change (2. order) :-0.3477500E-03  (-0.1612465E-04)
 number of electron     223.9999635 magnetization 
 augmentation part       23.8134420 magnetization 

 Broyden mixing:
  rms(total) = 0.68910E-03    rms(broyden)= 0.68879E-03
  rms(prec ) = 0.74539E-03
  weight for this iteration     100.00

 eigenvalues of (default mixing * dielectric matrix)
  average eigenvalue GAMMA=   1.7866
  8.2917  3.9036  2.5336  2.5336  1.9123  1.1668  1.1668  1.0683  1.0683  0.8766
  0.8766  0.7698  0.6143  0.6143  0.6139  0.5747

 Free energy of the ion-electron system (eV)
  ---------------------------------------------------
  alpha Z        PSCENC =       922.44539610
  Ewald energy   TEWEN  =     52375.90857009
  -Hartree energ DENC   =    -68189.16043704
  -exchange      EXHF   =         0.00000000
  -V(xc)+E(xc)   XCENC  =       599.01566871
  PAW double counting   =     10783.13119396   -10485.77948698
  entropy T*S    EENTRO =         0.00000000
  eigenvalues    EBANDS =     -1921.63576964
  atomic energy  EATOM  =     15640.21943780
  Solvation  Ediel_sol  =         0.00000000
  ---------------------------------------------------
  free energy    TOTEN  =      -275.85542700 eV

  energy without entropy =     -275.85542700  energy(sigma->0) =     -275.85542700


--------------------------------------------------------------------------------------------------------




--------------------------------------- Iteration      1(  22)  ---------------------------------------


    POTLOK:  cpu time    0.1460: real time    0.1488
    SETDIJ:  cpu time    0.0200: real time    0.0194
    EDDIAG:  cpu time    1.5968: real time    1.5964
  RMM-DIIS:  cpu time   13.4350: real time   13.4318
    ORTHCH:  cpu time    0.4059: real time    0.4064
 BZINTS: Fermi energy:  1.151487;224.000000 electrons
         Band energy:***********;  BLOECHL correction:  0.000000
       DOS:  cpu time    0.0020: real time    0.0022
    CHARGE:  cpu time    0.4829: real time    0.4829
    MIXING:  cpu time    0.0080: real time    0.0080
    --------------------------------------------
      LOOP:  cpu time   16.0966: real time   16.0959

 eigenvalue-minimisations  :  2963
 total energy-change (2. order) :-0.1768238E-03  (-0.7003801E-05)
 number of electron     223.9999635 magnetization 
 augmentation part       23.8142094 magnetization 

 Broyden mixing:
  rms(total) = 0.40470E-03    rms(broyden)= 0.40463E-03
  rms(prec ) = 0.43423E-03
  weight for this iteration     100.00

 eigenvalues of (default mixing * dielectric matrix)
  average eigenvalue GAMMA=   1.8110
  8.3488  4.7244  2.7333  2.7333  2.0041  1.1764  1.1764  1.1215  1.1215  0.8722
  0.8722  0.7513  0.7513  0.6159  0.6159  0.6004  0.5673

 Free energy of the ion-electron system (eV)
  ---------------------------------------------------
  alpha Z        PSCENC =       922.44539610
  Ewald energy   TEWEN  =     52375.90857009
  -Hartree energ DENC   =    -68189.19474078
  -exchange      EXHF   =         0.00000000
  -V(xc)+E(xc)   XCENC  =       599.01779937
  PAW double counting   =     10783.22004025   -10485.85516124
  entropy T*S    EENTRO =         0.00000000
  eigenvalues    EBANDS =     -1921.61694542
  atomic energy  EATOM  =     15640.21943780
  Solvation  Ediel_sol  =         0.00000000
  ---------------------------------------------------
  free energy    TOTEN  =      -275.85560383 eV

  energy without entropy =     -275.85560383  energy(sigma->0) =     -275.85560383


--------------------------------------------------------------------------------------------------------




--------------------------------------- Iteration      1(  23)  ---------------------------------------


    POTLOK:  cpu time    0.1490: real time    0.1514
    SETDIJ:  cpu time    0.0200: real time    0.0200
    EDDIAG:  cpu time    1.5938: real time    1.5940
  RMM-DIIS:  cpu time   10.5974: real time   10.5941
    ORTHCH:  cpu time    0.4069: real time    0.4072
 BZINTS: Fermi energy:  1.163151;224.000000 electrons
         Band energy:***********;  BLOECHL correction:  0.000000
       DOS:  cpu time    0.0020: real time    0.0022
    CHARGE:  cpu time    0.4839: real time    0.4835
    MIXING:  cpu time    0.0080: real time    0.0083
    --------------------------------------------
      LOOP:  cpu time   13.2610: real time   13.2608

 eigenvalue-minimisations  :  2314
 total energy-change (2. order) :-0.5435700E-04  (-0.2991816E-05)
 number of electron     223.9999635 magnetization 
 augmentation part       23.8135484 magnetization 

 Broyden mixing:
  rms(total) = 0.19752E-03    rms(broyden)= 0.19748E-03
  rms(prec ) = 0.21259E-03
  weight for this iteration     100.00

 eigenvalues of (default mixing * dielectric matrix)
  average eigenvalue GAMMA=   1.8148
  8.2844  5.1462  3.0640  2.3546  2.3546  1.1760  1.1760  1.2643  1.2643  0.8994
  0.8994  0.8217  0.8217  0.7622  0.6152  0.6152  0.5688  0.5792

 Free energy of the ion-electron system (eV)
[...]
     96      -0.3535      2.00000
     97      -0.3021      2.00000
     98      -0.1885      2.00000
     99      -0.1307      2.00000
    100      -0.0647      2.00000
    101      -0.0562      2.00000
    102       0.0217      2.00000
    103       0.0831      2.00000
    104       0.1310      2.00000
    105       0.2105      2.00000
    106       0.2294      2.00000
    107       0.3311      2.00000
    108       0.3418      2.00000
    109       0.3510      2.00000
    110       0.4640      2.00000
    111       0.6847      2.00000
    112       0.7424      2.00000
    113       3.2388      0.00000
    114       3.5050      0.00000
    115       3.7017      0.00000
    116       3.7963      0.00000
    117       3.8779      0.00000
    118       3.9486      0.00000
    119       3.9818      0.00000
    120       4.0547      0.00000
    121       4.0868      0.00000
    122       4.1104      0.00000
    123       4.2182      0.00000
    124       4.2373      0.00000
    125       4.2555      0.00000
    126       4.3153      0.00000
    127       4.3539      0.00000
    128       4.3729      0.00000
    129       4.4907      0.00000
    130       4.4960      0.00000
    131       4.5105      0.00000
    132       4.5909      0.00000
    133       4.6997      0.00000
    134       8.2285      0.00000

 k-point    10 :       0.4286    0.4286    0.0000
  band No.  band energies     occupation 
      1     -33.0025      2.00000
      2     -32.3501      2.00000
      3     -32.2349      2.00000
      4     -32.2047      2.00000
      5     -32.1035      2.00000
      6     -31.9734      2.00000
      7     -31.8840      2.00000
      8     -16.4285      2.00000
      9     -16.2358      2.00000
     10     -16.1191      2.00000
     11     -16.0902      2.00000
     12     -16.0020      2.00000
     13     -15.9529      2.00000
     14     -15.9416      2.00000
     15     -15.8830      2.00000
     16     -15.8190      2.00000
     17     -15.8160      2.00000
     18     -15.7575      2.00000
     19     -15.7410      2.00000
     20     -15.6690      2.00000
     21     -15.6483      2.00000
     22     -15.6125      2.00000
     23     -15.4826      2.00000
     24     -15.4655      2.00000
     25     -15.4251      2.00000
     26     -15.3526      2.00000
     27     -15.3231      2.00000
     28     -15.2319      2.00000
     29     -14.9537      2.00000
     30     -14.8485      2.00000
     31     -14.5357      2.00000
     32     -14.5322      2.00000
     33     -14.5044      2.00000
     34     -14.4841      2.00000
     35     -14.3648      2.00000
     36     -14.3074      2.00000
     37     -14.2932      2.00000
     38     -14.2451      2.00000
     39     -14.2053      2.00000
     40     -14.1386      2.00000
     41     -14.1374      2.00000
     42     -14.0789      2.00000
     43     -14.0651      2.00000
     44     -14.0348      2.00000
     45     -13.9943      2.00000
     46     -13.9387      2.00000
     47     -13.8831      2.00000
     48     -13.7439      2.00000
     49     -13.7200      2.00000
     50      -4.0102      2.00000
     51      -3.9183      2.00000
     52      -3.8234      2.00000
     53      -3.7775      2.00000
     54      -3.6570      2.00000
     55      -3.6400      2.00000
     56      -3.5948      2.00000
     57      -3.5550      2.00000
     58      -3.5389      2.00000
     59      -3.5165      2.00000
     60      -3.4466      2.00000
     61      -3.4292      2.00000
     62      -3.4119      2.00000
     63      -3.4084      2.00000
     64      -3.2927      2.00000
     65      -3.2760      2.00000
     66      -3.2177      2.00000
     67      -3.2105      2.00000
     68      -3.1711      2.00000
     69      -3.1481      2.00000
     70      -3.1201      2.00000
     71      -3.1089      2.00000
     72      -3.0807      2.00000
     73      -2.9604      2.00000
     74      -2.8984      2.00000
     75      -2.8723      2.00000
     76      -2.8331      2.00000
     77      -2.7610      2.00000
     78      -2.7396      2.00000
     79      -2.7146      2.00000
     80      -2.5757      2.00000
     81      -2.5409      2.00000
     82      -2.4359      2.00000
     83      -2.3296      2.00000
     84      -2.2981      2.00000
     85      -2.1347      2.00000
     86      -2.0641      2.00000
     87      -2.0500      2.00000
     88      -2.0025      2.00000
     89      -1.7526      2.00000
     90      -1.2739      2.00000
     91      -0.8738      2.00000
     92      -0.8140      2.00000
     93      -0.5607      2.00000
     94      -0.5054      2.00000
     95      -0.4574      2.00000
     96      -0.2871      2.00000
     97      -0.2422      2.00000
     98      -0.0314      2.00000
     99       0.0086      2.00000
    100       0.1762      2.00000
    101       0.2141      2.00000
    102       0.2434      2.00000
    103       0.3284      2.00000
    104       0.3813      2.00000
    105       0.4262      2.00000
    106       0.4605      2.00000
    107       0.5877      2.00000
    108       0.6430      2.00000
    109       0.6692      2.00000
    110       0.7229      2.00000
    111       0.7392      2.00000
    112       1.0723      2.00000
    113       3.7607      0.00000
    114       3.8242      0.00000
    115       3.9639      0.00000
    116       4.0175      0.00000
    117       4.1357      0.00000
    118       4.1950      0.00000
    119       4.2218      0.00000
    120       4.2891      0.00000
    121       4.3435      0.00000
    122       4.3657      0.00000
    123       4.4311      0.00000
    124       4.4989      0.00000
    125       4.5458      0.00000
    126       4.6023      0.00000
    127       4.6823      0.00000
    128       4.7375      0.00000
    129       4.7664      0.00000
    130       7.6139      0.00000
    131       7.7296      0.00000
    132       7.9933      0.00000
    133       8.0647      0.00000
    134       8.2475      0.00000


--------------------------------------------------------------------------------------------------------


 soft charge-density along one line, spin component           1
         0         1         2         3         4         5         6         7         8         9
 total charge-density along one line
 
 pseudopotential strength for first ion, spin component:           1
 12.520  -0.320  -0.000  -0.021   0.000   0.000   0.001  -0.000
 -0.320   0.078   0.000   0.002  -0.000  -0.000  -0.000   0.000
 -0.000   0.000  -8.770  -0.000  -0.000  -0.135   0.000   0.000
 -0.021   0.002  -0.000  -8.790  -0.000   0.000  -0.132   0.000
  0.000  -0.000  -0.000  -0.000  -8.770   0.000   0.000  -0.135
  0.000  -0.000  -0.135   0.000   0.000   0.261  -0.000  -0.000
  0.001  -0.000   0.000  -0.132   0.000  -0.000   0.260  -0.000
 -0.000   0.000   0.000   0.000  -0.135  -0.000  -0.000   0.261
 total augmentation occupancy for first ion, spin component:           1
  1.866   0.123   0.000  -0.008   0.000   0.000   0.012   0.000
  0.123   0.012   0.000   0.026   0.000   0.000   0.005   0.000
  0.000   0.000   1.516   0.000   0.000   0.121  -0.000   0.000
 -0.008   0.026   0.000   1.513  -0.000   0.000   0.131   0.000
 -0.000   0.000   0.000   0.000   1.516   0.000   0.000   0.121
  0.000   0.000   0.121  -0.000   0.000   0.011  -0.000   0.000
  0.012   0.005  -0.000   0.131   0.000   0.000   0.012   0.000
  0.000   0.000   0.000   0.000   0.121   0.000  -0.000   0.011


------------------------ aborting loop because EDIFF is reached ----------------------------------------


    CHARGE:  cpu time    0.4929: real time    0.4924
    FORLOC:  cpu time    0.0450: real time    0.0449
    FORNL :  cpu time    8.7867: real time    8.7851
    STRESS:  cpu time   17.9523: real time   17.9484
    FORCOR:  cpu time    0.1690: real time    0.1690
    FORHAR:  cpu time    0.0700: real time    0.0700
    MIXING:  cpu time    0.0090: real time    0.0094
    OFIELD:  cpu time    0.0000: real time    0.0000

  FORCE on cell =-STRESS in cart. coord.  units (eV):
  Direction    XX          YY          ZZ          XY          YZ          ZX
  --------------------------------------------------------------------------------------
  Alpha Z   922.44540   922.44540   922.44540
  Ewald   61261.07257 61261.07257-70146.27359    -0.00000    -0.00000    -0.00000
  Hartree 66065.75487 66065.75487-63942.40601    -0.00000    -0.00000    -0.00000
  E(xc)   -1012.39115 -1012.39115 -1011.92797     0.00000     0.00000     0.00000
  Local  ************************130915.05488     0.00000     0.00000    -0.00000
  n-local  -854.83553  -816.86159  -837.81341    -2.71469     0.00002     0.00007
  augment   202.85042   202.85042   201.80273     0.00000    -0.00000     0.00000
  Kinetic  3861.47614  3937.73407  3895.94838   -16.09492     0.00001    -0.00004
  Fock        0.00000     0.00000     0.00000     0.00000     0.00000     0.00000
  -------------------------------------------------------------------------------------
  Total      -5.40898    -5.40898    -3.16958     0.00000     0.00000     0.00000
  in kB     -14.77435   -14.77435    -8.65755     0.00000     0.00000     0.00000
  external pressure =      -12.74 kB  Pullay stress =        0.00 kB


 VOLUME and BASIS-vectors are now :
 -----------------------------------------------------------------------------
  energy-cutoff  :      500.00
  volume of cell :      586.57
      direct lattice vectors                 reciprocal lattice vectors
     3.946846342  0.000000000  0.000000000     0.253366844  0.000000000  0.000000000
     0.000000000  3.946846342  0.000000000     0.000000000  0.253366844  0.000000000
     0.000000000  0.000000000 37.654501221     0.000000000  0.000000000  0.026557250

  length of vectors
     3.946846342  3.946846342 37.654501221     0.253366844  0.253366844  0.026557250


 FORCES acting on ions
    electron-ion (+dipol)            ewald-force                    non-local-force                 convergence-correction
 -----------------------------------------------------------------------------------------------
   0.128E-12 0.331E-12 0.194E+04   -.513E-14 -.523E-14 -.195E+04   0.000E+00 0.000E+00 0.788E+01   0.129E-13 0.827E-13 0.343E-02
   0.185E-12 0.648E-13 0.163E+04   -.128E-13 0.382E-15 -.163E+04   -.106E-21 0.000E+00 -.278E+00   0.597E-14 0.785E-13 0.933E-03
   -.870E-14 0.463E-12 0.163E+04   -.257E-14 0.101E-13 -.163E+04   0.424E-21 0.000E+00 -.278E+00   -.145E-13 0.775E-13 0.933E-03
   0.177E-12 -.135E-12 0.134E+04   -.450E-14 -.125E-13 -.134E+04   0.000E+00 0.199E-22 0.618E+00   0.179E-13 0.608E-13 0.441E-03
   0.156E-12 -.446E-13 0.104E+04   -.150E-13 0.358E-14 -.104E+04   0.000E+00 0.000E+00 0.193E+00   0.162E-13 0.469E-13 0.108E-04
   -.136E-13 0.249E-12 0.104E+04   -.207E-14 0.114E-13 -.104E+04   -.645E-22 0.000E+00 0.193E+00   0.141E-14 0.516E-13 0.108E-04
   0.157E-12 -.106E-13 0.742E+03   -.560E-14 -.758E-14 -.742E+03   0.000E+00 0.000E+00 0.352E+00   0.149E-13 0.435E-13 -.139E-03
   0.139E-12 -.473E-13 0.445E+03   -.117E-13 0.483E-15 -.445E+03   0.000E+00 0.000E+00 0.226E+00   0.185E-13 0.904E-14 -.294E-03
   -.874E-14 0.168E-12 0.445E+03   0.153E-15 0.989E-14 -.445E+03   0.000E+00 -.106E-21 0.226E+00   0.840E-14 0.105E-13 -.294E-03
   0.162E-12 0.170E-12 0.148E+03   -.181E-14 -.101E-13 -.148E+03   0.000E+00 0.212E-21 0.335E+00   0.492E-14 0.154E-13 -.245E-03
   0.167E-12 0.225E-13 -.149E+03   -.175E-13 0.239E-14 0.148E+03   0.000E+00 0.000E+00 0.228E+00   0.143E-13 -.717E-15 -.389E-03
   -.517E-14 -.530E-12 -.149E+03   -.293E-14 0.487E-14 0.148E+03   -.212E-21 0.000E+00 0.228E+00   0.177E-13 -.341E-15 -.389E-03
   0.159E-12 0.330E-12 -.446E+03   -.224E-14 -.765E-14 0.445E+03   0.000E+00 0.000E+00 0.344E+00   0.492E-14 0.333E-14 -.526E-03
   0.171E-12 -.230E-12 -.743E+03   -.658E-14 -.252E-14 0.742E+03   0.000E+00 0.106E-21 0.212E+00   0.498E-14 -.244E-13 -.629E-03
   -.427E-14 0.245E-12 -.743E+03   -.211E-14 -.626E-14 0.742E+03   0.000E+00 0.000E+00 0.212E+00   0.870E-14 -.257E-13 -.629E-03
   0.156E-12 0.178E-12 -.104E+04   -.448E-14 -.175E-14 0.104E+04   0.000E+00 -.212E-21 0.479E+00   0.220E-14 -.338E-13 -.681E-03
   0.191E-12 -.124E-12 -.134E+04   -.926E-14 0.184E-14 0.134E+04   0.000E+00 0.212E-21 0.186E-01   0.280E-14 -.544E-13 -.692E-03
   -.104E-13 0.203E-12 -.134E+04   -.349E-14 -.411E-14 0.134E+04   0.000E+00 0.424E-21 0.186E-01   0.903E-14 -.604E-13 -.692E-03
   0.188E-12 0.108E-13 -.163E+04   -.258E-14 -.605E-14 0.163E+04   0.000E+00 0.424E-21 0.255E+01   0.115E-13 -.587E-13 -.651E-03
   0.116E-12 -.360E-13 -.191E+04   -.801E-14 -.472E-15 0.191E+04   0.000E+00 0.212E-21 -.221E+01   -.290E-14 -.822E-13 0.167E-02
   -.359E-14 0.655E-12 -.191E+04   -.270E-14 0.240E-14 0.191E+04   0.000E+00 -.127E-20 -.221E+01   0.861E-14 -.729E-13 0.167E-02
   -.199E-14 -.237E-12 0.317E+04   0.122E-13 0.395E-14 -.316E+04   0.000E+00 0.000E+00 -.498E+01   0.801E-14 0.883E-13 0.372E-02
   -.700E-14 -.246E-12 0.223E+04   0.579E-14 -.651E-14 -.223E+04   -.212E-21 0.000E+00 0.210E-02   -.291E-14 0.662E-13 0.296E-03
   -.266E-14 -.574E-13 0.124E+04   0.596E-14 -.324E-14 -.124E+04   0.000E+00 0.000E+00 0.136E+00   -.122E-14 0.328E-13 -.567E-04
   -.903E-14 -.105E-12 0.247E+03   0.185E-13 0.417E-14 -.247E+03   0.000E+00 0.000E+00 0.143E+00   -.318E-14 0.145E-13 -.456E-03
   -.487E-14 -.271E-13 -.743E+03   0.117E-13 -.211E-14 0.742E+03   -.847E-21 0.000E+00 0.140E+00   -.260E-15 0.874E-14 -.702E-03
   -.605E-14 0.121E-12 -.173E+04   0.673E-14 0.262E-13 0.173E+04   0.847E-21 0.000E+00 0.930E-01   0.752E-14 -.296E-13 -.135E-02
   -.157E-14 -.502E-13 -.272E+04   0.104E-13 -.445E-14 0.272E+04   0.000E+00 0.318E-21 -.799E+00   0.124E-13 -.544E-13 -.100E-02
   0.773E-14 -.308E-13 0.109E+04   0.149E-14 0.331E-14 -.109E+04   -.212E-21 0.000E+00 -.334E+00   0.475E-14 -.194E-13 0.636E-03
   0.289E-14 0.344E-13 0.693E+03   0.187E-13 0.666E-14 -.693E+03   0.000E+00 0.000E+00 -.775E-01   0.154E-14 -.113E-13 -.286E-05
   0.564E-14 -.101E-12 0.297E+03   0.149E-15 0.303E-14 -.297E+03   0.000E+00 0.000E+00 -.793E-01   -.947E-16 -.210E-14 -.157E-03
   0.301E-14 0.456E-14 -.992E+02   -.147E-14 0.145E-14 0.990E+02   0.265E-22 0.000E+00 -.793E-01   -.321E-14 -.630E-15 -.240E-03
   0.683E-14 0.468E-13 -.495E+03   0.199E-15 0.252E-14 0.495E+03   0.000E+00 0.132E-22 -.740E-01   -.201E-14 0.314E-14 -.463E-03
   -.290E-14 -.254E-12 -.891E+03   -.113E-14 0.229E-14 0.891E+03   0.000E+00 0.000E+00 -.929E-03   -.397E-14 0.130E-13 -.305E-03
   -.170E-14 -.137E-12 -.129E+04   0.158E-14 0.391E-14 0.129E+04   0.000E+00 0.116E-22 0.134E+01   -.348E-14 0.214E-13 0.106E-02
 -----------------------------------------------------------------------------------------------
   0.219E-11 0.896E-12 -.477E+01   -.321E-13 0.243E-13 0.114E-11   -.356E-21 0.362E-21 0.477E+01   0.182E-12 0.197E-12 0.382E-02
 
 
 POSITION                                       TOTAL-FORCE (eV/Angst)
 -----------------------------------------------------------------------------------
      1.97342      1.97342      6.00000         0.000000      0.000000     -0.696481
      1.97342      0.00000      7.97342         0.000000     -0.000000     -0.016449
      0.00000      1.97342      7.97342         0.000000      0.000000     -0.016449
      1.97342      1.97342      9.94685         0.000000      0.000000      0.340602
      1.97342      0.00000     11.92027         0.000000      0.000000      0.061519
      0.00000      1.97342     11.92027         0.000000      0.000000      0.061519
      1.97342      1.97342     13.89369         0.000000      0.000000      0.216582
      1.97342      0.00000     15.86712         0.000000     -0.000000      0.068232
      0.00000      1.97342     15.86712        -0.000000      0.000000      0.068232
      1.97342      1.97342     17.84054         0.000000      0.000000      0.209694
      1.97342      0.00000     19.81396         0.000000      0.000000      0.068313
      0.00000      1.97342     19.81396         0.000000      0.000000      0.068313
      1.97342      1.97342     21.78739         0.000000     -0.000000      0.212968
      1.97342      0.00000     23.76081         0.000000      0.000000      0.064127
      0.00000      1.97342     23.76081         0.000000     -0.000000      0.064127
      1.97342      1.97342     25.73423         0.000000      0.000000      0.264217
      1.97342      0.00000     27.70765         0.000000      0.000000      0.014615
      0.00000      1.97342     27.70765         0.000000      0.000000      0.014615
      1.97342      1.97342     29.68108        -0.000000      0.000000      0.974096
      1.97342      0.00000     31.65450        -0.000000      0.000000      0.371781
      0.00000      1.97342     31.65450         0.000000     -0.000000      0.371781
      0.00000      0.00000      6.00000         0.000000     -0.000000      1.362120
      0.00000      0.00000      9.94685         0.000000     -0.000000      0.002981
      0.00000      0.00000     13.89369         0.000000      0.000000     -0.080056
      0.00000      0.00000     17.84054         0.000000      0.000000     -0.084496
      0.00000      0.00000     21.78739         0.000000      0.000000     -0.082730
      0.00000      0.00000     25.73423         0.000000      0.000000     -0.051785
      0.00000      0.00000     29.68108         0.000000      0.000000      0.645594
      1.97342      1.97342      7.97342         0.000000      0.000000     -0.953420
      1.97342      1.97342     11.92027         0.000000      0.000000     -0.268698
      1.97342      1.97342     15.86712         0.000000      0.000000     -0.261261
      1.97342      1.97342     19.81396         0.000000      0.000000     -0.261688
      1.97342      1.97342     23.76081         0.000000     -0.000000     -0.264965
      1.97342      1.97342     27.70765         0.000000     -0.000000     -0.330848
      1.97342      1.97342     31.65450         0.000000     -0.000000     -2.156700
 -----------------------------------------------------------------------------------
    total drift:                                0.000000      0.000000      0.002130


--------------------------------------------------------------------------------------------------------



  FREE ENERGIE OF THE ION-ELECTRON SYSTEM (eV)
  ---------------------------------------------------
  free  energy   TOTEN  =      -275.85567719 eV

  energy  without entropy=     -275.85567719  energy(sigma->0) =     -275.85567719
 


--------------------------------------------------------------------------------------------------------


    POTLOK:  cpu time    0.1650: real time    0.1650


--------------------------------------------------------------------------------------------------------


     LOOP+:  cpu time  523.8184: real time  523.9453
    4ORBIT:  cpu time    0.0000: real time    0.0000
 BZINTS: Fermi energy:  1.181373;224.000000 electrons
         Band energy:***********;  BLOECHL correction:  0.000000

 total amount of memory used by VASP MPI-rank0   177082. kBytes
=======================================================================

   base      :      30000. kBytes
   nonl-proj :      36502. kBytes
   fftplans  :       9989. kBytes
   grid      :      17961. kBytes
   one-center:        279. kBytes
   wavefun   :      82351. kBytes
 
  
  
 General timing and accounting informations for this job:
 ========================================================
  
                  Total CPU time used (sec):      529.037
                            User time (sec):      523.736
                          System time (sec):        5.300
                         Elapsed time (sec):      530.112
  
                   Maximum memory used (kb):      197600.
                   Average memory used (kb):           0.
  
                          Minor page faults:        55653
                          Major page faults:          194
                 Voluntary context switches:         3817
