unknown system                          
           1
     3.946846    0.000000    0.000000
     0.000000    3.946846    0.000000
     0.000000    0.000000   37.654501
   O    Sr   Ti
  21   7   7
Direct configuration=     1
   0.50000000  0.50000000  0.15934350
   0.50000000  0.00000000  0.21175219
   0.00000000  0.50000000  0.21175219
   0.50000000  0.50000000  0.26416088
   0.50000000  0.00000000  0.31656958
   0.00000000  0.50000000  0.31656958
   0.50000000  0.50000000  0.36897827
   0.50000000  0.00000000  0.42138696
   0.00000000  0.50000000  0.42138696
   0.50000000  0.50000000  0.47379565
   0.50000000  0.00000000  0.52620435
   0.00000000  0.50000000  0.52620435
   0.50000000  0.50000000  0.57861304
   0.50000000  0.00000000  0.63102173
   0.00000000  0.50000000  0.63102173
   0.50000000  0.50000000  0.68343042
   0.50000000  0.00000000  0.73583912
   0.00000000  0.50000000  0.73583912
   0.50000000  0.50000000  0.78824781
   0.50000000  0.00000000  0.84065650
   0.00000000  0.50000000  0.84065650
   0.00000000  0.00000000  0.15934350
   0.00000000  0.00000000  0.26416088
   0.00000000  0.00000000  0.36897827
   0.00000000  0.00000000  0.47379565
   0.00000000  0.00000000  0.57861304
   0.00000000  0.00000000  0.68343042
   0.00000000  0.00000000  0.78824781
   0.50000000  0.50000000  0.21175219
   0.50000000  0.50000000  0.31656958
   0.50000000  0.50000000  0.42138696
   0.50000000  0.50000000  0.52620435
   0.50000000  0.50000000  0.63102173
   0.50000000  0.50000000  0.73583912
   0.50000000  0.50000000  0.84065650
