unknown system                          
   1.00000000000000     
     2.573869    0.000000    0.000000
     1.286934    2.229036    0.000000
     0.000000    0.000000   30.304665
   Cu   H 
     4     1
Direct
  0.000000  0.000000  0.395979
  0.333333  0.333333  0.465326
  0.666667  0.666667  0.534674
  0.000000  0.000000  0.604021
  0.000000  0.000000  0.663418
 
   20   20  240
 -.60293E-02 -.60607E-02 -.46793E-02 -.24997E-02 -.51744E-03 0.10000E-02 0.18306E-02 0.11885E-02 -.10050E-02 -.32081E-02
 -.37885E-02 -.27302E-02 -.10051E-02 0.71680E-03 0.18284E-02 0.14437E-02 -.51758E-03 -.27859E-02 -.42688E-02 -.52166E-02
 -.60607E-02 -.51561E-02 -.27956E-02 -.59974E-03 0.56246E-03 0.93814E-03 0.22457E-03 -.21810E-02 -.51962E-02 -.65399E-02
 -.55067E-02 -.34371E-02 -.14706E-02 0.20870E-03 0.10301E-02 0.16540E-03 -.18269E-02 -.34448E-02 -.43855E-02 -.53788E-02
 -.46793E-02 -.27956E-02 -.58503E-03 0.19779E-03 -.38998E-03 -.19328E-02 -.51094E-02 -.97669E-02 -.13447E-01 -.13933E-01
 -.11790E-01 -.87512E-02 -.53760E-02 -.20158E-02 -.12173E-03 -.52006E-03 -.19242E-02 -.29087E-02 -.37483E-02 -.47451E-02
 -.24997E-02 -.59974E-03 0.19779E-03 -.96158E-03 -.34892E-02 -.77536E-02 -.14511E-01 -.21911E-01 -.26169E-01 -.25629E-01
 -.21659E-01 -.15774E-01 -.88088E-02 -.27159E-02 0.11546E-03 -.16672E-03 -.12185E-02 -.18960E-02 -.27396E-02 -.33735E-02
 -.51744E-03 0.56246E-03 -.38998E-03 -.34892E-02 -.87838E-02 -.17433E-01 -.28739E-01 -.38271E-01 -.41575E-01 -.38152E-01
 -.30128E-01 -.19507E-01 -.87850E-02 -.15198E-02 0.68404E-03 0.69651E-04 -.52240E-03 -.87839E-03 -.16163E-02 -.17550E-02
 0.10000E-02 0.93814E-03 -.19328E-02 -.77536E-02 -.17433E-01 -.31342E-01 -.45779E-01 -.54376E-01 -.53774E-01 -.45468E-01
 -.32597E-01 -.18277E-01 -.65225E-02 -.59703E-03 0.36292E-03 0.65027E-04 0.24430E-03 -.22074E-04 -.71636E-03 -.31622E-03
 0.18306E-02 0.22457E-03 -.51094E-02 -.14511E-01 -.28739E-01 -.45779E-01 -.59276E-01 -.63328E-01 -.57404E-01 -.44841E-01
 -.29220E-01 -.14321E-01 -.43105E-02 -.53901E-03 -.42813E-04 0.34975E-03 0.54690E-03 -.26904E-03 -.67419E-03 0.61625E-03
 0.11885E-02 -.21810E-02 -.97669E-02 -.21911E-01 -.38271E-01 -.54376E-01 -.63328E-01 -.61926E-01 -.52323E-01 -.38128E-01
 -.22482E-01 -.93771E-02 -.22619E-02 -.50424E-03 -.56804E-03 -.81808E-03 -.19177E-02 -.30720E-02 -.21097E-02 0.45328E-03
 -.10050E-02 -.51962E-02 -.13447E-01 -.26169E-01 -.41575E-01 -.53774E-01 -.57404E-01 -.52323E-01 -.41576E-01 -.27734E-01
 -.13766E-01 -.40832E-02 -.99920E-03 -.22243E-02 -.44283E-02 -.68120E-02 -.89778E-02 -.87027E-02 -.50808E-02 -.12421E-02
 -.32081E-02 -.65399E-02 -.13933E-01 -.25629E-01 -.38152E-01 -.45468E-01 -.44841E-01 -.38128E-01 -.27734E-01 -.15503E-01
 -.52443E-02 -.13621E-02 -.40498E-02 -.94327E-02 -.14531E-01 -.18472E-01 -.19515E-01 -.15713E-01 -.88933E-02 -.38543E-02
 -.37885E-02 -.55067E-02 -.11790E-01 -.21659E-01 -.30128E-01 -.32597E-01 -.29220E-01 -.22482E-01 -.13766E-01 -.52443E-02
 -.14974E-02 -.52699E-02 -.13889E-01 -.22724E-01 -.29502E-01 -.32850E-01 -.30413E-01 -.22087E-01 -.12324E-01 -.58985E-02
 -.27302E-02 -.34371E-02 -.87512E-02 -.15774E-01 -.19507E-01 -.18277E-01 -.14321E-01 -.93771E-02 -.40832E-02 -.13621E-02
 -.52699E-02 -.15684E-01 -.28049E-01 -.38472E-01 -.45221E-01 -.45963E-01 -.38710E-01 -.26052E-01 -.14034E-01 -.62797E-02
 -.10051E-02 -.14706E-02 -.53760E-02 -.88088E-02 -.87850E-02 -.65225E-02 -.43105E-02 -.22619E-02 -.99920E-03 -.40498E-02
 -.13889E-01 -.28049E-01 -.41936E-01 -.52701E-01 -.57919E-01 -.54362E-01 -.41935E-01 -.26123E-01 -.13160E-01 -.49658E-02
 0.71680E-03 0.20870E-03 -.20158E-02 -.27159E-02 -.15198E-02 -.59703E-03 -.53901E-03 -.50424E-03 -.22243E-02 -.94327E-02
 -.22724E-01 -.38472E-01 -.52701E-01 -.62414E-01 -.63915E-01 -.54817E-01 -.38381E-01 -.21868E-01 -.99151E-02 -.26065E-02
 0.18284E-02 0.10301E-02 -.12173E-03 0.11546E-03 0.68404E-03 0.36292E-03 -.42813E-04 -.56804E-03 -.44283E-02 -.14531E-01
 -.29502E-01 -.45221E-01 -.57919E-01 -.63915E-01 -.59784E-01 -.46126E-01 -.29025E-01 -.14914E-01 -.56331E-02 -.17672E-03
 0.14437E-02 0.16540E-03 -.52006E-03 -.16672E-03 0.69651E-04 0.65027E-04 0.34975E-03 -.81808E-03 -.68120E-02 -.18472E-01
 -.32850E-01 -.45963E-01 -.54362E-01 -.54817E-01 -.46126E-01 -.31779E-01 -.17918E-01 -.80816E-02 -.19988E-02 0.11421E-02
 -.51758E-03 -.18269E-02 -.19242E-02 -.12185E-02 -.52240E-03 0.24430E-03 0.54690E-03 -.19177E-02 -.89778E-02 -.19515E-01
 -.30413E-01 -.38710E-01 -.41935E-01 -.38381E-01 -.29025E-01 -.17918E-01 -.89764E-02 -.32464E-02 -.11908E-03 0.62622E-03
 -.27859E-02 -.34448E-02 -.29087E-02 -.18960E-02 -.87839E-03 -.22074E-04 -.26904E-03 -.30720E-02 -.87027E-02 -.15713E-01
 -.22087E-01 -.26052E-01 -.26123E-01 -.21868E-01 -.14914E-01 -.80816E-02 -.32464E-02 -.69001E-03 -.15583E-03 -.12309E-02
 -.42688E-02 -.43855E-02 -.37483E-02 -.27396E-02 -.16163E-02 -.71636E-03 -.67419E-03 -.21097E-02 -.50808E-02 -.88933E-02
 -.12324E-01 -.14034E-01 -.13160E-01 -.99151E-02 -.56331E-02 -.19988E-02 -.11908E-03 -.15583E-03 -.15085E-02 -.31844E-02
 -.52166E-02 -.53788E-02 -.47451E-02 -.33735E-02 -.17550E-02 -.31622E-03 0.61625E-03 0.45328E-03 -.12421E-02 -.38543E-02
 -.58985E-02 -.62797E-02 -.49658E-02 -.26065E-02 -.17672E-03 0.11421E-02 0.62622E-03 -.12309E-02 -.31844E-02 -.44973E-02
 0.15248E-02 0.12586E-02 0.91147E-03 0.68537E-03 0.66191E-03 0.83693E-03 0.99172E-03 0.76476E-03 0.10220E-03 -.55037E-03
 -.72196E-03 -.40277E-03 0.10289E-03 0.55826E-03 0.83080E-03 0.82647E-03 0.66022E-03 0.67721E-03 0.10372E-02 0.14468E-02
 0.12586E-02 0.10546E-02 0.12117E-02 0.12512E-02 0.96737E-03 0.61764E-03 0.17584E-03 -.58301E-03 -.12590E-02 -.11299E-02
 -.32343E-03 0.28874E-03 0.37355E-03 0.35577E-03 0.42315E-03 0.35634E-03 0.32284E-03 0.76272E-03 0.14364E-02 0.16129E-02
 0.91147E-03 0.12117E-02 0.14988E-02 0.94131E-03 0.31000E-04 -.46679E-03 -.79981E-03 -.12796E-02 -.12968E-02 -.52916E-03
 0.74946E-04 -.23164E-03 -.70288E-03 -.45477E-03 0.95829E-04 0.31209E-03 0.58702E-03 0.12866E-02 0.16996E-02 0.13095E-02
 0.68537E-03 0.12512E-02 0.94131E-03 -.24696E-03 -.88752E-03 -.69833E-03 -.77903E-03 -.12907E-02 -.12993E-02 -.92526E-03
 -.12229E-02 -.18932E-02 -.15285E-02 -.18381E-03 0.65508E-03 0.66707E-03 0.89765E-03 0.14279E-02 0.12801E-02 0.63431E-03
 0.66191E-03 0.96737E-03 0.31000E-04 -.88752E-03 -.60685E-03 -.29031E-03 -.12161E-02 -.23992E-02 -.25727E-02 -.24149E-02
 -.26850E-02 -.23236E-02 -.60854E-03 0.91984E-03 0.88133E-03 0.35118E-03 0.65781E-03 0.10288E-02 0.52417E-03 0.11534E-03
 0.83693E-03 0.61764E-03 -.46679E-03 -.69833E-03 -.29031E-03 -.11746E-02 -.32057E-02 -.41472E-02 -.35035E-02 -.28696E-02
 -.25133E-02 -.12045E-02 0.56746E-03 0.85854E-03 -.14562E-03 -.32500E-03 0.56155E-03 0.74241E-03 0.49079E-04 0.90443E-04
 0.99172E-03 0.17584E-03 -.79981E-03 -.77903E-03 -.12161E-02 -.32057E-02 -.47959E-02 -.41547E-02 -.26839E-02 -.22058E-02
 -.18576E-02 -.56285E-03 0.30265E-03 -.38970E-03 -.96100E-03 0.63221E-04 0.11286E-02 0.62656E-03 -.10881E-03 0.43194E-03
 0.76476E-03 -.58301E-03 -.12796E-02 -.12907E-02 -.23992E-02 -.41472E-02 -.41547E-02 -.25524E-02 -.18511E-02 -.23756E-02
 -.20554E-02 -.72421E-03 -.31863E-03 -.79485E-03 -.16886E-03 0.13275E-02 0.14219E-02 0.17630E-03 -.67260E-04 0.85575E-03
 0.10220E-03 -.12590E-02 -.12968E-02 -.12993E-02 -.25727E-02 -.35035E-02 -.26839E-02 -.18511E-02 -.25735E-02 -.31190E-02
 -.17586E-02 -.80989E-04 0.10647E-03 0.52669E-04 0.11312E-02 0.18136E-02 0.74726E-03 -.27110E-03 0.41576E-03 0.11352E-02
 -.55037E-03 -.11299E-02 -.52916E-03 -.92526E-03 -.24149E-02 -.28696E-02 -.22058E-02 -.23756E-02 -.31190E-02 -.21968E-02
 0.10333E-03 0.11296E-02 0.56995E-03 0.61973E-03 0.15055E-02 0.12941E-02 0.13677E-03 0.19760E-03 0.12921E-02 0.10446E-02
 -.72196E-03 -.32343E-03 0.74946E-04 -.12229E-02 -.26850E-02 -.25133E-02 -.18576E-02 -.20554E-02 -.17586E-02 0.10333E-03
 0.15707E-02 0.98525E-03 0.83016E-04 0.73090E-03 0.16069E-02 0.11346E-02 0.61581E-03 0.13607E-02 0.17905E-02 0.51891E-03
 -.40277E-03 0.28874E-03 -.23164E-03 -.18932E-02 -.23236E-02 -.12045E-02 -.56285E-03 -.72421E-03 -.80989E-04 0.11296E-02
 0.98525E-03 -.14562E-03 0.88768E-04 0.16848E-02 0.23029E-02 0.15998E-02 0.14650E-02 0.19967E-02 0.14036E-02 -.88472E-04
 0.10289E-03 0.37355E-03 -.70288E-03 -.15285E-02 -.60854E-03 0.56746E-03 0.30265E-03 -.31863E-03 0.10647E-03 0.56995E-03
 0.83016E-04 0.88768E-04 0.16804E-02 0.30773E-02 0.26130E-02 0.16179E-02 0.16822E-02 0.17602E-02 0.67064E-03 -.27813E-03
 0.55826E-03 0.35577E-03 -.45477E-03 -.18381E-03 0.91984E-03 0.85854E-03 -.38970E-03 -.79485E-03 0.52669E-04 0.61973E-03
 0.73090E-03 0.16848E-02 0.30773E-02 0.30399E-02 0.17380E-02 0.12049E-02 0.16594E-02 0.13958E-02 0.30328E-03 0.14352E-04
 0.83080E-03 0.42315E-03 0.95829E-04 0.65508E-03 0.88133E-03 -.14562E-03 -.96100E-03 -.16886E-03 0.11312E-02 0.15055E-02
 0.16069E-02 0.23029E-02 0.26130E-02 0.17380E-02 0.98660E-03 0.14598E-02 0.19236E-02 0.11478E-02 0.22636E-03 0.41682E-03
 0.82647E-03 0.35634E-03 0.31209E-03 0.66707E-03 0.35118E-03 -.32500E-03 0.63221E-04 0.13275E-02 0.18136E-02 0.12941E-02
 0.11346E-02 0.15998E-02 0.16179E-02 0.12049E-02 0.14598E-02 0.21199E-02 0.17752E-02 0.57803E-03 0.13675E-03 0.66805E-03
 0.66022E-03 0.32284E-03 0.58702E-03 0.89765E-03 0.65781E-03 0.56155E-03 0.11286E-02 0.14219E-02 0.74726E-03 0.13677E-03
 0.61581E-03 0.14650E-02 0.16822E-02 0.16594E-02 0.19236E-02 0.17752E-02 0.75029E-03 -.65997E-04 0.24091E-03 0.81945E-03
 0.67721E-03 0.76272E-03 0.12866E-02 0.14279E-02 0.10288E-02 0.74241E-03 0.62656E-03 0.17630E-03 -.27110E-03 0.19760E-03
 0.13607E-02 0.19967E-02 0.17602E-02 0.13958E-02 0.11478E-02 0.57803E-03 -.65997E-04 0.30143E-04 0.69780E-03 0.94103E-03
 0.10372E-02 0.14364E-02 0.16996E-02 0.12801E-02 0.52417E-03 0.49079E-04 -.10881E-03 -.67260E-04 0.41576E-03 0.12921E-02
 0.17905E-02 0.14036E-02 0.67064E-03 0.30328E-03 0.22636E-03 0.13675E-03 0.24091E-03 0.69780E-03 0.10607E-02 0.10250E-02
 0.14468E-02 0.16129E-02 0.13095E-02 0.63431E-03 0.11534E-03 0.90443E-04 0.43194E-03 0.85575E-03 0.11352E-02 0.10446E-02
 0.51891E-03 -.88472E-04 -.27813E-03 0.14352E-04 0.41682E-03 0.66805E-03 0.81945E-03 0.94103E-03 0.10250E-02 0.11678E-02
 0.62291E-02 0.58978E-02 0.42692E-02 0.22107E-02 0.72781E-03 -.86209E-05 -.22639E-03 0.16487E-03 0.11662E-02 0.21425E-02
 0.24065E-02 0.19604E-02 0.11666E-02 0.22050E-03 -.54882E-03 -.47376E-03 0.72564E-03 0.24819E-02 0.41112E-02 0.54308E-02
 0.58978E-02 0.48474E-02 0.32490E-02 0.16608E-02 0.46500E-03 -.97619E-04 0.21684E-03 0.15402E-02 0.35435E-02 0.53350E-02
 0.59157E-02 0.48814E-02 0.27434E-02 0.59268E-03 -.57787E-03 -.35985E-03 0.10298E-02 0.29987E-02 0.48402E-02 0.59248E-02
 0.42692E-02 0.32490E-02 0.20060E-02 0.60680E-03 -.21898E-04 0.12291E-02 0.44901E-02 0.88755E-02 0.13011E-01 0.15212E-01
 0.14100E-01 0.99576E-02 0.49509E-02 0.13375E-02 -.15802E-03 0.66685E-04 0.15194E-02 0.35099E-02 0.49140E-02 0.50372E-02
 0.22107E-02 0.16608E-02 0.60680E-03 -.46511E-04 0.20029E-02 0.76468E-02 0.15295E-01 0.22556E-01 0.27306E-01 0.27516E-01
 0.22441E-01 0.14328E-01 0.70408E-02 0.26390E-02 0.68205E-03 0.42152E-03 0.15713E-02 0.30941E-02 0.35381E-02 0.28787E-02
 0.72781E-03 0.46500E-03 -.21898E-04 0.20029E-02 0.89706E-02 0.19586E-01 0.30330E-01 0.38437E-01 0.41741E-01 0.38287E-01
 0.28780E-01 0.17590E-01 0.89688E-02 0.36496E-02 0.60243E-03 -.27751E-03 0.72718E-03 0.17477E-02 0.14538E-02 0.79181E-03
 -.86209E-05 -.97619E-04 0.12291E-02 0.76468E-02 0.19586E-01 0.33313E-01 0.45058E-01 0.52568E-01 0.53255E-01 0.45420E-01
 0.31888E-01 0.18598E-01 0.89492E-02 0.25456E-02 -.10516E-02 -.13997E-02 0.10148E-03 0.71031E-03 0.15667E-04 -.28255E-03
 -.22639E-03 0.21684E-03 0.44901E-02 0.15295E-01 0.30330E-01 0.45058E-01 0.56608E-01 0.62400E-01 0.58964E-01 0.46120E-01
 0.29525E-01 0.15536E-01 0.59006E-02 -.14769E-03 -.22605E-02 -.80441E-03 0.10624E-02 0.85884E-03 -.19144E-03 -.33105E-03
 0.16487E-03 0.15402E-02 0.88755E-02 0.22556E-01 0.38437E-01 0.52568E-01 0.62400E-01 0.64206E-01 0.55112E-01 0.38342E-01
 0.21596E-01 0.95983E-02 0.21529E-02 -.12622E-02 -.32746E-03 0.27226E-02 0.39249E-02 0.25866E-02 0.12235E-02 0.70222E-03
 0.11662E-02 0.35435E-02 0.13011E-01 0.27306E-01 0.41741E-01 0.53255E-01 0.58964E-01 0.55112E-01 0.41741E-01 0.25231E-01
 0.12407E-01 0.47874E-02 0.11667E-02 0.16941E-02 0.56792E-02 0.92008E-02 0.91526E-02 0.69180E-02 0.48995E-02 0.28801E-02
 0.21425E-02 0.53350E-02 0.15212E-01 0.27516E-01 0.38287E-01 0.45420E-01 0.46120E-01 0.38342E-01 0.25231E-01 0.13446E-01
 0.65076E-02 0.36565E-02 0.44574E-02 0.93628E-02 0.15813E-01 0.19097E-01 0.17825E-01 0.14377E-01 0.10170E-01 0.52144E-02
 0.24065E-02 0.59157E-02 0.14100E-01 0.22441E-01 0.28780E-01 0.31888E-01 0.29525E-01 0.21596E-01 0.12407E-01 0.65076E-02
 0.47032E-02 0.64508E-02 0.12526E-01 0.22034E-01 0.30125E-01 0.32368E-01 0.29054E-01 0.22656E-01 0.14376E-01 0.61456E-02
 0.19604E-02 0.48814E-02 0.99576E-02 0.14328E-01 0.17590E-01 0.18598E-01 0.15536E-01 0.95983E-02 0.47874E-02 0.36565E-02
 0.64508E-02 0.13784E-01 0.25836E-01 0.38806E-01 0.46418E-01 0.45753E-01 0.38603E-01 0.27653E-01 0.15231E-01 0.53123E-02
 0.11666E-02 0.27434E-02 0.49509E-02 0.70408E-02 0.89688E-02 0.89492E-02 0.59006E-02 0.21529E-02 0.11667E-02 0.44574E-02
 0.12526E-01 0.25836E-01 0.42101E-01 0.55075E-01 0.59151E-01 0.53819E-01 0.42103E-01 0.27252E-01 0.12972E-01 0.36801E-02
 0.22050E-03 0.59268E-03 0.13375E-02 0.26390E-02 0.36496E-02 0.25456E-02 -.14769E-03 -.12622E-02 0.16941E-02 0.93628E-02
 0.22034E-01 0.38806E-01 0.55075E-01 0.64288E-01 0.63187E-01 0.53448E-01 0.38664E-01 0.22509E-01 0.92149E-02 0.20006E-02
 -.54882E-03 -.57787E-03 -.15802E-03 0.68205E-03 0.60243E-03 -.10516E-02 -.22605E-02 -.32746E-03 0.56792E-02 0.15813E-01
 0.30125E-01 0.46418E-01 0.59151E-01 0.63187E-01 0.57765E-01 0.45636E-01 0.30281E-01 0.15480E-01 0.50747E-02 0.45144E-03
 -.47376E-03 -.35985E-03 0.66685E-04 0.42152E-03 -.27751E-03 -.13997E-02 -.80441E-03 0.27226E-02 0.92008E-02 0.19097E-01
 0.32368E-01 0.45753E-01 0.53819E-01 0.53448E-01 0.45636E-01 0.33264E-01 0.19502E-01 0.79983E-02 0.15232E-02 -.38582E-03
 0.72564E-03 0.10298E-02 0.15194E-02 0.15713E-02 0.72718E-03 0.10148E-03 0.10624E-02 0.39249E-02 0.91526E-02 0.17825E-01
 0.29054E-01 0.38603E-01 0.42103E-01 0.38664E-01 0.30281E-01 0.19502E-01 0.91561E-02 0.22796E-02 -.45858E-04 0.23412E-03
 0.24819E-02 0.29987E-02 0.35099E-02 0.30941E-02 0.17477E-02 0.71031E-03 0.85884E-03 0.25866E-02 0.69180E-02 0.14377E-01
 0.22656E-01 0.27653E-01 0.27252E-01 0.22509E-01 0.15480E-01 0.79983E-02 0.22796E-02 0.87050E-04 0.75111E-03 0.19210E-02
 0.41112E-02 0.48402E-02 0.49140E-02 0.35381E-02 0.14538E-02 0.15667E-04 -.19144E-03 0.12235E-02 0.48995E-02 0.10170E-01
 0.14376E-01 0.15231E-01 0.12972E-01 0.92149E-02 0.50747E-02 0.15232E-02 -.45858E-04 0.75111E-03 0.24168E-02 0.34728E-02
 0.54308E-02 0.59248E-02 0.50372E-02 0.28787E-02 0.79181E-03 -.28255E-03 -.33105E-03 0.70222E-03 0.28801E-02 0.52144E-02
 0.61456E-02 0.53123E-02 0.36801E-02 0.20006E-02 0.45144E-03 -.38582E-03 0.23412E-03 0.19210E-02 0.34728E-02 0.45072E-02
 -.14729E-02 -.89483E-03 -.11250E-02 -.13070E-02 -.49288E-03 0.56732E-03 0.74073E-03 0.31932E-03 0.87336E-04 -.12873E-03
 -.59267E-03 -.64025E-03 0.86999E-04 0.63533E-03 0.25509E-03 -.35283E-03 -.49460E-03 -.75535E-03 -.15662E-02 -.20171E-02
 -.89483E-03 -.94511E-03 -.10815E-02 -.60796E-03 0.24935E-03 0.51268E-03 0.79859E-05 -.39853E-03 -.19153E-03 0.25858E-03
 0.61393E-03 0.93690E-03 0.10502E-02 0.57735E-03 -.25515E-03 -.78949E-03 -.94054E-03 -.11325E-02 -.13413E-02 -.11954E-02
 -.11250E-02 -.10815E-02 -.69109E-03 -.28764E-03 -.17246E-03 -.25581E-03 -.13501E-03 0.49329E-03 0.14745E-02 0.22405E-02
 0.22824E-02 0.16104E-02 0.68947E-03 -.51484E-04 -.50960E-03 -.73830E-03 -.75221E-03 -.63469E-03 -.62369E-03 -.85743E-03
 -.13070E-02 -.60796E-03 -.28764E-03 -.53895E-03 -.38697E-03 0.61663E-03 0.18322E-02 0.27542E-02 0.33967E-02 0.34422E-02
 0.24560E-02 0.10136E-02 0.23620E-03 0.18303E-03 0.16619E-04 -.38468E-03 -.43382E-03 -.28241E-03 -.66257E-03 -.13360E-02
 -.49288E-03 0.24935E-03 -.17246E-03 -.38697E-03 0.10173E-02 0.29415E-02 0.37284E-02 0.37189E-02 0.38085E-02 0.34338E-02
 0.20964E-02 0.98448E-03 0.10174E-02 0.11002E-02 0.22484E-03 -.62131E-03 -.49023E-03 -.34759E-03 -.10117E-02 -.13469E-02
 0.56732E-03 0.51268E-03 -.25581E-03 0.61663E-03 0.29415E-02 0.40913E-02 0.35960E-02 0.35267E-02 0.42578E-02 0.39823E-02
 0.25770E-02 0.18797E-02 0.19559E-02 0.10521E-02 -.63305E-03 -.10540E-02 -.22615E-03 -.13798E-03 -.83434E-03 -.52325E-03
 0.74073E-03 0.79859E-05 -.13501E-03 0.18322E-02 0.37284E-02 0.35960E-02 0.32999E-02 0.47138E-02 0.59022E-02 0.47204E-02
 0.27561E-02 0.20962E-02 0.15837E-02 -.15484E-03 -.13746E-02 -.48840E-03 0.63027E-03 0.78619E-04 -.64057E-03 0.89216E-04
 0.31932E-03 -.39853E-03 0.49329E-03 0.27542E-02 0.37189E-02 0.35267E-02 0.47138E-02 0.67234E-02 0.63195E-02 0.35041E-02
 0.15974E-02 0.13834E-02 0.56325E-03 -.97460E-03 -.85192E-03 0.69475E-03 0.81912E-03 -.61269E-03 -.91014E-03 0.18187E-03
 0.87336E-04 -.19153E-03 0.14745E-02 0.33967E-02 0.38085E-02 0.42578E-02 0.59022E-02 0.63195E-02 0.38120E-02 0.10666E-02
 0.72856E-03 0.11188E-02 0.84027E-04 -.82645E-03 0.93357E-04 0.88681E-03 -.34257E-03 -.15944E-02 -.75050E-03 0.46355E-03
 -.12873E-03 0.25858E-03 0.22405E-02 0.34422E-02 0.34338E-02 0.39823E-02 0.47204E-02 0.35041E-02 0.10666E-02 0.37645E-03
 0.13707E-02 0.12193E-02 -.29187E-03 -.65352E-03 0.23080E-03 -.62001E-04 -.14488E-02 -.13315E-02 0.29059E-03 0.74816E-03
 -.59267E-03 0.61393E-03 0.22824E-02 0.24560E-02 0.20964E-02 0.25770E-02 0.27561E-02 0.15974E-02 0.72856E-03 0.13707E-02
 0.17077E-02 0.27047E-03 -.11182E-02 -.72212E-03 -.61651E-04 -.72248E-03 -.12129E-02 -.10683E-03 0.87472E-03 0.12629E-03
 -.64025E-03 0.93690E-03 0.16104E-02 0.10136E-02 0.98448E-03 0.18797E-02 0.20962E-02 0.13834E-02 0.11188E-02 0.12193E-02
 0.27047E-03 -.12521E-02 -.13876E-02 -.29661E-03 0.22681E-05 -.62428E-03 -.48202E-03 0.33595E-03 0.90436E-04 -.93275E-03
 0.86999E-04 0.10502E-02 0.68947E-03 0.23620E-03 0.10174E-02 0.19559E-02 0.15837E-02 0.56325E-03 0.84027E-04 -.29187E-03
 -.11182E-02 -.13876E-02 -.43857E-03 0.38534E-03 -.38613E-04 -.66855E-03 -.43755E-03 -.23045E-03 -.81357E-03 -.99736E-03
 0.63533E-03 0.57735E-03 -.51484E-04 0.18303E-03 0.11002E-02 0.10521E-02 -.15484E-03 -.97460E-03 -.82645E-03 -.65352E-03
 -.72212E-03 -.29661E-03 0.38534E-03 0.19397E-03 -.70507E-03 -.99469E-03 -.55389E-03 -.43670E-03 -.63080E-03 -.17410E-03
 0.25509E-03 -.25515E-03 -.50960E-03 0.16619E-04 0.22484E-03 -.63305E-03 -.13746E-02 -.85192E-03 0.93357E-04 0.23080E-03
 -.61651E-04 0.22681E-05 -.38613E-04 -.70507E-03 -.11813E-02 -.71591E-03 -.66468E-04 -.76352E-04 -.20861E-03 0.12029E-03
 -.35283E-03 -.78949E-03 -.73830E-03 -.38468E-03 -.62131E-03 -.10540E-02 -.48840E-03 0.69475E-03 0.88681E-03 -.62001E-04
 -.72248E-03 -.62428E-03 -.66855E-03 -.99469E-03 -.71591E-03 0.82482E-04 0.26273E-03 -.28301E-03 -.51174E-03 -.25506E-03
 -.49460E-03 -.94054E-03 -.75221E-03 -.43382E-03 -.49023E-03 -.22615E-03 0.63027E-03 0.81912E-03 -.34257E-03 -.14488E-02
 -.12129E-02 -.48202E-03 -.43755E-03 -.55389E-03 -.66468E-04 0.26273E-03 -.34116E-03 -.98343E-03 -.69758E-03 -.21819E-03
 -.75535E-03 -.11325E-02 -.63469E-03 -.28241E-03 -.34759E-03 -.13798E-03 0.78619E-04 -.61269E-03 -.15944E-02 -.13315E-02
 -.10683E-03 0.33595E-03 -.23045E-03 -.43670E-03 -.76352E-04 -.28301E-03 -.98343E-03 -.86880E-03 -.13727E-04 0.85479E-04
 -.15662E-02 -.13413E-02 -.62369E-03 -.66257E-03 -.10117E-02 -.83434E-03 -.64057E-03 -.91014E-03 -.75050E-03 0.29059E-03
 0.87472E-03 0.90436E-04 -.81357E-03 -.63080E-03 -.20861E-03 -.51174E-03 -.69758E-03 -.13727E-04 0.37506E-03 -.53908E-03
 -.20171E-02 -.11954E-02 -.85743E-03 -.13360E-02 -.13469E-02 -.52325E-03 0.89216E-04 0.18187E-03 0.46355E-03 0.74816E-03
 0.12629E-03 -.93275E-03 -.99736E-03 -.17410E-03 0.12029E-03 -.25506E-03 -.21819E-03 0.85479E-04 -.53908E-03 -.17757E-02
 -.60889E-02 -.47972E-02 -.41384E-02 -.30775E-02 -.54192E-03 0.18806E-02 0.21338E-02 0.65623E-03 -.10127E-02 -.25684E-02
 -.38159E-02 -.34099E-02 -.10131E-02 0.12345E-02 0.14861E-02 0.50536E-03 -.54306E-03 -.22451E-02 -.48638E-02 -.65763E-02
 -.47972E-02 -.41537E-02 -.33357E-02 -.13705E-02 0.98894E-03 0.15478E-02 -.31403E-03 -.29837E-02 -.50249E-02 -.61802E-02
 -.60505E-02 -.41062E-02 -.12895E-02 0.44766E-03 0.49023E-03 -.26454E-03 -.14031E-02 -.31861E-02 -.49399E-02 -.54262E-02
 -.41384E-02 -.33357E-02 -.17436E-02 -.63248E-04 0.15019E-03 -.20708E-02 -.60186E-02 -.10057E-01 -.12907E-01 -.13827E-01
 -.12381E-01 -.89053E-02 -.48303E-02 -.17724E-02 -.39081E-03 -.42501E-03 -.13773E-02 -.27013E-02 -.37806E-02 -.42594E-02
 -.30775E-02 -.13705E-02 -.63248E-04 -.53108E-03 -.32208E-02 -.81259E-02 -.14763E-01 -.21432E-01 -.25636E-01 -.25755E-01
 -.21914E-01 -.15432E-01 -.82792E-02 -.27176E-02 -.14968E-03 -.71036E-04 -.93124E-03 -.19118E-02 -.29940E-02 -.36809E-02
 -.54192E-03 0.98894E-03 0.15019E-03 -.32208E-02 -.88164E-02 -.17411E-01 -.28437E-01 -.37956E-01 -.41600E-01 -.38378E-01
 -.30150E-01 -.19328E-01 -.88133E-02 -.18929E-02 0.32203E-03 -.82337E-05 -.53780E-03 -.11887E-02 -.21984E-02 -.22278E-02
 0.18806E-02 0.15478E-02 -.20708E-02 -.81259E-02 -.17411E-01 -.31137E-01 -.45920E-01 -.54781E-01 -.54007E-01 -.45510E-01
 -.32738E-01 -.18546E-01 -.67507E-02 -.77244E-03 0.21163E-03 0.29166E-04 0.26850E-03 -.15240E-03 -.84821E-03 0.61528E-04
 0.21338E-02 -.31403E-03 -.60186E-02 -.14763E-01 -.28437E-01 -.45920E-01 -.59945E-01 -.63614E-01 -.57099E-01 -.44734E-01
 -.29573E-01 -.14476E-01 -.39953E-02 -.27739E-03 -.61439E-04 0.43597E-03 0.83918E-03 -.59933E-04 -.44829E-03 0.11166E-02
 0.65623E-03 -.29837E-02 -.10057E-01 -.21432E-01 -.37956E-01 -.54781E-01 -.63614E-01 -.61402E-01 -.51742E-01 -.38290E-01
 -.22784E-01 -.90010E-02 -.16752E-02 -.50391E-03 -.83995E-03 -.68363E-03 -.16103E-02 -.31357E-02 -.23956E-02 0.19542E-03
 -.10127E-02 -.50249E-02 -.12907E-01 -.25636E-01 -.41600E-01 -.54007E-01 -.57099E-01 -.51742E-01 -.41595E-01 -.28220E-01
 -.13794E-01 -.36481E-02 -.10179E-02 -.28289E-02 -.47547E-02 -.66099E-02 -.89989E-02 -.92878E-02 -.56629E-02 -.14375E-02
 -.25684E-02 -.61802E-02 -.13827E-01 -.25755E-01 -.38378E-01 -.45510E-01 -.44734E-01 -.38290E-01 -.28220E-01 -.15790E-01
 -.51296E-02 -.13861E-02 -.45387E-02 -.98565E-02 -.14411E-01 -.18233E-01 -.19733E-01 -.16097E-01 -.87759E-02 -.32175E-02
 -.38159E-02 -.60505E-02 -.12381E-01 -.21914E-01 -.30150E-01 -.32738E-01 -.29573E-01 -.22784E-01 -.13794E-01 -.51296E-02
 -.15135E-02 -.54256E-02 -.13918E-01 -.22484E-01 -.29200E-01 -.32751E-01 -.30430E-01 -.21874E-01 -.11781E-01 -.54076E-02
 -.34099E-02 -.41062E-02 -.89053E-02 -.15432E-01 -.19328E-01 -.18546E-01 -.14476E-01 -.90010E-02 -.36481E-02 -.13861E-02
 -.54256E-02 -.15440E-01 -.27611E-01 -.38361E-01 -.45376E-01 -.45965E-01 -.38530E-01 -.25980E-01 -.14200E-01 -.66934E-02
 -.10131E-02 -.12895E-02 -.48303E-02 -.82792E-02 -.88133E-02 -.67507E-02 -.39953E-02 -.16752E-02 -.10179E-02 -.45387E-02
 -.13918E-01 -.27611E-01 -.41956E-01 -.53317E-01 -.58262E-01 -.54170E-01 -.41958E-01 -.26712E-01 -.13756E-01 -.51751E-02
 0.12345E-02 0.44766E-03 -.17724E-02 -.27176E-02 -.18929E-02 -.77244E-03 -.27739E-03 -.50391E-03 -.28289E-02 -.98565E-02
 -.22484E-01 -.38361E-01 -.53317E-01 -.62971E-01 -.63669E-01 -.54452E-01 -.38735E-01 -.22388E-01 -.96643E-02 -.18313E-02
 0.14861E-02 0.49023E-03 -.39081E-03 -.14968E-03 0.32203E-03 0.21163E-03 -.61439E-04 -.83995E-03 -.47547E-02 -.14411E-01
 -.29200E-01 -.45376E-01 -.58262E-01 -.63669E-01 -.59163E-01 -.46031E-01 -.29363E-01 -.14691E-01 -.47535E-02 0.32648E-03
 0.50536E-03 -.26454E-03 -.42501E-03 -.71036E-04 -.82337E-05 0.29166E-04 0.43597E-03 -.68363E-03 -.66099E-02 -.18233E-01
 -.32751E-01 -.45965E-01 -.54170E-01 -.54452E-01 -.46031E-01 -.32034E-01 -.17985E-01 -.77470E-02 -.18980E-02 0.48447E-03
 -.54306E-03 -.14031E-02 -.13773E-02 -.93124E-03 -.53780E-03 0.26850E-03 0.83918E-03 -.16103E-02 -.89989E-02 -.19733E-01
 -.30430E-01 -.38530E-01 -.41958E-01 -.38735E-01 -.29363E-01 -.17985E-01 -.90011E-02 -.35730E-02 -.70850E-03 0.15440E-03
 -.22451E-02 -.31861E-02 -.27013E-02 -.19118E-02 -.11887E-02 -.15240E-03 -.59933E-04 -.31357E-02 -.92878E-02 -.16097E-01
 -.21874E-01 -.25980E-01 -.26712E-01 -.22388E-01 -.14691E-01 -.77470E-02 -.35730E-02 -.11841E-02 0.57460E-04 -.49323E-03
 -.48638E-02 -.49399E-02 -.37806E-02 -.29940E-02 -.21984E-02 -.84821E-03 -.44829E-03 -.23956E-02 -.56629E-02 -.87759E-02
 -.11781E-01 -.14200E-01 -.13756E-01 -.96643E-02 -.47535E-02 -.18980E-02 -.70850E-03 0.57460E-04 -.38715E-03 -.26819E-02
 -.65763E-02 -.54262E-02 -.42594E-02 -.36809E-02 -.22278E-02 0.61528E-04 0.11166E-02 0.19542E-03 -.14375E-02 -.32175E-02
 -.54076E-02 -.66934E-02 -.51751E-02 -.18313E-02 0.32648E-03 0.48447E-03 0.15440E-03 -.49323E-03 -.26819E-02 -.55670E-02
 0.17236E-02 0.27518E-02 0.16120E-02 0.20118E-03 0.70098E-03 0.17777E-02 0.13438E-02 0.23751E-03 0.30355E-04 -.38856E-04
 -.90367E-03 -.12110E-02 0.30639E-04 0.10805E-02 0.53548E-03 -.52719E-04 0.70024E-03 0.13143E-02 0.60118E-03 0.31421E-03
 0.27518E-02 0.22386E-02 0.78711E-03 0.55046E-03 0.14469E-02 0.12621E-02 -.38353E-03 -.15054E-02 -.13175E-02 -.10719E-02
 -.11680E-02 -.60803E-03 0.43572E-03 0.57155E-03 -.85498E-04 -.21340E-04 0.81871E-03 0.11372E-02 0.10605E-02 0.17931E-02
 0.16120E-02 0.78711E-03 0.41478E-03 0.72674E-03 0.57574E-03 -.70069E-03 -.19829E-02 -.20648E-02 -.14374E-02 -.11769E-02
 -.11962E-02 -.87869E-03 -.42945E-03 -.30798E-03 -.17141E-03 0.45178E-03 0.12089E-02 0.16105E-02 0.18273E-02 0.19742E-02
 0.20118E-03 0.55046E-03 0.72674E-03 0.17611E-03 -.76789E-03 -.14875E-02 -.18147E-02 -.19614E-02 -.21452E-02 -.24321E-02
 -.26301E-02 -.23347E-02 -.14133E-02 -.33285E-03 0.38159E-03 0.80843E-03 0.12566E-02 0.15089E-02 0.11409E-02 0.44052E-03
 0.70098E-03 0.14469E-02 0.57574E-03 -.76789E-03 -.11125E-02 -.12372E-02 -.24464E-02 -.40692E-02 -.47562E-02 -.46284E-02
 -.42424E-02 -.31138E-02 -.11079E-02 0.40095E-03 0.52572E-03 0.32643E-03 0.70517E-03 0.78609E-03 0.12443E-04 -.28926E-03
 0.17777E-02 0.12621E-02 -.70069E-03 -.14875E-02 -.12372E-02 -.26491E-02 -.57054E-02 -.73278E-02 -.65109E-02 -.52693E-02
 -.43349E-02 -.24440E-02 -.77280E-04 0.58900E-03 -.26185E-03 -.30326E-03 0.63134E-03 0.64724E-03 -.45919E-04 0.51746E-03
 0.13438E-02 -.38353E-03 -.19829E-02 -.18147E-02 -.24464E-02 -.57054E-02 -.84758E-02 -.76982E-02 -.53870E-02 -.44545E-02
 -.37428E-02 -.15036E-02 0.34202E-03 -.15089E-03 -.93251E-03 0.17874E-03 0.14143E-02 0.81266E-03 0.10971E-03 0.96179E-03
 0.23751E-03 -.15054E-02 -.20648E-02 -.19614E-02 -.40692E-02 -.73278E-02 -.76982E-02 -.52869E-02 -.40458E-02 -.45217E-02
 -.35062E-02 -.84285E-03 0.14733E-03 -.79099E-03 -.46321E-03 0.13628E-02 0.15720E-02 -.47375E-04 -.45696E-03 0.57394E-03
 0.30355E-04 -.13175E-02 -.14374E-02 -.21452E-02 -.47562E-02 -.65109E-02 -.53870E-02 -.40458E-02 -.47531E-02 -.49863E-02
 -.24672E-02 0.12697E-03 0.25373E-04 -.66857E-03 0.53284E-03 0.15987E-02 0.25081E-03 -.12751E-02 -.43973E-03 0.82248E-03
 -.38856E-04 -.10719E-02 -.11769E-02 -.24321E-02 -.46284E-02 -.52693E-02 -.44545E-02 -.45217E-02 -.49863E-02 -.32392E-02
 -.83542E-04 0.97951E-03 -.14132E-03 -.29326E-03 0.84306E-03 0.56428E-03 -.10480E-02 -.96747E-03 0.92222E-03 0.14587E-02
 -.90367E-03 -.11680E-02 -.11962E-02 -.26301E-02 -.42424E-02 -.43349E-02 -.37428E-02 -.35062E-02 -.24672E-02 -.83542E-04
 0.14002E-02 0.53350E-03 -.62046E-03 -.17658E-03 0.37466E-03 -.44785E-03 -.93446E-03 0.42740E-03 0.16611E-02 0.71501E-03
 -.12110E-02 -.60803E-03 -.87869E-03 -.23347E-02 -.31138E-02 -.24440E-02 -.15036E-02 -.84285E-03 0.12697E-03 0.97951E-03
 0.53350E-03 -.65094E-03 -.85395E-03 -.19432E-03 -.21722E-03 -.76901E-03 -.34651E-03 0.68929E-03 0.49012E-03 -.79911E-03
 0.30639E-04 0.43572E-03 -.42945E-03 -.14133E-02 -.11079E-02 -.77280E-04 0.34202E-03 0.14733E-03 0.25373E-04 -.14132E-03
 -.62046E-03 -.85395E-03 -.50606E-03 -.32426E-03 -.75197E-03 -.97832E-03 -.50838E-03 -.20954E-03 -.60172E-03 -.71301E-03
 0.10805E-02 0.57155E-03 -.30798E-03 -.33285E-03 0.40095E-03 0.58900E-03 -.15089E-03 -.79099E-03 -.66857E-03 -.29326E-03
 -.17658E-03 -.19432E-03 -.32426E-03 -.78852E-03 -.12892E-02 -.12191E-02 -.68569E-03 -.27128E-03 0.65220E-04 0.67323E-03
 0.53548E-03 -.85498E-04 -.17141E-03 0.38159E-03 0.52572E-03 -.26185E-03 -.93251E-03 -.46321E-03 0.53284E-03 0.84306E-03
 0.37466E-03 -.21722E-03 -.75197E-03 -.12892E-02 -.14156E-02 -.81103E-03 0.53602E-04 0.59056E-03 0.83590E-03 0.89943E-03
 -.52719E-04 -.21340E-04 0.45178E-03 0.80843E-03 0.32643E-03 -.30326E-03 0.17874E-03 0.13628E-02 0.15987E-02 0.56428E-03
 -.44785E-03 -.76901E-03 -.97832E-03 -.12191E-02 -.81103E-03 0.18532E-03 0.74039E-03 0.49405E-03 0.13751E-03 0.41500E-04
 0.70024E-03 0.81871E-03 0.12089E-02 0.12566E-02 0.70517E-03 0.63134E-03 0.14143E-02 0.15720E-02 0.25081E-03 -.10480E-02
 -.93446E-03 -.34651E-03 -.50838E-03 -.68569E-03 0.53602E-04 0.74039E-03 0.24631E-03 -.55448E-03 -.35546E-03 0.39670E-03
 0.13143E-02 0.11372E-02 0.16105E-02 0.15089E-02 0.78609E-03 0.64724E-03 0.81266E-03 -.47375E-04 -.12751E-02 -.96747E-03
 0.42740E-03 0.68929E-03 -.20954E-03 -.27128E-03 0.59056E-03 0.49405E-03 -.55448E-03 -.48884E-03 0.94663E-03 0.17473E-02
 0.60118E-03 0.10605E-02 0.18273E-02 0.11409E-02 0.12443E-04 -.45919E-04 0.10971E-03 -.45696E-03 -.43973E-03 0.92222E-03
 0.16611E-02 0.49012E-03 -.60172E-03 0.65220E-04 0.83590E-03 0.13751E-03 -.35546E-03 0.94663E-03 0.22515E-02 0.16420E-02
 0.31421E-03 0.17931E-02 0.19742E-02 0.44052E-03 -.28926E-03 0.51746E-03 0.96179E-03 0.57394E-03 0.82248E-03 0.14587E-02
 0.71501E-03 -.79911E-03 -.71301E-03 0.67323E-03 0.89943E-03 0.41500E-04 0.39670E-03 0.17473E-02 0.16420E-02 0.27685E-03
 0.62282E-02 0.72128E-02 0.48389E-02 0.16465E-02 0.71930E-03 0.89296E-03 0.91096E-04 -.36330E-03 0.11656E-02 0.28027E-02
 0.24061E-02 0.12996E-02 0.11663E-02 0.74386E-03 -.87863E-03 -.13932E-02 0.71930E-03 0.30410E-02 0.35427E-02 0.41161E-02
 0.72128E-02 0.58898E-02 0.27302E-02 0.90239E-03 0.90727E-03 0.53078E-03 -.30707E-03 0.74903E-03 0.37312E-02 0.57190E-02
 0.53978E-02 0.42329E-02 0.29383E-02 0.84215E-03 -.11060E-02 -.77466E-03 0.14721E-02 0.32803E-02 0.43187E-02 0.59238E-02