unknown system                          
   1.00000000000000     
     2.573869    0.000000    0.000000
     1.286934    2.229036    0.000000
     0.000000    0.000000   30.304665
   Cu   H 
     4     1
Direct
 -0.000000 -0.000000  0.398815
  0.333333  0.333333  0.467250
  0.666667  0.666667  0.536042
  0.000000 -0.000000  0.605684
  0.000000  0.000000  0.655627
 
   20   20  240
 -.27605911706E-01 -.26316881421E-01 -.20818672637E-01 -.13378038421E-01 -.68038911843E-02
 -.20800986998E-02 0.73102081993E-03 0.10789759477E-02 -.83648047077E-03 -.29649392622E-02
 -.33760252472E-02 -.22743422031E-02 -.83717856202E-03 0.42417211223E-03 0.79899398504E-03
 -.13736280574E-02 -.68038580025E-02 -.13827876060E-01 -.20224673994E-01 -.25064020936E-01
 -.26316881421E-01 -.22602290634E-01 -.15446892616E-01 -.83434052258E-02 -.34464543177E-02
 -.71884707897E-03 -.28524097457E-03 -.25534972420E-02 -.59371303495E-02 -.74877437709E-02
 -.63146252733E-02 -.40513881347E-02 -.20064132745E-02 -.43460615603E-03 -.45421967813E-03
 -.37056353094E-02 -.97448224647E-02 -.16209607164E-01 -.21583965792E-01 -.25429625445E-01
 -.20818672637E-01 -.15446892616E-01 -.88852620681E-02 -.43376783368E-02 -.23886296315E-02
 -.26439610225E-02 -.56730833576E-02 -.10965752235E-01 -.15330021665E-01 -.15971638824E-01
 -.13499656659E-01 -.99742254193E-02 -.61607275482E-02 -.27669436358E-02 -.19707071083E-02
 -.50992922532E-02 -.10490996812E-01 -.15677770824E-01 -.19795934029E-01 -.22129536350E-01
 -.13378038421E-01 -.83434052263E-02 -.43376783370E-02 -.30869689437E-02 -.43435690848E-02
 -.85011701903E-02 -.16073487319E-01 -.24577520698E-01 -.29489866618E-01 -.28845631590E-01
 -.24210464326E-01 -.17428922247E-01 -.96829868343E-02 -.35024303365E-02 -.18914340410E-02
 -.47748592598E-02 -.91449833073E-02 -.12859616066E-01 -.15541340661E-01 -.16173324390E-01
 -.68038911846E-02 -.34464543181E-02 -.23886296318E-02 -.43435690849E-02 -.96270653539E-02
 -.19262291103E-01 -.32015093142E-01 -.42735087567E-01 -.46438667366E-01 -.42521959284E-01
 -.33357680163E-01 -.21374159139E-01 -.96294680686E-02 -.22712655584E-02 -.11953557803E-02
 -.38917532869E-02 -.68113319639E-02 -.89529092863E-02 -.10357809583E-01 -.98255436097E-02
 -.20800987001E-02 -.71884707945E-03 -.26439610230E-02 -.85011701904E-02 -.19262291104E-01
 -.34858155092E-01 -.50929593443E-01 -.60528226059E-01 -.59938046310E-01 -.50617929913E-01
 -.36077425559E-01 -.20087520235E-01 -.72965077973E-02 -.13030564031E-02 -.11943374196E-02
 -.28807071075E-02 -.40592283405E-02 -.51404183457E-02 -.58532414305E-02 -.46987007012E-02
 0.73102081937E-03 -.28524097512E-03 -.56730833581E-02 -.16073487319E-01 -.32015093142E-01
 -.50929593444E-01 -.65916363571E-01 -.70611354152E-01 -.64163584336E-01 -.50022100169E-01
 -.32420238264E-01 -.15906975929E-01 -.50414845068E-02 -.11577887607E-02 -.10965974721E-02
 -.13940348902E-02 -.17732810870E-02 -.27935964099E-02 -.30040928200E-02 -.11986256887E-02
 0.10789759472E-02 -.25534972426E-02 -.10965752236E-01 -.24577520698E-01 -.42735087568E-01
 -.60528226059E-01 -.70611354152E-01 -.69316094953E-01 -.58604824380E-01 -.42525006742E-01
 -.25037234834E-01 -.10656979961E-01 -.28183690965E-02 -.69270603022E-03 -.63227911912E-03
 -.88089706148E-03 -.19555926187E-02 -.30571930907E-02 -.21071458714E-02 0.39945791102E-03
 -.83648047147E-03 -.59371303501E-02 -.15330021665E-01 -.29489866619E-01 -.46438667366E-01
 -.59938046311E-01 -.64163584336E-01 -.58604824380E-01 -.46442637976E-01 -.30905285341E-01
 -.15554334405E-01 -.48475823330E-02 -.82849140915E-03 -.10860909500E-02 -.23824444251E-02
 -.40498465151E-02 -.58661174449E-02 -.58157646850E-02 -.29784509424E-02 -.14679295820E-03
 -.29649392632E-02 -.74877437718E-02 -.15971638824E-01 -.28845631591E-01 -.42521959284E-01
 -.50617929914E-01 -.50022100170E-01 -.42525006742E-01 -.30905285341E-01 -.17482414250E-01
 -.61560744081E-02 -.10258743167E-02 -.20266264062E-02 -.53965758619E-02 -.85844683550E-02
 -.11281374445E-01 -.12255730648E-01 -.96868963022E-02 -.49322965329E-02 -.19916720381E-02
 -.33760252481E-02 -.63146252740E-02 -.13499656659E-01 -.24210464327E-01 -.33357680163E-01
 -.36077425559E-01 -.32420238264E-01 -.25037234835E-01 -.15554334405E-01 -.61560744081E-02
 -.11056746222E-02 -.27484579601E-02 -.83460257482E-02 -.13784647663E-01 -.17789837832E-01
 -.20033101906E-01 -.18658476603E-01 -.13162082686E-01 -.68856168940E-02 -.34694518199E-02
 -.22743422038E-02 -.40513881354E-02 -.99742254199E-02 -.17428922248E-01 -.21374159139E-01
 -.20087520236E-01 -.15906975929E-01 -.10656979961E-01 -.48475823333E-02 -.10258743167E-02
 -.27484579600E-02 -.95717838261E-02 -.17255442893E-01 -.23093072068E-01 -.26985092031E-01
 -.27744175475E-01 -.23348585819E-01 -.15237004539E-01 -.78807394698E-02 -.36988823936E-02
 -.83717856264E-03 -.20064132749E-02 -.61607275487E-02 -.96829868344E-02 -.96294680687E-02
 -.72965077975E-02 -.50414845070E-02 -.28183690966E-02 -.82849140919E-03 -.20266264059E-02
 -.83460257479E-02 -.17255442893E-01 -.25134789134E-01 -.31063833496E-01 -.34481797593E-01
 -.32813970463E-01 -.25129132785E-01 -.15200560966E-01 -.75276867624E-02 -.29520708907E-02
 0.42417211168E-03 -.43460615644E-03 -.27669436359E-02 -.35024303367E-02 -.22712655587E-02
 -.13030564033E-02 -.11577887608E-02 -.69270603038E-03 -.10860909501E-02 -.53965758618E-02
 -.13784647663E-01 -.23093072067E-01 -.31063833496E-01 -.36964102916E-01 -.38549907314E-01
 -.33275055960E-01 -.22931827596E-01 -.12829701326E-01 -.59592980466E-02 -.16561238499E-02
 0.79899398456E-03 -.45421967852E-03 -.19707071086E-02 -.18914340413E-02 -.11953557806E-02
 -.11943374197E-02 -.10965974722E-02 -.63227911909E-03 -.23824444251E-02 -.85844683547E-02
 -.17789837831E-01 -.26985092030E-01 -.34481797592E-01 -.38549907314E-01 -.36441071921E-01
 -.27909423072E-01 -.17248067762E-01 -.89923953778E-02 -.37454449168E-02 -.35877441839E-03
 -.13736280575E-02 -.37056353096E-02 -.50992922535E-02 -.47748592597E-02 -.38917532868E-02
 -.28807071074E-02 -.13940348901E-02 -.88089706134E-03 -.40498465151E-02 -.11281374444E-01
 -.20033101906E-01 -.27744175475E-01 -.32813970462E-01 -.33275055960E-01 -.27909423072E-01
 -.18947492239E-01 -.10722200982E-01 -.53290494220E-02 -.20362742546E-02 -.50427940172E-03
 -.68038580030E-02 -.97448224649E-02 -.10490996812E-01 -.91449833074E-02 -.68113319640E-02
 -.40592283406E-02 -.17732810869E-02 -.19555926185E-02 -.58661174447E-02 -.12255730648E-01
 -.18658476602E-01 -.23348585818E-01 -.25129132784E-01 -.22931827596E-01 -.17248067762E-01
 -.10722200982E-01 -.58633641824E-02 -.31553245980E-02 -.23030837691E-02 -.36294140374E-02
 -.13827876059E-01 -.16209607163E-01 -.15677770824E-01 -.12859616066E-01 -.89529092862E-02
 -.51404183454E-02 -.27935964097E-02 -.30571930903E-02 -.58157646847E-02 -.96868963017E-02
 -.13162082685E-01 -.15237004538E-01 -.15200560966E-01 -.12829701326E-01 -.89923953774E-02
 -.53290494218E-02 -.31553245980E-02 -.30858614193E-02 -.53490296374E-02 -.94919628559E-02
 -.20224673995E-01 -.21583965793E-01 -.19795934029E-01 -.15541340661E-01 -.10357809583E-01
 -.58532414303E-02 -.30040928198E-02 -.21071458709E-02 -.29784509420E-02 -.49322965320E-02
 -.68856168933E-02 -.78807394690E-02 -.75276867618E-02 -.59592980460E-02 -.37454449164E-02
 -.20362742543E-02 -.23030837690E-02 -.53490296372E-02 -.10533692657E-01 -.16113154673E-01
 -.25064020936E-01 -.25429625445E-01 -.22129536350E-01 -.16173324390E-01 -.98255436093E-02
 -.46987007009E-02 -.11986256882E-02 0.39945791162E-03 -.14679295766E-03 -.19916720370E-02
 -.34694518190E-02 -.36988823926E-02 -.29520708902E-02 -.16561238494E-02 -.35877441785E-03
 -.50427940138E-03 -.36294140371E-02 -.94919628554E-02 -.16113154673E-01 -.21642272218E-01
 -.40681318814E-01 -.37816682005E-01 -.29370695792E-01 -.18607134536E-01 -.91282535134E-02
 -.27170301029E-02 0.55929543096E-03 0.12514869207E-02 0.36107390158E-03 -.65038066091E-03
 -.81148878100E-03 -.29147349980E-03 0.36096473135E-03 0.86309786855E-03 0.46999850930E-03
 -.24633002040E-02 -.91279402619E-02 -.18777426155E-01 -.29062851984E-01 -.37222374198E-01
 -.37816682005E-01 -.31987047845E-01 -.21933254130E-01 -.11879950619E-01 -.47230783885E-02
 -.81209341880E-03 0.46392909050E-03 -.18868166519E-03 -.13530919653E-02 -.14816644210E-02
 -.53704095033E-03 0.31781860995E-03 0.60306029357E-03 0.51045011565E-03 -.83415992019E-03
 -.51973337882E-02 -.12987212780E-01 -.22506742729E-01 -.31371173087E-01 -.37263458081E-01
 -.29370695791E-01 -.21933254129E-01 -.12922197902E-01 -.60826811799E-02 -.22780793400E-02
 -.60572854282E-03 -.59020708395E-03 -.16581916974E-02 -.22828509401E-02 -.16266616052E-02
 -.74036617902E-03 -.63600064804E-03 -.71332773398E-03 -.63197733505E-03 -.20647130796E-02
 -.67606283193E-02 -.14110305361E-01 -.21989517430E-01 -.28501480288E-01 -.31649582811E-01
 -.18607134536E-01 -.11879950619E-01 -.60826811799E-02 -.29017655774E-02 -.13614902907E-02
 -.80010851591E-03 -.16043257719E-02 -.30888941131E-02 -.36287932067E-02 -.31514588663E-02
 -.29073568359E-02 -.28085552031E-02 -.17525329148E-02 -.58718934622E-03 -.18813114114E-02
 -.64314908281E-02 -.12419537938E-01 -.17953638384E-01 -.21895420498E-01 -.22537533129E-01
 -.91282535138E-02 -.47230783890E-02 -.22780793402E-02 -.13614902907E-02 -.85888190489E-03
 -.14567431524E-02 -.37015454230E-02 -.59067357095E-02 -.64019327433E-02 -.58289026543E-02
 -.51230924746E-02 -.35262148956E-02 -.85953498218E-03 0.55168171251E-03 -.13030164337E-02
 -.52840899607E-02 -.91281420064E-02 -.12152162374E-01 -.13970422298E-01 -.13065165406E-01
 -.27170301032E-02 -.81209341924E-03 -.60572854321E-03 -.80010851597E-03 -.14567431525E-02
 -.39297149769E-02 -.74261379650E-02 -.92377360607E-02 -.86052960140E-02 -.70899359749E-02
 -.52340242942E-02 -.23555489073E-02 0.43682423532E-03 0.72673251554E-03 -.14665999894E-02
 -.37312119675E-02 -.50618457383E-02 -.63007528269E-02 -.70168419674E-02 -.56230533977E-02
 0.55929543038E-03 0.46392908996E-03 -.59020708444E-03 -.16043257721E-02 -.37015454232E-02
 -.74261379649E-02 -.10363039477E-01 -.10305559822E-01 -.83699529295E-02 -.64570181608E-02
 -.42696106472E-02 -.14185121645E-02 0.33795388150E-03 -.21211676594E-03 -.13418068384E-02
 -.13216333600E-02 -.11886908285E-02 -.20555538627E-02 -.24432847994E-02 -.10339599334E-02
 0.12514869200E-02 -.18868166583E-03 -.16581916979E-02 -.30888941134E-02 -.59067357098E-02
 -.92377360607E-02 -.10305559822E-01 -.88096260519E-02 -.70693532431E-02 -.58141460503E-02
 -.37441595777E-02 -.11900452484E-02 -.11598370715E-03 -.39277637785E-03 0.26720194555E-05
 0.10445437723E-02 0.83475052723E-03 -.35807394218E-03 -.28427641830E-03 0.10400850294E-02
 0.36107390081E-03 -.13530919660E-02 -.22828509406E-02 -.36287932069E-02 -.64019327436E-02
 -.86052960143E-02 -.83699529298E-02 -.70693532437E-02 -.64027336112E-02 -.52959111153E-02
 -.26488937297E-02 -.20041026922E-03 0.36239411490E-03 0.32809030417E-03 0.11291312913E-02
 0.15080429401E-02 0.38872768099E-03 -.44323757026E-03 0.48194081747E-03 0.13768639918E-02
 -.65038066194E-03 -.14816644220E-02 -.16266616057E-02 -.31514588667E-02 -.58289026546E-02
 -.70899359751E-02 -.64570181611E-02 -.58141460507E-02 -.52959111155E-02 -.32295374574E-02
 -.20690049967E-03 0.11256479314E-02 0.50732491543E-03 0.17844918290E-03 0.57389345692E-03
 0.84573973297E-04 -.99821901748E-03 -.64429233696E-03 0.78404951701E-03 0.82363819480E-03
 -.81148878192E-03 -.53704095095E-03 -.74036617928E-03 -.29073568361E-02 -.51230924748E-02
 -.52340242943E-02 -.42696106474E-02 -.37441595777E-02 -.26488937299E-02 -.20690049966E-03
 0.14678294558E-02 0.66580999236E-03 -.83199344558E-03 -.95876781583E-03 -.70970649809E-03
 -.13910992966E-02 -.16559440262E-02 -.34310385073E-03 0.76761005667E-03 0.10098685936E-03
 -.29147350049E-03 0.31781860926E-03 -.63600064859E-03 -.28085552034E-02 -.35262148957E-02
 -.23555489076E-02 -.14185121648E-02 -.11900452486E-02 -.20041026952E-03 0.11256479315E-02
 0.66580999249E-03 -.12476622605E-02 -.20601217182E-02 -.14490739279E-02 -.14427981549E-02
 -.21648857830E-02 -.16908613613E-02 -.13874282337E-03 0.33460373979E-03 -.35493136750E-03
 0.36096473080E-03 0.60306029321E-03 -.71332773435E-03 -.17525329149E-02 -.85953498213E-03
 0.43682423517E-03 0.33795388134E-03 -.11598370731E-03 0.36239411488E-03 0.50732491574E-03
 -.83199344529E-03 -.20601217180E-02 -.17435013581E-02 -.13474464243E-02 -.22536909847E-02
 -.28991397376E-02 -.17440113833E-02 -.26708320611E-03 -.15788626064E-03 -.34753515720E-03
 0.86309786803E-03 0.51045011523E-03 -.63197733525E-03 -.58718934643E-03 0.55168171215E-03
 0.72673251533E-03 -.21211676612E-03 -.39277637799E-03 0.32809030408E-03 0.17844918315E-03
 -.95876781551E-03 -.14490739276E-02 -.13474464240E-02 -.22294833069E-02 -.36159985147E-02
 -.33174135144E-02 -.14074721749E-02 -.19341960704E-03 -.20908363295E-03 0.11373148739E-03
 0.46999850886E-03 -.83415992063E-03 -.20647130800E-02 -.18813114117E-02 -.13030164340E-02
 -.14665999897E-02 -.13418068387E-02 0.26720195052E-05 0.11291312914E-02 0.57389345730E-03
 -.70970649769E-03 -.14427981543E-02 -.22536909843E-02 -.36159985146E-02 -.39726992664E-02
 -.23042809475E-02 -.32394182264E-03 0.19956925261E-03 0.77156069182E-04 0.47572515542E-03
 -.24633002040E-02 -.51973337882E-02 -.67606283196E-02 -.64314908283E-02 -.52840899607E-02
 -.37312119676E-02 -.13216333600E-02 0.10445437723E-02 0.15080429401E-02 0.84573973684E-04
 -.13910992961E-02 -.21648857826E-02 -.28991397371E-02 -.33174135137E-02 -.23042809472E-02
 -.38835208237E-03 0.57516665253E-03 0.26589575680E-03 -.12286425272E-03 -.62815202460E-03
 -.91279402621E-02 -.12987212781E-01 -.14110305362E-01 -.12419537938E-01 -.91281420068E-02
 -.50618457386E-02 -.11886908286E-02 0.83475052737E-03 0.38872768108E-03 -.99821901704E-03
 -.16559440257E-02 -.16908613607E-02 -.17440113830E-02 -.14074721747E-02 -.32394182233E-03
 0.57516665259E-03 0.38870157745E-03 -.53125379618E-03 -.19493982397E-02 -.47644590455E-02
 -.18777426155E-01 -.22506742730E-01 -.21989517431E-01 -.17953638384E-01 -.12152162374E-01
 -.63007528269E-02 -.20555538627E-02 -.35807394185E-03 -.44323757002E-03 -.64429233640E-03
 -.34310385026E-03 -.13874282266E-03 -.26708320548E-03 -.19341960657E-03 0.19956925294E-03
 0.26589575702E-03 -.53125379617E-03 -.25282194642E-02 -.64203835169E-02 -.12422166153E-01
 -.29062851984E-01 -.31371173087E-01 -.28501480289E-01 -.21895420498E-01 -.13970422298E-01
 -.70168419671E-02 -.24432847992E-02 -.28427641782E-03 0.48194081788E-03 0.78404951785E-03
 0.76761005748E-03 0.33460374062E-03 -.15788626009E-03 -.20908363239E-03 0.77156069494E-04
 -.12286425243E-03 -.19493982396E-02 -.64203835165E-02 -.13706702197E-01 -.22263929009E-01
 -.37222374198E-01 -.37263458081E-01 -.31649582811E-01 -.22537533129E-01 -.13065165406E-01
 -.56230533975E-02 -.10339599330E-02 0.10400850300E-02 0.13768639924E-02 0.82363819590E-03
 0.10098686025E-03 -.35493136647E-03 -.34753515670E-03 0.11373148788E-03 0.47572515591E-03
 -.62815202429E-03 -.47644590451E-02 -.12422166153E-01 -.22263929008E-01 -.31541590113E-01
 0.27773268689E-01 0.25704191963E-01 0.20155120471E-01 0.13151808775E-01 0.68955627028E-02
 0.26887823126E-02 0.69102140080E-03 0.35375387928E-03 0.90075605710E-03 0.15915153058E-02
 0.18975896998E-02 0.16193841225E-02 0.90079739163E-03 0.23050161447E-03 0.44230231064E-03
 0.24879014295E-02 0.68956104422E-02 0.13260971846E-01 0.20177840990E-01 0.25641058908E-01
 0.25704191962E-01 0.21909907089E-01 0.15970058082E-01 0.95319799939E-02 0.42331416905E-02
 0.12703260063E-02 0.79368399945E-03 0.20556509843E-02 0.41234959734E-02 0.60655065094E-02
 0.67833695793E-02 0.55839312413E-02 0.30951152909E-02 0.10375788762E-02 0.96279494696E-03
 0.35441672044E-02 0.87205034212E-02 0.15590704681E-01 0.22129848569E-01 0.25926450931E-01
 0.20155120471E-01 0.15970058082E-01 0.10558258517E-01 0.51090306640E-02 0.16923088207E-02
 0.18696263754E-02 0.52273565714E-02 0.10060315323E-01 0.14625644786E-01 0.17115738217E-01
 0.15884030569E-01 0.11116784004E-01 0.54703619314E-02 0.19400165874E-02 0.17027138309E-02
 0.45180519295E-02 0.97930000628E-02 0.16095195648E-01 0.20876387706E-01 0.22190366436E-01
 0.13151808775E-01 0.95319799937E-02 0.51090306641E-02 0.18189687267E-02 0.26524206403E-02
 0.84113384401E-02 0.16850879918E-01 0.24987360556E-01 0.30369771674E-01 0.30681771025E-01
 0.24985040398E-01 0.15795911078E-01 0.76850885776E-02 0.33581155463E-02 0.26641089583E-02
 0.48494722890E-02 0.92569465183E-02 0.13944596374E-01 0.16320044582E-01 0.15665626677E-01
 0.68955627027E-02 0.42331416901E-02 0.16923088205E-02 0.26524206404E-02 0.97311449165E-02
 0.21343786182E-01 0.33440760490E-01 0.42709450650E-01 0.46519881610E-01 0.42651206814E-01
 0.31938269729E-01 0.19314002813E-01 0.97307718451E-02 0.44044587500E-02 0.24437805077E-02
 0.35505439817E-02 0.69017013845E-02 0.98280948375E-02 0.10266083476E-01 0.88731591232E-02
 0.26887823124E-02 0.12703260059E-02 0.18696263750E-02 0.84113384401E-02 0.21343786182E-01
 0.36697987000E-01 0.50145118973E-01 0.58729357768E-01 0.59403878182E-01 0.50504426227E-01
 0.35306331625E-01 0.20371446590E-01 0.96831331190E-02 0.31937800228E-02 0.43019860162E-03
 0.14510594870E-02 0.43173726985E-02 0.57733047030E-02 0.50558834683E-02 0.38410852926E-02
 0.69102140025E-03 0.79368399891E-03 0.52273565709E-02 0.16850879918E-01 0.33440760490E-01
 0.50145118973E-01 0.63321550429E-01 0.69667690101E-01 0.65556736430E-01 0.51175090517E-01
 0.32708193228E-01 0.17059218621E-01 0.64598856786E-02 0.31813303512E-03 -.12872964031E-02
 0.82477695985E-03 0.31944783236E-02 0.31872124288E-02 0.19219517445E-02 0.12128333388E-02
 0.35375387859E-03 0.20556509837E-02 0.10060315322E-01 0.24987360555E-01 0.42709450650E-01
 0.58729357768E-01 0.69667690101E-01 0.71365393558E-01 0.61144059837E-01 0.42683666202E-01
 0.24136736752E-01 0.10692550148E-01 0.24727668695E-02 -.11590131174E-02 -.29263030902E-03
 0.26247382493E-02 0.37417502598E-02 0.24568355978E-02 0.11920561563E-02 0.74940957287E-03
 0.90075605628E-03 0.41234959727E-02 0.14625644785E-01 0.30369771673E-01 0.46519881610E-01
 0.59403878182E-01 0.65556736430E-01 0.61144059836E-01 0.46522881738E-01 0.28450201641E-01
 0.14118087704E-01 0.53404454578E-02 0.89625057073E-03 0.60283997440E-03 0.35928385618E-02
 0.62567812163E-02 0.59420781471E-02 0.41118869423E-02 0.28857835616E-02 0.17575782695E-02
 0.15915153046E-02 0.60655065084E-02 0.17115738217E-01 0.30681771025E-01 0.42651206814E-01
 0.50504426227E-01 0.51175090517E-01 0.42683666202E-01 0.28450201641E-01 0.15418102728E-01
 0.72810659236E-02 0.32016891244E-02 0.24429340118E-02 0.53222591470E-02 0.97209487762E-02
 0.11750303307E-01 0.10555195426E-01 0.83803304042E-02 0.60666311272E-02 0.30424730844E-02
 0.18975896988E-02 0.67833695787E-02 0.15884030569E-01 0.24985040398E-01 0.31938269729E-01
 0.35306331625E-01 0.32708193227E-01 0.24136736751E-01 0.14118087704E-01 0.72810659236E-02
 0.41828195027E-02 0.38481748715E-02 0.68903903666E-02 0.12932773540E-01 0.18231995484E-01
 0.19431946853E-01 0.17206807974E-01 0.13542058763E-01 0.86323532225E-02 0.34430391757E-02
 0.16193841217E-02 0.55839312406E-02 0.11116784003E-01 0.15795911078E-01 0.19314002813E-01
 0.20371446590E-01 0.17059218620E-01 0.10692550147E-01 0.53404454575E-02 0.32016891245E-02
 0.38481748716E-02 0.75160044201E-02 0.14841468902E-01 0.23284906023E-01 0.28094349658E-01
 0.27409747861E-01 0.23058507720E-01 0.16668671560E-01 0.89927325303E-02 0.27602106528E-02
 0.90079739104E-03 0.30951152906E-02 0.54703619311E-02 0.76850885775E-02 0.97307718451E-02
 0.96831331188E-02 0.64598856784E-02 0.24727668694E-02 0.89625057075E-03 0.24429340121E-02
 0.68903903669E-02 0.14841468903E-01 0.25188379850E-01 0.33450127385E-01 0.35660804217E-01
 0.32098115880E-01 0.25183911813E-01 0.16374693123E-01 0.74206372225E-02 0.16587477267E-02
 0.23050161392E-03 0.10375788757E-02 0.19400165871E-02 0.33581155461E-02 0.44044587496E-02
 0.31937800226E-02 0.31813303485E-03 -.11590131176E-02 0.60283997433E-03 0.53222591473E-02
 0.12932773540E-01 0.23284906024E-01 0.33450127385E-01 0.38835512793E-01 0.37648478703E-01
 0.31722953510E-01 0.23208611720E-01 0.13508113232E-01 0.51049140482E-02 0.73664932417E-03
 0.44230231016E-03 0.96279494646E-03 0.17027138304E-02 0.26641089579E-02 0.24437805072E-02
 0.43019860121E-03 -.12872964033E-02 -.29263030905E-03 0.35928385618E-02 0.97209487766E-02
 0.18231995484E-01 0.28094349658E-01 0.35660804217E-01 0.37648478703E-01 0.34182306375E-01
 0.27295999450E-01 0.18460518080E-01 0.93751607676E-02 0.28438176163E-02 0.37437102800E-03
 0.24879014293E-02 0.35441672043E-02 0.45180519290E-02 0.48494722889E-02 0.35505439816E-02
 0.14510594867E-02 0.82477695969E-03 0.26247382493E-02 0.62567812162E-02 0.11750303307E-01
 0.19431946853E-01 0.27409747861E-01 0.32098115881E-01 0.31722953510E-01 0.27295999450E-01
 0.20350405510E-01 0.12168872003E-01 0.50489660604E-02 0.14463607254E-02 0.13275369491E-02
 0.68956104416E-02 0.87205034205E-02 0.97930000626E-02 0.92569465178E-02 0.69017013840E-02
 0.43173726980E-02 0.31944783234E-02 0.37417502598E-02 0.59420781471E-02 0.10555195426E-01
 0.17206807975E-01 0.23058507721E-01 0.25183911813E-01 0.23208611720E-01 0.18460518080E-01
 0.12168872003E-01 0.59419226972E-02 0.22150013632E-02 0.22099885549E-02 0.44872563506E-02
 0.13260971846E-01 0.15590704680E-01 0.16095195648E-01 0.13944596373E-01 0.98280948372E-02
 0.57733047029E-02 0.31872124286E-02 0.24568355981E-02 0.41118869425E-02 0.83803304048E-02
 0.13542058763E-01 0.16668671560E-01 0.16374693123E-01 0.13508113232E-01 0.93751607679E-02
 0.50489660605E-02 0.22150013632E-02 0.25376580579E-02 0.57415688555E-02 0.98226639054E-02
 0.20177840990E-01 0.22129848568E-01 0.20876387705E-01 0.16320044582E-01 0.10266083476E-01
 0.50558834684E-02 0.19219517446E-02 0.11920561568E-02 0.28857835620E-02 0.60666311281E-02
 0.86323532233E-02 0.89927325312E-02 0.74206372233E-02 0.51049140488E-02 0.28438176167E-02
 0.14463607256E-02 0.22099885549E-02 0.57415688557E-02 0.10962951640E-01 0.16147755670E-01
 0.25641058908E-01 0.25926450930E-01 0.22190366435E-01 0.15665626677E-01 0.88731591230E-02
 0.38410852927E-02 0.12128333392E-02 0.74940957355E-03 0.17575782701E-02 0.30424730855E-02
 0.34430391766E-02 0.27602106539E-02 0.16587477272E-02 0.73664932469E-03 0.37437102853E-03
 0.13275369494E-02 0.44872563508E-02 0.98226639058E-02 0.16147755670E-01 0.21914059636E-01
 0.41464459406E-01 0.38428884466E-01 0.29432159109E-01 0.18372390025E-01 0.93349590395E-02
 0.37897732324E-02 0.98873613867E-03 -.11029882489E-03 -.29633894949E-03 -.36596289820E-03
 -.63069590547E-03 -.66756220629E-03 -.29611454900E-03 0.27699969191E-04 0.57619720853E-03
 0.31317797406E-02 0.93334755554E-02 0.18761443852E-01 0.29171123352E-01 0.37709813050E-01
 0.38428884466E-01 0.32295904320E-01 0.22529653839E-01 0.12861424913E-01 0.57782173772E-02
 0.16622506067E-02 -.22811242478E-03 -.66417611631E-03 -.26462051441E-03 0.39123206547E-03
 0.88409811274E-03 0.98754390228E-03 0.62334571658E-03 0.21090626933E-03 0.10666614678E-02
 0.48761200057E-02 0.12352816589E-01 0.22356345162E-01 0.32132191811E-01 0.38325585312E-01
 0.29432159109E-01 0.22529653839E-01 0.14215874434E-01 0.68011235620E-02 0.18678806818E-02
 -.20423601980E-03 -.18448518808E-03 0.86286026760E-03 0.22137774357E-02 0.32297635948E-02
 0.31918495537E-02 0.19563328519E-02 0.42332131687E-03 -.38555534047E-04 0.16763593130E-02
 0.63027027634E-02 0.13883862925E-01 0.22849345303E-01 0.30015021941E-01 0.32446630895E-01
 0.18372390025E-01 0.12861424913E-01 0.68011235621E-02 0.18749556582E-02 -.13538051681E-03
 0.72135706818E-03 0.26653942759E-02 0.43601932833E-02 0.55282570981E-02 0.56760121072E-02
 0.41756907919E-02 0.17598050585E-02 0.21980167547E-03 0.50102070804E-03 0.25448349836E-02
 0.66311830880E-02 0.12853821318E-01 0.19309409155E-01 0.22887070728E-01 0.22217642902E-01
 0.93349590396E-02 0.57782173771E-02 0.18678806817E-02 -.13538051677E-03 0.11734096477E-02
 0.40578153844E-02 0.61094132832E-02 0.71267590395E-02 0.76566027594E-02 0.69325552842E-02
 0.45245627458E-02 0.20664779617E-02 0.11731426228E-02 0.14534991277E-02 0.23885009896E-02
 0.49636424858E-02 0.93397433482E-02 0.13057005973E-01 0.13794786500E-01 0.12062409502E-01
 0.37897732321E-02 0.16622506064E-02 -.20423602012E-03 0.72135706807E-03 0.40578153843E-02
 0.67847912113E-02 0.78696104733E-02 0.87709584168E-02 0.94878992463E-02 0.82517363779E-02
 0.53044645703E-02 0.30125480148E-02 0.20307368067E-02 0.11098266709E-02 0.62620365867E-03
 0.23145328294E-02 0.54047642328E-02 0.69660975443E-02 0.62508134145E-02 0.50237462592E-02
 0.98873613810E-03 -.22811242536E-03 -.18448518859E-03 0.26653942757E-02 0.61094132831E-02
 0.78696104734E-02 0.91039806378E-02 0.11028155616E-01 0.11581768262E-01 0.89598384738E-02
 0.52119196182E-02 0.29005690858E-02 0.13598393094E-02 -.49995190835E-03 -.10724390459E-02
 0.80270603249E-03 0.27922252400E-02 0.26001507806E-02 0.15077232672E-02 0.13003211167E-02
 -.11029882562E-03 -.66417611705E-03 0.86286026700E-03 0.43601932829E-02 0.71267590391E-02
 0.87709584169E-02 0.11028155616E-01 0.12928640261E-01 0.11432453400E-01 0.69815132648E-02
 0.33155807717E-02 0.16664017526E-02 0.10673397383E-03 -.14851208557E-02 -.10792362272E-02
 0.78739063111E-03 0.11529661873E-02 -.22511036290E-03 -.75147276419E-03 -.36188835637E-04
 -.29633895036E-03 -.26462051515E-03 0.22137774351E-02 0.55282570980E-02 0.76566027592E-02
 0.94878992460E-02 0.11581768262E-01 0.11432453399E-01 0.76618441491E-02 0.33540297874E-02
 0.15644793214E-02 0.10193886623E-02 -.30136565191E-03 -.11115946273E-02 -.31129697472E-04
 0.90126249771E-03 -.19857855485E-03 -.14452906192E-02 -.80791396248E-03 0.14136018047E-03
 -.36596289938E-03 0.39123206449E-03 0.32297635942E-02 0.56760121068E-02 0.69325552839E-02
 0.82517363777E-02 0.89598384736E-02 0.69815132644E-02 0.33540297873E-02 0.14318488738E-02
 0.15419480842E-02 0.10747068125E-02 -.29518015367E-03 -.35187182128E-03 0.82091692337E-03
 0.75865744268E-03 -.55269180463E-03 -.65064504484E-03 0.52501715637E-03 0.58704436921E-03
 -.63069590655E-03 0.88409811200E-03 0.31918495533E-02 0.41756907918E-02 0.45245627455E-02
 0.53044645702E-02 0.52119196178E-02 0.33155807717E-02 0.15644793213E-02 0.15419480843E-02
 0.16513137094E-02 0.42364128186E-03 -.46657950363E-03 0.53408571296E-03 0.17194473663E-02
 0.12995519992E-02 0.61341486154E-03 0.11356281517E-02 0.14200145995E-02 0.18503688951E-03
 -.66756220716E-03 0.98754390154E-03 0.19563328513E-02 0.17598050583E-02 0.20664779615E-02
 0.30125480146E-02 0.29005690854E-02 0.16664017524E-02 0.10193886621E-02 0.10747068127E-02
 0.42364128192E-03 -.49143882912E-03 0.24135602284E-03 0.22470625321E-02 0.31312040373E-02
 0.24852616023E-02 0.20389323319E-02 0.19782052414E-02 0.88514518266E-03 -.72461087579E-03
 -.29611454963E-03 0.62334571612E-03 0.42332131646E-03 0.21980167535E-03 0.11731426228E-02
 0.20307368066E-02 0.13598393093E-02 0.10673397373E-03 -.30136565185E-03 -.29518015341E-03
 -.46657950329E-03 0.24135602304E-03 0.23889743463E-02 0.42032911468E-02 0.41052517761E-02
 0.30559950792E-02 0.23860482763E-02 0.15179584282E-02 -.78264521342E-04 -.10097852742E-02
 0.27699968562E-04 0.21090626876E-03 -.38555534410E-04 0.50102070771E-03 0.14534991272E-02
 0.11098266707E-02 -.49995190865E-03 -.14851208558E-02 -.11115946274E-02 -.35187182102E-03
 0.53408571319E-03 0.22470625325E-02 0.42032911470E-02 0.47377778812E-02 0.37536781197E-02
 0.27247034965E-02 0.20553393028E-02 0.91676492958E-03 -.40490807559E-03 -.63848657709E-03
 0.57619720801E-03 0.10666614673E-02 0.16763593123E-02 0.25448349831E-02 0.23885009890E-02
 0.62620365810E-03 -.10724390463E-02 -.10792362273E-02 -.31129697572E-04 0.82091692370E-03
 0.17194473667E-02 0.31312040380E-02 0.41052517767E-02 0.37536781200E-02 0.28703516046E-02
 0.23965188948E-02 0.17857549410E-02 0.49612694514E-03 -.48387985977E-03 -.22249420751E-03
 0.31317797404E-02 0.48761200053E-02 0.63027027629E-02 0.66311830875E-02 0.49636424854E-02
 0.23145328290E-02 0.80270603230E-03 0.78739063100E-03 0.90126249755E-03 0.75865744297E-03
 0.12995519997E-02 0.24852616028E-02 0.30559950796E-02 0.27247034971E-02 0.23965188951E-02
 0.21275322548E-02 0.10978747422E-02 -.27466596803E-03 -.39800694939E-03 0.11233119035E-02
 0.93334755552E-02 0.12352816588E-01 0.13883862925E-01 0.12853821317E-01 0.93397433476E-02
 0.54047642322E-02 0.27922252397E-02 0.11529661872E-02 -.19857855501E-03 -.55269180434E-03
 0.61341486211E-03 0.20389323326E-02 0.23860482767E-02 0.20553393031E-02 0.17857549414E-02
 0.10978747423E-02 -.19732998138E-03 -.52667687762E-03 0.15931396842E-02 0.54546102740E-02
 0.18761443852E-01 0.22356345161E-01 0.22849345302E-01 0.19309409154E-01 0.13057005972E-01
 0.69660975440E-02 0.26001507802E-02 -.22511036281E-03 -.14452906192E-02 -.65064504443E-03
 0.11356281521E-02 0.19782052421E-02 0.15179584288E-02 0.91676493010E-03 0.49612694540E-03
 -.27466596781E-03 -.52667687768E-03 0.17792251341E-02 0.70203129723E-02 0.13310379117E-01
 0.29171123352E-01 0.32132191810E-01 0.30015021941E-01 0.22887070728E-01 0.13794786500E-01
 0.62508134144E-02 0.15077232672E-02 -.75147276380E-03 -.80791396217E-03 0.52501715712E-03
 0.14200146003E-02 0.88514518372E-03 -.78264520644E-04 -.40490807490E-03 -.48387985943E-03
 -.39800694915E-03 0.15931396842E-02 0.70203129726E-02 0.14911202651E-01 0.22896790175E-01
 0.37709813051E-01 0.38325585311E-01 0.32446630894E-01 0.22217642901E-01 0.12062409502E-01
 0.50237462592E-02 0.13003211170E-02 -.36188834997E-04 0.14136018106E-03 0.58704437031E-03
 0.18503689049E-03 -.72461087473E-03 -.10097852735E-02 -.63848657648E-03 -.22249420699E-03
 0.11233119038E-02 0.54546102743E-02 0.13310379118E-01 0.22896790175E-01 0.31776269027E-01
 -.27697421837E-01 -.25087583082E-01 -.20322184551E-01 -.14006684433E-01 -.68770911284E-02
 -.12469314760E-02 0.98140428199E-03 0.49003735191E-03 -.89451184465E-03 -.23651395619E-02
 -.34400096391E-02 -.29962850372E-02 -.89443124971E-03 0.88921072593E-03 0.40381119039E-03
 -.23635046242E-02 -.68798590544E-02 -.13337182431E-01 -.20866746628E-01 -.26462977892E-01
 -.25087583082E-01 -.21640889323E-01 -.16038772234E-01 -.91700890920E-02 -.30738171819E-02