    5    5   50    1
  0.3477306E+02  0.2573869E-09  0.2573869E-09  0.3030466E-08  0.5000000E-15
  1.000000000000000E-004
  CAR 
 unknown system                          
     45     14     28
 
  0.0000000E+00  0.0000000E+00  0.0000000E+00  0.1000000E-01
    1      -11.345458   1.000000
    2      -10.280733   1.000000
    3       -8.816437   1.000000
    4       -7.715493   1.000000
    5       -7.417215   1.000000
    6       -5.674314   1.000000
    7       -5.544599   1.000000
    8       -5.544294   1.000000
    9       -5.530045   1.000000
   10       -5.508312   1.000000
   11       -5.508044   1.000000
   12       -5.442333   1.000000
   13       -5.441994   1.000000
   14       -5.245104   1.000000
   15       -5.244804   1.000000
   16       -5.027343   1.000000
   17       -4.903082   1.000000
   18       -4.903013   1.000000
   19       -4.719507   1.000000
   20       -4.719434   1.000000
   21       -4.504885   1.000000
   22       -4.504841   1.000000
   23       -4.221965   1.000000
   24       -4.221903   1.000000
   25       -3.128941   0.999921
   26        0.980354   0.000000
   27        1.804867   0.000000
   28        2.308949   0.000000
 
  0.1000000E+00  0.6938894E-17  0.0000000E+00  0.6000000E-01
    1      -11.033528   1.000000
    2       -9.984808   1.000000
    3       -8.545939   1.000000
    4       -7.499298   1.000000
    5       -7.293551   1.000000
    6       -5.785719   1.000000
    7       -5.668433   1.000000
    8       -5.632164   1.000000
    9       -5.511181   1.000000
   10       -5.476590   1.000000
   11       -5.446294   1.000000
   12       -5.433244   1.000000
   13       -5.336457   1.000000
   14       -5.331105   1.000000
   15       -5.250793   1.000000
   16       -5.155883   1.000000
   17       -4.931797   1.000000
   18       -4.931417   1.000000
   19       -4.722899   1.000000
   20       -4.699879   1.000000
   21       -4.525610   1.000000
   22       -4.499293   1.000000
   23       -4.216466   1.000000
   24       -4.023961   1.000000
   25       -2.474738   0.198617
   26        1.218588   0.000000
   27        2.108508   0.000000
   28        2.611357   0.000000
 
  0.2000000E+00 -0.1387779E-16  0.0000000E+00  0.6000000E-01
    1      -10.136669   1.000000
    2       -9.156775   1.000000
    3       -7.841620   1.000000
    4       -7.048100   1.000000
    5       -6.912381   1.000000
    6       -6.086967   1.000000
    7       -5.905595   1.000000
    8       -5.803652   1.000000
    9       -5.706293   1.000000
   10       -5.543593   1.000000
   11       -5.453875   1.000000
   12       -5.342236   1.000000
   13       -5.269316   1.000000
   14       -5.174305   1.000000
   15       -5.073955   1.000000
   16       -5.064253   1.000000
   17       -5.018458   1.000000
   18       -4.839152   1.000000
   19       -4.834334   1.000000
   20       -4.674830   1.000000
   21       -4.494111   1.000000
   22       -4.378611   1.000000
   23       -4.209154   1.000000
   24       -3.271776   0.999999
   25       -1.249666   0.000000
   26        1.931835   0.000000
   27        3.020162   0.000000
   28        3.517852   0.000000
 
  0.3000000E+00 -0.2775558E-16  0.0000000E+00  0.6000000E-01
    1       -8.831549   1.000000
    2       -8.078980   1.000000
    3       -7.199790   1.000000
    4       -6.798269   1.000000
    5       -6.553215   1.000000
    6       -6.401443   1.000000
    7       -6.086948   1.000000
    8       -5.850575   1.000000
    9       -5.654879   1.000000
   10       -5.470951   1.000000
   11       -5.384023   1.000000
   12       -5.331773   1.000000
   13       -5.115418   1.000000
   14       -5.091643   1.000000
   15       -5.005350   1.000000
   16       -4.801142   1.000000
   17       -4.678507   1.000000
   18       -4.612024   1.000000
   19       -4.571632   1.000000
   20       -4.481400   1.000000
   21       -4.382775   1.000000
   22       -4.195615   1.000000
   23       -3.993071   1.000000
   24       -2.285637   0.014491
   25        0.193462   0.000000
   26        3.056760   0.000000
   27        4.512987   0.000000
   28        4.998777   0.000000
 
  0.4000000E+00 -0.2775558E-16  0.0000000E+00  0.6000000E-01
    1       -7.703128   1.000000
    2       -7.384492   1.000000
    3       -7.073907   1.000000
    4       -6.807470   1.000000
    5       -6.628574   1.000000
    6       -6.516496   1.000000
    7       -6.224204   1.000000
    8       -5.856492   1.000000
    9       -5.552245   1.000000
   10       -5.469957   1.000000
   11       -5.283153   1.000000
   12       -5.129936   1.000000
   13       -4.895469   1.000000
   14       -4.676921   1.000000
   15       -4.545272   1.000000
   16       -4.389797   1.000000
   17       -4.342817   1.000000
   18       -4.285555   1.000000
   19       -4.198267   1.000000
   20       -4.126542   1.000000
   21       -4.075249   1.000000
   22       -3.657253   1.000000
   23       -3.035478   0.999091
   24       -1.156581   0.000000
   25        0.931061   0.000000
   26        2.465340   0.000000
   27        3.400657   0.000000
   28        4.924419   0.000000
 
  0.5000000E+00 -0.2775558E-16  0.0000000E+00  0.3000000E-01
    1       -7.408743   1.000000
    2       -7.219998   1.000000
    3       -7.014199   1.000000
    4       -6.827129   1.000000
    5       -6.753386   1.000000
    6       -6.525867   1.000000
    7       -6.222327   1.000000
    8       -5.876096   1.000000
    9       -5.602782   1.000000
   10       -5.504387   1.000000
   11       -5.151535   1.000000
   12       -5.148175   1.000000
   13       -4.723122   1.000000
   14       -4.667392   1.000000
   15       -4.321828   1.000000
   16       -4.284163   1.000000
   17       -4.260367   1.000000
   18       -4.194070   1.000000
   19       -4.129376   1.000000
   20       -3.961430   1.000000
   21       -2.862185   0.970827
   22       -2.182777   0.001801
   23       -1.803988   0.000000
   24       -1.267901   0.000000
   25       -0.997475   0.000000
   26        1.714707   0.000000
   27        2.839506   0.000000
   28        4.380399   0.000000
 
  0.2000000E+00  0.1000000E+00  0.0000000E+00  0.6000000E-01
    1      -10.427497   1.000000
    2       -9.419719   1.000000
    3       -8.051073   1.000000
    4       -7.152883   1.000000
    5       -7.037619   1.000000
    6       -5.932837   1.000000
    7       -5.902805   1.000000
    8       -5.762849   1.000000
    9       -5.687386   1.000000
   10       -5.581755   1.000000
   11       -5.420209   1.000000
   12       -5.363072   1.000000
   13       -5.307383   1.000000
   14       -5.229305   1.000000
   15       -5.126927   1.000000
   16       -5.074585   1.000000
   17       -4.942266   1.000000
   18       -4.877755   1.000000
   19       -4.838831   1.000000
   20       -4.674448   1.000000
   21       -4.602844   1.000000
   22       -4.332770   1.000000
   23       -4.263514   1.000000
   24       -3.481910   1.000000
   25       -1.602057   0.000000
   26        1.696947   0.000000
   27        2.716686   0.000000
   28        3.216034   0.000000
 
  0.3000000E+00  0.1000000E+00  0.0000000E+00  0.1200000E+00
    1       -9.307506   1.000000
    2       -8.435121   1.000000
    3       -7.329661   1.000000
    4       -6.806637   1.000000
    5       -6.559699   1.000000
    6       -6.225010   1.000000
    7       -6.022100   1.000000
    8       -5.934258   1.000000
    9       -5.814582   1.000000
   10       -5.643909   1.000000
   11       -5.528217   1.000000
   12       -5.408123   1.000000
   13       -5.314641   1.000000
   14       -5.170716   1.000000
   15       -4.985693   1.000000
   16       -4.910343   1.000000
   17       -4.787544   1.000000
   18       -4.716409   1.000000
   19       -4.607890   1.000000
   20       -4.533508   1.000000
   21       -4.388426   1.000000
   22       -4.279822   1.000000
   23       -4.057586   1.000000
   24       -2.634768   0.612183
   25       -0.311099   0.000000
   26        2.653341   0.000000
   27        3.930369   0.000000
   28        4.422449   0.000000
 
  0.4000000E+00  0.1000000E+00  0.0000000E+00  0.1200000E+00
    1       -8.011130   1.000000
    2       -7.517165   1.000000
    3       -6.999003   1.000000
    4       -6.714661   1.000000
    5       -6.467938   1.000000
    6       -6.418015   1.000000
    7       -6.125353   1.000000
    8       -5.909315   1.000000
    9       -5.612813   1.000000
   10       -5.530105   1.000000
   11       -5.401208   1.000000
   12       -5.322544   1.000000
   13       -5.186229   1.000000
   14       -5.015633   1.000000
   15       -4.932329   1.000000
   16       -4.723341   1.000000
   17       -4.595800   1.000000
   18       -4.420906   1.000000
   19       -4.329425   1.000000
   20       -4.208370   1.000000
   21       -4.027469   1.000000
   22       -3.876323   1.000000
   23       -3.285187   0.999999
   24       -1.450682   0.000000
   25        1.097233   0.000000
   26        3.524238   0.000000
   27        4.403071   0.000000
   28        5.452254   0.000000
 
  0.5000000E+00  0.1000000E+00  0.0000000E+00  0.1200000E+00
    1       -7.337415   1.000000
    2       -7.138584   1.000000
    3       -6.946203   1.000000
    4       -6.747008   1.000000
    5       -6.608667   1.000000
    6       -6.465520   1.000000
    7       -6.183017   1.000000
    8       -5.897000   1.000000
    9       -5.617195   1.000000
   10       -5.497024   1.000000
   11       -5.371727   1.000000
   12       -5.070481   1.000000
   13       -4.947275   1.000000
   14       -4.791031   1.000000
   15       -4.611532   1.000000
   16       -4.501676   1.000000
   17       -4.353203   1.000000
   18       -4.289245   1.000000
   19       -4.237451   1.000000
   20       -4.113694   1.000000
   21       -2.838401   0.957728
   22       -2.529272   0.322413
   23       -1.924422   0.000001
   24       -0.607340   0.000000
   25        0.211863   0.000000
   26        2.015587   0.000000
   27        3.198469   0.000000
   28        4.647398   0.000000
 
  0.4000000E+00  0.2000000E+00  0.0000000E+00  0.6000000E-01
    1       -8.133266   1.000000
    2       -7.547576   1.000000
    3       -6.901143   1.000000
    4       -6.634123   1.000000
    5       -6.302371   1.000000
    6       -6.182080   1.000000
    7       -6.068364   1.000000
    8       -5.947772   1.000000
    9       -5.862104   1.000000
   10       -5.715980   1.000000
   11       -5.581838   1.000000
   12       -5.512563   1.000000
   13       -5.426038   1.000000
   14       -5.188163   1.000000
   15       -4.991305   1.000000
   16       -4.820054   1.000000
   17       -4.694161   1.000000
   18       -4.521877   1.000000
   19       -4.315310   1.000000
   20       -4.213497   1.000000
   21       -3.983591   1.000000
   22       -3.841167   1.000000
   23       -3.270206   0.999999
   24       -1.531448   0.000000
   25        1.017158   0.000000
   26        3.812753   0.000000
   27        5.408612   0.000000
   28        5.816077   0.000000
 
  0.5000000E+00  0.2000000E+00  0.0000000E+00  0.1200000E+00
    1       -7.192282   1.000000
    2       -6.992137   1.000000
    3       -6.773202   1.000000
    4       -6.601926   1.000000
    5       -6.388310   1.000000
    6       -6.251881   1.000000
    7       -6.085438   1.000000
    8       -5.914647   1.000000
    9       -5.769302   1.000000
   10       -5.598722   1.000000
   11       -5.474303   1.000000
   12       -5.377899   1.000000
   13       -5.258553   1.000000
   14       -5.134557   1.000000
   15       -4.973477   1.000000
   16       -4.799572   1.000000
   17       -4.608537   1.000000
   18       -4.450233   1.000000
   19       -4.245029   1.000000
   20       -4.121293   1.000000
   21       -2.898896   0.984328
   22       -2.664892   0.690764
   23       -1.812580   0.000000
   24       -0.055446   0.000000
   25        2.031958   0.000000
   26        3.083622   0.000000
   27        4.135692   0.000000
   28        5.397611   0.000000
 
 -0.4000000E+00  0.2000000E+00  0.0000000E+00  0.6000000E-01
    1       -6.995255   1.000000
    2       -6.864923   1.000000
    3       -6.701731   1.000000
    4       -6.526207   1.000000
    5       -6.455562   1.000000
    6       -6.303094   1.000000
    7       -6.116231   1.000000
    8       -5.931790   1.000000
    9       -5.736621   1.000000
   10       -5.639581   1.000000
   11       -5.393372   1.000000
   12       -5.241584   1.000000
   13       -5.164423   1.000000
   14       -5.018648   1.000000
   15       -4.927364   1.000000
   16       -4.740267   1.000000
   17       -4.511907   1.000000
   18       -4.328456   1.000000
   19       -4.291458   1.000000
   20       -4.188429   1.000000
   21       -1.924600   0.000001
   22       -1.003163   0.000000
   23       -0.554455   0.000000
   24       -0.009736   0.000000
   25        0.563230   0.000000
   26        2.245175   0.000000
   27        3.485258   0.000000
   28        4.935897   0.000000
 
 -0.4000000E+00  0.3000000E+00  0.0000000E+00  0.6000000E-01
    1       -6.827926   1.000000
    2       -6.625336   1.000000
    3       -6.546481   1.000000
    4       -6.495771   1.000000
    5       -6.357617   1.000000
    6       -6.233407   1.000000
    7       -6.152945   1.000000
    8       -5.832040   1.000000
    9       -5.746937   1.000000
   10       -5.639362   1.000000
   11       -5.540654   1.000000
   12       -5.411170   1.000000
   13       -5.284618   1.000000
   14       -5.245691   1.000000
   15       -4.937738   1.000000
   16       -4.841280   1.000000
   17       -4.673530   1.000000
   18       -4.383774   1.000000
   19       -4.298559   1.000000
   20       -4.210595   1.000000
   21       -1.844980   0.000000
   22       -0.741996   0.000000
   23        0.209837   0.000000
   24        1.549015   0.000000
   25        2.127123   0.000000
   26        2.244224   0.000000
   27        3.101137   0.000000
   28        3.425356   0.000000
