 vasp.5.4.4.18Apr17-6-g9f103f2a35 (build Jun 30 2017 11:15:00) complex          
  
 executed on    STALLO_VASP_5.4.4 date 2019.10.11  09:39:30
 running on    4 total cores
 distrk:  each k-point on    4 cores,    1 groups
 distr:  one band on NCORES_PER_BAND=   2 cores,    2 groups


--------------------------------------------------------------------------------------------------------


 INCAR:
 POTCAR:   PAW_PBE Cu 05Jan2001                   
 POTCAR:   PAW_PBE H 15Jun2001                    
 POTCAR:   PAW_PBE Cu 05Jan2001                   
   VRHFIN =Cu: d10 p1                                                           
   LEXCH  = PE                                                                  
   EATOM  =  1390.9800 eV,  102.2341 Ry                                         
                                                                                
   TITEL  = PAW_PBE Cu 05Jan2001                                                
   LULTRA =        F    use ultrasoft PP ?                                      
   IUNSCR =        1    unscreen: 0-lin 1-nonlin 2-no                           
   RPACOR =    2.000    partial core radius                                     
   POMASS =   63.546; ZVAL   =   11.000    mass and valenz                      
   RCORE  =    2.300    outmost cutoff radius                                   
   RWIGS  =    2.480; RWIGS  =    1.312    wigner-seitz radius (au A)           
   ENMAX  =  273.214; ENMIN  =  204.910 eV                                      
   RCLOC  =    1.712    cutoff for local pot                                    
   LCOR   =        T    correct aug charges                                     
   LPAW   =        T    paw PP                                                  
   EAUG   =  516.456                                                            
   DEXC   =    -.008                                                            
   RMAX   =    2.789    core radius for proj-oper                               
   RAUG   =    1.300    factor for augmentation sphere                          
   RDEP   =    2.302    radius for radial grids                                 
   QCUT   =   -4.481; QGAM   =    8.962    optimization parameters              
                                                                                
   Description                                                                  
     l     E      TYP  RCUT    TYP  RCUT                                        
     2   .000     23  2.300                                                     
     2   .000     23  2.300                                                     
     0   .000     23  2.300                                                     
     0   .000     23  2.300                                                     
     1  -.200     23  2.300                                                     
     1   .000     23  2.300                                                     
     3   .000      7   .000                                                     
  local pseudopotential read in
  partial core-charges read in
  atomic valenz-charges read in
  non local Contribution for L=           2  read in
    real space projection operators read in
  non local Contribution for L=           2  read in
    real space projection operators read in
  non local Contribution for L=           0  read in
    real space projection operators read in
  non local Contribution for L=           0  read in
    real space projection operators read in
  non local Contribution for L=           1  read in
    real space projection operators read in
  non local Contribution for L=           1  read in
    real space projection operators read in
    PAW grid and wavefunctions read in
 
   number of l-projection  operators is LMAX  =           6
   number of lm-projection operators is LMMAX =          18
 
 POTCAR:   PAW_PBE H 15Jun2001                    
   VRHFIN =H: ultrasoft test                                                    
   LEXCH  = PE                                                                  
   EATOM  =    12.4884 eV,     .9179 Ry                                         
                                                                                
   TITEL  = PAW_PBE H 15Jun2001                                                 
   LULTRA =        F    use ultrasoft PP ?                                      
   IUNSCR =        0    unscreen: 0-lin 1-nonlin 2-no                           
   RPACOR =     .000    partial core radius                                     
   POMASS =    1.000; ZVAL   =    1.000    mass and valenz                      
   RCORE  =    1.100    outmost cutoff radius                                   
   RWIGS  =     .700; RWIGS  =     .370    wigner-seitz radius (au A)           
   ENMAX  =  250.000; ENMIN  =  200.000 eV                                      
   RCLOC  =     .701    cutoff for local pot                                    
   LCOR   =        T    correct aug charges                                     
   LPAW   =        T    paw PP                                                  
   EAUG   =  400.000                                                            
   RMAX   =    2.174    core radius for proj-oper                               
   RAUG   =    1.200    factor for augmentation sphere                          
   RDEP   =    1.112    radius for radial grids                                 
   QCUT   =   -5.749; QGAM   =   11.498    optimization parameters              
                                                                                
   Description                                                                  
     l     E      TYP  RCUT    TYP  RCUT                                        
     0   .000     23  1.100                                                     
     0   .500     23  1.100                                                     
     1  -.300     23  1.100                                                     
  local pseudopotential read in
  atomic valenz-charges read in
  non local Contribution for L=           0  read in
    real space projection operators read in
  non local Contribution for L=           0  read in
    real space projection operators read in
  non local Contribution for L=           1  read in
    real space projection operators read in
    PAW grid and wavefunctions read in
 
   number of l-projection  operators is LMAX  =           3
   number of lm-projection operators is LMMAX =           5
 

 ----------------------------------------------------------------------------- 
|                                                                             |
|  ADVICE TO THIS USER RUNNING 'VASP/VAMP'   (HEAR YOUR MASTER'S VOICE ...):  |
|                                                                             |
|      You have a (more or less) 'small supercell' and for smaller cells      |
|      it is recommended  to use the reciprocal-space projection scheme!      |
|      The real space optimization is not  efficient for small cells and it   |
|      is also less accurate ...                                              |
|      Therefore set LREAL=.FALSE. in the  INCAR file                         |
|                                                                             |
 ----------------------------------------------------------------------------- 

 Optimization of the real space projectors (new method)

 maximal supplied QI-value         = 16.25
 optimisation between [QCUT,QGAM] = [  7.96, 16.09] = [ 17.76, 72.49] Ry 
 Optimized for a Real-space Cutoff    1.70 Angstroem

   l    n(q)    QCUT    max X(q) W(low)/X(q) W(high)/X(q)  e(spline) 
   2      7     7.963     4.977    0.65E-04    0.90E-04    0.59E-07
   2      7     7.963    13.467    0.48E-03    0.73E-03    0.12E-06
   0      8     7.963    13.303    0.22E-04    0.12E-04    0.51E-08
   0      8     7.963    44.613    0.10E-03    0.16E-03    0.47E-07
   1      8     7.963     5.276    0.66E-04    0.10E-04    0.22E-07
   1      8     7.963     7.322    0.38E-03    0.18E-03    0.17E-06
 Optimization of the real space projectors (new method)

 maximal supplied QI-value         = 34.20
 optimisation between [QCUT,QGAM] = [  7.87, 16.08] = [ 17.33, 72.37] Ry 
 Optimized for a Real-space Cutoff    1.85 Angstroem

   l    n(q)    QCUT    max X(q) W(low)/X(q) W(high)/X(q)  e(spline) 
   0      9     7.867     4.436    0.44E-04    0.71E-04    0.23E-06
   0      9     7.867    15.341    0.29E-03    0.73E-03    0.99E-06
   1      8     7.867     4.196    0.27E-03    0.13E-02    0.91E-06
 PAW_PBE Cu 05Jan2001                   :
 energy of atom  1       EATOM=-1390.9800
 kinetic energy error for atom=    0.0930 (will be added to EATOM!!)
 PAW_PBE H 15Jun2001                    :
 energy of atom  2       EATOM=  -12.4884
 kinetic energy error for atom=    0.0868 (will be added to EATOM!!)
 
 
 POSCAR: Cu  H                                   
  positions in direct lattice
  No initial velocities read in
 exchange correlation table for  LEXCH =        8
   RHO(1)=    0.500       N(1)  =     2000
   RHO(2)=  100.500       N(2)  =     4000
 


--------------------------------------------------------------------------------------------------------


 ion  position               nearest neighbor table
   1  0.000  0.000  0.396-   2 2.57   2 2.57   2 2.57
   2  0.333  0.333  0.465-   3 2.57   1 2.57   1 2.57   3 2.57   1 2.57   3 2.57
   3  0.667  0.667  0.535-   2 2.57   4 2.57   4 2.57   2 2.57   2 2.57   4 2.57
   4  0.000  0.000  0.604-   5 1.80   3 2.57   3 2.57   3 2.57
   5  0.000  0.000  0.663-   4 1.80
 
  LATTYP: Found a hexagonal cell.
 ALAT       =     2.5738686835
 C/A-ratio  =    11.7739747694
  
  Lattice vectors:
  
 A1 = (   1.2869343418,  -2.2290356659,   0.0000000000)
 A2 = (  -2.5738686835,   0.0000000000,   0.0000000000)
 A3 = (   0.0000000000,   0.0000000000, -30.3046649396)


Analysis of symmetry for initial positions (statically):
=====================================================================
 Subroutine PRICEL returns:
 Original cell was already a primitive cell.
 

 Routine SETGRP: Setting up the symmetry group for a 
 hexagonal supercell.


 Subroutine GETGRP returns: Found  6 space group operations
 (whereof  6 operations were pure point group operations)
 out of a pool of 24 trial point group operations.


The static configuration has the point symmetry C_3v.


Analysis of symmetry for dynamics (positions and initial velocities):
=====================================================================
 Subroutine PRICEL returns:
 Original cell was already a primitive cell.
 

 Routine SETGRP: Setting up the symmetry group for a 
 hexagonal supercell.


 Subroutine GETGRP returns: Found  6 space group operations
 (whereof  6 operations were pure point group operations)
 out of a pool of 24 trial point group operations.


The dynamic configuration has the point symmetry C_3v.


 Subroutine INISYM returns: Found  6 space group operations
 (whereof  6 operations are pure point group operations),
 and found     1 'primitive' translations

 
 
 KPOINTS: k-density: 4.0                          

Automatic generation of k-mesh.
Space group operators:
 irot       det(A)        alpha          n_x          n_y          n_z        tau_x        tau_y        tau_z
    1     1.000000     0.000001     1.000000     0.000000     0.000000     0.000000     0.000000     0.000000
    2     1.000000   120.000000     0.000000     0.000000     1.000000     0.000000     0.000000     0.000000
    3     1.000000   120.000000     0.000000     0.000000    -1.000000     0.000000     0.000000     0.000000
    4    -1.000000   180.000000     0.500000    -0.866025     0.000000     0.000000     0.000000     0.000000
    5    -1.000000   180.000000     1.000000     0.000000     0.000000     0.000000     0.000000     0.000000
    6    -1.000000   180.000000    -0.500000    -0.866025     0.000000     0.000000     0.000000     0.000000
 
 Subroutine IBZKPT returns following result:
 ===========================================
 
 Found     14 irreducible k-points:
 
 Following reciprocal coordinates:
            Coordinates               Weight
  0.000000  0.000000  0.000000      1.000000
  0.100000  0.000000  0.000000      6.000000
  0.200000 -0.000000  0.000000      6.000000
  0.300000 -0.000000  0.000000      6.000000
  0.400000 -0.000000  0.000000      6.000000
  0.500000 -0.000000  0.000000      3.000000
  0.200000  0.100000  0.000000      6.000000
  0.300000  0.100000  0.000000     12.000000
  0.400000  0.100000  0.000000     12.000000
  0.500000  0.100000  0.000000     12.000000
  0.400000  0.200000  0.000000      6.000000
  0.500000  0.200000  0.000000     12.000000
 -0.400000  0.200000  0.000000      6.000000
 -0.400000  0.300000  0.000000      6.000000
 
 Following cartesian coordinates:
            Coordinates               Weight
  0.000000  0.000000  0.000000      1.000000
  0.038852 -0.022431  0.000000      6.000000
  0.077704 -0.044862  0.000000      6.000000
  0.116556 -0.067294  0.000000      6.000000
  0.155408 -0.089725  0.000000      6.000000
  0.194260 -0.112156  0.000000      3.000000
  0.077704 -0.000000  0.000000      6.000000
  0.116556 -0.022431  0.000000     12.000000
  0.155408 -0.044862  0.000000     12.000000
  0.194260 -0.067294  0.000000     12.000000
  0.155408  0.000000  0.000000      6.000000
  0.194260 -0.022431  0.000000     12.000000
 -0.155408  0.179450  0.000000      6.000000
 -0.155408  0.224312  0.000000      6.000000
 


--------------------------------------------------------------------------------------------------------




 Dimension of arrays:
   k-points           NKPTS =     14   k-points in BZ     NKDIM =     14   number of bands    NBANDS=     28
   number of dos      NEDOS =    301   number of ions     NIONS =      5
   non local maximal  LDIM  =      6   non local SUM 2l+1 LMDIM =     18
   total plane-waves  NPLWV =  12000
   max r-space proj   IRMAX =   1888   max aug-charges    IRDMAX=   2622
   dimension x,y,z NGX =    10 NGY =   10 NGZ =  120
   dimension x,y,z NGXF=    20 NGYF=   20 NGZF=  240
   support grid    NGXF=    20 NGYF=   20 NGZF=  240
   ions per type =               4   1
   NGX,Y,Z   is equivalent  to a cutoff of   6.46,  6.46,  6.58 a.u.
   NGXF,Y,Z  is equivalent  to a cutoff of  12.92, 12.92, 13.17 a.u.

 SYSTEM =  unknown system                          
 POSCAR =  Cu  H                                   

 Startparameter for this run:
   NWRITE =      2    write-flag & timer
   PREC   = normal    normal or accurate (medium, high low for compatibility)
   ISTART =      0    job   : 0-new  1-cont  2-samecut
   ICHARG =      2    charge: 1-file 2-atom 10-const
   ISPIN  =      1    spin polarized calculation?
   LNONCOLLINEAR =      F non collinear calculations
   LSORBIT =      F    spin-orbit coupling
   INIWAV =      1    electr: 0-lowe 1-rand  2-diag
   LASPH  =      F    aspherical Exc in radial PAW
   METAGGA=      F    non-selfconsistent MetaGGA calc.

 Electronic Relaxation 1
   ENCUT  =  250.0 eV  18.37 Ry    4.29 a.u.   3.32  3.32 39.07*2*pi/ulx,y,z
   ENINI  =  250.0     initial cutoff
   ENAUG  =  516.5 eV  augmentation charge cutoff
   NELM   =     60;   NELMIN=  4; NELMDL= -5     # of ELM steps 
   EDIFF  = 0.1E-04   stopping-criterion for ELM
   LREAL  =      T    real-space projection
   NLSPLINE    = F    spline interpolate recip. space projectors
   LCOMPAT=      F    compatible to vasp.4.4
   GGA_COMPAT  = T    GGA compatible to vasp.4.4-vasp.4.6
   LMAXPAW     = -100 max onsite density
   LMAXMIX     =    2 max onsite mixed and CHGCAR
   VOSKOWN=      0    Vosko Wilk Nusair interpolation
   ROPT   =   -0.00050  -0.00050
 Ionic relaxation
   EDIFFG = -.5E-01   stopping-criterion for IOM
   NSW    =     50    number of steps for IOM
   NBLOCK =      1;   KBLOCK =     50    inner block; outer block 
   IBRION =      1    ionic relax: 0-MD 1-quasi-New 2-CG
   NFREE  =      0    steps in history (QN), initial steepest desc. (CG)
   ISIF   =      2    stress and relaxation
   IWAVPR =     11    prediction:  0-non 1-charg 2-wave 3-comb
   ISYM   =      2    0-nonsym 1-usesym 2-fastsym
   LCORR  =      T    Harris-Foulkes like correction to forces

   POTIM  = 0.5000    time-step for ionic-motion
   TEIN   =    0.0    initial temperature
   TEBEG  =    0.0;   TEEND  =   0.0 temperature during run
   SMASS  =  -3.00    Nose mass-parameter (am)
   estimated Nose-frequenzy (Omega)   =  0.10E-29 period in steps =****** mass=  -0.151E-27a.u.
   SCALEE = 1.0000    scale energy and forces
   NPACO  =    256;   APACO  = 16.0  distance and # of slots for P.C.
   PSTRESS=    0.0 pullay stress

  Mass of Ions in am
   POMASS =  63.55  1.00
  Ionic Valenz
   ZVAL   =  11.00  1.00
  Atomic Wigner-Seitz radii
   RWIGS  =  -1.00 -1.00
  virtual crystal weights 
   VCA    =   1.00  1.00
   NELECT =      45.0000    total number of electrons
   NUPDOWN=      -1.0000    fix difference up-down

 DOS related values:
   EMIN   =  10.00;   EMAX   =-10.00  energy-range for DOS
   EFERMI =   0.00
   ISMEAR =     0;   SIGMA  =   0.20  broadening in eV -4-tet -1-fermi 0-gaus

 Electronic relaxation 2 (details)
   IALGO  =     68    algorithm
   LDIAG  =      T    sub-space diagonalisation (order eigenvalues)
   LSUBROT=      F    optimize rotation matrix (better conditioning)
   TURBO    =      0    0=normal 1=particle mesh
   IRESTART =      0    0=no restart 2=restart with 2 vectors
   NREBOOT  =      0    no. of reboots
   NMIN     =      0    reboot dimension
   EREF     =   0.00    reference energy to select bands
   IMIX   =      4    mixing-type and parameters
     AMIX     =   0.40;   BMIX     =  1.00
     AMIX_MAG =   1.60;   BMIX_MAG =  1.00
     AMIN     =   0.10
     WC   =   100.;   INIMIX=   1;  MIXPRE=   1;  MAXMIX=  80

 Intra band minimization:
   WEIMIN = 0.0010     energy-eigenvalue tresh-hold
   EBREAK =  0.89E-07  absolut break condition
   DEPER  =   0.30     relativ break condition  

   TIME   =   0.40     timestep for ELM

  volume/ion in A,a.u.               =      34.77       234.66
  Fermi-wavevector in a.u.,A,eV,Ry     =   1.043297  1.971546 14.809520  1.088469
  Thomas-Fermi vector in A             =   2.178000
 
 Write flags
   LWAVE        =      F    write WAVECAR
   LDOWNSAMPLE  =      F    k-point downsampling of WAVECAR
   LCHARG       =      T    write CHGCAR
   LVTOT        =      F    write LOCPOT, total local potential
   LVHAR        =      F    write LOCPOT, Hartree potential only
   LELF         =      F    write electronic localiz. function (ELF)
   LORBIT       =      0    0 simple, 1 ext, 2 COOP (PROOUT), +10 PAW based schemes


 Dipole corrections
   LMONO  =      F    monopole corrections only (constant potential shift)
   LDIPOL =      F    correct potential (dipole corrections)
   IDIPOL =      0    1-x, 2-y, 3-z, 4-all directions 
   EPSILON=  1.0000000 bulk dielectric constant

 Exchange correlation treatment:
   GGA     =    --    GGA type
   LEXCH   =     8    internal setting for exchange type
   VOSKOWN=      0    Vosko Wilk Nusair interpolation
   LHFCALC =     F    Hartree Fock is set to
   LHFONE  =     F    Hartree Fock one center treatment
   AEXX    =    0.0000 exact exchange contribution

 Linear response parameters
   LEPSILON=     F    determine dielectric tensor
   LRPA    =     F    only Hartree local field effects (RPA)
   LNABLA  =     F    use nabla operator in PAW spheres
   LVEL    =     F    velocity operator in full k-point grid
   LINTERFAST=   F  fast interpolation
   KINTER  =     0    interpolate to denser k-point grid
   CSHIFT  =0.1000    complex shift for real part using Kramers Kronig
   OMEGAMAX=  -1.0    maximum frequency
   DEG_THRESHOLD= 0.2000000E-02 threshold for treating states as degnerate
   RTIME   =   -0.100 relaxation time in fs
  (WPLASMAI=    0.000 imaginary part of plasma frequency in eV, 0.658/RTIME)
   DFIELD  = 0.0000000 0.0000000 0.0000000 field for delta impulse in time
 
 Orbital magnetization related:
   ORBITALMAG=     F  switch on orbital magnetization
   LCHIMAG   =     F  perturbation theory with respect to B field
   DQ        =  0.001000  dq finite difference perturbation B field
   LLRAUG    =     F  two centre corrections for induced B field



--------------------------------------------------------------------------------------------------------


 quasi-Newton-method for relaxation of ions
 charge density and potential will be updated during run
 non-spin polarized calculation
 RMM-DIIS sequential band-by-band and
  variant of blocked Davidson during initial phase
 perform sub-space diagonalisation
    before iterative eigenvector-optimisation
 modified Broyden-mixing scheme, WC =      100.0
 initial mixing is a Kerker type mixing with AMIX =  0.4000 and BMIX =      1.0000
 Hartree-type preconditioning will be used
 using additional bands            5
 real space projection scheme for non local part
 use partial core corrections
 calculate Harris-corrections to forces 
   (improved forces if not selfconsistent)
 use gradient corrections 
 use of overlap-Matrix (Vanderbilt PP)
 Gauss-broadening in eV      SIGMA  =   0.20


--------------------------------------------------------------------------------------------------------


  energy-cutoff  :      250.00
  volume of cell :      173.87
      direct lattice vectors                 reciprocal lattice vectors
     2.573868684  0.000000000  0.000000000     0.388520209 -0.224312248  0.000000000
     1.286934342  2.229035666  0.000000000     0.000000000  0.448624495  0.000000000
     0.000000000  0.000000000 30.304664940     0.000000000  0.000000000  0.032998220

  length of vectors
     2.573868684  2.573868684 30.304664940     0.448624495  0.448624495  0.032998220


 
 k-points in units of 2pi/SCALE and weight: k-density: 4.0                          
   0.00000000  0.00000000  0.00000000       0.010
   0.03885202 -0.02243122  0.00000000       0.060
   0.07770404 -0.04486245  0.00000000       0.060
   0.11655606 -0.06729367  0.00000000       0.060
   0.15540808 -0.08972490  0.00000000       0.060
   0.19426010 -0.11215612  0.00000000       0.030
   0.07770404 -0.00000000  0.00000000       0.060
   0.11655606 -0.02243122  0.00000000       0.120
   0.15540808 -0.04486245  0.00000000       0.120
   0.19426010 -0.06729367  0.00000000       0.120
   0.15540808  0.00000000  0.00000000       0.060
   0.19426010 -0.02243122  0.00000000       0.120
  -0.15540808  0.17944980  0.00000000       0.060
  -0.15540808  0.22431225  0.00000000       0.060
 
 k-points in reciprocal lattice and weights: k-density: 4.0                          
   0.00000000  0.00000000  0.00000000       0.010
   0.10000000  0.00000000  0.00000000       0.060
   0.20000000 -0.00000000  0.00000000       0.060
   0.30000000 -0.00000000  0.00000000       0.060
   0.40000000 -0.00000000  0.00000000       0.060
   0.50000000 -0.00000000  0.00000000       0.030
   0.20000000  0.10000000  0.00000000       0.060
   0.30000000  0.10000000  0.00000000       0.120
   0.40000000  0.10000000  0.00000000       0.120
   0.50000000  0.10000000  0.00000000       0.120
   0.40000000  0.20000000  0.00000000       0.060
   0.50000000  0.20000000  0.00000000       0.120
  -0.40000000  0.20000000  0.00000000       0.060
  -0.40000000  0.30000000  0.00000000       0.060
 
 position of ions in fractional coordinates (direct lattice) 
   0.00000000  0.00000000  0.39597864
   0.33333333  0.33333333  0.46532621
   0.66666667  0.66666667  0.53467379
   0.00000000  0.00000000  0.60402136
   0.00000000  0.00000000  0.66341816
 
 position of ions in cartesian coordinates  (Angst):
   0.00000000  0.00000000 12.00000000
   1.28693434  0.74301189 14.10155498
   2.57386868  1.48602378 16.20310996
   0.00000000  0.00000000 18.30466494
   0.00000000  0.00000000 20.10466494
 


--------------------------------------------------------------------------------------------------------


 k-point  1 :   0.0000 0.0000 0.0000  plane waves:    1609
 k-point  2 :   0.1000 0.0000 0.0000  plane waves:    1589
 k-point  3 :   0.2000-0.0000 0.0000  plane waves:    1586
 k-point  4 :   0.3000-0.0000 0.0000  plane waves:    1542
 k-point  5 :   0.4000-0.0000 0.0000  plane waves:    1568
 k-point  6 :   0.5000-0.0000 0.0000  plane waves:    1570
 k-point  7 :   0.2000 0.1000 0.0000  plane waves:    1579
 k-point  8 :   0.3000 0.1000 0.0000  plane waves:    1569
 k-point  9 :   0.4000 0.1000 0.0000  plane waves:    1552
 k-point 10 :   0.5000 0.1000 0.0000  plane waves:    1549
 k-point 11 :   0.4000 0.2000 0.0000  plane waves:    1545
 k-point 12 :   0.5000 0.2000 0.0000  plane waves:    1549
 k-point 13 :  -0.4000 0.2000 0.0000  plane waves:    1546
 k-point 14 :  -0.4000 0.3000 0.0000  plane waves:    1547

 maximum and minimum number of plane-waves per node :       808      768

 maximum number of plane-waves:      1609
 maximum index in each direction: 
   IXMAX=    3   IYMAX=    3   IZMAX=   39
   IXMIN=   -3   IYMIN=   -3   IZMIN=  -39


 real space projection operators:
  total allocation   :        839.75 KBytes
  max/ min on nodes  :        422.66        417.09


 parallel 3D FFT for wavefunctions:
    minimum data exchange during FFTs selected (reduces bandwidth)
 parallel 3D FFT for charge:
    minimum data exchange during FFTs selected (reduces bandwidth)


 total amount of memory used by VASP MPI-rank0    35973. kBytes
=======================================================================

   base      :      30000. kBytes
   nonlr-proj:        675. kBytes
   fftplans  :        995. kBytes
   grid      :       1592. kBytes
   one-center:         46. kBytes
   wavefun   :       2665. kBytes
 
     INWAV:  cpu time    0.0010: real time    0.0005
 Broyden mixing: mesh for mixing (old mesh)
   NGX =  7   NGY =  7   NGZ = 79
  (NGX  = 20   NGY  = 20   NGZ  =240)
  gives a total of   3871 points

 initial charge density was supplied:
 charge density of overlapping atoms calculated
 number of electron      45.0000000 magnetization 
 keeping initial charge density in first step


--------------------------------------------------------------------------------------------------------


 Maximum index for non-local projection operator          884
 Maximum index for augmentation-charges          593 (set IRDMAX)


--------------------------------------------------------------------------------------------------------


 First call to EWALD:  gamma=   0.318
 Maximum number of real-space cells 6x 6x 1
 Maximum number of reciprocal cells 2x 2x13

    FEWALD:  cpu time    0.0020: real time    0.0015


--------------------------------------- Iteration      1(   1)  ---------------------------------------


    POTLOK:  cpu time    0.0150: real time    0.0623
    SETDIJ:  cpu time    0.0040: real time    0.0041
     EDDAV:  cpu time    0.2770: real time    0.2814
       DOS:  cpu time    0.0010: real time    0.0012
    --------------------------------------------
      LOOP:  cpu time    0.2970: real time    0.3490

 eigenvalue-minimisations  :   816
 total energy-change (2. order) : 0.1927616E+03  (-0.1380772E+04)
 number of electron      45.0000000 magnetization 
 augmentation part       45.0000000 magnetization 

 Free energy of the ion-electron system (eV)
  ---------------------------------------------------
  alpha Z        PSCENC =       120.87645803
  Ewald energy   TEWEN  =     37628.65153159
  -Hartree energ DENC   =    -42755.50260351
  -exchange      EXHF   =         0.00000000
  -V(xc)+E(xc)   XCENC  =       176.86281830
  PAW double counting   =      4328.99049516    -4905.09836044
  entropy T*S    EENTRO =        -0.04111265
  eigenvalues    EBANDS =        22.07275067
  atomic energy  EATOM  =      5575.94961827
  Solvation  Ediel_sol  =         0.00000000
  ---------------------------------------------------
  free energy    TOTEN  =       192.76159541 eV

  energy without entropy =      192.80270806  energy(sigma->0) =      192.78215174


--------------------------------------------------------------------------------------------------------




--------------------------------------- Iteration      1(   2)  ---------------------------------------


     EDDAV:  cpu time    0.2750: real time    0.2758
       DOS:  cpu time    0.0010: real time    0.0010
    --------------------------------------------
      LOOP:  cpu time    0.2760: real time    0.2768

 eigenvalue-minimisations  :   828
 total energy-change (2. order) :-0.2034017E+03  (-0.1985263E+03)
 number of electron      45.0000000 magnetization 
 augmentation part       45.0000000 magnetization 

 Free energy of the ion-electron system (eV)
  ---------------------------------------------------
  alpha Z        PSCENC =       120.87645803
  Ewald energy   TEWEN  =     37628.65153159
  -Hartree energ DENC   =    -42755.50260351
  -exchange      EXHF   =         0.00000000
  -V(xc)+E(xc)   XCENC  =       176.86281830
  PAW double counting   =      4328.99049516    -4905.09836044
  entropy T*S    EENTRO =        -0.05687718
  eigenvalues    EBANDS =      -181.31320174
  atomic energy  EATOM  =      5575.94961827
  Solvation  Ediel_sol  =         0.00000000
  ---------------------------------------------------
  free energy    TOTEN  =       -10.64012152 eV

  energy without entropy =      -10.58324434  energy(sigma->0) =      -10.61168293


--------------------------------------------------------------------------------------------------------




--------------------------------------- Iteration      1(   3)  ---------------------------------------


     EDDAV:  cpu time    0.2770: real time    0.2787
       DOS:  cpu time    0.0010: real time    0.0010
    --------------------------------------------
      LOOP:  cpu time    0.2780: real time    0.2797

 eigenvalue-minimisations  :   836
 total energy-change (2. order) :-0.9548726E+01  (-0.9396472E+01)
 number of electron      45.0000000 magnetization 
 augmentation part       45.0000000 magnetization 

 Free energy of the ion-electron system (eV)
  ---------------------------------------------------
  alpha Z        PSCENC =       120.87645803
  Ewald energy   TEWEN  =     37628.65153159
  -Hartree energ DENC   =    -42755.50260351
  -exchange      EXHF   =         0.00000000
  -V(xc)+E(xc)   XCENC  =       176.86281830
  PAW double counting   =      4328.99049516    -4905.09836044
  entropy T*S    EENTRO =        -0.06566666
  eigenvalues    EBANDS =      -190.85313838
  atomic energy  EATOM  =      5575.94961827
  Solvation  Ediel_sol  =         0.00000000
  ---------------------------------------------------
  free energy    TOTEN  =       -20.18884764 eV

  energy without entropy =      -20.12318098  energy(sigma->0) =      -20.15601431


--------------------------------------------------------------------------------------------------------




--------------------------------------- Iteration      1(   4)  ---------------------------------------


     EDDAV:  cpu time    0.2900: real time    0.2902
       DOS:  cpu time    0.0010: real time    0.0010
    --------------------------------------------
      LOOP:  cpu time    0.2910: real time    0.2913

 eigenvalue-minimisations  :   884
 total energy-change (2. order) :-0.9143492E-01  (-0.9125893E-01)
 number of electron      45.0000000 magnetization 
 augmentation part       45.0000000 magnetization 

 Free energy of the ion-electron system (eV)
  ---------------------------------------------------
  alpha Z        PSCENC =       120.87645803
  Ewald energy   TEWEN  =     37628.65153159
  -Hartree energ DENC   =    -42755.50260351
  -exchange      EXHF   =         0.00000000
  -V(xc)+E(xc)   XCENC  =       176.86281830
  PAW double counting   =      4328.99049516    -4905.09836044
  entropy T*S    EENTRO =        -0.06577351
  eigenvalues    EBANDS =      -190.94446645
  atomic energy  EATOM  =      5575.94961827
  Solvation  Ediel_sol  =         0.00000000
  ---------------------------------------------------
  free energy    TOTEN  =       -20.28028256 eV

  energy without entropy =      -20.21450905  energy(sigma->0) =      -20.24739581


--------------------------------------------------------------------------------------------------------




--------------------------------------- Iteration      1(   5)  ---------------------------------------


     EDDAV:  cpu time    0.2940: real time    0.2947
       DOS:  cpu time    0.0010: real time    0.0010
    CHARGE:  cpu time    0.0170: real time    0.0173
    MIXING:  cpu time    0.0010: real time    0.0010
    --------------------------------------------
      LOOP:  cpu time    0.3130: real time    0.3140

 eigenvalue-minimisations  :   900
 total energy-change (2. order) :-0.1226380E-02  (-0.1226358E-02)
 number of electron      45.0000013 magnetization 
 augmentation part       26.4809509 magnetization 

 Broyden mixing:
  rms(total) = 0.15657E+01    rms(broyden)= 0.15651E+01
  rms(prec ) = 0.16370E+01
  weight for this iteration     100.00

 Free energy of the ion-electron system (eV)
  ---------------------------------------------------
  alpha Z        PSCENC =       120.87645803
  Ewald energy   TEWEN  =     37628.65153159
  -Hartree energ DENC   =    -42755.50260351
  -exchange      EXHF   =         0.00000000
  -V(xc)+E(xc)   XCENC  =       176.86281830
  PAW double counting   =      4328.99049516    -4905.09836044
  entropy T*S    EENTRO =        -0.06577346
  eigenvalues    EBANDS =      -190.94569288
  atomic energy  EATOM  =      5575.94961827
  Solvation  Ediel_sol  =         0.00000000
  ---------------------------------------------------
  free energy    TOTEN  =       -20.28150894 eV

  energy without entropy =      -20.21573548  energy(sigma->0) =      -20.24862221


--------------------------------------------------------------------------------------------------------




--------------------------------------- Iteration      1(   6)  ---------------------------------------


    POTLOK:  cpu time    0.0110: real time    0.0117
    SETDIJ:  cpu time    0.0040: real time    0.0033
    EDDIAG:  cpu time    0.0560: real time    0.0568
  RMM-DIIS:  cpu time    0.1480: real time    0.1482
    ORTHCH:  cpu time    0.0070: real time    0.0072
       DOS:  cpu time    0.0010: real time    0.0009
    CHARGE:  cpu time    0.0170: real time    0.0168
    MIXING:  cpu time    0.0010: real time    0.0008
    --------------------------------------------
      LOOP:  cpu time    0.2450: real time    0.2457

 eigenvalue-minimisations  :   790
 total energy-change (2. order) :-0.2266455E+00  (-0.5102503E+01)
 number of electron      45.0000030 magnetization 
 augmentation part       30.3445833 magnetization 

 Broyden mixing:
  rms(total) = 0.10348E+01    rms(broyden)= 0.10341E+01
  rms(prec ) = 0.12255E+01
  weight for this iteration     100.00

 eigenvalues of (default mixing * dielectric matrix)
  average eigenvalue GAMMA=   0.6087
  0.6087

 Free energy of the ion-electron system (eV)
  ---------------------------------------------------
  alpha Z        PSCENC =       120.87645803
  Ewald energy   TEWEN  =     37628.65153159
  -Hartree energ DENC   =    -42596.20696942
  -exchange      EXHF   =         0.00000000
  -V(xc)+E(xc)   XCENC  =       171.37687897
  PAW double counting   =      4185.61027588    -4723.17962877
  entropy T*S    EENTRO =        -0.03917600
  eigenvalues    EBANDS =      -383.54714300
  atomic energy  EATOM  =      5575.94961827
  Solvation  Ediel_sol  =         0.00000000
  ---------------------------------------------------
  free energy    TOTEN  =       -20.50815445 eV

  energy without entropy =      -20.46897845  energy(sigma->0) =      -20.48856645


--------------------------------------------------------------------------------------------------------




--------------------------------------- Iteration      1(   7)  ---------------------------------------


    POTLOK:  cpu time    0.0110: real time    0.0139
    SETDIJ:  cpu time    0.0040: real time    0.0032
    EDDIAG:  cpu time    0.0550: real time    0.0563
  RMM-DIIS:  cpu time    0.1470: real time    0.1476
    ORTHCH:  cpu time    0.0080: real time    0.0072
       DOS:  cpu time    0.0010: real time    0.0010
    CHARGE:  cpu time    0.0170: real time    0.0168
    MIXING:  cpu time    0.0010: real time    0.0005
    --------------------------------------------
      LOOP:  cpu time    0.2440: real time    0.2465

 eigenvalue-minimisations  :   788
 total energy-change (2. order) : 0.2872763E+01  (-0.9843116E+00)
 number of electron      45.0000014 magnetization 
 augmentation part       28.5528758 magnetization 

 Broyden mixing:
  rms(total) = 0.61187E+00    rms(broyden)= 0.61114E+00
  rms(prec ) = 0.99984E+00
  weight for this iteration     100.00

 eigenvalues of (default mixing * dielectric matrix)
  average eigenvalue GAMMA=   0.3989
  0.6320  0.1659

 Free energy of the ion-electron system (eV)
  ---------------------------------------------------
  alpha Z        PSCENC =       120.87645803
  Ewald energy   TEWEN  =     37628.65153159
  -Hartree energ DENC   =    -42687.36418174
  -exchange      EXHF   =         0.00000000
  -V(xc)+E(xc)   XCENC  =       173.14143319
  PAW double counting   =      4297.04302778    -4860.83509916
  entropy T*S    EENTRO =        -0.06809876
  eigenvalues    EBANDS =      -265.03008030
  atomic energy  EATOM  =      5575.94961827
  Solvation  Ediel_sol  =         0.00000000
  ---------------------------------------------------
  free energy    TOTEN  =       -17.63539110 eV

  energy without entropy =      -17.56729235  energy(sigma->0) =      -17.60134173


--------------------------------------------------------------------------------------------------------




--------------------------------------- Iteration      1(   8)  ---------------------------------------


    POTLOK:  cpu time    0.0110: real time    0.0116
    SETDIJ:  cpu time    0.0030: real time    0.0033
    EDDIAG:  cpu time    0.0560: real time    0.0562
  RMM-DIIS:  cpu time    0.1480: real time    0.1483
    ORTHCH:  cpu time    0.0070: real time    0.0072
       DOS:  cpu time    0.0010: real time    0.0010
    CHARGE:  cpu time    0.0170: real time    0.0169
    MIXING:  cpu time    0.0010: real time    0.0005
    --------------------------------------------
      LOOP:  cpu time    0.2440: real time    0.2449

 eigenvalue-minimisations  :   793
 total energy-change (2. order) : 0.1414017E+01  (-0.6123503E-01)
 number of electron      45.0000022 magnetization 
 augmentation part       28.7876691 magnetization 

 Broyden mixing:
  rms(total) = 0.23804E+00    rms(broyden)= 0.23666E+00
  rms(prec ) = 0.26490E+00
  weight for this iteration     100.00

 eigenvalues of (default mixing * dielectric matrix)
  average eigenvalue GAMMA=   0.5030
  0.8276  0.5089  0.1724

 Free energy of the ion-electron system (eV)
  ---------------------------------------------------
  alpha Z        PSCENC =       120.87645803
  Ewald energy   TEWEN  =     37628.65153159
  -Hartree energ DENC   =    -42683.31081468
  -exchange      EXHF   =         0.00000000
  -V(xc)+E(xc)   XCENC  =       173.13181071
  PAW double counting   =      4304.30127605    -4870.09760168
  entropy T*S    EENTRO =        -0.05337901
  eigenvalues    EBANDS =      -265.67027353
  atomic energy  EATOM  =      5575.94961827
  Solvation  Ediel_sol  =         0.00000000
  ---------------------------------------------------
  free energy    TOTEN  =       -16.22137425 eV

  energy without entropy =      -16.16799524  energy(sigma->0) =      -16.19468474


--------------------------------------------------------------------------------------------------------




--------------------------------------- Iteration      1(   9)  ---------------------------------------


    POTLOK:  cpu time    0.0110: real time    0.0117
    SETDIJ:  cpu time    0.0040: real time    0.0033
    EDDIAG:  cpu time    0.0560: real time    0.0562
  RMM-DIIS:  cpu time    0.1470: real time    0.1476
    ORTHCH:  cpu time    0.0080: real time    0.0072
       DOS:  cpu time    0.0010: real time    0.0010
    CHARGE:  cpu time    0.0170: real time    0.0169
    MIXING:  cpu time    0.0000: real time    0.0005
    --------------------------------------------
      LOOP:  cpu time    0.2440: real time    0.2444

 eigenvalue-minimisations  :   791
 total energy-change (2. order) : 0.1048808E+00  (-0.1681037E-01)
 number of electron      45.0000023 magnetization 
 augmentation part       28.7930739 magnetization 

 Broyden mixing:
  rms(total) = 0.10944E+00    rms(broyden)= 0.10935E+00
  rms(prec ) = 0.14525E+00
  weight for this iteration     100.00

 eigenvalues of (default mixing * dielectric matrix)
  average eigenvalue GAMMA=   0.6097
  1.2295  0.2005  0.5592  0.4497

 Free energy of the ion-electron system (eV)
  ---------------------------------------------------
  alpha Z        PSCENC =       120.87645803
  Ewald energy   TEWEN  =     37628.65153159
  -Hartree energ DENC   =    -42679.77643197
  -exchange      EXHF   =         0.00000000
  -V(xc)+E(xc)   XCENC  =       173.07749052
  PAW double counting   =      4321.91085602    -4890.77949849
  entropy T*S    EENTRO =        -0.04764627
  eigenvalues    EBANDS =      -265.97887116
  atomic energy  EATOM  =      5575.94961827
  Solvation  Ediel_sol  =         0.00000000
  ---------------------------------------------------
  free energy    TOTEN  =       -16.11649346 eV

  energy without entropy =      -16.06884719  energy(sigma->0) =      -16.09267033


--------------------------------------------------------------------------------------------------------




--------------------------------------- Iteration      1(  10)  ---------------------------------------


    POTLOK:  cpu time    0.0120: real time    0.0116
    SETDIJ:  cpu time    0.0030: real time    0.0033
    EDDIAG:  cpu time    0.0560: real time    0.0562
  RMM-DIIS:  cpu time    0.1470: real time    0.1481
    ORTHCH:  cpu time    0.0070: real time    0.0072
       DOS:  cpu time    0.0010: real time    0.0010
    CHARGE:  cpu time    0.0180: real time    0.0168
    MIXING:  cpu time    0.0010: real time    0.0011
    --------------------------------------------
      LOOP:  cpu time    0.2450: real time    0.2452

 eigenvalue-minimisations  :   793
 total energy-change (2. order) : 0.1794627E-01  (-0.4529308E-02)
 number of electron      45.0000022 magnetization 
 augmentation part       28.7350674 magnetization 

 Broyden mixing:
  rms(total) = 0.10070E+00    rms(broyden)= 0.10062E+00
  rms(prec ) = 0.11428E+00
  weight for this iteration     100.00

 eigenvalues of (default mixing * dielectric matrix)
  average eigenvalue GAMMA=   0.7201
  1.9354  0.5866  0.5866  0.1980  0.2940

 Free energy of the ion-electron system (eV)
  ---------------------------------------------------
  alpha Z        PSCENC =       120.87645803
  Ewald energy   TEWEN  =     37628.65153159
  -Hartree energ DENC   =    -42684.84078065
  -exchange      EXHF   =         0.00000000
  -V(xc)+E(xc)   XCENC  =       172.96587495
  PAW double counting   =      4345.39137317    -4917.60621695
  entropy T*S    EENTRO =        -0.05249929
  eigenvalues    EBANDS =      -257.43390631
  atomic energy  EATOM  =      5575.94961827
  Solvation  Ediel_sol  =         0.00000000
  ---------------------------------------------------
  free energy    TOTEN  =       -16.09854719 eV

  energy without entropy =      -16.04604790  energy(sigma->0) =      -16.07229755


--------------------------------------------------------------------------------------------------------




--------------------------------------- Iteration      1(  11)  ---------------------------------------


    POTLOK:  cpu time    0.0110: real time    0.0118
    SETDIJ:  cpu time    0.0040: real time    0.0033
    EDDIAG:  cpu time    0.0550: real time    0.0562
  RMM-DIIS:  cpu time    0.1490: real time    0.1484
    ORTHCH:  cpu time    0.0070: real time    0.0072
       DOS:  cpu time    0.0010: real time    0.0009
    CHARGE:  cpu time    0.0170: real time    0.0168
    MIXING:  cpu time    0.0000: real time    0.0006
    --------------------------------------------
      LOOP:  cpu time    0.2450: real time    0.2451

 eigenvalue-minimisations  :   793
 total energy-change (2. order) : 0.2135440E-01  (-0.2921695E-02)
 number of electron      45.0000022 magnetization 
 augmentation part       28.7390947 magnetization 

 Broyden mixing:
  rms(total) = 0.43255E-01    rms(broyden)= 0.43239E-01
  rms(prec ) = 0.49027E-01
  weight for this iteration     100.00

 eigenvalues of (default mixing * dielectric matrix)
  average eigenvalue GAMMA=   0.7743
  2.0767  0.7975  0.7975  0.4995  0.1985  0.2764

 Free energy of the ion-electron system (eV)
  ---------------------------------------------------
  alpha Z        PSCENC =       120.87645803
  Ewald energy   TEWEN  =     37628.65153159
  -Hartree energ DENC   =    -42684.20305075
  -exchange      EXHF   =         0.00000000
  -V(xc)+E(xc)   XCENC  =       172.85888953
  PAW double counting   =      4362.73148370    -4937.19592095
  entropy T*S    EENTRO =        -0.05257954
  eigenvalues    EBANDS =      -255.69362267
  atomic energy  EATOM  =      5575.94961827
  Solvation  Ediel_sol  =         0.00000000
  ---------------------------------------------------
  free energy    TOTEN  =       -16.07719279 eV

  energy without entropy =      -16.02461325  energy(sigma->0) =      -16.05090302


--------------------------------------------------------------------------------------------------------




--------------------------------------- Iteration      1(  12)  ---------------------------------------


    POTLOK:  cpu time    0.0120: real time    0.0131
    SETDIJ:  cpu time    0.0030: real time    0.0032
    EDDIAG:  cpu time    0.0560: real time    0.0562
  RMM-DIIS:  cpu time    0.1480: real time    0.1480
    ORTHCH:  cpu time    0.0070: real time    0.0072
       DOS:  cpu time    0.0010: real time    0.0010
    CHARGE:  cpu time    0.0170: real time    0.0168
    MIXING:  cpu time    0.0010: real time    0.0007
    --------------------------------------------
      LOOP:  cpu time    0.2440: real time    0.2461

 eigenvalue-minimisations  :   791
 total energy-change (2. order) : 0.3382000E-02  (-0.9400414E-03)
 number of electron      45.0000022 magnetization 
 augmentation part       28.7810346 magnetization 

 Broyden mixing:
  rms(total) = 0.20862E-01    rms(broyden)= 0.20837E-01
  rms(prec ) = 0.25130E-01
  weight for this iteration     100.00

 eigenvalues of (default mixing * dielectric matrix)
  average eigenvalue GAMMA=   0.8200
  2.4020  1.1386  0.7264  0.5499  0.4365  0.1984  0.2883

 Free energy of the ion-electron system (eV)
  ---------------------------------------------------
  alpha Z        PSCENC =       120.87645803
  Ewald energy   TEWEN  =     37628.65153159
  -Hartree energ DENC   =    -42683.20190237
  -exchange      EXHF   =         0.00000000
  -V(xc)+E(xc)   XCENC  =       172.77544239
  PAW double counting   =      4368.76992929    -4943.63444722
  entropy T*S    EENTRO =        -0.05140291
  eigenvalues    EBANDS =      -256.20903786
  atomic energy  EATOM  =      5575.94961827
  Solvation  Ediel_sol  =         0.00000000
  ---------------------------------------------------
  free energy    TOTEN  =       -16.07381079 eV

  energy without entropy =      -16.02240788  energy(sigma->0) =      -16.04810933


--------------------------------------------------------------------------------------------------------




--------------------------------------- Iteration      1(  13)  ---------------------------------------


    POTLOK:  cpu time    0.0110: real time    0.0117
    SETDIJ:  cpu time    0.0040: real time    0.0033
    EDDIAG:  cpu time    0.0560: real time    0.0562
  RMM-DIIS:  cpu time    0.1480: real time    0.1483
    ORTHCH:  cpu time    0.0070: real time    0.0072
       DOS:  cpu time    0.0010: real time    0.0010
    CHARGE:  cpu time    0.0170: real time    0.0168
    MIXING:  cpu time    0.0010: real time    0.0007
    --------------------------------------------
      LOOP:  cpu time    0.2450: real time    0.2450

 eigenvalue-minimisations  :   792
 total energy-change (2. order) : 0.1111342E-02  (-0.2361536E-03)
 number of electron      45.0000022 magnetization 
 augmentation part       28.7914682 magnetization 

 Broyden mixing:
  rms(total) = 0.13369E-01    rms(broyden)= 0.13354E-01
  rms(prec ) = 0.21452E-01
  weight for this iteration     100.00

 eigenvalues of (default mixing * dielectric matrix)
  average eigenvalue GAMMA=   0.8463
  2.4296  1.2524  0.9772  0.7071  0.1984  0.5078  0.2852  0.4127

 Free energy of the ion-electron system (eV)
  ---------------------------------------------------
  alpha Z        PSCENC =       120.87645803
  Ewald energy   TEWEN  =     37628.65153159
  -Hartree energ DENC   =    -42684.29599711
  -exchange      EXHF   =         0.00000000
  -V(xc)+E(xc)   XCENC  =       172.72905407
  PAW double counting   =      4374.15529129    -4949.48783178
  entropy T*S    EENTRO =        -0.05164467
  eigenvalues    EBANDS =      -254.59917913
  atomic energy  EATOM  =      5575.94961827
  Solvation  Ediel_sol  =         0.00000000
  ---------------------------------------------------
  free energy    TOTEN  =       -16.07269945 eV

  energy without entropy =      -16.02105477  energy(sigma->0) =      -16.04687711


--------------------------------------------------------------------------------------------------------




--------------------------------------- Iteration      1(  14)  ---------------------------------------


    POTLOK:  cpu time    0.0110: real time    0.0115
    SETDIJ:  cpu time    0.0030: real time    0.0032
    EDDIAG:  cpu time    0.0560: real time    0.0561
  RMM-DIIS:  cpu time    0.1460: real time    0.1470
    ORTHCH:  cpu time    0.0080: real time    0.0072
       DOS:  cpu time    0.0010: real time    0.0010
    CHARGE:  cpu time    0.0170: real time    0.0168
    MIXING:  cpu time    0.0010: real time    0.0007
    --------------------------------------------
      LOOP:  cpu time    0.2430: real time    0.2434

 eigenvalue-minimisations  :   786
 total energy-change (2. order) : 0.6209300E-03  (-0.3632774E-04)
 number of electron      45.0000022 magnetization 
 augmentation part       28.7840962 magnetization 

 Broyden mixing:
  rms(total) = 0.64589E-02    rms(broyden)= 0.64127E-02
  rms(prec ) = 0.81989E-02
  weight for this iteration     100.00

 eigenvalues of (default mixing * dielectric matrix)
  average eigenvalue GAMMA=   0.9453
  2.3416  2.3416  0.9106  0.9106  0.6396  0.1985  0.4901  0.2823  0.3926

 Free energy of the ion-electron system (eV)
  ---------------------------------------------------
  alpha Z        PSCENC =       120.87645803
  Ewald energy   TEWEN  =     37628.65153159
  -Hartree energ DENC   =    -42686.15503080
  -exchange      EXHF   =         0.00000000
  -V(xc)+E(xc)   XCENC  =       172.72990843
  PAW double counting   =      4375.38614409    -4950.81628580
  entropy T*S    EENTRO =        -0.05245750
  eigenvalues    EBANDS =      -252.64196483
  atomic energy  EATOM  =      5575.94961827
  Solvation  Ediel_sol  =         0.00000000
  ---------------------------------------------------
  free energy    TOTEN  =       -16.07207852 eV

  energy without entropy =      -16.01962102  energy(sigma->0) =      -16.04584977


--------------------------------------------------------------------------------------------------------




--------------------------------------- Iteration      1(  15)  ---------------------------------------


    POTLOK:  cpu time    0.0110: real time    0.0114
    SETDIJ:  cpu time    0.0030: real time    0.0032
    EDDIAG:  cpu time    0.0560: real time    0.0560
  RMM-DIIS:  cpu time    0.1250: real time    0.1251
    ORTHCH:  cpu time    0.0070: real time    0.0072
       DOS:  cpu time    0.0010: real time    0.0010
    CHARGE:  cpu time    0.0170: real time    0.0168
    MIXING:  cpu time    0.0010: real time    0.0008
    --------------------------------------------
      LOOP:  cpu time    0.2210: real time    0.2215

 eigenvalue-minimisations  :   656
 total energy-change (2. order) :-0.2490016E-04  (-0.8458689E-05)
 number of electron      45.0000022 magnetization 
 augmentation part       28.7836967 magnetization 

 Broyden mixing:
  rms(total) = 0.56847E-02    rms(broyden)= 0.56566E-02
  rms(prec ) = 0.88195E-02
  weight for this iteration     100.00

 eigenvalues of (default mixing * dielectric matrix)
  average eigenvalue GAMMA=   1.0141
  2.6714  2.6714  1.0058  0.8732  0.8732  0.6727  0.1985  0.4943  0.2827  0.3976

 Free energy of the ion-electron system (eV)
  ---------------------------------------------------
  alpha Z        PSCENC =       120.87645803
  Ewald energy   TEWEN  =     37628.65153159
  -Hartree energ DENC   =    -42687.94202347
  -exchange      EXHF   =         0.00000000
  -V(xc)+E(xc)   XCENC  =       172.74444813
  PAW double counting   =      4375.00465531    -4950.25864141
  entropy T*S    EENTRO =        -0.05232592
  eigenvalues    EBANDS =      -251.04582394
  atomic energy  EATOM  =      5575.94961827
  Solvation  Ediel_sol  =         0.00000000
  ---------------------------------------------------
  free energy    TOTEN  =       -16.07210342 eV

  energy without entropy =      -16.01977749  energy(sigma->0) =      -16.04594045


--------------------------------------------------------------------------------------------------------




--------------------------------------- Iteration      1(  16)  ---------------------------------------


    POTLOK:  cpu time    0.0110: real time    0.0117
    SETDIJ:  cpu time    0.0040: real time    0.0033
    EDDIAG:  cpu time    0.0560: real time    0.0561
  RMM-DIIS:  cpu time    0.1410: real time    0.1410
    ORTHCH:  cpu time    0.0070: real time    0.0072
       DOS:  cpu time    0.0010: real time    0.0010
    CHARGE:  cpu time    0.0170: real time    0.0168
    MIXING:  cpu time    0.0010: real time    0.0008
    --------------------------------------------
      LOOP:  cpu time    0.2380: real time    0.2379

 eigenvalue-minimisations  :   741
 total energy-change (2. order) :-0.1875775E-04  (-0.1749847E-04)
 number of electron      45.0000022 magnetization 
 augmentation part       28.7828939 magnetization 

 Broyden mixing:
  rms(total) = 0.27013E-02    rms(broyden)= 0.26346E-02
  rms(prec ) = 0.36340E-02
  weight for this iteration     100.00

 eigenvalues of (default mixing * dielectric matrix)
  average eigenvalue GAMMA=   1.0718
  3.2363  2.4854  1.5490  0.9348  0.9348  0.6375  0.6375  0.1985  0.4951  0.2827
  0.3989

 Free energy of the ion-electron system (eV)
  ---------------------------------------------------
  alpha Z        PSCENC =       120.87645803
  Ewald energy   TEWEN  =     37628.65153159
  -Hartree energ DENC   =    -42689.47135718
  -exchange      EXHF   =         0.00000000
  -V(xc)+E(xc)   XCENC  =       172.75088163
  PAW double counting   =      4375.52013841    -4950.77933326
  entropy T*S    EENTRO =        -0.05237906
  eigenvalues    EBANDS =      -249.51768060
  atomic energy  EATOM  =      5575.94961827
  Solvation  Ediel_sol  =         0.00000000
  ---------------------------------------------------
  free energy    TOTEN  =       -16.07212217 eV

  energy without entropy =      -16.01974312  energy(sigma->0) =      -16.04593265


--------------------------------------------------------------------------------------------------------




--------------------------------------- Iteration      1(  17)  ---------------------------------------


    POTLOK:  cpu time    0.0110: real time    0.0123
    SETDIJ:  cpu time    0.0030: real time    0.0032
    EDDIAG:  cpu time    0.0560: real time    0.0562
  RMM-DIIS:  cpu time    0.1220: real time    0.1220
    ORTHCH:  cpu time    0.0070: real time    0.0072
       DOS:  cpu time    0.0010: real time    0.0010
    CHARGE:  cpu time    0.0170: real time    0.0169
    MIXING:  cpu time    0.0010: real time    0.0009
    --------------------------------------------
      LOOP:  cpu time    0.2180: real time    0.2197

 eigenvalue-minimisations  :   620
 total energy-change (2. order) :-0.1574509E-03  (-0.5861197E-05)
 number of electron      45.0000022 magnetization 
 augmentation part       28.7843707 magnetization 

 Broyden mixing:
  rms(total) = 0.95855E-03    rms(broyden)= 0.78901E-03
  rms(prec ) = 0.11521E-02
  weight for this iteration     100.00
  WARNING: grid for Broyden might be to small

 eigenvalues of (default mixing * dielectric matrix)
  average eigenvalue GAMMA=   1.2464
  4.2044  2.8759  2.2134  1.0735  0.9451  0.9451  0.6621  0.6621  0.1985  0.4953
  0.2827  0.3986

 Free energy of the ion-electron system (eV)
  ---------------------------------------------------
  alpha Z        PSCENC =       120.87645803
  Ewald energy   TEWEN  =     37628.65153159
  -Hartree energ DENC   =    -42690.45928464
  -exchange      EXHF   =         0.00000000
  -V(xc)+E(xc)   XCENC  =       172.74866176
  PAW double counting   =      4375.27734690    -4950.52811448
  entropy T*S    EENTRO =        -0.05244829
  eigenvalues    EBANDS =      -248.53604876
  atomic energy  EATOM  =      5575.94961827
  Solvation  Ediel_sol  =         0.00000000
  ---------------------------------------------------
  free energy    TOTEN  =       -16.07227962 eV

  energy without entropy =      -16.01983134  energy(sigma->0) =      -16.04605548


--------------------------------------------------------------------------------------------------------




--------------------------------------- Iteration      1(  18)  ---------------------------------------


    POTLOK:  cpu time    0.0110: real time    0.0114
    SETDIJ:  cpu time    0.0040: real time    0.0032
    EDDIAG:  cpu time    0.0550: real time    0.0561
  RMM-DIIS:  cpu time    0.1010: real time    0.1011
    ORTHCH:  cpu time    0.0070: real time    0.0072
       DOS:  cpu time    0.0010: real time    0.0010
    CHARGE:  cpu time    0.0180: real time    0.0169
    MIXING:  cpu time    0.0000: real time    0.0009
    --------------------------------------------
      LOOP:  cpu time    0.1970: real time    0.1977

 eigenvalue-minimisations  :   504
 total energy-change (2. order) :-0.1284895E-03  (-0.3508965E-05)
 number of electron      45.0000022 magnetization 
 augmentation part       28.7837970 magnetization 

 Broyden mixing:
  rms(total) = 0.71920E-03    rms(broyden)= 0.47108E-03
  rms(prec ) = 0.64564E-03
  weight for this iteration     100.00
  WARNING: grid for Broyden might be to small

 eigenvalues of (default mixing * dielectric matrix)
  average eigenvalue GAMMA=   1.3501
  4.9437  3.0085  2.4519  1.5809  1.0094  0.9325  0.9325  0.6584  0.6584  0.1985
  0.4954  0.2827  0.3986

 Free energy of the ion-electron system (eV)
  ---------------------------------------------------
  alpha Z        PSCENC =       120.87645803
  Ewald energy   TEWEN  =     37628.65153159
  -Hartree energ DENC   =    -42691.39626559
  -exchange      EXHF   =         0.00000000
  -V(xc)+E(xc)   XCENC  =       172.75087170
  PAW double counting   =      4374.86800909    -4950.12429298
  entropy T*S    EENTRO =        -0.05245104
  eigenvalues    EBANDS =      -247.59588718
  atomic energy  EATOM  =      5575.94961827
  Solvation  Ediel_sol  =         0.00000000
  ---------------------------------------------------
  free energy    TOTEN  =       -16.07240811 eV

  energy without entropy =      -16.01995708  energy(sigma->0) =      -16.04618260


--------------------------------------------------------------------------------------------------------




--------------------------------------- Iteration      1(  19)  ---------------------------------------


    POTLOK:  cpu time    0.0120: real time    0.0113
    SETDIJ:  cpu time    0.0030: real time    0.0032
    EDDIAG:  cpu time    0.0560: real time    0.0562
  RMM-DIIS:  cpu time    0.0920: real time    0.0922
    ORTHCH:  cpu time    0.0070: real time    0.0072
       DOS:  cpu time    0.0010: real time    0.0010
    CHARGE:  cpu time    0.0170: real time    0.0169
    MIXING:  cpu time    0.0010: real time    0.0009
    --------------------------------------------
      LOOP:  cpu time    0.1890: real time    0.1889

 eigenvalue-minimisations  :   455
 total energy-change (2. order) :-0.4381164E-04  (-0.7995710E-06)
 number of electron      45.0000022 magnetization 
 augmentation part       28.7842956 magnetization 

 Broyden mixing:
  rms(total) = 0.72251E-03    rms(broyden)= 0.47619E-03
  rms(prec ) = 0.57636E-03
  weight for this iteration     100.00
  WARNING: grid for Broyden might be to small

 eigenvalues of (default mixing * dielectric matrix)
  average eigenvalue GAMMA=   1.5295
  6.0878  3.6734  2.6147  2.2083  1.2931  0.9864  0.9297  0.9297  0.6570  0.6570
  0.1985  0.4954  0.2827  0.3986

 Free energy of the ion-electron system (eV)
  ---------------------------------------------------
  alpha Z        PSCENC =       120.87645803
  Ewald energy   TEWEN  =     37628.65153159
  -Hartree energ DENC   =    -42691.75761819
  -exchange      EXHF   =         0.00000000
  -V(xc)+E(xc)   XCENC  =       172.74925707
  PAW double counting   =      4374.97136016    -4950.24386614
  entropy T*S    EENTRO =        -0.05245730
  eigenvalues    EBANDS =      -247.21673541
  atomic energy  EATOM  =      5575.94961827
  Solvation  Ediel_sol  =         0.00000000
  ---------------------------------------------------
  free energy    TOTEN  =       -16.07245193 eV

  energy without entropy =      -16.01999463  energy(sigma->0) =      -16.04622328


--------------------------------------------------------------------------------------------------------




--------------------------------------- Iteration      1(  20)  ---------------------------------------


    POTLOK:  cpu time    0.0110: real time    0.0113
    SETDIJ:  cpu time    0.0040: real time    0.0032
    EDDIAG:  cpu time    0.0550: real time    0.0561
  RMM-DIIS:  cpu time    0.0910: real time    0.0906
    ORTHCH:  cpu time    0.0070: real time    0.0072
       DOS:  cpu time    0.0010: real time    0.0010
    CHARGE:  cpu time    0.0170: real time    0.0168
    MIXING:  cpu time    0.0010: real time    0.0010
    --------------------------------------------
      LOOP:  cpu time    0.1870: real time    0.1873

 eigenvalue-minimisations  :   439
 total energy-change (2. order) :-0.4358264E-04  (-0.3375945E-06)
 number of electron      45.0000022 magnetization 
 augmentation part       28.7841074 magnetization 

 Broyden mixing:
  rms(total) = 0.56285E-03    rms(broyden)= 0.14691E-03
  rms(prec ) = 0.19016E-03
  weight for this iteration     100.00
  WARNING: grid for Broyden might be to small

 eigenvalues of (default mixing * dielectric matrix)
  average eigenvalue GAMMA=   1.5818
  6.3717  3.9773  2.5369  2.5369  1.6167  1.1713  0.9704  0.9281  0.9281  0.1985
  0.6569  0.6569  0.2827  0.4954  0.3986

 Free energy of the ion-electron system (eV)
  ---------------------------------------------------
  alpha Z        PSCENC =       120.87645803
  Ewald energy   TEWEN  =     37628.65153159
  -Hartree energ DENC   =    -42692.03937014
  -exchange      EXHF   =         0.00000000
  -V(xc)+E(xc)   XCENC  =       172.74969102
  PAW double counting   =      4375.04098602    -4950.31218878
  entropy T*S    EENTRO =        -0.05245714
  eigenvalues    EBANDS =      -246.93676438
  atomic energy  EATOM  =      5575.94961827
  Solvation  Ediel_sol  =         0.00000000
  ---------------------------------------------------
  free energy    TOTEN  =       -16.07249551 eV

  energy without entropy =      -16.02003837  energy(sigma->0) =      -16.04626694


--------------------------------------------------------------------------------------------------------




--------------------------------------- Iteration      1(  21)  ---------------------------------------


    POTLOK:  cpu time    0.0110: real time    0.0113
    SETDIJ:  cpu time    0.0040: real time    0.0032
    EDDIAG:  cpu time    0.0550: real time    0.0561
  RMM-DIIS:  cpu time    0.0840: real time    0.0842
    ORTHCH:  cpu time    0.0070: real time    0.0072
       DOS:  cpu time    0.0010: real time    0.0010
    CHARGE:  cpu time    0.0180: real time    0.0169
    MIXING:  cpu time    0.0000: real time    0.0010
    --------------------------------------------
      LOOP:  cpu time    0.1800: real time    0.1810

 eigenvalue-minimisations  :   352
 total energy-change (2. order) :-0.1575962E-04  (-0.6975618E-07)
 number of electron      45.0000022 magnetization 
 augmentation part       28.7841015 magnetization 

 Broyden mixing:
  rms(total) = 0.56349E-03    rms(broyden)= 0.14944E-03
  rms(prec ) = 0.20537E-03
  weight for this iteration     100.00
  WARNING: grid for Broyden might be to small

 eigenvalues of (default mixing * dielectric matrix)
  average eigenvalue GAMMA=   1.6975
  7.1786  4.6391  2.7211  2.7211  2.0579  1.3415  0.9274  0.9274  1.0108  0.9462
  0.1985  0.6569  0.6569  0.2827  0.4954  0.3986

 Free energy of the ion-electron system (eV)
  ---------------------------------------------------
  alpha Z        PSCENC =       120.87645803
  Ewald energy   TEWEN  =     37628.65153159
  -Hartree energ DENC   =    -42692.13349247
  -exchange      EXHF   =         0.00000000
  -V(xc)+E(xc)   XCENC  =       172.75015641
  PAW double counting   =      4375.02109504    -4950.28341192
  entropy T*S    EENTRO =        -0.05246008
  eigenvalues    EBANDS =      -246.85200613
  atomic energy  EATOM  =      5575.94961827
  Solvation  Ediel_sol  =         0.00000000
  ---------------------------------------------------
  free energy    TOTEN  =       -16.07251127 eV

  energy without entropy =      -16.02005119  energy(sigma->0) =      -16.04628123


--------------------------------------------------------------------------------------------------------




--------------------------------------- Iteration      1(  22)  ---------------------------------------


    POTLOK:  cpu time    0.0120: real time    0.0113
    SETDIJ:  cpu time    0.0030: real time    0.0032
    EDDIAG:  cpu time    0.0560: real time    0.0561
  RMM-DIIS:  cpu time    0.0820: real time    0.0826
    ORTHCH:  cpu time    0.0080: real time    0.0072
       DOS:  cpu time    0.0010: real time    0.0010
    CHARGE:  cpu time    0.0170: real time    0.0169
    MIXING:  cpu time    0.0010: real time    0.0011
    --------------------------------------------
      LOOP:  cpu time    0.1800: real time    0.1795

 eigenvalue-minimisations  :   329
 total energy-change (2. order) :-0.1162180E-04  (-0.6034028E-07)
 number of electron      45.0000022 magnetization 
 augmentation part       28.7839784 magnetization 

 Broyden mixing:
  rms(total) = 0.55597E-03    rms(broyden)= 0.11793E-03
  rms(prec ) = 0.14580E-03
  weight for this iteration     100.00
  WARNING: grid for Broyden might be to small

 eigenvalues of (default mixing * dielectric matrix)
  average eigenvalue GAMMA=   1.7975
  7.8431  5.1707  3.0428  2.6225  2.5460  1.6145  1.1925  0.9294  0.9294  0.9890
  0.9890  0.1985  0.6568  0.6568  0.2827  0.4954  0.3986

 Free energy of the ion-electron system (eV)
  ---------------------------------------------------
  alpha Z        PSCENC =       120.87645803
  Ewald energy   TEWEN  =     37628.65153159
  -Hartree energ DENC   =    -42692.18939302
  -exchange      EXHF   =         0.00000000
  -V(xc)+E(xc)   XCENC  =       172.75036279
  PAW double counting   =      4375.03687916    -4950.30200525
  entropy T*S    EENTRO =        -0.05245909
  eigenvalues    EBANDS =      -246.79351536
  atomic energy  EATOM  =      5575.94961827
  Solvation  Ediel_sol  =         0.00000000
  ---------------------------------------------------
  free energy    TOTEN  =       -16.07252289 eV

  energy without entropy =      -16.02006380  energy(sigma->0) =      -16.04629334


--------------------------------------------------------------------------------------------------------




--------------------------------------- Iteration      1(  23)  ---------------------------------------


    POTLOK:  cpu time    0.0120: real time    0.0130
    SETDIJ:  cpu time    0.0030: real time    0.0032
    EDDIAG:  cpu time    0.0560: real time    0.0562
  RMM-DIIS:  cpu time    0.0740: real time    0.0739
    ORTHCH:  cpu time    0.0060: real time    0.0072
       DOS:  cpu time    0.0010: real time    0.0010
    --------------------------------------------
      LOOP:  cpu time    0.1520: real time    0.1546

 eigenvalue-minimisations  :   208
 total energy-change (2. order) :-0.4392144E-05  (-0.1774027E-07)
 number of electron      45.0000022 magnetization 
 augmentation part       28.7839784 magnetization 

 Free energy of the ion-electron system (eV)
  ---------------------------------------------------
  alpha Z        PSCENC =       120.87645803
  Ewald energy   TEWEN  =     37628.65153159
  -Hartree energ DENC   =    -42692.19615602
  -exchange      EXHF   =         0.00000000
  -V(xc)+E(xc)   XCENC  =       172.75003625
  PAW double counting   =      4375.01873903    -4950.28447705
  entropy T*S    EENTRO =        -0.05245933
  eigenvalues    EBANDS =      -246.78581804
  atomic energy  EATOM  =      5575.94961827
  Solvation  Ediel_sol  =         0.00000000
  ---------------------------------------------------
  free energy    TOTEN  =       -16.07252728 eV

  energy without entropy =      -16.02006795  energy(sigma->0) =      -16.04629762


--------------------------------------------------------------------------------------------------------




 average (electrostatic) potential at core
  the test charge radii are     1.0053  0.5201
  (the norm of the test charge is              1.0000)
       1 -46.0607       2 -46.2786       3 -46.3009       4 -46.2675       5 -38.4752
 
 
 
 E-fermi :  -2.6620     XC(G=0):  -4.5354     alpha+bet : -2.7756


 k-point     1 :       0.0000    0.0000    0.0000
  band No.  band energies     occupation 
      1     -11.3159      2.00000
      2     -10.1690      2.00000
      3      -8.6904      2.00000
      4      -7.7128      2.00000
      5      -7.0307      2.00000
      6      -5.6869      2.00000
      7      -5.5914      2.00000
      8      -5.5565      2.00000
      9      -5.5562      2.00000
     10      -5.5146      2.00000
     11      -5.5143      2.00000
     12      -5.3898      2.00000
     13      -5.3895      2.00000
     14      -5.2741      2.00000
     15      -5.2738      2.00000
     16      -5.1004      2.00000
     17      -4.8067      2.00000
     18      -4.8066      2.00000
     19      -4.7007      2.00000
     20      -4.7007      2.00000
     21      -4.4681      2.00000
     22      -4.4680      2.00000
     23      -4.2643      2.00000
     24      -4.2643      2.00000
     25      -3.2261      1.99993
     26       0.1263      0.00000
     27       1.7765      0.00000
     28       2.3933      0.00000

 k-point     2 :       0.1000    0.0000    0.0000
  band No.  band energies     occupation 
      1     -11.0025      2.00000
      2      -9.8690      2.00000
      3      -8.4129      2.00000
      4      -7.4883      2.00000
      5      -6.9026      2.00000
      6      -5.7841      2.00000
      7      -5.6981      2.00000
      8      -5.6442      2.00000
      9      -5.4980      2.00000
     10      -5.4507      2.00000
     11      -5.4405      2.00000
     12      -5.4371      2.00000
     13      -5.3756      2.00000
     14      -5.2897      2.00000
     15      -5.2748      2.00000
     16      -5.1796      2.00000
     17      -4.8741      2.00000
     18      -4.8531      2.00000
     19      -4.6926      2.00000
     20      -4.6871      2.00000
     21      -4.5493      2.00000
     22      -4.4645      2.00000
     23      -4.2595      2.00000
     24      -4.0656      2.00000
     25      -2.6007      0.66446
     26       0.4002      0.00000
     27       2.0724      0.00000
     28       2.7127      0.00000

 k-point     3 :       0.2000   -0.0000    0.0000
  band No.  band energies     occupation 
      1     -10.1007      2.00000
      2      -9.0284      2.00000
      3      -7.6817      2.00000
      4      -6.9467      2.00000
      5      -6.6122      2.00000
      6      -6.0791      2.00000
      7      -5.8981      2.00000
      8      -5.8149      2.00000
      9      -5.6316      2.00000
     10      -5.5305      2.00000
     11      -5.4891      2.00000
     12      -5.3166      2.00000
     13      -5.2748      2.00000
     14      -5.1731      2.00000
     15      -5.0646      2.00000
     16      -5.0622      2.00000
     17      -4.9588      2.00000
     18      -4.8399      2.00000
     19      -4.8122      2.00000
     20      -4.6658      2.00000
     21      -4.4675      2.00000
     22      -4.3879      2.00000
     23      -4.2524      2.00000
     24      -3.3959      2.00000
     25      -1.4573      0.00000
     26       1.2177      0.00000
     27       2.9631      0.00000
     28       3.6337      0.00000

 k-point     4 :       0.3000   -0.0000    0.0000
  band No.  band energies     occupation 
      1      -8.7863      2.00000
      2      -7.9455      2.00000
      3      -7.0496      2.00000
      4      -6.6430      2.00000
      5      -6.4207      2.00000
      6      -6.2996      2.00000
      7      -6.0168      2.00000
      8      -5.8233      2.00000
      9      -5.6477      2.00000
     10      -5.4504      2.00000
     11      -5.3494      2.00000
     12      -5.2905      2.00000
     13      -5.1256      2.00000
     14      -5.0224      2.00000
     15      -4.9683      2.00000
     16      -4.7845      2.00000
     17      -4.6517      2.00000
     18      -4.6235      2.00000
     19      -4.5592      2.00000
     20      -4.4692      2.00000
     21      -4.4187      2.00000
     22      -4.2395      2.00000
     23      -4.0174      2.00000
     24      -2.4763      0.18920
     25      -0.1173      0.00000
     26       2.5251      0.00000
     27       4.4221      0.00000
     28       5.0373      0.00000

 k-point     5 :       0.4000   -0.0000    0.0000
  band No.  band energies     occupation 
      1      -7.6516      2.00000
      2      -7.3228      2.00000
      3      -6.9659      2.00000
      4      -6.7567      2.00000
      5      -6.6001      2.00000
      6      -6.3538      2.00000
      7      -5.9279      2.00000
      8      -5.7534      2.00000
      9      -5.5738      2.00000
     10      -5.4352      2.00000
     11      -5.2546      2.00000
     12      -5.0481      2.00000
     13      -4.8269      2.00000
     14      -4.6193      2.00000
     15      -4.5597      2.00000
     16      -4.3707      2.00000
     17      -4.3496      2.00000
     18      -4.2735      2.00000
     19      -4.2296      2.00000
     20      -4.1324      2.00000
     21      -4.1191      2.00000
     22      -3.6598      2.00000
     23      -3.0729      1.99633
     24      -1.3457      0.00000
     25       0.7413      0.00000
     26       2.4173      0.00000
     27       3.3630      0.00000
     28       4.7734      0.00000

 k-point     6 :       0.5000   -0.0000    0.0000
  band No.  band energies     occupation 
      1      -7.3518      2.00000
      2      -7.2146      2.00000
      3      -6.8909      2.00000
      4      -6.8023      2.00000
      5      -6.7394      2.00000
      6      -6.4167      2.00000
      7      -5.8857      2.00000
      8      -5.6926      2.00000
      9      -5.5948      2.00000
     10      -5.4699      2.00000
     11      -5.1154      2.00000
     12      -5.0648      2.00000
     13      -4.6917      2.00000
     14      -4.6054      2.00000
     15      -4.3462      2.00000
     16      -4.3156      2.00000
     17      -4.2408      2.00000
     18      -4.1855      2.00000
     19      -4.1387      2.00000
     20      -4.0042      2.00000
     21      -2.8514      1.81941
     22      -2.2778      0.00659
     23      -1.8210      0.00000
     24      -1.2688      0.00000
     25      -1.0188      0.00000
     26       1.6539      0.00000
     27       2.7694      0.00000
     28       4.2557      0.00000

 k-point     7 :       0.2000    0.1000    0.0000
  band No.  band energies     occupation 
      1     -10.3933      2.00000
      2      -9.2953      2.00000
      3      -7.8996      2.00000
      4      -7.0922      2.00000
      5      -6.6908      2.00000
      6      -5.9263      2.00000
      7      -5.9097      2.00000
      8      -5.7827      2.00000
      9      -5.6089      2.00000
     10      -5.5583      2.00000
     11      -5.4669      2.00000
     12      -5.3695      2.00000
     13      -5.3039      2.00000
     14      -5.2380      2.00000
     15      -5.0849      2.00000
     16      -5.0400      2.00000
     17      -4.9535      2.00000
     18      -4.8781      2.00000
     19      -4.8002      2.00000
     20      -4.6260      2.00000
     21      -4.5972      2.00000
     22      -4.3341      2.00000
     23      -4.3079      2.00000
     24      -3.5847      2.00000
     25      -1.7830      0.00000
     26       0.9489      0.00000
     27       2.6663      0.00000
     28       3.3291      0.00000

 k-point     8 :       0.3000    0.1000    0.0000
  band No.  band energies     occupation 
      1      -9.2653      2.00000
      2      -8.2953      2.00000
      3      -7.1415      2.00000
      4      -6.5904      2.00000
      5      -6.4321      2.00000
      6      -6.2020      2.00000
      7      -6.0155      2.00000
      8      -5.9237      2.00000
      9      -5.7210      2.00000
     10      -5.6193      2.00000
     11      -5.5498      2.00000
     12      -5.3962      2.00000
     13      -5.2676      2.00000
     14      -5.1501      2.00000
     15      -4.9886      2.00000
     16      -4.8858      2.00000
     17      -4.7898      2.00000
     18      -4.6656      2.00000
     19      -4.5598      2.00000
     20      -4.5354      2.00000
     21      -4.4335      2.00000
     22      -4.3201      2.00000
     23      -4.0820      2.00000
     24      -2.8050      1.68813
     25      -0.5871      0.00000
     26       2.0381      0.00000
     27       3.8563      0.00000
     28       4.5132      0.00000

 k-point     9 :       0.4000    0.1000    0.0000
  band No.  band energies     occupation 
      1      -7.9566      2.00000
      2      -7.4001      2.00000
      3      -6.8792      2.00000
      4      -6.6108      2.00000
      5      -6.3974      2.00000
      6      -6.2711      2.00000
      7      -6.0054      2.00000
      8      -5.8450      2.00000
      9      -5.5987      2.00000
     10      -5.4986      2.00000
     11      -5.3486      2.00000
     12      -5.2649      2.00000
     13      -5.1230      2.00000
     14      -5.0002      2.00000
     15      -4.8906      2.00000
     16      -4.6903      2.00000
     17      -4.6099      2.00000
     18      -4.4373      2.00000
     19      -4.3408      2.00000
     20      -4.2494      2.00000
     21      -4.0063      2.00000
     22      -3.8907      2.00000
     23      -3.3276      2.00000
     24      -1.6559      0.00000
     25       0.7770      0.00000
     26       3.3089      0.00000
     27       4.3025      0.00000
     28       5.3582      0.00000

 k-point    10 :       0.5000    0.1000    0.0000
  band No.  band energies     occupation 
      1      -7.2716      2.00000
      2      -7.1212      2.00000
      3      -6.8114      2.00000
      4      -6.7233      2.00000
      5      -6.5808      2.00000
      6      -6.3480      2.00000
[...]
     27       3.4007      0.00000
     28       4.9244      0.00000

 k-point     6 :       0.5000   -0.0000    0.0000
  band No.  band energies     occupation 
      1      -7.4087      2.00000
      2      -7.2200      2.00000
      3      -7.0142      2.00000
      4      -6.8271      2.00000
      5      -6.7534      2.00000
      6      -6.5259      2.00000
      7      -6.2223      2.00000
      8      -5.8761      2.00000
      9      -5.6028      2.00000
     10      -5.5044      2.00000
     11      -5.1515      2.00000
     12      -5.1482      2.00000
     13      -4.7231      2.00000
     14      -4.6674      2.00000
     15      -4.3218      2.00000
     16      -4.2842      2.00000
     17      -4.2604      2.00000
     18      -4.1941      2.00000
     19      -4.1294      2.00000
     20      -3.9614      2.00000
     21      -2.8622      1.94165
     22      -2.1828      0.00360
     23      -1.8040      0.00000
     24      -1.2679      0.00000
     25      -0.9975      0.00000
     26       1.7147      0.00000
     27       2.8395      0.00000
     28       4.3804      0.00000

 k-point     7 :       0.2000    0.1000    0.0000
  band No.  band energies     occupation 
      1     -10.4275      2.00000
      2      -9.4197      2.00000
      3      -8.0511      2.00000
      4      -7.1529      2.00000
      5      -7.0376      2.00000
      6      -5.9328      2.00000
      7      -5.9028      2.00000
      8      -5.7628      2.00000
      9      -5.6874      2.00000
     10      -5.5818      2.00000
     11      -5.4202      2.00000
     12      -5.3631      2.00000
     13      -5.3074      2.00000
     14      -5.2293      2.00000
     15      -5.1269      2.00000
     16      -5.0746      2.00000
     17      -4.9423      2.00000
     18      -4.8778      2.00000
     19      -4.8388      2.00000
     20      -4.6744      2.00000
     21      -4.6028      2.00000
     22      -4.3328      2.00000
     23      -4.2635      2.00000
     24      -3.4819      2.00000
     25      -1.6021      0.00000
     26       1.6969      0.00000
     27       2.7167      0.00000
     28       3.2160      0.00000

 k-point     8 :       0.3000    0.1000    0.0000
  band No.  band energies     occupation 
      1      -9.3075      2.00000
      2      -8.4351      2.00000
      3      -7.3297      2.00000
      4      -6.8066      2.00000
      5      -6.5597      2.00000
      6      -6.2250      2.00000
      7      -6.0221      2.00000
      8      -5.9343      2.00000
      9      -5.8146      2.00000
     10      -5.6439      2.00000
     11      -5.5282      2.00000
     12      -5.4081      2.00000
     13      -5.3146      2.00000
     14      -5.1707      2.00000
     15      -4.9857      2.00000
     16      -4.9103      2.00000
     17      -4.7875      2.00000
     18      -4.7164      2.00000
     19      -4.6079      2.00000
     20      -4.5335      2.00000
     21      -4.3884      2.00000
     22      -4.2798      2.00000
     23      -4.0576      2.00000
     24      -2.6348      1.22437
     25      -0.3111      0.00000
     26       2.6533      0.00000
     27       3.9304      0.00000
     28       4.4224      0.00000

 k-point     9 :       0.4000    0.1000    0.0000
  band No.  band energies     occupation 
      1      -8.0111      2.00000
      2      -7.5172      2.00000
      3      -6.9990      2.00000
      4      -6.7147      2.00000
      5      -6.4679      2.00000
      6      -6.4180      2.00000
      7      -6.1254      2.00000
      8      -5.9093      2.00000
      9      -5.6128      2.00000
     10      -5.5301      2.00000
     11      -5.4012      2.00000
     12      -5.3225      2.00000
     13      -5.1862      2.00000
     14      -5.0156      2.00000
     15      -4.9323      2.00000
     16      -4.7233      2.00000
     17      -4.5958      2.00000
     18      -4.4209      2.00000
     19      -4.3294      2.00000
     20      -4.2084      2.00000
     21      -4.0275      2.00000
     22      -3.8763      2.00000
     23      -3.2852      2.00000
     24      -1.4507      0.00000
     25       1.0972      0.00000
     26       3.5242      0.00000
     27       4.4031      0.00000
     28       5.4523      0.00000

 k-point    10 :       0.5000    0.1000    0.0000
  band No.  band energies     occupation 
      1      -7.3374      2.00000
      2      -7.1386      2.00000
      3      -6.9462      2.00000
      4      -6.7470      2.00000
      5      -6.6087      2.00000
      6      -6.4655      2.00000
      7      -6.1830      2.00000
      8      -5.8970      2.00000
      9      -5.6172      2.00000
     10      -5.4970      2.00000
     11      -5.3717      2.00000
     12      -5.0705      2.00000
     13      -4.9473      2.00000
     14      -4.7910      2.00000
     15      -4.6115      2.00000
     16      -4.5017      2.00000
     17      -4.3532      2.00000
     18      -4.2892      2.00000
     19      -4.2375      2.00000
     20      -4.1137      2.00000
     21      -2.8384      1.91546
     22      -2.5293      0.64483
     23      -1.9244      0.00000
     24      -0.6073      0.00000
     25       0.2119      0.00000
     26       2.0156      0.00000
     27       3.1985      0.00000
     28       4.6474      0.00000

 k-point    11 :       0.4000    0.2000    0.0000
  band No.  band energies     occupation 
      1      -8.1333      2.00000
      2      -7.5476      2.00000
      3      -6.9011      2.00000
      4      -6.6341      2.00000
      5      -6.3024      2.00000
      6      -6.1821      2.00000
      7      -6.0684      2.00000
      8      -5.9478      2.00000
      9      -5.8621      2.00000
     10      -5.7160      2.00000
     11      -5.5818      2.00000
     12      -5.5126      2.00000
     13      -5.4260      2.00000
     14      -5.1882      2.00000
     15      -4.9913      2.00000
     16      -4.8201      2.00000
     17      -4.6942      2.00000
     18      -4.5219      2.00000
     19      -4.3153      2.00000
     20      -4.2135      2.00000
     21      -3.9836      2.00000
     22      -3.8412      2.00000
     23      -3.2702      2.00000
     24      -1.5314      0.00000
     25       1.0172      0.00000
     26       3.8128      0.00000
     27       5.4086      0.00000
     28       5.8161      0.00000

 k-point    12 :       0.5000    0.2000    0.0000
  band No.  band energies     occupation 
      1      -7.1923      2.00000
      2      -6.9921      2.00000
      3      -6.7732      2.00000
      4      -6.6019      2.00000
      5      -6.3883      2.00000
      6      -6.2519      2.00000
      7      -6.0854      2.00000
      8      -5.9146      2.00000
      9      -5.7693      2.00000
     10      -5.5987      2.00000
     11      -5.4743      2.00000
     12      -5.3779      2.00000
     13      -5.2586      2.00000
     14      -5.1346      2.00000
     15      -4.9735      2.00000
     16      -4.7996      2.00000
     17      -4.6085      2.00000
     18      -4.4502      2.00000
     19      -4.2450      2.00000
     20      -4.1213      2.00000
     21      -2.8989      1.96866
     22      -2.6649      1.38153
     23      -1.8126      0.00000
     24      -0.0554      0.00000
     25       2.0320      0.00000
     26       3.0836      0.00000
     27       4.1357      0.00000
     28       5.3976      0.00000

 k-point    13 :      -0.4000    0.2000    0.0000
  band No.  band energies     occupation 
      1      -6.9953      2.00000
      2      -6.8649      2.00000
      3      -6.7017      2.00000
      4      -6.5262      2.00000
      5      -6.4556      2.00000
      6      -6.3031      2.00000
      7      -6.1162      2.00000
      8      -5.9318      2.00000
      9      -5.7366      2.00000
     10      -5.6396      2.00000
     11      -5.3934      2.00000
     12      -5.2416      2.00000
     13      -5.1644      2.00000
     14      -5.0186      2.00000
     15      -4.9274      2.00000
     16      -4.7403      2.00000
     17      -4.5119      2.00000
     18      -4.3285      2.00000
     19      -4.2915      2.00000
     20      -4.1884      2.00000
     21      -1.9246      0.00000
     22      -1.0032      0.00000
     23      -0.5545      0.00000
     24      -0.0097      0.00000
     25       0.5632      0.00000
     26       2.2452      0.00000
     27       3.4853      0.00000
     28       4.9359      0.00000

 k-point    14 :      -0.4000    0.3000    0.0000
  band No.  band energies     occupation 
      1      -6.8279      2.00000
      2      -6.6253      2.00000
      3      -6.5465      2.00000
      4      -6.4958      2.00000
      5      -6.3576      2.00000
      6      -6.2334      2.00000
      7      -6.1529      2.00000
      8      -5.8320      2.00000
      9      -5.7469      2.00000
     10      -5.6394      2.00000
     11      -5.5407      2.00000
     12      -5.4112      2.00000
     13      -5.2846      2.00000
     14      -5.2457      2.00000
     15      -4.9377      2.00000
     16      -4.8413      2.00000
     17      -4.6735      2.00000
     18      -4.3838      2.00000
     19      -4.2986      2.00000
     20      -4.2106      2.00000
     21      -1.8450      0.00000
     22      -0.7420      0.00000
     23       0.2098      0.00000
     24       1.5490      0.00000
     25       2.1271      0.00000
     26       2.2442      0.00000
     27       3.1011      0.00000
     28       3.4254      0.00000


--------------------------------------------------------------------------------------------------------


 soft charge-density along one line, spin component           1
         0         1         2         3         4         5         6         7         8         9
 total charge-density along one line
 
 pseudopotential strength for first ion, spin component:           1
-11.010   0.000   0.000  -0.005   0.000   1.817  -0.000  -0.000
  0.000 -10.974  -0.000   0.000  -0.005  -0.000   1.800   0.000
  0.000  -0.000 -10.970  -0.000   0.000  -0.000   0.000   1.797
 -0.005   0.000  -0.000 -10.974   0.000   0.002  -0.000   0.000
  0.000  -0.005   0.000   0.000 -11.010  -0.000   0.002  -0.000
  1.817  -0.000  -0.000   0.002  -0.000   0.741   0.000   0.000
 -0.000   1.800   0.000  -0.000   0.002   0.000   0.749  -0.000
 -0.000   0.000   1.797   0.000  -0.000   0.000  -0.000   0.750
  0.002  -0.000   0.000   1.800  -0.000  -0.001   0.000  -0.000
 -0.000   0.002  -0.000  -0.000   1.817   0.000  -0.001   0.000
  0.000   0.000  -0.006   0.000   0.000   0.000   0.000   0.002
 -0.000  -0.000   0.000  -0.000  -0.000   0.000   0.000  -0.000
  0.000  -0.010  -0.000  -0.000   0.000  -0.000   0.006  -0.000
 -0.000   0.000  -0.010   0.000  -0.000  -0.000  -0.000   0.006
  0.000  -0.000  -0.000  -0.010   0.000  -0.000  -0.000  -0.000
 -0.000   0.005   0.000   0.000  -0.000   0.000  -0.003  -0.000
  0.000  -0.000   0.005  -0.000   0.000  -0.000   0.000  -0.003
 -0.000   0.000   0.000   0.005  -0.000   0.000  -0.000  -0.000
 total augmentation occupancy for first ion, spin component:           1
  1.926   0.000  -0.000  -0.003  -0.000  -0.001   0.000   0.000   0.010  -0.000   0.000  -0.000   0.000  -0.000   0.007   0.000
  0.000   1.935   0.000   0.000  -0.003   0.000  -0.034  -0.000  -0.000   0.010  -0.000   0.000  -0.001   0.000   0.000  -0.004
 -0.000   0.000   1.936   0.000  -0.000   0.000  -0.000  -0.026  -0.000   0.000   0.016   0.037  -0.000   0.036   0.000   0.000
 -0.003   0.000   0.000   1.935   0.000   0.010   0.000  -0.000  -0.034  -0.000   0.000  -0.000   0.000   0.000  -0.001   0.000
 -0.000  -0.003  -0.000   0.000   1.926   0.000   0.010   0.000  -0.000  -0.001  -0.000  -0.000   0.007  -0.000  -0.000  -0.001
 -0.001   0.000   0.000   0.010  -0.000   0.059  -0.000  -0.000   0.001  -0.000   0.000   0.000   0.000  -0.000   0.005   0.000
  0.000  -0.034  -0.000  -0.000   0.010  -0.000   0.041  -0.000   0.000   0.001   0.000   0.000   0.032   0.000   0.000  -0.003
  0.000  -0.000  -0.026  -0.000   0.000  -0.000  -0.000   0.057  -0.000  -0.000  -0.076   0.013  -0.000   0.044  -0.000   0.000
  0.010  -0.000  -0.000  -0.034  -0.000   0.001   0.000  -0.000   0.041   0.000  -0.000   0.000   0.000   0.000   0.032   0.000
 -0.000   0.010   0.000   0.000  -0.001  -0.000   0.001  -0.000  -0.000   0.059   0.000  -0.000   0.005  -0.000  -0.000  -0.000
  0.000  -0.000   0.016   0.000  -0.000   0.000   0.000  -0.076   0.000   0.000   1.235  -0.284   0.000   0.070   0.000   0.000
  0.000   0.000   0.037   0.000  -0.000   0.000   0.000   0.013   0.000  -0.000  -0.284   0.110   0.000  -0.047  -0.000   0.000
 -0.000  -0.001  -0.000   0.000   0.007   0.000   0.032  -0.000   0.000   0.005   0.000   0.000   0.167  -0.000   0.000  -0.010
 -0.000  -0.000   0.036   0.000  -0.000  -0.000  -0.000   0.044   0.000  -0.000   0.070  -0.047   0.000   0.096  -0.000   0.000
  0.007   0.000   0.000  -0.001  -0.000   0.005  -0.000   0.000   0.032  -0.000   0.000   0.000   0.000   0.000   0.167   0.000
  0.000  -0.004   0.000   0.000  -0.001   0.000  -0.003   0.000   0.000  -0.000   0.000  -0.000  -0.010   0.000  -0.000   0.001
  0.000   0.000  -0.008   0.000   0.000   0.000  -0.000  -0.002   0.000   0.000  -0.013   0.006   0.000  -0.007   0.000  -0.000
 -0.001   0.000   0.000  -0.004   0.000  -0.000   0.000   0.000  -0.003   0.000  -0.000   0.000   0.000   0.000  -0.010   0.000


------------------------ aborting loop because EDIFF is reached ----------------------------------------


    CHARGE:  cpu time    0.0160: real time    0.0169
    FORLOC:  cpu time    0.0020: real time    0.0014
    FORNL :  cpu time    0.0820: real time    0.0824
    STRESS:  cpu time    0.2480: real time    0.2487
    FORCOR:  cpu time    0.0120: real time    0.0116
    FORHAR:  cpu time    0.0030: real time    0.0030
    MIXING:  cpu time    0.0070: real time    0.0065
    OFIELD:  cpu time    0.0000: real time    0.0000

  FORCE on cell =-STRESS in cart. coord.  units (eV):
  Direction    XX          YY          ZZ          XY          YZ          ZX
  --------------------------------------------------------------------------------------
  Alpha Z   120.87646   120.87646   120.87646
  Ewald   40840.86312 40840.86312-43741.64940     0.00000    -0.00000    -0.00000
  Hartree 42163.46969 42163.46968-41325.25942     0.00001    -0.00001    -0.00001
  E(xc)    -252.85230  -252.85080  -253.04339    -0.00130     0.00013     0.00022
  Local  -83274.60387-83274.60948 84801.49650     0.00487    -0.00083    -0.00144
  n-local  -157.82533  -152.89313  -155.19034     2.65665    -0.18120    -0.03191
  augment   226.85906   226.86791   224.96429    -0.00766     0.00268     0.00459
  Kinetic   338.58239   312.14656   322.95498    -9.39665    -0.39753     0.09645
  Fock        0.00000     0.00000     0.00000     0.00000     0.00000     0.00000
  -------------------------------------------------------------------------------------
  Total      -5.38024    -5.38024    -4.85032     0.00000     0.00000     0.00000
  in kB     -49.57917   -49.57917   -44.69593     0.00000     0.00000     0.00000
  external pressure =      -47.95 kB  Pullay stress =        0.00 kB


 VOLUME and BASIS-vectors are now :
 -----------------------------------------------------------------------------
  energy-cutoff  :      250.00
  volume of cell :      173.87
      direct lattice vectors                 reciprocal lattice vectors
     2.573868684  0.000000000  0.000000000     0.388520209 -0.224312248  0.000000000
     1.286934342  2.229035666  0.000000000     0.000000000  0.448624495  0.000000000
     0.000000000  0.000000000 30.304664940     0.000000000  0.000000000  0.032998220

  length of vectors
     2.573868684  2.573868684 30.304664940     0.448624495  0.448624495  0.032998220


 FORCES acting on ions
    electron-ion (+dipol)            ewald-force                    non-local-force                 convergence-correction
 -----------------------------------------------------------------------------------------------
   -.372E-03 -.215E-03 0.422E+04   0.795E-12 0.534E-12 -.422E+04   0.520E-17 -.347E-17 -.126E+01   0.451E-06 0.261E-06 0.797E-02
   -.788E-04 -.455E-04 0.149E+04   -.239E-11 -.134E-11 -.149E+04   -.520E-17 0.000E+00 -.916E+00   0.244E-06 0.141E-06 -.127E-01
   0.546E-04 0.315E-04 -.125E+04   0.226E-11 0.130E-11 0.125E+04   0.954E-17 0.173E-17 -.310E+00   -.908E-07 -.524E-07 -.481E-01
   0.237E-03 0.137E-03 -.395E+04   -.805E-12 -.456E-12 0.395E+04   -.867E-17 0.867E-18 -.395E+01   -.299E-06 -.172E-06 -.467E-01
   -.723E-04 -.418E-04 -.494E+03   -.253E-14 0.849E-15 0.496E+03   0.867E-18 0.000E+00 -.195E+01   -.372E-07 -.215E-07 -.496E-02
 -----------------------------------------------------------------------------------------------
   -.232E-03 -.134E-03 0.848E+01   -.150E-12 0.336E-13 -.796E-12   0.173E-17 -.867E-18 -.839E+01   0.269E-06 0.155E-06 -.105E+00
 
 
 POSITION                                       TOTAL-FORCE (eV/Angst)
 -----------------------------------------------------------------------------------
     -0.00000     -0.00000     12.08596        -0.000000      0.000000      0.028209
      1.28693      0.74301     14.15986         0.000000      0.000000     -0.003235
      2.57387      1.48602     16.24457         0.000000     -0.000000     -0.024857
      0.00000     -0.00000     18.35506         0.000000     -0.000000     -0.001314
      0.00000      0.00000     19.86855         0.000000      0.000000      0.001197
 -----------------------------------------------------------------------------------
    total drift:                               -0.000232     -0.000134     -0.020721


--------------------------------------------------------------------------------------------------------



  FREE ENERGIE OF THE ION-ELECTRON SYSTEM (eV)
  ---------------------------------------------------
  free  energy   TOTEN  =       -16.35769408 eV

  energy  without entropy=      -16.31013994  energy(sigma->0) =      -16.33391701
 
 d Force = 0.6850842E-03[ 0.360E-03, 0.101E-02]  d Energy = 0.7707937E-03-0.857E-04
 d Force =-0.1027324E+03[-0.103E+03,-0.103E+03]  d Ewald  =-0.1027325E+03 0.170E-04


--------------------------------------------------------------------------------------------------------


    POTLOK:  cpu time    0.0140: real time    0.0144


--------------------------------------------------------------------------------------------------------


 Quasi-Newton relaxation of ions (Broydens 2nd method)
  g(Force)  = 0.689E-04   g(Stress)= 0.000E+00

 retain information from N=  1 steps
 eigenvalues of (default step * inverse Hessian matrix)
  average eigenvalue of G=  11.7548
 eigenvalue spectrum of G is 11.7548


--------------------------------------------------------------------------------------------------------


  
 reached required accuracy - stopping structural energy minimisation
     LOOP+:  cpu time    1.4248: real time    1.5128
    4ORBIT:  cpu time    0.0000: real time    0.0000

 total amount of memory used by VASP MPI-rank0    35973. kBytes
=======================================================================

   base      :      30000. kBytes
   nonlr-proj:        675. kBytes
   fftplans  :        995. kBytes
   grid      :       1592. kBytes
   one-center:         46. kBytes
   wavefun   :       2665. kBytes
 
  
  
 General timing and accounting informations for this job:
 ========================================================
  
                  Total CPU time used (sec):       24.932
                            User time (sec):       24.652
                          System time (sec):        0.280
                         Elapsed time (sec):       25.982
  
                   Maximum memory used (kb):       37756.
                   Average memory used (kb):           0.
  
                          Minor page faults:        20083
                          Major page faults:          180
                 Voluntary context switches:         3768
