unknown system                          
           1
     2.573869    0.000000    0.000000
     1.286934    2.229036    0.000000
     0.000000    0.000000   30.304665
   Cu   H 
   4   1
Direct configuration=     1
   0.00000000  0.00000000  0.39597864
   0.33333333  0.33333333  0.46532621
   0.66666667  0.66666667  0.53467379
   0.00000000  0.00000000  0.60402136
   0.00000000  0.00000000  0.66341816
Direct configuration=     2
   0.00000000  0.00000000  0.39612547
   0.33333333  0.33333333  0.46531389
   0.66666667  0.66666667  0.53464719
   0.00000000 -0.00000000  0.60634420
  -0.00000000 -0.00000000  0.66098741
Direct configuration=     3
   0.00000000  0.00000000  0.39638363
   0.33333333  0.33333333  0.46535196
   0.66666667  0.66666667  0.53536927
   0.00000000  0.00000000  0.61007718
  -0.00000000 -0.00000000  0.65623611
Direct configuration=     4
   0.00000000  0.00000000  0.39624924
   0.33333333  0.33333333  0.46542193
   0.66666667  0.66666667  0.53505408
   0.00000000 -0.00000000  0.60549587
  -0.00000000 -0.00000000  0.66119703
Direct configuration=     5
   0.00000000 -0.00000000  0.39655003
   0.33333333  0.33333333  0.46564509
   0.66666667  0.66666667  0.53556653
  -0.00000000 -0.00000000  0.60663093
  -0.00000000  0.00000000  0.65902558
Direct configuration=     6
   0.00000000 -0.00000000  0.39695710
   0.33333333  0.33333333  0.46605063
   0.66666667  0.66666667  0.53613649
   0.00000000 -0.00000000  0.60763620
  -0.00000000  0.00000000  0.65663773
Direct configuration=     7
   0.00000000 -0.00000000  0.39691479
   0.33333333  0.33333333  0.46601179
   0.66666667  0.66666667  0.53593142
   0.00000000 -0.00000000  0.60709114
  -0.00000000  0.00000000  0.65746902
Direct configuration=     8
   0.00000000 -0.00000000  0.39705167
   0.33333333  0.33333333  0.46612892
   0.66666667  0.66666667  0.53597904
   0.00000000 -0.00000000  0.60703688
  -0.00000000  0.00000000  0.65722164
Direct configuration=     9
   0.00000000 -0.00000000  0.39723456
   0.33333333  0.33333333  0.46626042
   0.66666667  0.66666667  0.53600396
   0.00000000 -0.00000000  0.60688507
  -0.00000000  0.00000000  0.65703415
Direct configuration=    10
  -0.00000000 -0.00000000  0.39840094
   0.33333333  0.33333333  0.46702564
   0.66666667  0.66666667  0.53608024
   0.00000000  0.00000000  0.60596345
   0.00000000  0.00000000  0.65594789
Direct configuration=    11
  -0.00000000 -0.00000000  0.39881502
   0.33333333  0.33333333  0.46725011
   0.66666667  0.66666667  0.53604203
   0.00000000 -0.00000000  0.60568418
   0.00000000  0.00000000  0.65562682
