unknown system                          
   1.00000000000000     
     4.913700    0.000000    0.000000
    -2.456850    4.255389    0.000000
     0.000000    0.000000    5.405130
   Si   O 
     3     6
Direct
  0.469800  0.000000  0.666670
  0.000000  0.469800  0.333330
  0.530200  0.530200  0.000000
  0.414500  0.266200  0.785600
  0.733800  0.148300  0.452270
  0.851700  0.585500  0.118930
  0.148300  0.733800  0.547730
  0.266200  0.414500  0.214400
  0.585500  0.851700  0.881070
 
   56   56   60
  1.4723      1.4171      1.4076      1.4323      1.4839      1.5584      1.6533      1.7667      1.8959      2.0377    
  2.1881      2.3426      2.4962      2.6438      2.7814      2.9072      3.0235      3.1383      3.2659      3.4266    
  3.6456      3.9545      4.3936      5.0164      5.8923      7.1046      8.7437      10.895      13.630      16.991    
  20.985      25.557      30.550      35.673      40.487      44.446      47.009      47.774      46.601      43.659    
  39.372      34.294      28.970      23.836      19.175      15.135      11.762      9.0373      6.9018      5.2749    
  4.0648      3.1813      2.5458      2.0968      1.7890      1.5894      1.4171      1.3596      1.3526      1.3853    
  1.4509      1.5457      1.6676      1.8145      1.9837      2.1709      2.3711      2.5778      2.7840      2.9814    
  3.1622      3.3199      3.4514      3.5591      3.6522      3.7466      3.8646      4.0334      4.2854      4.6607    
  5.2097      5.9939      7.0828      8.5467      10.445      12.814      15.659      18.938      22.551      26.318    
  29.968      33.151      35.490      36.663      36.487      34.971      32.318      28.862      24.987      21.040    
  17.292      13.917      11.007      8.5906      6.6511      5.1399      3.9915      3.1362      2.5097      2.0597    
  1.7463      1.5398      1.4076      1.3526      1.3507      1.3924      1.4715      1.5851      1.7315      1.9095    
  2.1166      2.3489      2.6007      2.8645      3.1310      3.3892      3.6272      3.8332      3.9985      4.1190    
  4.1980      4.2466      4.2839      4.3351      4.4296      4.6014      4.8895      5.3394      6.0031      6.9352    
  8.1859      9.7907      11.760      14.068      16.648      19.381      22.095      24.564      26.536      27.772    
  28.103      27.470      25.946      23.711      21.010      18.098      15.199      12.483      10.062      7.9932    
  6.2898      4.9313      3.8762      3.0742      2.4763      2.0404      1.7332      1.5290      1.4323      1.3853    
  1.3924      1.4452      1.5387      1.6707      1.8406      2.0480      2.2919      2.5691      2.8747      3.2006    
  3.5360      3.8672      4.1780      4.4514      4.6715      4.8274      4.9152      4.9401      4.9174      4.8704    
  4.8287      4.8251      4.8946      5.0746      5.4048      5.9268      6.6802      7.6969      8.9930      10.559    
  12.354      14.299      16.279      18.145      19.726      20.855      21.392      21.260      20.466      19.092    
  17.283      15.213      13.052      10.944      8.9997      7.2871      5.8383      4.6545      3.7149      2.9868    
  2.4349      2.0273      1.7377      1.5450      1.4839      1.4509      1.4715      1.5387      1.6486      1.7998    
  1.9929      2.2291      2.5088      2.8310      3.1919      3.5845      3.9972      4.4140      4.8147      5.1762    
  5.4753      5.6924      5.8152      5.8416      5.7816      5.6563      5.4955      5.3345      5.2099      5.1580    
  5.2137      5.4103      5.7787      6.3447      7.1246      8.1191      9.3069      10.640      12.041      13.410    
  14.629      15.579      16.151      16.274      15.922      15.125      13.961      12.540      10.982      9.4018    
  7.8920      6.5206      5.3273      4.3271      3.5152      2.8744      2.3815      2.0140      1.7524      1.5804    
  1.5584      1.5457      1.5851      1.6707      1.7998      1.9721      2.1894      2.4542      2.7692      3.1358    
  3.5528      4.0150      4.5118      5.0259      5.5332      6.0048      6.4091      6.7167      6.9049      6.9623    
  6.8917      6.7105      6.4483      6.1437      5.8386      5.5739      5.3863      5.3078      5.3646      5.5775    
  5.9595      6.5142      7.2316      8.0841      9.0241      9.9840      10.882      11.630      12.148      12.372    
  12.269      11.840      11.122      10.179      9.0909      7.9415      6.8052      5.7411      4.7891      3.9702    
  3.2899      2.7427      2.3170      1.9987      1.7742      1.6312      1.6533      1.6676      1.7315      1.8406    
  1.9929      2.1894      2.4327      2.7270      3.0769      3.4867      3.9588      4.4914      5.0760      5.6959    
  6.3246      6.9274      7.4642      7.8942      8.1824      8.3055      8.2565      8.0466      7.7041      7.2705    
  6.7943      6.3247      5.9063      5.5757      5.3604      5.2792      5.3430      5.5544      5.9075      6.3851    
  6.9573      7.5802      8.1975      8.7463      9.1648      9.4010      9.4203      9.2109      8.7856      8.1790    
  7.4408      6.6279      5.7960      4.9932      4.2550      3.6041      3.0515      2.5996      2.2455      1.9825    
  1.8022      1.6954      1.7667      1.8145      1.9095      2.0480      2.2291      2.4542      2.7270      3.0526    
  3.4376      3.8892      4.4137      5.0141      5.6863      6.4159      7.1762      7.9281      8.6232      9.2087    
  9.6350      9.8637      9.8747      9.6700      9.2740      8.7299      8.0930      7.4227      6.7754      6.1980    
  5.7248      5.3777      5.1678      5.0972      5.1598      5.3419      5.6222      5.9704      6.3483      6.7112    
  7.0123      7.2094      7.2706      7.1788      6.9339      6.5519      6.0618      5.4999      4.9049      4.3127    
  3.7534      3.2488      2.8131      2.4534      2.1720      1.9677      1.8363      1.7716      1.8959      1.9837    
  2.1166      2.2919      2.5088      2.7692      3.0769      3.4376      3.8591      4.3512      4.9245      5.5874    
  6.3420      7.1792      8.0748      8.9879      9.8631      10.636      11.240      11.618      11.735      11.576    
  11.161      10.531      9.7482      8.8828      8.0051      7.1766      6.4442      5.8378      5.3723      5.0500    
  4.8646      4.8028      4.8461      4.9708      5.1482      5.3453      5.5266      5.6581      5.7118      5.6694    
  5.5243      5.2816      4.9567      4.5717      4.1519      3.7223      3.3062      2.9234      2.5891      2.3135    
  2.1020      1.9568      1.8768      1.8583      2.0377      2.1709      2.3489      2.5691      2.8310      3.1358    
  3.4867      3.8892      4.3512      4.8844      5.5031      6.2216      7.0497      7.9861      9.0125      10.090    
  11.160      12.146      12.966      13.541      13.814      13.751      13.360      12.677      11.769      10.718    
  9.6105      8.5239      7.5223      6.6492      5.9273      5.3623      4.9476      4.6692      4.5087      4.4445    
  4.4516      4.5029      4.5696      4.6240      4.6418      4.6049      4.5036      4.3372      4.1126      3.8425    
  3.5433      3.2323      2.9265      2.6417      2.3922      2.1893      2.0411      1.9523      1.9238      1.9537    
  2.1881      2.3711      2.6007      2.8747      3.1919      3.5528      3.9588      4.4137      4.9245      5.5031    
  6.1664      6.9344      7.8251      8.8472      9.9920      11.227      12.494      13.710      14.777      15.595    
  16.078      16.170      15.855      15.163      14.161      12.941      11.607      10.256      8.9728      7.8176    
  6.8266      6.0127      5.3713      4.8867      4.5384      4.3034      4.1580      4.0771      4.0355      4.0085    
  3.9741      3.9149      3.8198      3.6845      3.5112      3.3069      3.0825      2.8504      2.6229      2.4123    
  2.2301      2.0877      1.9944      1.9568      1.9775      2.0556      2.3426      2.5778      2.8645      3.2006    
  3.5845      4.0150      4.4914      5.0141      5.5874      6.2216      6.9344      7.7500      8.6941      9.7863    
  11.030      12.405      13.858      15.305      16.637      17.734      18.480      18.788      18.615      17.972    
  16.920      15.559      14.009      12.392      10.815      9.3595      8.0798      7.0007      6.1229      5.4300    
  4.8977      4.4992      4.2089      4.0022      3.8548      3.7433      3.6464      3.5465      3.4314      3.2949    
  3.1367      2.9608      2.7741      2.5858      2.4055      2.2435      2.1098      2.0143      1.9663      1.9728    
  2.0378      2.1616      2.4962      2.7840      3.1310      3.5360      3.9972      4.5118      5.0760      5.6863    
  6.3420      7.0497      7.8251      8.6941      9.6881      10.837      12.158      13.645      15.257      16.917    
  18.512      19.905      20.954      21.538      21.578      21.056      20.017      18.562      16.823      14.948    
  13.070      11.298      9.7082      8.3414      7.2077      6.2938      5.5721      5.0104      4.5779      4.2469    
  3.9926      3.7917      3.6230      3.4683      3.3141      3.1525      2.9815      2.8037      2.6239      2.4492    
  2.2877      2.1489      2.0424      1.9774      1.9619      2.0028      2.1046      2.2692      2.6438      2.9814    
  3.3892      3.8672      4.4140      5.0259      5.6959      6.4159      7.1792      7.9861      8.8472      9.7863    
  10.837      12.036      13.415      14.981      16.713      18.547      20.375      22.055      23.424      24.328    
  24.648      24.327      23.383      21.904      20.029      17.924      15.754      13.657      11.738      10.060    
  8.6463      7.4914      6.5676      5.8370      5.2612      4.8057      4.4419      4.1456      3.8954      3.6728    
  3.4629      3.2564      3.0494      2.8432      2.6426      2.4541      2.2856      2.1457      2.0437      1.9887    
  1.9889      2.0507      2.1790      2.3764      2.7814      3.1622      3.6272      4.1780      4.8147      5.5332    
  6.3246      7.1762      8.0748      9.0125      9.9920      11.030      12.158      13.415      14.839      16.455    
  18.260      20.210      22.215      24.137      25.808      27.046      27.695      27.651      26.893      25.482    
  23.553      21.280      18.854      16.445      14.192      12.185      10.471      9.0537      7.9106      7.0004    
  6.2764      5.6950      5.2201      4.8233      4.4819      4.1773      3.8946      3.6232      3.3580      3.0989    
  2.8510      2.6216      2.4195      2.2531      2.1314      2.0635      2.0586      2.1238      2.2642      2.4828    
  2.9072      3.3199      3.8332      4.4514      5.1762      6.0048      6.9274      7.9281      8.9879      10.090    
  11.227      12.405      13.645      14.981      16.455      18.101      19.933      21.933      24.035      26.125    
  28.038      29.584      30.574      30.861      30.374      29.134      27.255      24.909      22.303      19.633    
  17.072      14.742      12.718      11.024      9.6457      8.5438      7.6651      6.9562      6.3702      5.8705    
  5.4300      5.0289      4.6531      4.2930      3.9437      3.6053      3.2824      2.9831      2.7174      2.4951    
  2.3262      2.2204      2.1870      2.2342      2.3676      2.5909      3.0235      3.4514      3.9985      4.6715    
  5.4753      6.4091      7.4642      8.6232      9.8631      11.160      12.494      13.858      15.257      16.713    
  18.260      19.933      21.761      23.747      25.859      28.013      30.073      31.854      33.154      33.787    
  33.631      32.657      30.940      28.640      25.963      23.128      20.330      17.723      15.412      13.447    
  11.831      10.531      9.4944      8.6581      7.9637      7.3626      6.8191      6.3092      5.8187      5.3405    
  4.8731      4.4195      3.9859      3.5814      3.2170      2.9049      2.6569      2.4837      2.3949      2.3986    
  2.5015      2.7084      3.1383      3.5591      4.1190      4.8274      5.6924      6.7167      7.8942      9.2087    
  10.636      12.146      13.710      15.305      16.917      18.547      20.210      21.933      23.747      25.675    
  27.714      29.824      31.908      33.814      35.342      36.287      36.481      35.840      34.388      32.254    
  29.638      26.766      23.849      21.065      18.541      16.353      14.525      13.042      11.853      10.896    
  10.100      9.4040      8.7598      8.1345      7.5105      6.8828      6.2551      5.6370      5.0412      4.4816    
  3.9726      3.5285      3.1623      2.8856      2.7083      2.6387      2.6835      2.8484      3.2659      3.6522    
  4.1980      4.9152      5.8152      6.9049      8.1824      9.6350      11.240      12.966      14.777      16.637    
  18.512      20.375      22.215      24.035      25.859      27.714      29.625      31.593      33.567      35.430    
  37.023      38.161      38.662      38.395      37.319      35.500      33.096      30.333      27.449      24.633    
  22.028      19.723      17.763      16.147      14.839      13.781      12.900      12.124      11.390      10.652    
  9.8831      9.0776      8.2441      7.4021      6.5759      5.7911      5.0707      4.4338      3.8956      3.4682    
  3.1613      2.9823      2.9369      3.0298      3.4266      3.7466      4.2466      4.9401      5.8416      6.9623    
  8.3055      9.8637      11.618      13.541      15.595      17.734      19.905      22.055      24.137      26.125    
  28.013      29.824      31.593      33.339      35.028      36.610      38.009      39.109      39.759      39.814    
  39.180      37.853      35.919      33.535      30.901      28.236      25.727      23.472      21.519      19.879    
  18.529      17.424      16.497      15.670      14.869      14.032      13.119      12.115      11.034      9.9052    
  8.7693      7.6695      6.6449      5.7269      4.9381      4.2931      3.8007      3.4658      3.2905      3.2766    
  3.6456      3.8646      4.2839      4.9174      5.7816      6.8917      8.2565      9.8747      11.735      13.814    
  16.078      18.480      20.954      23.424      25.808      28.038      30.073      31.908      33.567      35.028    
  36.273      37.325      38.217      38.948      39.457      39.640      39.386      38.633      37.387      35.720    
  33.745      31.600      29.443      27.446      25.695      24.201      22.948      21.901      21.006      20.189    
  19.368      18.467      17.426      16.218      14.854      13.376      11.842      10.322      8.8779      7.5621    
  6.4133      5.4547      4.6966      4.1406      3.7830      3.6190      3.9545      4.0334      4.3351      4.8704    
  5.6563      6.7105      8.0466      9.6700      11.576      13.751      16.170      18.788      21.538      24.328    
  27.046      29.584      31.854      33.814      35.430      36.610      37.325      37.647      37.717      37.686    
  37.648      37.610      37.509      37.262      36.809      36.126      35.216      34.095      32.806      31.436    
  30.130      29.000      28.041      27.223      26.500      25.808      25.062      24.169      23.048      21.651    
  19.982      18.089      16.060      13.996      11.994      10.138      8.4896      7.0883      5.9520      5.0819    
  4.4683      4.0970      4.3936      4.2854      4.4296      4.8287      5.4955      6.4483      7.7041      9.2740    
  11.161      13.360      15.855      18.615      21.578      24.648      27.695      30.574      33.154      35.342    
  37.023      38.009      38.217      37.717      36.728      35.557      34.501      33.762      33.411      33.414    
  33.683      34.114      34.585      34.960      35.112      34.977      34.592      34.104      33.674      33.310    
  32.972      32.599      32.098      31.356      30.262      28.736      26.762      24.396      21.757      18.997    
  16.266      13.693      11.372      9.3656      7.7043      6.3946      5.4232      4.7654      5.0164      4.6607    
  4.6014      4.8251      5.3345      6.1437      7.2705      8.7299      10.531      12.677      15.163      17.972    
  21.056      24.327      27.651      30.861      33.787      36.287      38.161      39.109      38.948      37.686    
  35.557      32.985      30.481      28.506      27.360      27.158      27.860      29.325      31.322      33.546    
  35.659      37.378      38.558      39.244      39.642      39.987      40.303      40.526      40.545      40.208    
  39.351      37.841      35.623      32.751      29.379      25.733      22.047      18.522      15.305      12.489    
  10.121      8.2128      6.7501      5.6990      5.8923      5.2097      4.8895      4.8946      5.2099      5.8386    
  6.7943      8.0930      9.7482      11.769      14.161      16.920      20.017      23.383      26.893      30.374    
  33.631      36.481      38.662      39.759      39.457      37.648      34.501      30.481      26.270      22.601    
  20.079      19.072      19.696      21.856      25.267      29.476      33.913      38.013      41.376      43.868    
  45.630      46.988      48.242      49.395      50.306      50.760      50.502      49.301      47.023      43.689    
  39.489      34.740      29.804      25.008      20.591      16.698      13.393      10.692      8.5728      6.9923    
  7.1046      5.9939      5.3394      5.0746      5.1580      5.5739      6.3247      7.4227      8.8828      10.718    
  12.941      15.559      18.562      21.904      25.482      29.134      32.657      35.840      38.395      39.814    
  39.640      37.610      33.762      28.506      22.601      17.007      12.651      10.228      10.115      12.378    
  16.781      22.795      29.642      36.451      42.488      47.355      51.055      53.914      56.397      58.804    
  61.026      62.764      63.630      63.232      61.283      57.707      52.692      46.652      40.132      33.655    
  27.626      22.288      17.743      14.003      11.028      8.7542      8.7437      7.0828      6.0031      5.4048    
  5.2137      5.3863      5.9063      6.7754      8.0051      9.6105      11.607      14.009      16.823      20.029    
  23.553      27.255      30.940      34.388      37.319      39.180      39.386      37.509      33.411      27.360    
  20.079      12.651      6.2734      1.9857     0.49195      2.1174      6.8022      14.072      23.041      32.561    
  41.521      49.169      55.280      60.117      64.222      68.142      72.039      75.572      78.192      79.279    
  78.302      74.982      69.408      62.055      53.668      45.058      36.901      29.630      23.434      18.334    
  14.257      11.097      10.895      8.5467      6.9352      5.9268      5.4103      5.3078      5.5757      6.1980    
  7.1766      8.5239      10.256      12.392      14.948      17.924      21.280      24.909      28.640      32.254    
  35.500      37.853      38.633      37.262      33.414      27.158      19.072      10.228      1.9857     -4.3235    
 -7.6590     -7.3795     -3.2715      4.3918      14.782      26.594      38.369      48.937      57.740      64.886    
  70.949      76.629      82.406      88.116      93.076      96.408      97.252      95.000      89.496      81.147    
  70.854      59.758      48.934      39.144      30.772      23.893      18.402      14.128      13.630      10.445    
  8.1859      6.6802      5.7787      5.3646      5.3604      5.7248      6.4442      7.5223      8.9728      10.815    
  13.070      15.754      18.854      22.303      25.963      29.638      33.096      35.919      37.387      36.809    
  33.683      27.860      19.696      10.115     0.49195     -7.6590     -13.005     -14.586     -11.869     -4.8207    
  5.9609      19.212      33.257      46.519      58.020      67.599      75.768      83.349      91.047      99.049    
  106.70      112.90      116.44      116.27      111.85      103.30      91.518      77.925      64.066      51.198    
  40.062      30.897      23.605      17.938      16.991      12.814      9.7907      7.6969      6.3447      5.5775    
  5.2792      5.3777      5.8378      6.6492      7.8176      9.3595      11.298      13.657      16.445      19.633    
  23.128      26.766      30.333      33.535      35.720      36.126      34.114      29.325      21.856      12.378    
  2.1174     -7.3795     -14.586     -18.259     -17.547     -12.070     -2.0686      11.440      26.777      42.083    
  55.945      67.818      78.028      87.431      96.928      107.01      117.32      126.67      133.52      136.42    
  134.27      126.74      114.46      98.944      82.133      65.883      51.481      39.508      29.978      22.597    
  20.985      15.659      11.760      8.9930      7.1246      5.9595      5.3430      5.1678      5.3723      5.9273    
  6.8266      8.0798      9.7082      11.738      14.192      17.072      20.330      23.849      27.449      30.901    
  33.745      35.216      34.585      31.322      25.267      16.781      6.8022     -3.2715     -11.869     -17.547    
 -19.172     -16.014     -7.9036      4.5431      19.880      36.179      51.682      65.409      77.363      88.302    
  99.249      110.96      123.47      135.72      146.05      152.72      154.02      148.87      137.41      121.11    
  102.10      82.700      64.860      49.708      37.543      28.124      25.557      18.938      14.068      10.559    
  8.1191      6.5142      5.5544      5.0972      5.0500      5.3623      6.0127      7.0007      8.3414      10.060    
  12.185      14.742      17.723      21.065      24.633      28.236      31.600      34.095      34.960      33.546    
  29.476      22.795      14.072      4.3918     -4.8207     -12.070     -16.014     -15.607     -10.268     -.12725    
  13.792      29.741      45.812      60.638      73.806      85.821      97.697      110.39      124.29      138.74    
  152.11      162.58      168.05      166.62      157.56      141.90      121.96      100.34      79.458      61.128    
  46.130      34.429      30.550      22.551      16.648      12.354      9.3069      7.2316      5.9075      5.1598    
  4.8646      4.9476      5.3713      6.1229      7.2077      8.6463      10.471      12.718      15.412      18.541    
  22.028      25.727      29.443      32.806      35.112      35.659      33.913      29.642      23.041      14.782    
  5.9609     -2.0686     -7.9036     -10.268     -8.2038     -1.3402      9.8435      24.003      39.330      54.220    
  67.847      80.339      92.532      105.46      119.81      135.37      150.80      164.31      173.77      176.74    
  171.57      158.37      139.09      116.70      93.865      72.916      55.260      41.250      35.673      26.318    
  19.381      14.299      10.640      8.0841      6.3851      5.3419      4.8028      4.6692      4.8867      5.4300    
  6.2938      7.4914      9.0537      11.024      13.447      16.353      19.723      23.472      27.446      31.436    
  34.977      37.378      38.013      36.451      32.561      26.594      19.212      11.440      4.5431     -.12725    
 -1.3402      1.7316      9.1945      20.270      33.491      47.245      60.395      72.652      84.532      96.978    
  110.84      126.32      142.53      157.79      170.18      177.21      176.61      167.44      150.79      129.36    
  106.17      83.750      64.101      48.091      40.487      29.968      22.095      16.279      12.041      9.0241    
  6.9573      5.6222      4.8461      4.5087      4.5384      4.8977      5.5721      6.5676      7.9106      9.6457    
  11.831      14.525      17.763      21.519      25.695      30.130      34.592      38.558      41.376      42.488    
  41.521      38.369      33.257      26.777      19.880      13.792      9.8435      9.1945      12.490      19.581    
  29.530      40.958      52.617      63.863      74.815      86.165      98.762      113.11      128.79      144.43    
  158.26      168.15      171.70      167.21      154.73      136.17      114.39      92.067      71.555      54.242    
  44.446      33.151      24.564      18.145      13.410      9.9840      7.5802      5.9704      4.9708      4.4445    
  4.3034      4.4992      5.0104      5.8370      7.0004      8.5438      10.531      13.042      16.147      19.879    
  24.201      29.000      34.104      39.244      43.868      47.355      49.169      48.937      46.519      42.083    
  36.179      29.741      24.003      20.270      19.581      22.372      28.312      36.462      45.689      55.154    
  64.609      74.401      85.214      97.656      111.71      126.48      140.40      151.62      158.08      157.84    
  150.11      135.78      117.05      96.467      76.486      58.886      47.009      35.490      26.536      19.726    
  14.629      10.882      8.1975      6.3483      5.1482      4.4516      4.1580      4.2089      4.5779      5.2612    
  6.2764      7.6651      9.4944      11.853      14.839      18.529      22.948      28.041      33.674      39.642    
  45.630      51.055      55.280      57.740      58.020      55.945      51.682      45.812      39.330      33.491    
  29.530      28.312      30.080      34.424      40.525      47.553      55.017      62.923      71.685      81.841    
  93.589      106.45      119.33      130.64      138.58      141.42      137.99      128.31      113.67      96.140    
  78.043      61.297      47.774      36.663      27.772      20.855      15.579      11.630      8.7463      6.7112    
  5.3453      4.5029      4.0771      4.0022      4.2469      4.8057      5.6950      6.9562      8.6581      10.896    
  13.781      17.424      21.901      27.223      33.310      39.987      46.988      53.914      60.117      64.886    
  67.599      67.818      65.409      60.638      54.220      47.245      40.958      36.462      34.424      34.935    
  37.590      41.748      46.852      52.658      59.292      67.103      76.319      86.730      97.677      108.03    
  116.31      120.96      120.75      115.22      104.87      91.135      75.930      61.057      46.601      36.487    
  28.103      21.392      16.151      12.148      9.1648      7.0123      5.5266      4.5696      4.0355      3.8548    
  3.9926      4.4419      5.2201      6.3702      7.9637      10.100      12.900      16.497      21.006      26.500    
  32.972      40.303      48.242      56.397      64.222      70.949      75.768      78.028      77.363      73.806    
  67.847      60.395      52.617      45.689      40.525      37.590      36.875      38.021      40.565      44.156    
  48.695      54.308      61.110      69.009      77.641      86.286      93.883      99.179      101.02      98.680    
  92.186      82.340      70.506      58.185      43.659      34.971      27.470      21.260      16.274      12.372    
  9.4010      7.2094      5.6581      4.6240      4.0085      3.7433      3.7917      4.1456      4.8233      5.8705    
  7.3626      9.4040      12.124      15.670      20.189      25.808      32.599      40.526      49.395      58.804    
  68.142      76.629      83.349      87.431      88.302      85.821      80.339      72.652      63.863      55.154    
  47.553      41.748      38.021      36.294      36.276      37.641      40.171      43.799      48.478      54.114    
  60.495      67.188      73.497      78.516      81.293      81.084      77.611      71.190      62.666      53.141    
  39.372      32.318      25.946      20.466      15.922      12.269      9.4203      7.2706      5.7118      4.6418    
  3.9741      3.6464      3.6230      3.8954      4.4819      5.4300      6.8191      8.7598      11.390      14.869    
  19.368      25.062      32.098      40.545      50.306      61.026      72.039      82.406      91.047      96.928    
  99.249      97.697      92.532      84.532      74.815      64.609      55.017      46.852      40.565      36.276    
  33.866      33.098      33.736      35.579      38.444      42.182      46.622      51.489      56.343      60.574    
  63.480      64.419      63.002      59.240      53.558      46.673      34.294      28.862      23.711      19.092    
  15.125      11.840      9.2109      7.1788      5.6694      4.6049      3.9149      3.5465      3.4683      3.6728    
  4.1773      5.0289      6.3092      8.1345      10.652      14.032      18.467      24.169      31.356      40.208    
  50.760      62.764      75.572      88.116      99.049      107.01      110.96      110.39      105.46      96.978    
  86.165      74.401      62.923      52.658      44.156      37.641      33.098      30.377      29.256      29.471    
  30.774      32.953      35.820      39.157      42.672      45.961      48.538      49.910      49.702      47.772    
  44.273      39.603      28.970      24.987      21.010      17.283      13.961      11.122      8.7856      6.9339    
  5.5243      4.5036      3.8198      3.4314      3.3141      3.4629      3.8946      4.6531      5.8187      7.5105    
  9.8831      13.119      17.426      23.048      30.262      39.351      50.502      63.630      78.192      93.076    
  106.70      117.32      123.47      124.29      119.81      110.84      98.762      85.214      71.685      59.292    
  48.695      40.171      33.736      29.256      26.509      25.233      25.158      26.035      27.637      29.754    
  32.154      34.557      36.629      38.013      38.397      37.598      35.616      32.634      23.836      21.040    
  18.098      15.213      12.540      10.179      8.1790      6.5519      5.2816      4.3372      3.6845      3.2949    
  3.1525      3.2564      3.6232      4.2930      5.3405      6.8828      9.0776      12.115      16.218      21.651    