unknown system                          
   1.00000000000000     
     4.913700    0.000000    0.000000
    -2.456850    4.255389    0.000000
     0.000000    0.000000    5.405130
   Si   O 
     3     6
Direct
  0.469800  0.000000  0.666670
  0.000000  0.469800  0.333330
  0.530200  0.530200  0.000000
  0.414500  0.266200  0.785600
  0.733800  0.148300  0.452270
  0.851700  0.585500  0.118930
  0.148300  0.733800  0.547730
  0.266200  0.414500  0.214400
  0.585500  0.851700  0.881070
 
   56   56   60
 0.14723187566E+01 0.14170882459E+01 0.14076045983E+01 0.14323137175E+01 0.14839245933E+01
 0.15583719672E+01 0.16533109065E+01 0.17666962814E+01 0.18959448262E+01 0.20377406363E+01
 0.21881296638E+01 0.23425943869E+01 0.24961642274E+01 0.26438279108E+01 0.27814481380E+01
 0.29072222414E+01 0.30234864315E+01 0.31382770867E+01 0.32659272454E+01 0.34265875675E+01
 0.36456429356E+01 0.39545170971E+01 0.43936106743E+01 0.50164210459E+01 0.58922618341E+01
 0.71045999405E+01 0.87436861890E+01 0.10895318451E+02 0.13629541720E+02 0.16990801670E+02
 0.20985153786E+02 0.25556553314E+02 0.30549858074E+02 0.35673137899E+02 0.40486607446E+02
 0.44446172172E+02 0.47008958896E+02 0.47773718137E+02 0.46601190606E+02 0.43659482298E+02
 0.39372144889E+02 0.34293814918E+02 0.28970055066E+02 0.23835631021E+02 0.19175121404E+02
 0.15135438887E+02 0.11762446852E+02 0.90372691397E+01 0.69017942397E+01 0.52748642056E+01
 0.40647860821E+01 0.31813096172E+01 0.25458390259E+01 0.20968032524E+01 0.17890445997E+01
 0.15894305999E+01 0.14170882459E+01 0.13596260102E+01 0.13525910006E+01 0.13852718114E+01
 0.14508982163E+01 0.15457264134E+01 0.16676075604E+01 0.18145415613E+01 0.19836704592E+01
 0.21709147003E+01 0.23710506038E+01 0.25778217669E+01 0.27839579080E+01 0.29814160035E+01
 0.31622117354E+01 0.33198905156E+01 0.34514199984E+01 0.35591384880E+01 0.36521623222E+01
 0.37466035753E+01 0.38646125295E+01 0.40333522319E+01 0.42853601006E+01 0.46607104888E+01
 0.52097192754E+01 0.59938755681E+01 0.70828406108E+01 0.85467089984E+01 0.10444860983E+02
 0.12814232333E+02 0.15658708902E+02 0.18937797206E+02 0.22550874134E+02 0.26317923794E+02
 0.29967657772E+02 0.33150737079E+02 0.35490281637E+02 0.36663439531E+02 0.36487004809E+02
 0.34971360599E+02 0.32318104811E+02 0.28862461900E+02 0.24986737031E+02 0.21040440237E+02
 0.17292086884E+02 0.13916683930E+02 0.11006637759E+02 0.85905770107E+01 0.66511005595E+01
 0.51398962512E+01 0.39915333421E+01 0.31361708057E+01 0.25097211816E+01 0.20597096687E+01
 0.17462932763E+01 0.15397651701E+01 0.14076045983E+01 0.13525910006E+01 0.13507493728E+01
 0.13923915213E+01 0.14715128650E+01 0.15850620531E+01 0.17315306510E+01 0.19095055783E+01
 0.21166113221E+01 0.23489193454E+01 0.26007282624E+01 0.28645334218E+01 0.31310279579E+01
 0.33892347226E+01 0.36271522291E+01 0.38332186282E+01 0.39984830138E+01 0.41190188246E+01
 0.41979751751E+01 0.42466221908E+01 0.42839459890E+01 0.43350663032E+01 0.44296294726E+01
 0.46014318877E+01 0.48894922414E+01 0.53394019432E+01 0.60030627938E+01 0.69351759234E+01
 0.81859034680E+01 0.97907063969E+01 0.11759622344E+02 0.14067883227E+02 0.16647859450E+02
 0.19381477271E+02 0.22095135368E+02 0.24564226046E+02 0.26535871671E+02 0.27771986052E+02
 0.28102655420E+02 0.27470363936E+02 0.25946253597E+02 0.23711144085E+02 0.21009828549E+02
 0.18097772526E+02 0.15198879357E+02 0.12483179032E+02 0.10062033027E+02 0.79931847934E+01
 0.62897599042E+01 0.49312727400E+01 0.38761503336E+01 0.30741601894E+01 0.24762749534E+01
 0.20404206197E+01 0.17332273904E+01 0.15290105192E+01 0.14323137175E+01 0.13852718114E+01
 0.13923915213E+01 0.14452418874E+01 0.15387456504E+01 0.16706998019E+01 0.18405594906E+01
 0.20480171807E+01 0.22918550339E+01 0.25691485797E+01 0.28746930906E+01 0.32005911439E+01
 0.35360142189E+01 0.38672118354E+01 0.41780332762E+01 0.44513564734E+01 0.46715356966E+01
 0.48274189392E+01 0.49151629809E+01 0.49401386431E+01 0.49173943047E+01 0.48704265549E+01
 0.48286867469E+01 0.48250630846E+01 0.48945948023E+01 0.50745632166E+01 0.54048138122E+01
 0.59267824354E+01 0.66801763865E+01 0.76969450086E+01 0.89929947576E+01 0.10559208389E+02
 0.12354004426E+02 0.14299068492E+02 0.16278823836E+02 0.18144621034E+02 0.19726431166E+02
 0.20854823843E+02 0.21391552195E+02 0.21260267691E+02 0.20465504306E+02 0.19091781896E+02
 0.17283367678E+02 0.15213132054E+02 0.13051585079E+02 0.10944226614E+02 0.89997474107E+01
 0.72871217094E+01 0.58383186953E+01 0.46545184052E+01 0.37149097212E+01 0.29868240489E+01
 0.24349320906E+01 0.20273005752E+01 0.17376690557E+01 0.15450397988E+01 0.14839245933E+01
 0.14508982163E+01 0.14715128650E+01 0.15387456504E+01 0.16486000655E+01 0.17998005476E+01
 0.19929102304E+01 0.22290825495E+01 0.25088277360E+01 0.28310065812E+01 0.31919381446E+01
 0.35844766530E+01 0.39971975937E+01 0.44140395524E+01 0.48147237540E+01 0.51762081390E+01
 0.54753311860E+01 0.56924312763E+01 0.58151819674E+01 0.58416271507E+01 0.57816191307E+01
 0.56562768934E+01 0.54955365420E+01 0.53345047811E+01 0.52099364125E+01 0.51580323001E+01
 0.52136996365E+01 0.54103064635E+01 0.57787015370E+01 0.63446869997E+01 0.71245875425E+01
 0.81191297078E+01 0.93068941619E+01 0.10639544143E+02 0.12040789649E+02 0.13409846495E+02
 0.14629475047E+02 0.15578913892E+02 0.16151464905E+02 0.16273879307E+02 0.15921750934E+02
 0.15125035824E+02 0.13961447857E+02 0.12540318338E+02 0.10982470563E+02 0.94017588329E+01
 0.78920240723E+01 0.65205923499E+01 0.53272724004E+01 0.43270512058E+01 0.35152438375E+01
 0.28743696304E+01 0.23814951347E+01 0.20140202295E+01 0.17524354915E+01 0.15804092806E+01
 0.15583719672E+01 0.15457264134E+01 0.15850620531E+01 0.16706998019E+01 0.17998005476E+01
 0.19721258204E+01 0.21893694017E+01 0.24542127403E+01 0.27692409772E+01 0.31358073418E+01
 0.35527736500E+01 0.40150070179E+01 0.45118122771E+01 0.50258646234E+01 0.55332328869E+01
 0.60047971468E+01 0.64091308359E+01 0.67167158385E+01 0.69048832081E+01 0.69622962567E+01
 0.68917293386E+01 0.67104713931E+01 0.64483431368E+01 0.61437442023E+01 0.58386325521E+01
 0.55738837634E+01 0.53863492345E+01 0.53077891007E+01 0.53646469837E+01 0.55774824863E+01
 0.59595260212E+01 0.65142061328E+01 0.72315643194E+01 0.80841323279E+01 0.90240921049E+01
 0.99839554574E+01 0.10881786014E+02 0.11630268649E+02 0.12148148776E+02 0.12372447157E+02
 0.12269266651E+02 0.11840203541E+02 0.11121918298E+02 0.10178765068E+02 0.90909214916E+01
 0.79414571288E+01 0.68051996613E+01 0.57411485032E+01 0.47891090324E+01 0.39701723081E+01
 0.32898794288E+01 0.27427391672E+01 0.23169975454E+01 0.19986988968E+01 0.17742326715E+01
 0.16312027812E+01 0.16533109065E+01 0.16676075604E+01 0.17315306510E+01 0.18405594906E+01
 0.19929102304E+01 0.21893694017E+01 0.24327003229E+01 0.27269797653E+01 0.30768957110E+01
 0.34867359951E+01 0.39588208201E+01 0.44913602241E+01 0.50760287257E+01 0.56959070787E+01
 0.63246368259E+01 0.69274350713E+01 0.74641547873E+01 0.78941581802E+01 0.81823856806E+01
 0.83054828251E+01 0.82564548562E+01 0.80465763587E+01 0.77041487574E+01 0.72705238851E+01
 0.67942646801E+01 0.63246835416E+01 0.59063319954E+01 0.55757166041E+01 0.53603568316E+01
 0.52791629396E+01 0.53429508556E+01 0.55544463481E+01 0.59074604768E+01 0.63850651756E+01
 0.69573167119E+01 0.75801780812E+01 0.81974570488E+01 0.87462539833E+01 0.91648054804E+01
 0.94010331103E+01 0.94202988729E+01 0.92108719421E+01 0.87855786295E+01 0.81789513737E+01
 0.74407653768E+01 0.66278613289E+01 0.57960158671E+01 0.49931501323E+01 0.42550171154E+01
 0.36041227471E+01 0.30514756342E+01 0.25996246765E+01 0.22454893679E+01 0.19824887535E+01
 0.18021667533E+01 0.16954233988E+01 0.17666962814E+01 0.18145415613E+01 0.19095055783E+01
 0.20480171807E+01 0.22290825495E+01 0.24542127403E+01 0.27269797653E+01 0.30525890563E+01
 0.34375702838E+01 0.38891509297E+01 0.44137108391E+01 0.50141087148E+01 0.56862660566E+01
 0.64158529978E+01 0.71761558322E+01 0.79281335944E+01 0.86232095591E+01 0.92086724714E+01
 0.96349756857E+01 0.98637316334E+01 0.98747087292E+01 0.96699753757E+01 0.92740119670E+01
 0.87299296590E+01 0.80929696135E+01 0.74227147058E+01 0.67754162115E+01 0.61979601430E+01
 0.57247606470E+01 0.53777028161E+01 0.51678399944E+01 0.50971857034E+01 0.51597658260E+01
 0.53419394289E+01 0.56221550712E+01 0.59704137582E+01 0.63483356456E+01 0.67111593683E+01
 0.70122702158E+01 0.72093722335E+01 0.72705555401E+01 0.71787711304E+01 0.69338839501E+01
 0.65519364816E+01 0.60617655535E+01 0.54998651633E+01 0.49048628654E+01 0.43127430336E+01
 0.37534031692E+01 0.32488375539E+01 0.28130567771E+01 0.24533582165E+01 0.21720362652E+01
 0.19677294778E+01 0.18363009680E+01 0.17716463119E+01 0.18959448262E+01 0.19836704592E+01
 0.21166113221E+01 0.22918550339E+01 0.25088277360E+01 0.27692409772E+01 0.30768957110E+01
 0.34375702838E+01 0.38590907380E+01 0.43512164223E+01 0.49244959739E+01 0.55874182937E+01
 0.63420491103E+01 0.71792267235E+01 0.80747503298E+01 0.89878866501E+01 0.98631497347E+01
 0.10635675774E+02 0.11239661828E+02 0.11618495869E+02 0.11734556514E+02 0.11576337754E+02
 0.11160913269E+02 0.10531069762E+02 0.97481665218E+01 0.88827873388E+01 0.80051324039E+01
 0.71766352234E+01 0.64441583755E+01 0.58378146508E+01 0.53722804464E+01 0.50500340581E+01
 0.48646069711E+01 0.48028439801E+01 0.48461287545E+01 0.49708115562E+01 0.51482403892E+01
 0.53453071207E+01 0.55265651058E+01 0.56580646171E+01 0.57118127608E+01 0.56694448605E+01
 0.55242962010E+01 0.52815959188E+01 0.49566973243E+01 0.45717365487E+01 0.41518659947E+01
 0.37222619804E+01 0.33061585728E+01 0.29233717564E+01 0.25890998028E+01 0.23134649530E+01
 0.21020492975E+01 0.19568345035E+01 0.18768117265E+01 0.18583446717E+01 0.20377406363E+01
 0.21709147003E+01 0.23489193454E+01 0.25691485797E+01 0.28310065812E+01 0.31358073418E+01
 0.34867359951E+01 0.38891509297E+01 0.43512164223E+01 0.48844257932E+01 0.55030633038E+01
 0.62215863504E+01 0.70496953548E+01 0.79860652636E+01 0.90124839702E+01 0.10090184252E+02
 0.11159800535E+02 0.12145831117E+02 0.12965584237E+02 0.13541362948E+02 0.13813527700E+02
 0.13751469801E+02 0.13359640759E+02 0.12676855952E+02 0.11769131799E+02 0.10718427355E+02
 0.96104584565E+01 0.85239268411E+01 0.75223325471E+01 0.66491825429E+01 0.59273468563E+01
 0.53623285966E+01 0.49475577891E+01 0.46691563173E+01 0.45087365031E+01 0.44444949914E+01
 0.44516274033E+01 0.45028679079E+01 0.45696298676E+01 0.46240459552E+01 0.46417804114E+01
 0.46048676967E+01 0.45036375014E+01 0.43372062459E+01 0.41125552262E+01 0.38425297614E+01
 0.35433379001E+01 0.32323144343E+01 0.29264763242E+01 0.26417278774E+01 0.23921676784E+01
 0.21892571965E+01 0.20411253842E+01 0.19523006380E+01 0.19238317407E+01 0.19537108410E+01
 0.21881296638E+01 0.23710506038E+01 0.26007282624E+01 0.28746930906E+01 0.31919381446E+01
 0.35527736500E+01 0.39588208201E+01 0.44137108391E+01 0.49244959739E+01 0.55030633038E+01
 0.61663817718E+01 0.69344175823E+01 0.78251499589E+01 0.88472379243E+01 0.99920347879E+01
 0.11227209966E+02 0.12494070710E+02 0.13710071194E+02 0.14777118234E+02 0.15595017460E+02
 0.16077827230E+02 0.16169535303E+02 0.15855019642E+02 0.15163132945E+02 0.14160971372E+02
 0.12941258617E+02 0.11606839132E+02 0.10256276840E+02 0.89728482633E+01 0.78175802547E+01
 0.68265573667E+01 0.60127002419E+01 0.53712570742E+01 0.48867068077E+01 0.45383717990E+01
 0.43034416327E+01 0.41579600194E+01 0.40770700399E+01 0.40354700959E+01 0.40085303739E+01
 0.39741489423E+01 0.39149209012E+01 0.38197790433E+01 0.36844986570E+01 0.35111525501E+01
 0.33069312497E+01 0.30825402967E+01 0.28503554229E+01 0.26229023932E+01 0.24122530593E+01
 0.22301192679E+01 0.20876623025E+01 0.19944091240E+01 0.19568085102E+01 0.19774809007E+01
 0.20556140668E+01 0.23425943869E+01 0.25778217669E+01 0.28645334218E+01 0.32005911439E+01
 0.35844766530E+01 0.40150070179E+01 0.44913602241E+01 0.50141087148E+01 0.55874182937E+01
 0.62215863504E+01 0.69344175823E+01 0.77499992229E+01 0.86940834552E+01 0.97862608066E+01
 0.11030275436E+02 0.12404841837E+02 0.13857658479E+02 0.15304861922E+02 0.16637279874E+02
 0.17733681598E+02 0.18479520567E+02 0.18787507984E+02 0.18614780775E+02 0.17971689493E+02
 0.16919596537E+02 0.15558565922E+02 0.14008922387E+02 0.12392031200E+02 0.10814739777E+02
 0.93594768605E+01 0.80798248698E+01 0.70007391898E+01 0.61228695728E+01 0.54300477127E+01
 0.48976867747E+01 0.44992053337E+01 0.42089169432E+01 0.40021685586E+01 0.38547839490E+01
 0.37433251120E+01 0.36464045810E+01 0.35464761289E+01 0.34313651394E+01 0.32949452020E+01
 0.31367428820E+01 0.29607671495E+01 0.27741197166E+01 0.25857572375E+01 0.24055152848E+01
 0.22434842281E+01 0.21097740944E+01 0.20143441540E+01 0.19663399857E+01 0.19728449931E+01
 0.20377531568E+01 0.21616179596E+01 0.24961642274E+01 0.27839579080E+01 0.31310279579E+01
 0.35360142189E+01 0.39971975937E+01 0.45118122771E+01 0.50760287257E+01 0.56862660566E+01
 0.63420491103E+01 0.70496953548E+01 0.78251499589E+01 0.86940834552E+01 0.96880915874E+01
 0.10836952679E+02 0.12157989773E+02 0.13644611377E+02 0.15256867746E+02 0.16916948730E+02
 0.18511915834E+02 0.19904886606E+02 0.20954273560E+02 0.21538175746E+02 0.21578239964E+02
 0.21056097695E+02 0.20017264888E+02 0.18561542198E+02 0.16823320180E+02 0.14947858992E+02
 0.13069791228E+02 0.11298032748E+02 0.97082013645E+01 0.83413904413E+01 0.72077495617E+01
 0.62938073249E+01 0.55720950903E+01 0.50104092059E+01 0.45778795685E+01 0.42469214443E+01
 0.39925994016E+01 0.37917321331E+01 0.36230402498E+01 0.34683270183E+01 0.33140523427E+01
 0.31524652232E+01 0.29815418888E+01 0.28036647637E+01 0.26239446416E+01 0.24492150925E+01
 0.22877472557E+01 0.21489131299E+01 0.20423955489E+01 0.19773559523E+01 0.19619407218E+01
 0.20028478673E+01 0.21046384086E+01 0.22692127404E+01 0.26438279108E+01 0.29814160035E+01
 0.33892347226E+01 0.38672118354E+01 0.44140395524E+01 0.50258646234E+01 0.56959070787E+01
 0.64158529978E+01 0.71792267235E+01 0.79860652636E+01 0.88472379243E+01 0.97862608066E+01
 0.10836952679E+02 0.12036495432E+02 0.13414695658E+02 0.14981200447E+02 0.16713218176E+02
 0.18546843007E+02 0.20375059207E+02 0.22054814007E+02 0.23424174111E+02 0.24328146357E+02
 0.24648203241E+02 0.24327455823E+02 0.23383362696E+02 0.21903893020E+02 0.20029075852E+02
 0.17924383221E+02 0.15753556848E+02 0.13656879626E+02 0.11738024165E+02 0.10059703886E+02
 0.86463483381E+01 0.74914485972E+01 0.65675579560E+01 0.58370289287E+01 0.52611640023E+01
 0.48056651894E+01 0.44419007285E+01 0.41456034339E+01 0.38954173190E+01 0.36727592897E+01
 0.34629165795E+01 0.32563810568E+01 0.30493902895E+01 0.28432165986E+01 0.26425798193E+01
 0.24541202699E+01 0.22856108514E+01 0.21457304129E+01 0.20437331623E+01 0.19887260892E+01
 0.19888552774E+01 0.20507213551E+01 0.21790186833E+01 0.23764019728E+01 0.27814481380E+01
 0.31622117354E+01 0.36271522291E+01 0.41780332762E+01 0.48147237540E+01 0.55332328869E+01
 0.63246368259E+01 0.71761558322E+01 0.80747503298E+01 0.90124839702E+01 0.99920347879E+01
 0.11030275436E+02 0.12157989773E+02 0.13414695658E+02 0.14838871317E+02 0.16455026712E+02
 0.18259800504E+02 0.20209820698E+02 0.22214545462E+02 0.24137435869E+02 0.25808157054E+02
 0.27046479918E+02 0.27694749136E+02 0.27651100873E+02 0.26892937751E+02 0.25482429434E+02
 0.23552650367E+02 0.21280217016E+02 0.18853637424E+02 0.16445358630E+02 0.14192167024E+02
 0.12185478642E+02 0.10470741860E+02 0.90536690263E+01 0.79105687519E+01 0.70004047555E+01
 0.62764170395E+01 0.56949953655E+01 0.52200770113E+01 0.48232705085E+01 0.44818842749E+01
 0.41772804128E+01 0.38945641285E+01 0.36232295403E+01 0.33579696260E+01 0.30989441636E+01
 0.28509643916E+01 0.26216459174E+01 0.24195037909E+01 0.22531162108E+01 0.21313561341E+01
 0.20635356847E+01 0.20586016974E+01 0.21238449063E+01 0.22642254494E+01 0.24827529519E+01
 0.29072222414E+01 0.33198905156E+01 0.38332186282E+01 0.44513564734E+01 0.51762081390E+01
 0.60047971468E+01 0.69274350713E+01 0.79281335944E+01 0.89878866501E+01 0.10090184252E+02
 0.11227209966E+02 0.12404841837E+02 0.13644611377E+02 0.14981200447E+02 0.16455026712E+02
 0.18100699034E+02 0.19933044587E+02 0.21932910800E+02 0.24035483180E+02 0.26124690708E+02
 0.28037834877E+02 0.29583670200E+02 0.30573710081E+02 0.30860795075E+02 0.30373555939E+02
 0.29134448020E+02 0.27254737601E+02 0.24909441018E+02 0.22302526712E+02 0.19633466792E+02
 0.17071871540E+02 0.14742141878E+02 0.12717687501E+02 0.11023563429E+02 0.96456741645E+01
 0.85437763401E+01 0.76651484597E+01 0.69562094952E+01 0.63702335511E+01 0.58705350594E+01
 0.54300013906E+01 0.50289411587E+01 0.46531467912E+01 0.42930416869E+01 0.39437317016E+01
 0.36052651566E+01 0.32823507059E+01 0.29831340890E+01 0.27173956574E+01 0.24951401628E+01
 0.23261988729E+01 0.22203616999E+01 0.21870341703E+01 0.22342018288E+01 0.23675925396E+01
 0.25909409096E+01 0.30234864315E+01 0.34514199984E+01 0.39984830138E+01 0.46715356966E+01
 0.54753311860E+01 0.64091308359E+01 0.74641547873E+01 0.86232095591E+01 0.98631497347E+01
 0.11159800535E+02 0.12494070710E+02 0.13857658479E+02 0.15256867746E+02 0.16713218176E+02
 0.18259800504E+02 0.19933044587E+02 0.21760618790E+02 0.23747011858E+02 0.25858884581E+02
 0.28013190853E+02 0.30072655159E+02 0.31854201425E+02 0.33154042529E+02 0.33787162890E+02
 0.33630874100E+02 0.32657056165E+02 0.30940352256E+02 0.28639826195E+02 0.25963173415E+02
 0.23127803806E+02 0.20329669266E+02 0.17723374955E+02 0.15412310777E+02 0.13447024640E+02
 0.11830865011E+02 0.10531356576E+02 0.94944084656E+01 0.86581051507E+01 0.79637128082E+01
 0.73626391205E+01 0.68190697532E+01 0.63091664527E+01 0.58186541334E+01 0.53404787531E+01
 0.48731424090E+01 0.44195111463E+01 0.39858973291E+01 0.35813692666E+01 0.32170290360E+01
 0.29049422026E+01 0.26569138622E+01 0.24837047104E+01 0.23948504128E+01 0.23985750244E+01
 0.25014666239E+01 0.27084157742E+01 0.31382770867E+01 0.35591384880E+01 0.41190188246E+01
 0.48274189392E+01 0.56924312763E+01 0.67167158385E+01 0.78941581802E+01 0.92086724714E+01
 0.10635675774E+02 0.12145831117E+02 0.13710071194E+02 0.15304861922E+02 0.16916948730E+02
 0.18546843007E+02 0.20209820698E+02 0.21932910800E+02 0.23747011858E+02 0.25674552038E+02
 0.27714060313E+02 0.29823757339E+02 0.31908046638E+02 0.33813628006E+02 0.35342422450E+02
 0.36287314085E+02 0.36481341526E+02 0.35840238439E+02 0.34388094685E+02 0.32254368697E+02
 0.29638464351E+02 0.26765680651E+02 0.23849147485E+02 0.21065142626E+02 0.18541234601E+02
 0.16352831927E+02 0.14525366049E+02 0.13041594210E+02 0.11853369570E+02 0.10895650483E+02
 0.10099809540E+02 0.94040362941E+01 0.87598258163E+01 0.81345069931E+01 0.75105303949E+01
 0.68827646699E+01 0.62550660806E+01 0.56369927590E+01 0.50411730871E+01 0.44815866858E+01
 0.39726287068E+01 0.35284563120E+01 0.31622549771E+01 0.28856103679E+01 0.27083448939E+01
 0.26387133896E+01 0.26835463403E+01 0.28483958168E+01 0.32659272454E+01 0.36521623222E+01
 0.41979751751E+01 0.49151629809E+01 0.58151819674E+01 0.69048832081E+01 0.81823856806E+01
 0.96349756857E+01 0.11239661828E+02 0.12965584237E+02 0.14777118234E+02 0.16637279874E+02
 0.18511915834E+02 0.20375059207E+02 0.22214545462E+02 0.24035483180E+02 0.25858884581E+02
 0.27714060313E+02 0.29625073778E+02 0.31592537448E+02 0.33566636627E+02 0.35429979094E+02
 0.37023420839E+02 0.38161086109E+02 0.38661914643E+02 0.38394913507E+02 0.37318993830E+02
 0.35499505847E+02 0.33096439039E+02 0.30333487215E+02 0.27448583584E+02 0.24633078561E+02
 0.22027769305E+02 0.19723352462E+02 0.17762886026E+02 0.16146545800E+02 0.14839213625E+02
 0.13781161852E+02 0.12900363575E+02 0.12124357592E+02 0.11390241050E+02 0.10651841858E+02
 0.98831413828E+01 0.90775691482E+01 0.82441091342E+01 0.74020574157E+01 0.65759205007E+01
 0.57910909503E+01 0.50706533179E+01 0.44337592395E+01 0.38956042222E+01 0.34682463964E+01
 0.31613088482E+01 0.29822847157E+01 0.29368676789E+01 0.30297508531E+01 0.34265875675E+01
 0.37466035753E+01 0.42466221908E+01 0.49401386431E+01 0.58416271507E+01 0.69622962567E+01
 0.83054828251E+01 0.98637316334E+01 0.11618495869E+02 0.13541362948E+02 0.15595017460E+02
 0.17733681598E+02 0.19904886606E+02 0.22054814007E+02 0.24137435869E+02 0.26124690708E+02
 0.28013190853E+02 0.29823757339E+02 0.31592537448E+02 0.33338975866E+02 0.35027873014E+02
 0.36609866298E+02 0.38009465735E+02 0.39109278715E+02 0.39759260975E+02 0.39813873966E+02
 0.39180417259E+02 0.37853265741E+02 0.35918725441E+02 0.33534629248E+02 0.30901113751E+02
 0.28235939166E+02 0.25726890108E+02 0.23472039549E+02 0.21519034901E+02 0.19878504494E+02
 0.18529404917E+02 0.17424320012E+02 0.16496602140E+02 0.15669848464E+02 0.14869053838E+02
 0.14032004591E+02 0.13118594046E+02 0.12115390560E+02 0.11034111143E+02 0.99051916489E+01
 0.87693279820E+01 0.76695249064E+01 0.66449176916E+01 0.57269318911E+01 0.49380909664E+01
 0.42930655397E+01 0.38006858515E+01 0.34657528218E+01 0.32905434567E+01 0.32765540240E+01
 0.36456429356E+01 0.38646125296E+01 0.42839459890E+01 0.49173943047E+01 0.57816191307E+01
 0.68917293386E+01 0.82564548562E+01 0.98747087292E+01 0.11734556514E+02 0.13813527700E+02
 0.16077827230E+02 0.18479520567E+02 0.20954273560E+02 0.23424174111E+02 0.25808157054E+02
 0.28037834877E+02 0.30072655159E+02 0.31908046638E+02 0.33566636626E+02 0.35027873014E+02
 0.36272856525E+02 0.37324983348E+02 0.38216862723E+02 0.38947534814E+02 0.39457334235E+02
 0.39639859008E+02 0.39386060873E+02 0.38632742322E+02 0.37387065434E+02 0.35720042083E+02
 0.33744749330E+02 0.31599594402E+02 0.29443240965E+02 0.27445515884E+02 0.25695131361E+02
 0.24200804016E+02 0.22947944668E+02 0.21901456732E+02 0.21005943580E+02 0.20188806365E+02
 0.19368382673E+02 0.18466918439E+02 0.17425820811E+02 0.16218351533E+02 0.14854446413E+02
 0.13375532002E+02 0.11842427578E+02 0.10322180810E+02 0.88778945455E+01 0.75621497887E+01
 0.64133065085E+01 0.54546755232E+01 0.46966361255E+01 0.41405784622E+01 0.37829943480E+01
 0.36190137835E+01 0.39545170971E+01 0.40333522319E+01 0.43350663032E+01 0.48704265550E+01
 0.56562768934E+01 0.67104713931E+01 0.80465763587E+01 0.96699753757E+01 0.11576337754E+02
 0.13751469801E+02 0.16169535303E+02 0.18787507984E+02 0.21538175746E+02 0.24328146357E+02
 0.27046479918E+02 0.29583670200E+02 0.31854201425E+02 0.33813628006E+02 0.35429979093E+02
 0.36609866297E+02 0.37324983347E+02 0.37646794003E+02 0.37716817782E+02 0.37685575543E+02
 0.37647787011E+02 0.37610158132E+02 0.37509308685E+02 0.37261947865E+02 0.36808694359E+02
 0.36126363833E+02 0.35216274663E+02 0.34095218126E+02 0.32805555798E+02 0.31436069788E+02
 0.30129964728E+02 0.29000492213E+02 0.28041230921E+02 0.27222828951E+02 0.26500396700E+02
 0.25808340279E+02 0.25061949800E+02 0.24168645124E+02 0.23047540394E+02 0.21651358883E+02
 0.19981519356E+02 0.18088855975E+02 0.16059777917E+02 0.13995549638E+02 0.11994002801E+02
 0.10137999733E+02 0.84896464375E+01 0.70883045658E+01 0.59519878589E+01 0.50818569411E+01
 0.44682977975E+01 0.40969893045E+01 0.43936106744E+01 0.42853601006E+01 0.44296294726E+01
 0.48286867469E+01 0.54955365420E+01 0.64483431368E+01 0.77041487574E+01 0.92740119670E+01
 0.11160913269E+02 0.13359640759E+02 0.15855019642E+02 0.18614780775E+02 0.21578239964E+02
 0.24648203241E+02 0.27694749136E+02 0.30573710081E+02 0.33154042529E+02 0.35342422450E+02
 0.37023420838E+02 0.38009465733E+02 0.38216862721E+02 0.37716817780E+02 0.36727934310E+02
 0.35556610854E+02 0.34500918176E+02 0.33762428729E+02 0.33411446712E+02 0.33413809407E+02
 0.33683084874E+02 0.34113752221E+02 0.34584696449E+02 0.34959518258E+02 0.35112303423E+02
 0.34977274674E+02 0.34592204326E+02 0.34103631746E+02 0.33673984363E+02 0.33309778319E+02
 0.32972283938E+02 0.32599089020E+02 0.32098231473E+02 0.31356466633E+02 0.30262073587E+02
 0.28736333750E+02 0.26762113698E+02 0.24396069889E+02 0.21757167131E+02 0.18996912782E+02
 0.16266348562E+02 0.13693173311E+02 0.11372355159E+02 0.93655837521E+01 0.77043381313E+01
 0.63946089853E+01 0.54232000650E+01 0.47654240501E+01 0.50164210459E+01 0.46607104888E+01
 0.46014318877E+01 0.48250630846E+01 0.53345047811E+01 0.61437442023E+01 0.72705238851E+01
 0.87299296590E+01 0.10531069762E+02 0.12676855952E+02 0.15163132945E+02 0.17971689493E+02
 0.21056097695E+02 0.24327455823E+02 0.27651100873E+02 0.30860795075E+02 0.33787162890E+02
 0.36287314084E+02 0.38161086107E+02 0.39109278711E+02 0.38947534809E+02 0.37685575539E+02
 0.35556610851E+02 0.32984714280E+02 0.30481305741E+02 0.28506150189E+02 0.27360292515E+02
 0.27157580689E+02 0.27860456183E+02 0.29325202673E+02 0.31321814444E+02 0.33545524748E+02
 0.35659397565E+02 0.37378104092E+02 0.38558038401E+02 0.39243629532E+02 0.39641984027E+02
 0.39987214769E+02 0.40303382425E+02 0.40526480860E+02 0.40545401405E+02 0.40208421180E+02
 0.39351329063E+02 0.37841328679E+02 0.35623477298E+02 0.32750514187E+02 0.29379395650E+02
 0.25733215376E+02 0.22046814843E+02 0.18521697526E+02 0.15304879321E+02 0.12488812199E+02
 0.10120756005E+02 0.82127761795E+01 0.67500649724E+01 0.56989733526E+01 0.58922618341E+01
 0.52097192754E+01 0.48894922414E+01 0.48945948023E+01 0.52099364125E+01 0.58386325521E+01
 0.67942646801E+01 0.80929696135E+01 0.97481665218E+01 0.11769131799E+02 0.14160971372E+02
 0.16919596537E+02 0.20017264888E+02 0.23383362696E+02 0.26892937751E+02 0.30373555939E+02
 0.33630874100E+02 0.36481341526E+02 0.38661914641E+02 0.39759260971E+02 0.39457334228E+02
 0.37647787004E+02 0.34500918169E+02 0.30481305737E+02 0.26270227438E+02 0.22601150918E+02
 0.20079237858E+02 0.19071735044E+02 0.19695956176E+02 0.21855719473E+02 0.25267471825E+02
 0.29476470332E+02 0.33912529951E+02 0.38013182106E+02 0.41376474229E+02 0.43868129280E+02
 0.45629830692E+02 0.46987601611E+02 0.48242462030E+02 0.49395001205E+02 0.50306135103E+02
 0.50760000414E+02 0.50501683748E+02 0.49300531345E+02 0.47022851865E+02 0.43689256224E+02
 0.39489233228E+02 0.34739763714E+02 0.29803927318E+02 0.25007980576E+02 0.20591254741E+02
 0.16697553634E+02 0.13393277782E+02 0.10691914420E+02 0.85727801768E+01 0.69923091613E+01
 0.71045999405E+01 0.59938755681E+01 0.53394019432E+01 0.50745632166E+01 0.51580323001E+01
 0.55738837634E+01 0.63246835416E+01 0.74227147058E+01 0.88827873388E+01 0.10718427355E+02
 0.12941258617E+02 0.15558565922E+02 0.18561542198E+02 0.21903893020E+02 0.25482429434E+02
 0.29134448020E+02 0.32657056165E+02 0.35840238439E+02 0.38394913505E+02 0.39813873961E+02
 0.39639859000E+02 0.37610158122E+02 0.33762428720E+02 0.28506150182E+02 0.22601150915E+02
 0.17006982928E+02 0.12650768706E+02 0.10227760991E+02 0.10115476213E+02 0.12377951475E+02
 0.16781230341E+02 0.22795255428E+02 0.29642176495E+02 0.36451006852E+02 0.42488097232E+02
 0.47354696209E+02 0.51054967063E+02 0.53914475121E+02 0.56396814132E+02 0.58804220780E+02
 0.61025538379E+02 0.62764224668E+02 0.63630497568E+02 0.63231563430E+02 0.61282511132E+02
 0.57707407476E+02 0.52691562199E+02 0.46652457813E+02 0.40131641021E+02 0.33655142018E+02
 0.27626451068E+02 0.22288176452E+02 0.17743458659E+02 0.14003040201E+02 0.11027830913E+02
 0.87541951953E+01 0.87436861890E+01 0.70828406108E+01 0.60030627938E+01 0.54048138122E+01
 0.52136996365E+01 0.53863492345E+01 0.59063319954E+01 0.67754162115E+01 0.80051324039E+01
 0.96104584565E+01 0.11606839132E+02 0.14008922387E+02 0.16823320180E+02 0.20029075852E+02
 0.23552650367E+02 0.27254737601E+02 0.30940352256E+02 0.34388094685E+02 0.37318993829E+02
 0.39180417254E+02 0.39386060864E+02 0.37509308674E+02 0.33411446700E+02 0.27360292505E+02
 0.20079237851E+02 0.12650768703E+02 0.62734463081E+01 0.19856762008E+01 0.49194593576E+00
 0.21173544442E+01 0.68022299411E+01 0.14071966980E+02 0.23040935702E+02 0.32560735955E+02
 0.41521124616E+02 0.49168832433E+02 0.55279659940E+02 0.60116611229E+02 0.64222329919E+02
 0.68142128931E+02 0.72039021209E+02 0.75572223196E+02 0.78192125650E+02 0.79279198371E+02
 0.78302487064E+02 0.74982326592E+02 0.69408277796E+02 0.62055151595E+02 0.53668357942E+02
 0.45058489518E+02 0.36901443419E+02 0.29629795672E+02 0.23434375640E+02 0.18333956421E+02
 0.14256572167E+02 0.11097162043E+02 0.10895318451E+02 0.85467089984E+01 0.69351759234E+01
 0.59267824355E+01 0.54103064635E+01 0.53077891007E+01 0.55757166041E+01 0.61979601430E+01
 0.71766352234E+01 0.85239268411E+01 0.10256276840E+02 0.12392031200E+02 0.14947858992E+02
 0.17924383221E+02 0.21280217016E+02 0.24909441018E+02 0.28639826195E+02 0.32254368697E+02
 0.35499505846E+02 0.37853265737E+02 0.38632742314E+02 0.37261947853E+02 0.33413809394E+02
 0.27157580677E+02 0.19071735034E+02 0.10227760985E+02 0.19856761981E+01 -.43235106727E+01
 -.76589531289E+01 -.73795368924E+01 -.32714903320E+01 0.43918038275E+01 0.14781527024E+02
 0.26593724798E+02 0.38369438717E+02 0.48937238351E+02 0.57739600825E+02 0.64885816579E+02
 0.70948536038E+02 0.76629125156E+02 0.82406494007E+02 0.88116404173E+02 0.93075536188E+02
 0.96407542925E+02 0.97252393683E+02 0.94999683081E+02 0.89495579089E+02 0.81147457604E+02
 0.70853776325E+02 0.59758273034E+02 0.48933583725E+02 0.39143752597E+02 0.30772248889E+02
 0.23893358417E+02 0.18402154273E+02 0.14127501762E+02 0.13629541720E+02 0.10444860983E+02
 0.81859034680E+01 0.66801763865E+01 0.57787015370E+01 0.53646469837E+01 0.53603568316E+01
 0.57247606470E+01 0.64441583755E+01 0.75223325471E+01 0.89728482633E+01 0.10814739777E+02
 0.13069791228E+02 0.15753556848E+02 0.18853637424E+02 0.22302526712E+02 0.25963173415E+02
 0.29638464351E+02 0.33096439038E+02 0.35918725438E+02 0.37387065427E+02 0.36808694348E+02
 0.33683084860E+02 0.27860456169E+02 0.19695956165E+02 0.10115476205E+02 0.49194593120E+00
 -.76589531307E+01 -.13005267673E+02 -.14586015992E+02 -.11868905673E+02 -.48207153459E+01
 0.59608782347E+01 0.19212231173E+02 0.33257161724E+02 0.46518790994E+02 0.58019999673E+02
 0.67598550608E+02 0.75768031762E+02 0.83349108353E+02 0.91047461742E+02 0.99048603332E+02
 0.10669964547E+03 0.11290241779E+03 0.11644016698E+03 0.11627483245E+03 0.11184668179E+03
 0.10329854530E+03 0.91518016097E+02 0.77925473425E+02 0.64066439716E+02 0.51198312006E+02