   9   9   0   0
  0.1255774E+02  0.4913700E-09  0.4913700E-09  0.5405130E-09  0.5000000E-15
  1.000000000000000E-004
  CAR 
 unknown system                          
     13.67914777    -20.37062282  301      1.10910746      1.00000000
    -20.371  0.0000E+00  0.0000E+00
    -20.257  0.0000E+00  0.0000E+00
    -20.144  0.0000E+00  0.0000E+00
    -20.030  0.0000E+00  0.0000E+00
    -19.917  0.0000E+00  0.0000E+00
    -19.803  0.0000E+00  0.0000E+00
    -19.690  0.0000E+00  0.0000E+00
    -19.576  0.0000E+00  0.0000E+00
    -19.463  0.0000E+00  0.0000E+00
    -19.349  0.0000E+00  0.0000E+00
    -19.236  0.0000E+00  0.0000E+00
    -19.122  0.0000E+00  0.0000E+00
    -19.009  0.0000E+00  0.0000E+00
    -18.895  0.0000E+00  0.0000E+00
    -18.782  0.0000E+00  0.0000E+00
    -18.668  0.0000E+00  0.0000E+00
    -18.555  0.0000E+00  0.0000E+00
    -18.441  0.0000E+00  0.0000E+00
    -18.328  0.2406E+00  0.3448E-02
    -18.214  0.1301E+01  0.1109E+00
    -18.101  0.2230E+01  0.3100E+00
    -17.987  0.4004E+01  0.6636E+00
    -17.874  0.9017E+01  0.1258E+01
    -17.760  0.8119E+00  0.1976E+01
    -17.647  0.1064E+01  0.2059E+01
    -17.533  0.2052E+01  0.2233E+01
    -17.420  0.6024E+01  0.2627E+01
    -17.306  0.3401E+01  0.3574E+01
    -17.193  0.1381E+01  0.3825E+01
    -17.079  0.6629E+00  0.3934E+01
    -16.966  0.9014E+00  0.4006E+01
    -16.852  0.5691E+01  0.4308E+01
    -16.739  0.4508E+01  0.5252E+01
    -16.625  0.2206E+01  0.5595E+01
    -16.512  0.1357E+01  0.5790E+01
    -16.398  0.8466E+00  0.5916E+01
    -16.285  0.3469E+00  0.5990E+01
    -16.171  0.6846E+02  0.1101E+02
    -16.058  0.0000E+00  0.1200E+02
    -15.944  0.0000E+00  0.1200E+02
    -15.831  0.0000E+00  0.1200E+02
    -15.717  0.0000E+00  0.1200E+02
    -15.604  0.0000E+00  0.1200E+02
    -15.490  0.0000E+00  0.1200E+02
    -15.377  0.0000E+00  0.1200E+02
    -15.263  0.0000E+00  0.1200E+02
    -15.150  0.0000E+00  0.1200E+02
    -15.036  0.0000E+00  0.1200E+02
    -14.923  0.0000E+00  0.1200E+02
    -14.809  0.0000E+00  0.1200E+02
    -14.696  0.0000E+00  0.1200E+02
    -14.582  0.0000E+00  0.1200E+02
    -14.469  0.0000E+00  0.1200E+02
    -14.355  0.0000E+00  0.1200E+02
    -14.242  0.0000E+00  0.1200E+02
    -14.128  0.0000E+00  0.1200E+02
    -14.015  0.0000E+00  0.1200E+02
    -13.901  0.0000E+00  0.1200E+02
    -13.788  0.0000E+00  0.1200E+02
    -13.674  0.0000E+00  0.1200E+02
    -13.561  0.0000E+00  0.1200E+02
    -13.447  0.0000E+00  0.1200E+02
    -13.334  0.0000E+00  0.1200E+02
    -13.220  0.0000E+00  0.1200E+02
    -13.107  0.0000E+00  0.1200E+02
    -12.993  0.0000E+00  0.1200E+02
    -12.880  0.0000E+00  0.1200E+02
    -12.766  0.0000E+00  0.1200E+02
    -12.653  0.0000E+00  0.1200E+02
    -12.539  0.0000E+00  0.1200E+02
    -12.426  0.0000E+00  0.1200E+02
    -12.312  0.0000E+00  0.1200E+02
    -12.199  0.0000E+00  0.1200E+02
    -12.085  0.0000E+00  0.1200E+02
    -11.972  0.0000E+00  0.1200E+02
    -11.858  0.0000E+00  0.1200E+02
    -11.745  0.0000E+00  0.1200E+02
    -11.631  0.0000E+00  0.1200E+02
    -11.518  0.0000E+00  0.1200E+02
    -11.404  0.0000E+00  0.1200E+02
    -11.291  0.0000E+00  0.1200E+02
    -11.177  0.0000E+00  0.1200E+02
    -11.064  0.0000E+00  0.1200E+02
    -10.950  0.0000E+00  0.1200E+02
    -10.837  0.0000E+00  0.1200E+02
    -10.723  0.0000E+00  0.1200E+02
    -10.610  0.0000E+00  0.1200E+02
    -10.496  0.0000E+00  0.1200E+02
    -10.383  0.0000E+00  0.1200E+02
    -10.269  0.0000E+00  0.1200E+02
    -10.156  0.0000E+00  0.1200E+02
    -10.042  0.0000E+00  0.1200E+02
     -9.929  0.0000E+00  0.1200E+02
     -9.815  0.0000E+00  0.1200E+02
     -9.702  0.0000E+00  0.1200E+02
     -9.588  0.0000E+00  0.1200E+02
     -9.475  0.0000E+00  0.1200E+02
     -9.361  0.0000E+00  0.1200E+02
     -9.248  0.0000E+00  0.1200E+02
     -9.134  0.0000E+00  0.1200E+02
     -9.021  0.0000E+00  0.1200E+02
     -8.907  0.0000E+00  0.1200E+02
     -8.794  0.0000E+00  0.1200E+02
     -8.680  0.0000E+00  0.1200E+02
     -8.567  0.0000E+00  0.1200E+02
     -8.453  0.0000E+00  0.1200E+02
     -8.340  0.0000E+00  0.1200E+02
     -8.226  0.0000E+00  0.1200E+02
     -8.113  0.2483E+00  0.1201E+02
     -7.999  0.4228E+00  0.1206E+02
     -7.886  0.6224E+00  0.1212E+02
     -7.772  0.8324E+00  0.1220E+02
     -7.659  0.1097E+01  0.1230E+02
     -7.545  0.1515E+01  0.1245E+02
     -7.432  0.2350E+01  0.1266E+02
     -7.318  0.8928E+01  0.1316E+02
     -7.205  0.2390E+01  0.1379E+02
     -7.091  0.6227E+00  0.1394E+02
     -6.978  0.3319E+00  0.1400E+02
     -6.864  0.2050E+00  0.1402E+02
     -6.751  0.3330E+00  0.1405E+02
     -6.637  0.4944E+00  0.1410E+02
     -6.524  0.8105E+00  0.1417E+02
     -6.410  0.1348E+01  0.1429E+02
     -6.297  0.2865E+01  0.1450E+02
     -6.183  0.6634E+01  0.1505E+02
     -6.070  0.2502E+01  0.1548E+02
     -5.956  0.1404E+01  0.1570E+02
     -5.843  0.9191E+00  0.1583E+02
     -5.729  0.6236E+00  0.1591E+02
     -5.616  0.6080E+00  0.1597E+02
     -5.502  0.1016E+00  0.1600E+02
     -5.389  0.1877E+01  0.1610E+02
     -5.275  0.3679E+01  0.1642E+02
     -5.162  0.2884E+01  0.1679E+02
     -5.048  0.2890E+01  0.1712E+02
     -4.935  0.2218E+01  0.1741E+02
     -4.821  0.1546E+01  0.1762E+02
     -4.708  0.1138E+01  0.1777E+02
     -4.594  0.8015E+00  0.1788E+02
     -4.481  0.1025E+01  0.1797E+02
     -4.367  0.1500E+02  0.1831E+02
     -4.254  0.9366E+01  0.2002E+02
     -4.140  0.5858E+01  0.2086E+02
     -4.027  0.5387E+01  0.2159E+02
     -3.913  0.1842E+01  0.2210E+02
     -3.800  0.8232E+01  0.2285E+02
     -3.686  0.4316E+01  0.2357E+02
     -3.573  0.1934E+01  0.2393E+02
     -3.459  0.5168E-03  0.2400E+02
     -3.346  0.0000E+00  0.2400E+02
     -3.232  0.0000E+00  0.2400E+02
     -3.119  0.0000E+00  0.2400E+02
     -3.005  0.0000E+00  0.2400E+02
     -2.892  0.0000E+00  0.2400E+02
     -2.778  0.0000E+00  0.2400E+02
     -2.665  0.0000E+00  0.2400E+02
     -2.551  0.0000E+00  0.2400E+02
     -2.438  0.0000E+00  0.2400E+02
     -2.324  0.0000E+00  0.2400E+02
     -2.211  0.0000E+00  0.2400E+02
     -2.097  0.1190E+02  0.2451E+02
     -1.984  0.6537E+01  0.2583E+02
     -1.870  0.5336E+01  0.2648E+02
     -1.757  0.6895E+01  0.2732E+02
     -1.643  0.6716E+01  0.2806E+02
     -1.530  0.1053E+02  0.2885E+02
     -1.416  0.5203E+01  0.2974E+02
     -1.303  0.1064E+01  0.3003E+02
     -1.189  0.1604E+02  0.3073E+02
     -1.076  0.2906E+01  0.3181E+02
     -0.962  0.1113E+02  0.3228E+02
     -0.849  0.1550E+01  0.3384E+02
     -0.735  0.2905E+01  0.3406E+02
     -0.622  0.6037E+01  0.3468E+02
     -0.508  0.1155E+02  0.3561E+02
     -0.395  0.1601E+02  0.3689E+02
     -0.281  0.4860E+01  0.3767E+02
     -0.168  0.1128E+02  0.3833E+02
     -0.054  0.9859E+01  0.3960E+02
      0.059  0.7282E+01  0.4028E+02
      0.173  0.1153E+02  0.4178E+02
      0.286  0.2980E+01  0.4205E+02
      0.400  0.1255E+02  0.4316E+02
      0.513  0.4406E+01  0.4383E+02
      0.627  0.4614E+01  0.4436E+02
      0.740  0.9243E+01  0.4511E+02
      0.854  0.4843E+01  0.4614E+02
      0.967  0.9024E+01  0.4691E+02
      1.081  0.8923E+00  0.4799E+02
      1.194  0.0000E+00  0.4800E+02
      1.308  0.0000E+00  0.4800E+02
      1.421  0.0000E+00  0.4800E+02
      1.535  0.0000E+00  0.4800E+02
      1.648  0.0000E+00  0.4800E+02
      1.762  0.0000E+00  0.4800E+02
      1.875  0.0000E+00  0.4800E+02
      1.989  0.0000E+00  0.4800E+02
      2.102  0.0000E+00  0.4800E+02
      2.216  0.0000E+00  0.4800E+02
      2.329  0.0000E+00  0.4800E+02
      2.443  0.0000E+00  0.4800E+02
      2.556  0.0000E+00  0.4800E+02
      2.670  0.0000E+00  0.4800E+02
      2.783  0.0000E+00  0.4800E+02
      2.897  0.0000E+00  0.4800E+02
      3.010  0.0000E+00  0.4800E+02
      3.124  0.0000E+00  0.4800E+02
      3.237  0.0000E+00  0.4800E+02
      3.351  0.0000E+00  0.4800E+02
      3.464  0.0000E+00  0.4800E+02
      3.578  0.0000E+00  0.4800E+02
      3.691  0.0000E+00  0.4800E+02
      3.805  0.0000E+00  0.4800E+02
      3.918  0.0000E+00  0.4800E+02
      4.032  0.0000E+00  0.4800E+02
      4.145  0.0000E+00  0.4800E+02
      4.259  0.0000E+00  0.4800E+02
      4.372  0.0000E+00  0.4800E+02
      4.486  0.0000E+00  0.4800E+02
      4.599  0.0000E+00  0.4800E+02
      4.713  0.0000E+00  0.4800E+02
      4.826  0.0000E+00  0.4800E+02
      4.940  0.0000E+00  0.4800E+02
      5.053  0.0000E+00  0.4800E+02
      5.167  0.0000E+00  0.4800E+02
      5.280  0.0000E+00  0.4800E+02
      5.394  0.0000E+00  0.4800E+02
      5.507  0.0000E+00  0.4800E+02
      5.621  0.0000E+00  0.4800E+02
      5.734  0.0000E+00  0.4800E+02
      5.848  0.0000E+00  0.4800E+02
      5.961  0.0000E+00  0.4800E+02
      6.075  0.0000E+00  0.4800E+02
      6.188  0.0000E+00  0.4800E+02
      6.302  0.0000E+00  0.4800E+02
      6.415  0.0000E+00  0.4800E+02
      6.529  0.0000E+00  0.4800E+02
      6.642  0.0000E+00  0.4800E+02
      6.756  0.0000E+00  0.4800E+02
      6.869  0.0000E+00  0.4800E+02
      6.983  0.0000E+00  0.4800E+02
      7.096  0.0000E+00  0.4800E+02
      7.210  0.7637E-02  0.4800E+02
      7.323  0.4044E-01  0.4800E+02
      7.437  0.9909E-01  0.4801E+02
      7.550  0.1894E+00  0.4803E+02
      7.664  0.2402E+00  0.4805E+02
      7.777  0.2737E+00  0.4808E+02
      7.891  0.2908E+00  0.4811E+02
      8.004  0.3353E+00  0.4815E+02
      8.118  0.3824E+00  0.4819E+02
      8.231  0.4320E+00  0.4823E+02
      8.345  0.4840E+00  0.4829E+02
      8.458  0.5381E+00  0.4834E+02
      8.572  0.6582E+00  0.4841E+02
      8.685  0.8095E+00  0.4849E+02
      8.799  0.8108E+00  0.4859E+02
      8.912  0.8706E+00  0.4869E+02
      9.026  0.9322E+00  0.4879E+02
      9.139  0.9958E+00  0.4890E+02
      9.253  0.1061E+01  0.4901E+02
      9.366  0.1521E+01  0.4916E+02
      9.480  0.1416E+01  0.4933E+02
      9.593  0.1252E+01  0.4948E+02
      9.707  0.1355E+01  0.4963E+02
      9.820  0.1508E+01  0.4979E+02
      9.934  0.2048E+01  0.4999E+02
     10.047  0.1166E+01  0.5016E+02
     10.161  0.1491E+01  0.5029E+02
     10.274  0.4223E+01  0.5059E+02
     10.388  0.1140E+02  0.5154E+02
     10.501  0.3942E+01  0.5221E+02
     10.615  0.7207E+01  0.5279E+02
     10.728  0.7047E+01  0.5367E+02
     10.842  0.3500E+01  0.5432E+02
     10.955  0.2807E+01  0.5462E+02
     11.069  0.6995E+01  0.5510E+02
     11.182  0.3544E+01  0.5587E+02
     11.296  0.4558E+01  0.5625E+02
     11.409  0.5336E+01  0.5683E+02
     11.523  0.6935E+01  0.5752E+02
     11.636  0.3143E+00  0.5800E+02
     11.750  0.0000E+00  0.5800E+02
     11.863  0.0000E+00  0.5800E+02
     11.977  0.0000E+00  0.5800E+02
     12.090  0.0000E+00  0.5800E+02
     12.204  0.0000E+00  0.5800E+02
     12.317  0.0000E+00  0.5800E+02
     12.431  0.0000E+00  0.5800E+02
     12.544  0.0000E+00  0.5800E+02
     12.658  0.0000E+00  0.5800E+02
     12.771  0.0000E+00  0.5800E+02
     12.885  0.0000E+00  0.5800E+02
     12.998  0.0000E+00  0.5800E+02
     13.112  0.0000E+00  0.5800E+02
     13.225  0.0000E+00  0.5800E+02
     13.339  0.0000E+00  0.5800E+02
     13.452  0.0000E+00  0.5800E+02
     13.566  0.0000E+00  0.5800E+02
     13.679  0.0000E+00  0.5800E+02
