       N       E                     dE             d eps       ncg     rms          rms(c)
DAV:   1     0.312244257089E+03    0.31224E+03   -0.25347E+04  3198   0.149E+03
DAV:   2    -0.606799067055E+02   -0.37292E+03   -0.36500E+03  4261   0.341E+02
DAV:   3    -0.803653070637E+02   -0.19685E+02   -0.19629E+02  3730   0.890E+01
DAV:   4    -0.806176170846E+02   -0.25231E+00   -0.25192E+00  3788   0.109E+01
DAV:   5    -0.806224291064E+02   -0.48120E-02   -0.48102E-02  3705   0.149E+00    0.188E+01
RMM:   6    -0.709822336835E+02    0.96402E+01   -0.42159E+01  3387   0.345E+01    0.511E+00
RMM:   7    -0.709760305804E+02    0.62031E-02   -0.17044E+00  3668   0.602E+00    0.338E+00
RMM:   8    -0.709967313766E+02   -0.20701E-01   -0.27723E-01  3609   0.427E+00    0.651E-01
RMM:   9    -0.709885359772E+02    0.81954E-02   -0.56641E-02  3728   0.126E+00    0.138E-01
RMM:  10    -0.709920872887E+02   -0.35513E-02   -0.19890E-02  3679   0.743E-01    0.253E-01
RMM:  11    -0.709904909848E+02    0.15963E-02   -0.32801E-03  3727   0.333E-01    0.750E-02
RMM:  12    -0.709904192577E+02    0.71727E-04   -0.11114E-03  3717   0.176E-01    0.772E-03
RMM:  13    -0.709904228561E+02   -0.35983E-05   -0.32460E-05  2849   0.331E-02
   1 F= -.70990423E+02 E0= -.70990423E+02  d E =0.000000E+00
