<?xml version="1.0" encoding="ISO-8859-1"?>
<modeling>
 <generator>
  <i name="program" type="string">vasp </i>
  <i name="version" type="string">5.4.1  </i>
  <i name="subversion" type="string">05Feb16 (build Mar 02 2016 14:09:44) complex                          parallel </i>
  <i name="platform" type="string">Abel-impi-ifc-cuda </i>
  <i name="date" type="string">2019 09 13 </i>
  <i name="time" type="string">10:15:37 </i>
 </generator>
 <incar>
  <i type="string" name="PREC">normal    ! low/normal/accurate</i>
  <i type="string" name="ALGO"> Fast      ! Algorithm for electronic re</i>
  <i type="int" name="ISPIN">     1</i>
  <i type="int" name="NELMIN">     4</i>
  <i name="EDIFF">      0.00001000</i>
  <i type="int" name="NSW">     0</i>
  <i name="ENCUT">    500.00000000</i>
  <i type="string" name="LREAL"> Auto      ! Projection in reciprocal sp</i>
  <i type="int" name="ISMEAR">    -5</i>
  <i name="SIGMA">      0.20000000</i>
  <i type="logical" name="LWAVE"> F  </i>
  <v type="int" name="KPOINT_BSE">    -1     0     0     0</v>
 </incar>
 <kpoints>
  <generation param="Gamma">
   <v type="int" name="divisions">       6        6        5 </v>
   <v name="usershift">      0.00000000       0.00000000       0.00000000 </v>
   <v name="genvec1">      0.16666667       0.00000000       0.00000000 </v>
   <v name="genvec2">      0.00000000       0.16666667       0.00000000 </v>
   <v name="genvec3">      0.00000000       0.00000000       0.20000000 </v>
   <v name="shift">      0.00000000       0.00000000       0.00000000 </v>
  </generation>
  <varray name="kpointlist" >
   <v>       0.00000000       0.00000000       0.00000000 </v>
   <v>       0.16666667       0.00000000       0.00000000 </v>
   <v>       0.33333333       0.00000000       0.00000000 </v>
   <v>       0.50000000       0.00000000       0.00000000 </v>
   <v>       0.16666667       0.16666667       0.00000000 </v>
   <v>       0.33333333       0.16666667       0.00000000 </v>
   <v>       0.50000000       0.16666667       0.00000000 </v>
   <v>      -0.33333333       0.16666667       0.00000000 </v>
   <v>      -0.16666667       0.16666667       0.00000000 </v>
   <v>       0.33333333       0.33333333       0.00000000 </v>
   <v>       0.50000000       0.33333333       0.00000000 </v>
   <v>      -0.33333333       0.33333333       0.00000000 </v>
   <v>       0.50000000       0.50000000       0.00000000 </v>
   <v>       0.00000000       0.00000000       0.20000000 </v>
   <v>       0.16666667       0.00000000       0.20000000 </v>
   <v>       0.33333333       0.00000000       0.20000000 </v>
   <v>       0.50000000       0.00000000       0.20000000 </v>
   <v>      -0.33333333       0.00000000       0.20000000 </v>
   <v>      -0.16666667       0.00000000       0.20000000 </v>
   <v>       0.16666667       0.16666667       0.20000000 </v>
   <v>       0.33333333       0.16666667       0.20000000 </v>
   <v>       0.50000000       0.16666667       0.20000000 </v>
   <v>      -0.33333333       0.16666667       0.20000000 </v>
   <v>      -0.16666667       0.16666667       0.20000000 </v>
   <v>       0.16666667       0.33333333       0.20000000 </v>
   <v>       0.33333333       0.33333333       0.20000000 </v>
   <v>       0.50000000       0.33333333       0.20000000 </v>
   <v>      -0.33333333       0.33333333       0.20000000 </v>
   <v>       0.16666667       0.50000000       0.20000000 </v>
   <v>       0.33333333       0.50000000       0.20000000 </v>
   <v>       0.50000000       0.50000000       0.20000000 </v>
   <v>       0.16666667      -0.33333333       0.20000000 </v>
   <v>       0.33333333      -0.33333333       0.20000000 </v>
   <v>       0.16666667      -0.16666667       0.20000000 </v>
   <v>       0.00000000       0.00000000       0.40000000 </v>
   <v>       0.16666667       0.00000000       0.40000000 </v>
   <v>       0.33333333       0.00000000       0.40000000 </v>
   <v>       0.50000000       0.00000000       0.40000000 </v>
   <v>      -0.33333333       0.00000000       0.40000000 </v>
   <v>      -0.16666667       0.00000000       0.40000000 </v>
   <v>       0.16666667       0.16666667       0.40000000 </v>
   <v>       0.33333333       0.16666667       0.40000000 </v>
   <v>       0.50000000       0.16666667       0.40000000 </v>
   <v>      -0.33333333       0.16666667       0.40000000 </v>
   <v>      -0.16666667       0.16666667       0.40000000 </v>
   <v>       0.16666667       0.33333333       0.40000000 </v>
   <v>       0.33333333       0.33333333       0.40000000 </v>
   <v>       0.50000000       0.33333333       0.40000000 </v>
   <v>      -0.33333333       0.33333333       0.40000000 </v>
   <v>       0.16666667       0.50000000       0.40000000 </v>
   <v>       0.33333333       0.50000000       0.40000000 </v>
   <v>       0.50000000       0.50000000       0.40000000 </v>
   <v>       0.16666667      -0.33333333       0.40000000 </v>
   <v>       0.33333333      -0.33333333       0.40000000 </v>
   <v>       0.16666667      -0.16666667       0.40000000 </v>
  </varray>
  <varray name="weights" >
   <v>       0.00555556 </v>
   <v>       0.02222222 </v>
   <v>       0.02222222 </v>
   <v>       0.01111111 </v>
   <v>       0.01111111 </v>
   <v>       0.02222222 </v>
   <v>       0.02222222 </v>
   <v>       0.02222222 </v>
   <v>       0.01111111 </v>
   <v>       0.01111111 </v>
   <v>       0.02222222 </v>
   <v>       0.01111111 </v>
   <v>       0.00555556 </v>
   <v>       0.01111111 </v>
   <v>       0.02222222 </v>
   <v>       0.02222222 </v>
   <v>       0.02222222 </v>
   <v>       0.02222222 </v>
   <v>       0.02222222 </v>
   <v>       0.02222222 </v>
   <v>       0.02222222 </v>
   <v>       0.02222222 </v>
   <v>       0.02222222 </v>
   <v>       0.01111111 </v>
   <v>       0.02222222 </v>
   <v>       0.02222222 </v>
   <v>       0.02222222 </v>
   <v>       0.01111111 </v>
   <v>       0.02222222 </v>
   <v>       0.02222222 </v>
   <v>       0.01111111 </v>
   <v>       0.02222222 </v>
   <v>       0.01111111 </v>
   <v>       0.01111111 </v>
   <v>       0.01111111 </v>
   <v>       0.02222222 </v>
   <v>       0.02222222 </v>
   <v>       0.02222222 </v>
   <v>       0.02222222 </v>
   <v>       0.02222222 </v>
   <v>       0.02222222 </v>
   <v>       0.02222222 </v>
   <v>       0.02222222 </v>
   <v>       0.02222222 </v>
   <v>       0.01111111 </v>
   <v>       0.02222222 </v>
   <v>       0.02222222 </v>
   <v>       0.02222222 </v>
   <v>       0.01111111 </v>
   <v>       0.02222222 </v>
   <v>       0.02222222 </v>
   <v>       0.01111111 </v>
   <v>       0.02222222 </v>
   <v>       0.01111111 </v>
   <v>       0.01111111 </v>
  </varray>
  <varray name="tetrahedronlist"  type="int" >
   <v type="int" >        4        2        2        5       19 </v>
   <v type="int" >        4        1        2        2       19 </v>
   <v type="int" >        4        1        2       14       19 </v>
   <v type="int" >        4        2        5       19       20 </v>
   <v type="int" >        4        2       15       19       20 </v>
   <v type="int" >        4        2       14       15       19 </v>
   <v type="int" >        4        3        5        6       20 </v>
   <v type="int" >        4        2        3        5       20 </v>
   <v type="int" >        4        2        3       15       20 </v>
   <v type="int" >        4        3        6       20       21 </v>
   <v type="int" >        4        3       16       20       21 </v>
   <v type="int" >        4        3       15       16       20 </v>
   <v type="int" >        4        4        6        7       21 </v>
   <v type="int" >        4        3        4        6       21 </v>
   <v type="int" >        4        3        4       16       21 </v>
   <v type="int" >        4        4        7       21       22 </v>
   <v type="int" >        4        4       17       21       22 </v>
   <v type="int" >        4        4       16       17       21 </v>
   <v type="int" >        4        3        7        8       22 </v>
   <v type="int" >        4        3        4        7       22 </v>
   <v type="int" >        4        3        4       17       22 </v>
   <v type="int" >        4        3        8       22       23 </v>
   <v type="int" >        4        3       18       22       23 </v>
   <v type="int" >        4        3       17       18       22 </v>
   <v type="int" >        4        2        8        9       23 </v>
   <v type="int" >        4        2        3        8       23 </v>
   <v type="int" >        4        2        3       18       23 </v>
   <v type="int" >        4        2        9       23       24 </v>
   <v type="int" >        4        2       19       23       24 </v>
   <v type="int" >        4        2       18       19       23 </v>
   <v type="int" >        4        1        2        9       24 </v>
   <v type="int" >        4        1        2       19       24 </v>
   <v type="int" >        4        1       14       19       24 </v>
   <v type="int" >        4        3        5        6       18 </v>
   <v type="int" >        4        2        3        5       18 </v>
   <v type="int" >        4        2        5       18       19 </v>
   <v type="int" >        4        5        6       18       25 </v>
   <v type="int" >        4        5       18       20       25 </v>
   <v type="int" >        4        5       18       19       20 </v>
   <v type="int" >        4        6        6       10       25 </v>
   <v type="int" >        4        5        6        6       25 </v>
   <v type="int" >        4        5        6       20       25 </v>
   <v type="int" >        4        6       10       25       26 </v>
   <v type="int" >        4        6       21       25       26 </v>
   <v type="int" >        4        6       20       21       25 </v>
   <v type="int" >        4        7       10       11       26 </v>
   <v type="int" >        4        6        7       10       26 </v>
   <v type="int" >        4        6        7       21       26 </v>
   <v type="int" >        4        7       11       26       27 </v>
   <v type="int" >        4        7       22       26       27 </v>
   <v type="int" >        4        7       21       22       26 </v>
   <v type="int" >        4        8       11       12       27 </v>
   <v type="int" >        4        7        8       11       27 </v>
   <v type="int" >        4        7        8       22       27 </v>
   <v type="int" >        4        8       12       27       28 </v>
   <v type="int" >        4        8       23       27       28 </v>
   <v type="int" >        4        8       22       23       27 </v>
   <v type="int" >        4        8        9       12       28 </v>
   <v type="int" >        4        8        9       23       28 </v>
   <v type="int" >        4        9       23       24       28 </v>
   <v type="int" >        4        4        6        7       17 </v>
   <v type="int" >        4        3        4        6       17 </v>
   <v type="int" >        4        3        6       17       18 </v>
   <v type="int" >        4        6        7       17       29 </v>
   <v type="int" >        4        6       17       25       29 </v>
   <v type="int" >        4        6       17       18       25 </v>
   <v type="int" >        4        7       10       11       29 </v>
   <v type="int" >        4        6        7       10       29 </v>
   <v type="int" >        4        6       10       25       29 </v>
   <v type="int" >        4       10       11       29       30 </v>
   <v type="int" >        4       10       26       29       30 </v>
   <v type="int" >        4       10       25       26       29 </v>
   <v type="int" >        4       11       11       13       30 </v>
   <v type="int" >        4       10       11       11       30 </v>
   <v type="int" >        4       10       11       26       30 </v>
   <v type="int" >        4       11       13       30       31 </v>
   <v type="int" >        4       11       27       30       31 </v>
   <v type="int" >        4       11       26       27       30 </v>
   <v type="int" >        4       11       12       13       31 </v>
   <v type="int" >        4       11       12       27       31 </v>
   <v type="int" >        4       12       27       28       31 </v>
   <v type="int" >        4        3        7        8       16 </v>
   <v type="int" >        4        3        4        7       16 </v>
   <v type="int" >        4        4        7       16       17 </v>
   <v type="int" >        4        7        8       16       32 </v>
   <v type="int" >        4        7       16       29       32 </v>
   <v type="int" >        4        7       16       17       29 </v>
   <v type="int" >        4        8       11       12       32 </v>
   <v type="int" >        4        7        8       11       32 </v>
   <v type="int" >        4        7       11       29       32 </v>
   <v type="int" >        4       11       12       32       33 </v>
   <v type="int" >        4       11       30       32       33 </v>
   <v type="int" >        4       11       29       30       32 </v>
   <v type="int" >        4       11       12       13       33 </v>
   <v type="int" >        4       11       13       30       33 </v>
   <v type="int" >        4       13       30       31       33 </v>
   <v type="int" >        4        2        8        9       15 </v>
   <v type="int" >        4        2        3        8       15 </v>
   <v type="int" >        4        3        8       15       16 </v>
   <v type="int" >        4        8        9       15       34 </v>
   <v type="int" >        4        8       15       32       34 </v>
   <v type="int" >        4        8       15       16       32 </v>
   <v type="int" >        4        8        9       12       34 </v>
   <v type="int" >        4        8       12       32       34 </v>
   <v type="int" >        4       12       32       33       34 </v>
   <v type="int" >        4        1        2        9       14 </v>
   <v type="int" >        4        2        9       14       15 </v>
   <v type="int" >        4        9       14       15       34 </v>
   <v type="int" >        4       15       19       20       40 </v>
   <v type="int" >        4       14       15       19       40 </v>
   <v type="int" >        4       14       15       35       40 </v>
   <v type="int" >        4       15       20       40       41 </v>
   <v type="int" >        4       15       36       40       41 </v>
   <v type="int" >        4       15       35       36       40 </v>
   <v type="int" >        4       16       20       21       41 </v>
   <v type="int" >        4       15       16       20       41 </v>
   <v type="int" >        4       15       16       36       41 </v>
   <v type="int" >        4       16       21       41       42 </v>
   <v type="int" >        4       16       37       41       42 </v>
   <v type="int" >        4       16       36       37       41 </v>
   <v type="int" >        4       17       21       22       42 </v>
   <v type="int" >        4       16       17       21       42 </v>
   <v type="int" >        4       16       17       37       42 </v>
   <v type="int" >        4       17       22       42       43 </v>
   <v type="int" >        4       17       38       42       43 </v>
   <v type="int" >        4       17       37       38       42 </v>
   <v type="int" >        4       18       22       23       43 </v>
   <v type="int" >        4       17       18       22       43 </v>
   <v type="int" >        4       17       18       38       43 </v>
   <v type="int" >        4       18       23       43       44 </v>
   <v type="int" >        4       18       39       43       44 </v>
   <v type="int" >        4       18       38       39       43 </v>
   <v type="int" >        4       19       23       24       44 </v>
   <v type="int" >        4       18       19       23       44 </v>
   <v type="int" >        4       18       19       39       44 </v>
   <v type="int" >        4       19       24       44       45 </v>
   <v type="int" >        4       19       40       44       45 </v>
   <v type="int" >        4       19       39       40       44 </v>
   <v type="int" >        4       14       19       24       45 </v>
   <v type="int" >        4       14       19       40       45 </v>
   <v type="int" >        4       14       35       40       45 </v>
   <v type="int" >        4       18       20       25       39 </v>
   <v type="int" >        4       18       19       20       39 </v>
   <v type="int" >        4       19       20       39       40 </v>
   <v type="int" >        4       20       25       39       46 </v>
   <v type="int" >        4       20       39       41       46 </v>
   <v type="int" >        4       20       39       40       41 </v>
   <v type="int" >        4       21       25       26       46 </v>
   <v type="int" >        4       20       21       25       46 </v>
   <v type="int" >        4       20       21       41       46 </v>
   <v type="int" >        4       21       26       46       47 </v>
   <v type="int" >        4       21       42       46       47 </v>
   <v type="int" >        4       21       41       42       46 </v>
   <v type="int" >        4       22       26       27       47 </v>
   <v type="int" >        4       21       22       26       47 </v>
   <v type="int" >        4       21       22       42       47 </v>
   <v type="int" >        4       22       27       47       48 </v>
   <v type="int" >        4       22       43       47       48 </v>
   <v type="int" >        4       22       42       43       47 </v>
   <v type="int" >        4       23       27       28       48 </v>
   <v type="int" >        4       22       23       27       48 </v>
   <v type="int" >        4       22       23       43       48 </v>
   <v type="int" >        4       23       28       48       49 </v>
   <v type="int" >        4       23       44       48       49 </v>
   <v type="int" >        4       23       43       44       48 </v>
   <v type="int" >        4       23       24       28       49 </v>
   <v type="int" >        4       23       24       44       49 </v>
   <v type="int" >        4       24       44       45       49 </v>
   <v type="int" >        4       17       25       29       38 </v>
   <v type="int" >        4       17       18       25       38 </v>
   <v type="int" >        4       18       25       38       39 </v>
   <v type="int" >        4       25       29       38       50 </v>
   <v type="int" >        4       25       38       46       50 </v>
   <v type="int" >        4       25       38       39       46 </v>
   <v type="int" >        4       26       29       30       50 </v>
   <v type="int" >        4       25       26       29       50 </v>
   <v type="int" >        4       25       26       46       50 </v>
   <v type="int" >        4       26       30       50       51 </v>
   <v type="int" >        4       26       47       50       51 </v>
   <v type="int" >        4       26       46       47       50 </v>
   <v type="int" >        4       27       30       31       51 </v>
   <v type="int" >        4       26       27       30       51 </v>
   <v type="int" >        4       26       27       47       51 </v>
   <v type="int" >        4       27       31       51       52 </v>
   <v type="int" >        4       27       48       51       52 </v>
   <v type="int" >        4       27       47       48       51 </v>
   <v type="int" >        4       27       28       31       52 </v>
   <v type="int" >        4       27       28       48       52 </v>
   <v type="int" >        4       28       48       49       52 </v>
   <v type="int" >        4       16       29       32       37 </v>
   <v type="int" >        4       16       17       29       37 </v>
   <v type="int" >        4       17       29       37       38 </v>
   <v type="int" >        4       29       32       37       53 </v>
   <v type="int" >        4       29       37       50       53 </v>
   <v type="int" >        4       29       37       38       50 </v>
   <v type="int" >        4       30       32       33       53 </v>
   <v type="int" >        4       29       30       32       53 </v>
   <v type="int" >        4       29       30       50       53 </v>
   <v type="int" >        4       30       33       53       54 </v>
   <v type="int" >        4       30       51       53       54 </v>
   <v type="int" >        4       30       50       51       53 </v>
   <v type="int" >        4       30       31       33       54 </v>
   <v type="int" >        4       30       31       51       54 </v>
   <v type="int" >        4       31       51       52       54 </v>
   <v type="int" >        4       15       32       34       36 </v>
   <v type="int" >        4       15       16       32       36 </v>
   <v type="int" >        4       16       32       36       37 </v>
   <v type="int" >        4       32       34       36       55 </v>
   <v type="int" >        4       32       36       53       55 </v>
   <v type="int" >        4       32       36       37       53 </v>
   <v type="int" >        4       32       33       34       55 </v>
   <v type="int" >        4       32       33       53       55 </v>
   <v type="int" >        4       33       53       54       55 </v>
   <v type="int" >        4       14       15       34       35 </v>
   <v type="int" >        4       15       34       35       36 </v>
   <v type="int" >        4       34       35       36       55 </v>
   <v type="int" >        4       36       36       40       41 </v>
   <v type="int" >        4       35       36       36       40 </v>
   <v type="int" >        2       35       35       36       36 </v>
   <v type="int" >        2       36       36       41       41 </v>
   <v type="int" >        4       37       41       41       42 </v>
   <v type="int" >        4       36       37       41       41 </v>
   <v type="int" >        4       36       37       40       41 </v>
   <v type="int" >        4       37       41       42       46 </v>
   <v type="int" >        4       37       39       41       46 </v>
   <v type="int" >        4       37       39       40       41 </v>
   <v type="int" >        4       38       42       43       46 </v>
   <v type="int" >        4       37       38       42       46 </v>
   <v type="int" >        4       37       38       39       46 </v>
   <v type="int" >        4       38       43       46       50 </v>
   <v type="int" >        4       38       38       46       50 </v>
   <v type="int" >        4       38       38       39       46 </v>
   <v type="int" >        4       39       43       44       50 </v>
   <v type="int" >        4       38       39       43       50 </v>
   <v type="int" >        4       38       38       39       50 </v>
   <v type="int" >        4       39       44       50       53 </v>
   <v type="int" >        4       37       39       50       53 </v>
   <v type="int" >        4       37       38       39       50 </v>
   <v type="int" >        4       40       44       45       53 </v>
   <v type="int" >        4       39       40       44       53 </v>
   <v type="int" >        4       37       39       40       53 </v>
   <v type="int" >        4       40       45       53       55 </v>
   <v type="int" >        4       36       40       53       55 </v>
   <v type="int" >        4       36       37       40       53 </v>
   <v type="int" >        4       35       40       45       55 </v>
   <v type="int" >        4       35       36       40       55 </v>
   <v type="int" >        4       35       35       36       55 </v>
   <v type="int" >        4       42       42       46       47 </v>
   <v type="int" >        4       41       42       42       46 </v>
   <v type="int" >        2       41       41       42       42 </v>
   <v type="int" >        2       42       42       47       47 </v>
   <v type="int" >        4       43       47       47       48 </v>
   <v type="int" >        4       42       43       47       47 </v>
   <v type="int" >        4       42       43       46       47 </v>
   <v type="int" >        4       43       47       48       51 </v>
   <v type="int" >        4       43       47       50       51 </v>
   <v type="int" >        4       43       46       47       50 </v>
   <v type="int" >        4       44       48       49       51 </v>
   <v type="int" >        4       43       44       48       51 </v>
   <v type="int" >        4       43       44       50       51 </v>
   <v type="int" >        4       44       49       51       54 </v>
   <v type="int" >        4       44       51       53       54 </v>
   <v type="int" >        4       44       50       51       53 </v>
   <v type="int" >        4       44       45       49       54 </v>
   <v type="int" >        4       44       45       53       54 </v>
   <v type="int" >        4       45       53       54       55 </v>
   <v type="int" >        4       48       48       51       52 </v>
   <v type="int" >        4       47       48       48       51 </v>
   <v type="int" >        2       47       47       48       48 </v>
   <v type="int" >        2       48       48       52       52 </v>
   <v type="int" >        4       48       49       52       52 </v>
   <v type="int" >        4       48       49       51       52 </v>
   <v type="int" >        4       49       51       52       54 </v>
  </varray>
  <i name="volumeweight">      0.00092593 </i>
 </kpoints>
 <parameters>
  <separator name="general" >
   <i type="string" name="SYSTEM">unknown system</i>
   <i type="logical" name="LCOMPAT"> F  </i>
  </separator>
  <separator name="electronic" >
   <i type="string" name="PREC">normal</i>
   <i name="ENMAX">    500.00000000</i>
   <i name="ENAUG">    605.39200000</i>
   <i name="EDIFF">      0.00001000</i>
   <i type="int" name="IALGO">    68</i>
   <i type="int" name="IWAVPR">    10</i>
   <i type="int" name="NBANDS">    29</i>
   <i name="NELECT">     48.00000000</i>
   <i type="int" name="TURBO">     0</i>
   <i type="int" name="IRESTART">     0</i>
   <i type="int" name="NREBOOT">     0</i>
   <i type="int" name="NMIN">     0</i>
   <i name="EREF">      0.00000000</i>
   <separator name="electronic smearing" >
    <i type="int" name="ISMEAR">    -5</i>
    <i name="SIGMA">      0.20000000</i>
    <i name="KSPACING">      0.50000000</i>
    <i type="logical" name="KGAMMA"> T  </i>
   </separator>
   <separator name="electronic projectors" >
    <i type="logical" name="LREAL"> T  </i>
    <v name="ROPT">     -0.00050000     -0.00050000</v>
    <i type="int" name="LMAXPAW">  -100</i>
    <i type="int" name="LMAXMIX">     2</i>
    <i type="logical" name="NLSPLINE"> F  </i>
   </separator>
   <separator name="electronic startup" >
    <i type="int" name="ISTART">     0</i>
    <i type="int" name="ICHARG">     2</i>
    <i type="int" name="INIWAV">     1</i>
   </separator>
   <separator name="electronic spin" >
    <i type="int" name="ISPIN">     1</i>
    <i type="logical" name="LNONCOLLINEAR"> F  </i>
    <v name="MAGMOM">      1.00000000      1.00000000      1.00000000      1.00000000      1.00000000      1.00000000      1.00000000      1.00000000      1.00000000</v>
    <i name="NUPDOWN">     -1.00000000</i>
    <i type="logical" name="LSORBIT"> F  </i>
    <v name="SAXIS">      0.00000000      0.00000000      1.00000000</v>
    <i type="logical" name="LSPIRAL"> F  </i>
    <v name="QSPIRAL">      0.00000000      0.00000000      0.00000000</v>
    <i type="logical" name="LZEROZ"> F  </i>
   </separator>
   <separator name="electronic exchange-correlation" >
    <i type="logical" name="LASPH"> F  </i>
    <i type="logical" name="LMETAGGA"> F  </i>
   </separator>
   <separator name="electronic convergence" >
    <i type="int" name="NELM">    60</i>
    <i type="int" name="NELMDL">    -5</i>
    <i type="int" name="NELMIN">     4</i>
    <i name="ENINI">    500.00000000</i>
    <separator name="electronic convergence detail" >
     <i type="logical" name="LDIAG"> T  </i>
     <i type="logical" name="LSUBROT"> F  </i>
     <i name="WEIMIN">      0.00000000</i>
     <i name="EBREAK">      0.00000009</i>
     <i name="DEPER">      0.30000000</i>
     <i type="int" name="NRMM">     4</i>
     <i name="TIME">      0.40000000</i>
    </separator>
   </separator>
   <separator name="electronic mixer" >
    <i name="AMIX">      0.40000000</i>
    <i name="BMIX">      1.00000000</i>
    <i name="AMIN">      0.10000000</i>
    <i name="AMIX_MAG">      1.60000000</i>
    <i name="BMIX_MAG">      1.00000000</i>
    <separator name="electronic mixer details" >
     <i type="int" name="IMIX">     4</i>
     <i type="logical" name="MIXFIRST"> F  </i>
     <i type="int" name="MAXMIX">   -45</i>
     <i name="WC">    100.00000000</i>
     <i type="int" name="INIMIX">     1</i>
     <i type="int" name="MIXPRE">     1</i>
     <i type="int" name="MREMOVE">     5</i>
    </separator>
   </separator>
   <separator name="electronic dipolcorrection" >
    <i type="logical" name="LDIPOL"> F  </i>
    <i type="logical" name="LMONO"> F  </i>
    <i type="int" name="IDIPOL">     0</i>
    <i name="EPSILON">      1.00000000</i>
    <v name="DIPOL">   -100.00000000   -100.00000000   -100.00000000</v>
    <i name="EFIELD">      0.00000000</i>
   </separator>
  </separator>
  <separator name="grids" >
   <i type="int" name="NGX">    28</i>
   <i type="int" name="NGY">    28</i>
   <i type="int" name="NGZ">    30</i>
   <i type="int" name="NGXF">    56</i>
   <i type="int" name="NGYF">    56</i>
   <i type="int" name="NGZF">    60</i>
   <i type="logical" name="ADDGRID"> F  </i>
  </separator>
  <separator name="ionic" >
   <i type="int" name="NSW">     0</i>
   <i type="int" name="IBRION">    -1</i>
   <i type="int" name="ISIF">     2</i>
   <i name="PSTRESS">      0.00000000</i>
   <i name="EDIFFG">      0.00010000</i>
   <i type="int" name="NFREE">     0</i>
   <i name="POTIM">      0.50000000</i>
   <i name="SMASS">     -3.00000000</i>
   <i name="SCALEE">      1.00000000</i>
  </separator>
  <separator name="ionic md" >
   <i name="TEBEG">      0.00010000</i>
   <i name="TEEND">      0.00010000</i>
   <i type="int" name="NBLOCK">     1</i>
   <i type="int" name="KBLOCK">     1</i>
   <i type="int" name="NPACO">   256</i>
   <i name="APACO">     16.00000000</i>
  </separator>
  <separator name="symmetry" >
   <i type="int" name="ISYM">     2</i>
   <i name="SYMPREC">      0.00001000</i>
  </separator>
  <separator name="dos" >
   <i type="logical" name="LORBIT"> F  </i>
   <v name="RWIGS">     -1.00000000     -1.00000000</v>
   <i type="int" name="NEDOS">   301</i>
   <i name="EMIN">     10.00000000</i>
   <i name="EMAX">    -10.00000000</i>
   <i name="EFERMI">      0.00000000</i>
  </separator>
  <separator name="writing" >
   <i type="int" name="NWRITE">     2</i>
   <i type="logical" name="LWAVE"> F  </i>
   <i type="logical" name="LCHARG"> T  </i>
   <i type="logical" name="LPARD"> F  </i>
   <i type="logical" name="LVTOT"> F  </i>
   <i type="logical" name="LVHAR"> F  </i>
   <i type="logical" name="LELF"> F  </i>
   <i type="logical" name="LOPTICS"> F  </i>
   <v name="STM">      0.00000000      0.00000000      0.00000000      0.00000000      0.00000000      0.00000000      0.00000000</v>
  </separator>
  <separator name="performance" >
   <i type="int" name="NPAR">     1</i>
   <i type="int" name="NSIM">     4</i>
   <i type="int" name="NBLK">    -1</i>
   <i type="logical" name="LPLANE"> T  </i>
   <i type="logical" name="LSCALAPACK"> F  </i>
   <i type="logical" name="LSCAAWARE"> F  </i>
   <i type="logical" name="LSCALU"> F  </i>
   <i type="logical" name="LASYNC"> F  </i>
   <i type="logical" name="LORBITALREAL"> F  </i>
  </separator>
  <separator name="miscellaneous" >
   <i type="int" name="IDIOT">     3</i>
   <i type="logical" name="LMUSIC"> F  </i>
   <v name="POMASS">     28.08500000     16.00000000</v>
   <v name="DARWINR">      0.00000000      0.00000000</v>
   <v name="DARWINV">      1.00000000      1.00000000</v>
   <i type="logical" name="LCORR"> T  </i>
  </separator>
  <i type="logical" name="GGA_COMPAT"> T  </i>
  <i type="logical" name="LBERRY"> F  </i>
  <i type="int" name="ICORELEVEL">     0</i>
  <i type="logical" name="LDAU"> F  </i>
  <i type="int" name="I_CONSTRAINED_M">     0</i>
  <separator name="electronic exchange-correlation" >
   <i type="string" name="GGA">--</i>
   <i type="int" name="VOSKOWN">     0</i>
   <i type="logical" name="LHFCALC"> F  </i>
   <i type="string" name="PRECFOCK"></i>
   <i type="logical" name="LSYMGRAD"> F  </i>
   <i type="logical" name="LHFONE"> F  </i>
   <i type="logical" name="LRHFCALC"> F  </i>
   <i type="logical" name="LTHOMAS"> F  </i>
   <i type="logical" name="LMODELHF"> F  </i>
   <i name="ENCUT4O">     -1.00000000</i>
   <i type="int" name="EXXOEP">     0</i>
   <i type="int" name="FOURORBIT">     0</i>
   <i name="AEXX">      0.00000000</i>
   <i name="HFALPHA">      0.00000000</i>
   <i name="MCALPHA">      0.00000000</i>
   <i name="ALDAX">      1.00000000</i>
   <i name="AGGAX">      1.00000000</i>
   <i name="ALDAC">      1.00000000</i>
   <i name="AGGAC">      1.00000000</i>
   <i type="int" name="NKREDX">     1</i>
   <i type="int" name="NKREDY">     1</i>
   <i type="int" name="NKREDZ">     1</i>
   <i type="logical" name="SHIFTRED"> F  </i>
   <i type="logical" name="ODDONLY"> F  </i>
   <i type="logical" name="EVENONLY"> F  </i>
   <i type="int" name="LMAXFOCK">     0</i>
   <i type="int" name="NMAXFOCKAE">     0</i>
   <i type="logical" name="LFOCKAEDFT"> F  </i>
   <i name="HFSCREEN">      0.00000000</i>
   <i name="HFSCREENC">      0.00000000</i>
   <i type="int" name="NBANDSGWLOW">     0</i>
  </separator>
  <separator name="vdW DFT" >
   <i type="logical" name="LUSE_VDW"> F  </i>
   <i name="Zab_VDW">     -0.84910000</i>
   <i name="PARAM1">      0.12340000</i>
   <i name="PARAM2">      1.00000000</i>
   <i name="PARAM3">      0.00000000</i>
  </separator>
  <separator name="model GW" >
   <i type="int" name="MODEL_GW">     0</i>
   <i name="MODEL_EPS0">      7.53464495</i>
   <i name="MODEL_ALPHA">      1.00000000</i>
  </separator>
  <separator name="linear response parameters" >
   <i type="logical" name="LEPSILON"> F  </i>
   <i type="logical" name="LRPA"> F  </i>
   <i type="logical" name="LNABLA"> F  </i>
   <i type="logical" name="LVEL"> F  </i>
   <i type="int" name="KINTER">     0</i>
   <i name="CSHIFT">      0.10000000</i>
   <i name="OMEGAMAX">     -1.00000000</i>
   <i name="DEG_THRESHOLD">      0.00200000</i>
  </separator>
  <separator name="orbital magnetization" >
   <i type="logical" name="NUCIND"> F  </i>
   <v name="MAGPOS">      0.00000000      0.00000000      0.00000000</v>
   <i type="logical" name="LNICSALL"> T  </i>
   <i type="logical" name="ORBITALMAG"> F  </i>
   <i type="logical" name="LMAGBLOCH"> F  </i>
   <i type="logical" name="LCHIMAG"> F  </i>
   <i type="logical" name="LGAUGE"> T  </i>
   <i type="int" name="MAGATOM">     0</i>
   <v name="MAGDIPOL">      0.00000000      0.00000000      0.00000000</v>
   <v name="AVECCONST">      0.00000000      0.00000000      0.00000000</v>
  </separator>
  <separator name="response functions" >
   <i type="logical" name="LADDER"> F  </i>
   <i type="logical" name="LFXC"> F  </i>
   <i type="logical" name="LHARTREE"> T  </i>
   <i type="int" name="IBSE">     0</i>
   <v type="int" name="KPOINT">    -1     0     0     0</v>
   <i type="logical" name="LTCTE"> F  </i>
   <i type="logical" name="LTETE"> F  </i>
   <i type="logical" name="LTRIPLET"> F  </i>
   <i type="logical" name="LFXCEPS"> F  </i>
   <i type="logical" name="LFXHEG"> F  </i>
   <i type="int" name="NATURALO">     0</i>
   <i type="logical" name="L2ORDER"> F  </i>
   <i type="logical" name="LUSEW"> F  </i>
   <i name="ENCUTGW">     -2.00000000</i>
   <i name="ENCUTGWSOFT">     -2.00000000</i>
   <i name="ENCUTLF">     -1.00000000</i>
   <i type="int" name="LMAXMP2">    -1</i>
   <i name="SCISSOR">      0.00000000</i>
   <i type="int" name="NOMEGA">     0</i>
   <i type="int" name="NOMEGAR">     0</i>
   <i type="int" name="NBANDSGW">    -1</i>
   <i type="int" name="NBANDSO">    -1</i>
   <i type="int" name="NBANDSV">    -1</i>
   <i type="int" name="NELM">     1</i>
   <i type="int" name="NELMHF">     1</i>
   <i type="int" name="DIM">     3</i>
   <i type="int" name="ANTIRES">     0</i>
   <i name="OMEGAMAX">    -30.00000000</i>
   <i name="OMEGAMIN">    -30.00000000</i>
   <i name="OMEGATL">   -200.00000000</i>
   <i type="int" name="OMEGAGRID">     0</i>
   <i name="CSHIFT">     -0.10000000</i>
   <i type="logical" name="SELFENERGY"> F  </i>
   <i type="logical" name="LSPECTRAL"> F  </i>
   <i type="logical" name="LSPECTRALGW"> F  </i>
   <i type="logical" name="LSINGLES"> F  </i>
   <i type="logical" name="LFERMIGW"> F  </i>
   <i type="logical" name="ODDONLYGW"> F  </i>
   <i type="logical" name="EVENONLYGW"> F  </i>
   <i type="int" name="NKREDLFX">     1</i>
   <i type="int" name="NKREDLFY">     1</i>
   <i type="int" name="NKREDLFZ">     1</i>
   <i type="int" name="MAXMEM">  1800</i>
   <i type="int" name="TELESCOPE">     0</i>
   <i type="int" name="TAUPAR">     1</i>
   <i type="int" name="OMEGAPAR">    -1</i>
   <i name="LAMBDA">      1.00000000</i>
  </separator>
  <separator name="External order field" >
   <i name="OFIELD_KAPPA">      0.00000000</i>
   <v name="OFIELD_K">      0.00000000      0.00000000      0.00000000</v>
   <i name="OFIELD_Q6_NEAR">      0.00000000</i>
   <i name="OFIELD_Q6_FAR">      0.00000000</i>
   <i name="OFIELD_A">      0.00000000</i>
  </separator>
 </parameters>
 <atominfo>
  <atoms>       9 </atoms>
  <types>       2 </types>
  <array name="atoms" >
   <dimension dim="1">ion</dimension>
   <field type="string">element</field>
   <field type="int">atomtype</field>
   <set>
    <rc><c>Si</c><c>   1</c></rc>
    <rc><c>Si</c><c>   1</c></rc>
    <rc><c>Si</c><c>   1</c></rc>
    <rc><c>O </c><c>   2</c></rc>
    <rc><c>O </c><c>   2</c></rc>
    <rc><c>O </c><c>   2</c></rc>
    <rc><c>O </c><c>   2</c></rc>
    <rc><c>O </c><c>   2</c></rc>
    <rc><c>O </c><c>   2</c></rc>
   </set>
  </array>
  <array name="atomtypes" >
   <dimension dim="1">type</dimension>
   <field type="int">atomspertype</field>
   <field type="string">element</field>
   <field>mass</field>
   <field>valence</field>
   <field type="string">pseudopotential</field>
   <set>
    <rc><c>   3</c><c>Si</c><c>     28.08500000</c><c>      4.00000000</c><c> PAW_PBE Si 05Jan2001                   </c></rc>
    <rc><c>   6</c><c>O </c><c>     16.00000000</c><c>      6.00000000</c><c> PAW_PBE O 08Apr2002                    </c></rc>
   </set>
  </array>
 </atominfo>
 <structure name="initialpos" >
  <crystal>
   <varray name="basis" >
    <v>       4.91370000       0.00000000       0.00000000 </v>
    <v>      -2.45685000       4.25538903       0.00000000 </v>
    <v>       0.00000000       0.00000000       5.40513000 </v>
   </varray>
   <i name="volume">    113.01967420 </i>
   <varray name="rec_basis" >
    <v>       0.20351263       0.11749807       0.00000000 </v>
    <v>       0.00000000       0.23499614       0.00000000 </v>
    <v>       0.00000000       0.00000000       0.18500943 </v>
   </varray>
  </crystal>
  <varray name="positions" >
   <v>       0.46980000       0.00000000       0.66667000 </v>
   <v>       0.00000000       0.46980000       0.33333000 </v>
   <v>       0.53020000       0.53020000       0.00000000 </v>
   <v>       0.41450000       0.26620000       0.78560000 </v>
   <v>       0.73380000       0.14830000       0.45227000 </v>
   <v>       0.85170000       0.58550000       0.11893000 </v>
   <v>       0.14830000       0.73380000       0.54773000 </v>
   <v>       0.26620000       0.41450000       0.21440000 </v>
   <v>       0.58550000       0.85170000       0.88107000 </v>
  </varray>
 </structure>
 <calculation>
  <scstep>
   <time name="dav">    6.10    6.10</time>
   <time name="total">    6.24    6.34</time>
   <energy>
    <i name="alphaZ">     69.72802778 </i>
    <i name="ewald">  -1887.20590689 </i>
    <i name="hartreedc">   -937.14514243 </i>
    <i name="XCdc">    142.01294099 </i>
    <i name="pawpsdc">   1574.92322788 </i>
    <i name="pawaedc">  -1533.24131965 </i>
    <i name="eentropy">      0.00000000 </i>
    <i name="bandstr">    -20.16494831 </i>
    <i name="atom">   2903.33737771 </i>
    <i name="e_fr_energy">    312.24425709 </i>
    <i name="e_wo_entrp">    312.24425709 </i>
    <i name="e_0_energy">    312.24425709 </i>
   </energy>
  </scstep>
  <scstep>
   <time name="dav">    7.66    7.66</time>
   <time name="total">    7.67    7.67</time>
   <energy>
    <i name="e_fr_energy">    -60.67990671 </i>
    <i name="e_wo_entrp">    -60.67990671 </i>
    <i name="e_0_energy">    -60.67990671 </i>
   </energy>
  </scstep>
  <scstep>
   <time name="dav">    6.77    6.77</time>
   <time name="total">    6.77    6.80</time>
   <energy>
    <i name="e_fr_energy">    -80.36530706 </i>
    <i name="e_wo_entrp">    -80.36530706 </i>
    <i name="e_0_energy">    -80.36530706 </i>
   </energy>
  </scstep>
  <scstep>
   <time name="dav">    6.84    6.84</time>
   <time name="total">    6.84    6.85</time>
   <energy>
    <i name="e_fr_energy">    -80.61761708 </i>
    <i name="e_wo_entrp">    -80.61761708 </i>
    <i name="e_0_energy">    -80.61761708 </i>
   </energy>
  </scstep>
  <scstep>
   <time name="dav">    6.74    6.74</time>
   <time name="total">    7.18    7.19</time>
   <energy>
    <i name="e_fr_energy">    -80.62242911 </i>
    <i name="e_wo_entrp">    -80.62242911 </i>
    <i name="e_0_energy">    -80.62242911 </i>
   </energy>
  </scstep>
  <scstep>
   <time name="diag">    1.12    1.12</time>
   <time name="diis">    4.06    4.05</time>
   <time name="orth">    0.11    0.11</time>
   <time name="total">    5.84    5.84</time>
   <energy>
    <i name="e_fr_energy">    -70.98223368 </i>
    <i name="e_wo_entrp">    -70.98223368 </i>
    <i name="e_0_energy">    -70.98223368 </i>
   </energy>
  </scstep>
  <scstep>
   <time name="diag">    1.11    1.11</time>
   <time name="diis">    4.43    4.43</time>
   <time name="orth">    0.11    0.11</time>
   <time name="total">    6.22    6.22</time>
   <energy>
    <i name="e_fr_energy">    -70.97603058 </i>
    <i name="e_wo_entrp">    -70.97603058 </i>
    <i name="e_0_energy">    -70.97603058 </i>
   </energy>
  </scstep>
  <scstep>
   <time name="diag">    1.12    1.12</time>
   <time name="diis">    4.38    4.38</time>
   <time name="orth">    0.11    0.11</time>
   <time name="total">    6.17    6.17</time>
   <energy>
    <i name="e_fr_energy">    -70.99673138 </i>
    <i name="e_wo_entrp">    -70.99673138 </i>
    <i name="e_0_energy">    -70.99673138 </i>
   </energy>
  </scstep>
  <scstep>
   <time name="diag">    1.11    1.11</time>
   <time name="diis">    4.50    4.50</time>
   <time name="orth">    0.11    0.11</time>
   <time name="total">    6.28    6.29</time>
   <energy>
    <i name="e_fr_energy">    -70.98853598 </i>
    <i name="e_wo_entrp">    -70.98853598 </i>
    <i name="e_0_energy">    -70.98853598 </i>
   </energy>
  </scstep>
  <scstep>
   <time name="diag">    1.12    1.12</time>
   <time name="diis">    4.47    4.47</time>
   <time name="orth">    0.11    0.11</time>
   <time name="total">    6.25    6.25</time>
   <energy>
    <i name="e_fr_energy">    -70.99208729 </i>
    <i name="e_wo_entrp">    -70.99208729 </i>
    <i name="e_0_energy">    -70.99208729 </i>
   </energy>
  </scstep>
  <scstep>
   <time name="diag">    1.11    1.11</time>
   <time name="diis">    4.48    4.48</time>
   <time name="orth">    0.11    0.11</time>
   <time name="total">    6.26    6.26</time>
   <energy>
    <i name="e_fr_energy">    -70.99049098 </i>
    <i name="e_wo_entrp">    -70.99049098 </i>
    <i name="e_0_energy">    -70.99049098 </i>
   </energy>
  </scstep>
  <scstep>
   <time name="diag">    1.11    1.11</time>
   <time name="diis">    4.48    4.48</time>
   <time name="orth">    0.11    0.11</time>
   <time name="total">    6.27    6.27</time>
   <energy>
    <i name="e_fr_energy">    -70.99041926 </i>
    <i name="e_wo_entrp">    -70.99041926 </i>
    <i name="e_0_energy">    -70.99041926 </i>
   </energy>
  </scstep>
  <scstep>
   <time name="diag">    1.13    1.13</time>
   <time name="diis">    3.59    3.59</time>
   <time name="orth">    0.11    0.11</time>
   <time name="total">    4.95    4.95</time>
   <energy>
    <i name="alphaZ">     69.72802778 </i>
    <i name="ewald">  -1887.20590689 </i>
    <i name="hartreedc">  -1071.48887407 </i>
    <i name="XCdc">    151.13018115 </i>
    <i name="pawpsdc">   2053.88225647 </i>
    <i name="pawaedc">  -2014.64424809 </i>
    <i name="eentropy">      0.00000000 </i>
    <i name="bandstr">   -275.72923693 </i>
    <i name="atom">   2903.33737771 </i>
    <i name="e_fr_energy">    -70.99042286 </i>
    <i name="e_wo_entrp">    -70.99042286 </i>
    <i name="e_0_energy">    -70.99042286 </i>
   </energy>
  </scstep>
  <structure>
   <crystal>
    <varray name="basis" >
     <v>       4.91370000       0.00000000       0.00000000 </v>
     <v>      -2.45685000       4.25538903       0.00000000 </v>
     <v>       0.00000000       0.00000000       5.40513000 </v>
    </varray>
    <i name="volume">    113.01967420 </i>
    <varray name="rec_basis" >
     <v>       0.20351263       0.11749807       0.00000000 </v>
     <v>       0.00000000       0.23499614       0.00000000 </v>
     <v>       0.00000000       0.00000000       0.18500943 </v>
    </varray>
   </crystal>
   <varray name="positions" >
    <v>       0.46980000       0.00000000       0.66667000 </v>
    <v>       0.00000000       0.46980000       0.33333000 </v>
    <v>       0.53020000       0.53020000       0.00000000 </v>
    <v>       0.41450000       0.26620000       0.78560000 </v>
    <v>       0.73380000       0.14830000       0.45227000 </v>
    <v>       0.85170000       0.58550000       0.11893000 </v>
    <v>       0.14830000       0.73380000       0.54773000 </v>
    <v>       0.26620000       0.41450000       0.21440000 </v>
    <v>       0.58550000       0.85170000       0.88107000 </v>
   </varray>
  </structure>
  <varray name="forces" >
   <v>       0.39428384      -0.00042741      -0.00060989 </v>
   <v>      -0.19751207       0.34124612       0.00060989 </v>
   <v>      -0.19735337      -0.34182606       0.00000000 </v>
   <v>      -0.49674580       0.27965369       0.07005246 </v>
   <v>       0.00635990      -0.56935904       0.06967881 </v>
   <v>       0.49061823       0.29024278       0.06990230 </v>
   <v>      -0.49625934      -0.27917169      -0.06967881 </v>
   <v>       0.49056010      -0.29036764      -0.07005246 </v>
   <v>       0.00604850       0.57000924      -0.06990230 </v>
  </varray>
  <varray name="stress" >
   <v>      85.20862500      -0.03713939      -0.00241309 </v>
   <v>      -0.03713939      85.16574025       0.00139320 </v>
   <v>      -0.00241307       0.00139319      70.87806857 </v>
  </varray>
  <energy>
   <i name="e_fr_energy">    -70.99042286 </i>
   <i name="e_wo_entrp">    -70.99042286 </i>
   <i name="e_0_energy">      0.00000000 </i>
  </energy>
  <time name="totalsc">   90.90   92.32</time>
  <eigenvalues>
   <array>
    <dimension dim="1">band</dimension>
    <dimension dim="2">kpoint</dimension>
    <dimension dim="3">spin</dimension>
    <field>eigene</field>
    <field>occ</field>
    <set>
     <set comment="spin 1">
      <set comment="kpoint 1">
       <r>  -18.3706    1.0000 </r>
       <r>  -16.8330    1.0000 </r>
       <r>  -16.8329    1.0000 </r>
       <r>  -16.1983    1.0000 </r>
       <r>  -16.1500    1.0000 </r>
       <r>  -16.1498    1.0000 </r>
       <r>   -7.1715    1.0000 </r>
       <r>   -7.1714    1.0000 </r>
       <r>   -4.3310    1.0000 </r>
       <r>   -4.3247    1.0000 </r>
       <r>   -4.1728    1.0000 </r>
       <r>   -4.1727    1.0000 </r>
       <r>   -1.8552    1.0000 </r>
       <r>   -1.8551    1.0000 </r>
       <r>   -1.6178    1.0000 </r>
       <r>   -1.3576    1.0000 </r>
       <r>   -0.4062    1.0000 </r>
       <r>   -0.4062    1.0000 </r>
       <r>   -0.3882    1.0000 </r>
       <r>    0.1147    1.0000 </r>
       <r>    0.1148    1.0000 </r>
       <r>    0.4243    1.0000 </r>
       <r>    0.7646    1.0000 </r>
       <r>    0.7647    1.0000 </r>
       <r>    7.1225    0.0000 </r>
       <r>   10.3992    0.0000 </r>
       <r>   10.3993    0.0000 </r>
       <r>   10.9011    0.0000 </r>
       <r>   10.9011    0.0000 </r>
      </set>
      <set comment="kpoint 2">
       <r>  -18.2889    1.0000 </r>
       <r>  -16.9273    1.0000 </r>
       <r>  -16.8211    1.0000 </r>
       <r>  -16.2178    1.0000 </r>
       <r>  -16.1671    1.0000 </r>
       <r>  -16.1564    1.0000 </r>
       <r>   -7.2091    1.0000 </r>
       <r>   -6.9899    1.0000 </r>
       <r>   -4.3710    1.0000 </r>
       <r>   -4.3449    1.0000 </r>
       <r>   -4.2734    1.0000 </r>
       <r>   -4.0121    1.0000 </r>
       <r>   -1.9805    1.0000 </r>
       <r>   -1.7954    1.0000 </r>
       <r>   -1.5876    1.0000 </r>
       <r>   -1.1911    1.0000 </r>
       <r>   -0.6798    1.0000 </r>
       <r>   -0.4450    1.0000 </r>
       <r>   -0.3998    1.0000 </r>
       <r>    0.0520    1.0000 </r>
       <r>    0.1047    1.0000 </r>
       <r>    0.3220    1.0000 </r>
       <r>    0.8281    1.0000 </r>
       <r>    0.8617    1.0000 </r>
       <r>    7.5447    0.0000 </r>
       <r>   10.3858    0.0000 </r>
       <r>   10.4460    0.0000 </r>
       <r>   10.9361    0.0000 </r>
       <r>   11.0447    0.0000 </r>
      </set>
      <set comment="kpoint 3">
       <r>  -18.0699    1.0000 </r>
       <r>  -17.1866    1.0000 </r>
       <r>  -16.7955    1.0000 </r>
       <r>  -16.2408    1.0000 </r>
       <r>  -16.1955    1.0000 </r>
       <r>  -16.1756    1.0000 </r>
       <r>   -7.2808    1.0000 </r>
       <r>   -6.5703    1.0000 </r>
       <r>   -4.6268    1.0000 </r>
       <r>   -4.3787    1.0000 </r>
       <r>   -4.2967    1.0000 </r>
       <r>   -3.7095    1.0000 </r>
       <r>   -2.0630    1.0000 </r>
       <r>   -1.6870    1.0000 </r>
       <r>   -1.5623    1.0000 </r>
       <r>   -1.1950    1.0000 </r>
       <r>   -0.9959    1.0000 </r>
       <r>   -0.5763    1.0000 </r>
       <r>   -0.4847    1.0000 </r>
       <r>    0.0008    1.0000 </r>
       <r>    0.0701    1.0000 </r>
       <r>    0.2730    1.0000 </r>
       <r>    0.8560    1.0000 </r>
       <r>    1.0053    1.0000 </r>
       <r>    8.5437    0.0000 </r>
       <r>   10.4298    0.0000 </r>
       <r>   10.5570    0.0000 </r>
       <r>   11.0613    0.0000 </r>
       <r>   11.4560    0.0000 </r>
      </set>
      <set comment="kpoint 4">
       <r>  -17.8804    1.0000 </r>
       <r>  -17.4014    1.0000 </r>
       <r>  -16.7819    1.0000 </r>
       <r>  -16.2468    1.0000 </r>
       <r>  -16.2084    1.0000 </r>
       <r>  -16.1873    1.0000 </r>
       <r>   -7.3151    1.0000 </r>
       <r>   -6.3080    1.0000 </r>
       <r>   -4.8150    1.0000 </r>
       <r>   -4.3560    1.0000 </r>
       <r>   -4.3250    1.0000 </r>
       <r>   -3.5436    1.0000 </r>
       <r>   -1.9909    1.0000 </r>
       <r>   -1.8242    1.0000 </r>
       <r>   -1.5936    1.0000 </r>
       <r>   -1.2122    1.0000 </r>
       <r>   -1.0039    1.0000 </r>
       <r>   -0.6596    1.0000 </r>
       <r>   -0.5921    1.0000 </r>
       <r>   -0.0022    1.0000 </r>
       <r>    0.0631    1.0000 </r>
       <r>    0.3035    1.0000 </r>
       <r>    0.8391    1.0000 </r>
       <r>    1.0630    1.0000 </r>
       <r>    9.3811    0.0000 </r>
       <r>   10.1187    0.0000 </r>
       <r>   10.8445    0.0000 </r>
       <r>   10.8459    0.0000 </r>
       <r>   11.6367    0.0000 </r>
      </set>
      <set comment="kpoint 5">
       <r>  -18.1361    1.0000 </r>
       <r>  -17.1032    1.0000 </r>
       <r>  -16.8094    1.0000 </r>
       <r>  -16.2355    1.0000 </r>
       <r>  -16.1924    1.0000 </r>
       <r>  -16.1660    1.0000 </r>
       <r>   -7.2732    1.0000 </r>
       <r>   -6.6640    1.0000 </r>
       <r>   -4.6348    1.0000 </r>
       <r>   -4.3638    1.0000 </r>
       <r>   -4.2215    1.0000 </r>
       <r>   -3.7991    1.0000 </r>
       <r>   -2.0299    1.0000 </r>
       <r>   -1.7824    1.0000 </r>
       <r>   -1.4826    1.0000 </r>
       <r>   -1.0824    1.0000 </r>
       <r>   -1.0747    1.0000 </r>
       <r>   -0.5550    1.0000 </r>
       <r>   -0.3572    1.0000 </r>
       <r>   -0.1255    1.0000 </r>
       <r>    0.1877    1.0000 </r>
       <r>    0.2329    1.0000 </r>
       <r>    0.8469    1.0000 </r>
       <r>    0.9828    1.0000 </r>
       <r>    8.2525    0.0000 </r>
       <r>   10.4287    0.0000 </r>
       <r>   10.5703    0.0000 </r>
       <r>   11.0535    0.0000 </r>
       <r>   11.2277    0.0000 </r>
      </set>
      <set comment="kpoint 6">
       <r>  -17.8871    1.0000 </r>
       <r>  -17.3819    1.0000 </r>
       <r>  -16.8018    1.0000 </r>
       <r>  -16.2440    1.0000 </r>
       <r>  -16.2066    1.0000 </r>
       <r>  -16.1844    1.0000 </r>
       <r>   -7.3384    1.0000 </r>
       <r>   -6.2079    1.0000 </r>
       <r>   -5.0342    1.0000 </r>
       <r>   -4.3159    1.0000 </r>
       <r>   -4.2239    1.0000 </r>
       <r>   -3.5514    1.0000 </r>
       <r>   -1.9791    1.0000 </r>
       <r>   -1.7800    1.0000 </r>
       <r>   -1.6536    1.0000 </r>
       <r>   -1.1595    1.0000 </r>
       <r>   -0.9969    1.0000 </r>
       <r>   -0.6905    1.0000 </r>
       <r>   -0.5022    1.0000 </r>
       <r>   -0.1838    1.0000 </r>
       <r>    0.0356    1.0000 </r>
       <r>    0.4280    1.0000 </r>
       <r>    0.8055    1.0000 </r>
       <r>    1.0744    1.0000 </r>
       <r>    9.2690    0.0000 </r>
       <r>   10.3684    0.0000 </r>
       <r>   10.6850    0.0000 </r>
       <r>   11.0890    0.0000 </r>
       <r>   11.5186    0.0000 </r>
      </set>
      <set comment="kpoint 7">
       <r>  -17.8871    1.0000 </r>
       <r>  -17.3819    1.0000 </r>
       <r>  -16.8018    1.0000 </r>
       <r>  -16.2440    1.0000 </r>
       <r>  -16.2066    1.0000 </r>
       <r>  -16.1844    1.0000 </r>
       <r>   -7.3384    1.0000 </r>
       <r>   -6.2079    1.0000 </r>
       <r>   -5.0342    1.0000 </r>
       <r>   -4.3159    1.0000 </r>
       <r>   -4.2240    1.0000 </r>
       <r>   -3.5514    1.0000 </r>
       <r>   -1.9792    1.0000 </r>
       <r>   -1.7801    1.0000 </r>
       <r>   -1.6536    1.0000 </r>
       <r>   -1.1594    1.0000 </r>
       <r>   -0.9970    1.0000 </r>
       <r>   -0.6905    1.0000 </r>
       <r>   -0.5022    1.0000 </r>
       <r>   -0.1838    1.0000 </r>
       <r>    0.0356    1.0000 </r>
       <r>    0.4280    1.0000 </r>
       <r>    0.8054    1.0000 </r>
       <r>    1.0744    1.0000 </r>
       <r>    9.2690    0.0000 </r>
       <r>   10.3684    0.0000 </r>
       <r>   10.6848    0.0000 </r>
       <r>   11.0887    0.0000 </r>
       <r>   11.5145    0.0000 </r>
      </set>
      <set comment="kpoint 8">
       <r>  -18.1361    1.0000 </r>
       <r>  -17.1032    1.0000 </r>
       <r>  -16.8095    1.0000 </r>
       <r>  -16.2356    1.0000 </r>
       <r>  -16.1924    1.0000 </r>
       <r>  -16.1659    1.0000 </r>
       <r>   -7.2732    1.0000 </r>
       <r>   -6.6640    1.0000 </r>
       <r>   -4.6347    1.0000 </r>
       <r>   -4.3637    1.0000 </r>
       <r>   -4.2216    1.0000 </r>
       <r>   -3.7991    1.0000 </r>
       <r>   -2.0300    1.0000 </r>
       <r>   -1.7824    1.0000 </r>
       <r>   -1.4825    1.0000 </r>
       <r>   -1.0824    1.0000 </r>
       <r>   -1.0747    1.0000 </r>
       <r>   -0.5550    1.0000 </r>
       <r>   -0.3572    1.0000 </r>
       <r>   -0.1255    1.0000 </r>
       <r>    0.1876    1.0000 </r>
       <r>    0.2329    1.0000 </r>
       <r>    0.8469    1.0000 </r>
       <r>    0.9828    1.0000 </r>
       <r>    8.2525    0.0000 </r>
       <r>   10.4291    0.0000 </r>
       <r>   10.5712    0.0000 </r>
       <r>   11.0846    0.0000 </r>
       <r>   11.2315    0.0000 </r>
      </set>
      <set comment="kpoint 9">
       <r>  -18.2889    1.0000 </r>
       <r>  -16.9272    1.0000 </r>
       <r>  -16.8212    1.0000 </r>
       <r>  -16.2179    1.0000 </r>
       <r>  -16.1670    1.0000 </r>
       <r>  -16.1565    1.0000 </r>
       <r>   -7.2090    1.0000 </r>
       <r>   -6.9899    1.0000 </r>
       <r>   -4.3709    1.0000 </r>
       <r>   -4.3450    1.0000 </r>
       <r>   -4.2735    1.0000 </r>
       <r>   -4.0121    1.0000 </r>
       <r>   -1.9805    1.0000 </r>
       <r>   -1.7953    1.0000 </r>
       <r>   -1.5876    1.0000 </r>
       <r>   -1.1911    1.0000 </r>
       <r>   -0.6798    1.0000 </r>
       <r>   -0.4450    1.0000 </r>
       <r>   -0.3998    1.0000 </r>
       <r>    0.0519    1.0000 </r>
       <r>    0.1048    1.0000 </r>
       <r>    0.3219    1.0000 </r>
       <r>    0.8280    1.0000 </r>
       <r>    0.8617    1.0000 </r>
       <r>    7.5447    0.0000 </r>
       <r>   10.3859    0.0000 </r>
       <r>   10.4459    0.0000 </r>
       <r>   10.9363    0.0000 </r>
       <r>   11.0447    0.0000 </r>
      </set>
      <set comment="kpoint 10">
       <r>  -17.6351    1.0000 </r>
       <r>  -17.6349    1.0000 </r>
       <r>  -16.8161    1.0000 </r>
       <r>  -16.2430    1.0000 </r>
       <r>  -16.1988    1.0000 </r>
       <r>  -16.1987    1.0000 </r>
       <r>   -7.3761    1.0000 </r>
       <r>   -5.6372    1.0000 </r>
       <r>   -5.6372    1.0000 </r>
       <r>   -4.2332    1.0000 </r>
       <r>   -4.2331    1.0000 </r>
       <r>   -3.4570    1.0000 </r>
       <r>   -1.8494    1.0000 </r>
       <r>   -1.8494    1.0000 </r>
       <r>   -1.7988    1.0000 </r>
       <r>   -0.9722    1.0000 </r>
       <r>   -0.9722    1.0000 </r>
       <r>   -0.8162    1.0000 </r>
       <r>   -0.6195    1.0000 </r>
       <r>   -0.1413    1.0000 </r>
       <r>   -0.1413    1.0000 </r>
       <r>    0.6638    1.0000 </r>
       <r>    0.6639    1.0000 </r>
       <r>    1.1056    1.0000 </r>
       <r>   10.0526    0.0000 </r>
       <r>   10.0527    0.0000 </r>
       <r>   10.5408    0.0000 </r>
       <r>   11.5112    0.0000 </r>
       <r>   11.6562    0.0000 </r>
      </set>
      <set comment="kpoint 11">
       <r>  -17.8870    1.0000 </r>
       <r>  -17.3820    1.0000 </r>
       <r>  -16.8019    1.0000 </r>
       <r>  -16.2441    1.0000 </r>
       <r>  -16.2066    1.0000 </r>
       <r>  -16.1842    1.0000 </r>
       <r>   -7.3384    1.0000 </r>
       <r>   -6.2080    1.0000 </r>
       <r>   -5.0342    1.0000 </r>
       <r>   -4.3158    1.0000 </r>
       <r>   -4.2239    1.0000 </r>
       <r>   -3.5514    1.0000 </r>
       <r>   -1.9792    1.0000 </r>
       <r>   -1.7801    1.0000 </r>
       <r>   -1.6537    1.0000 </r>
       <r>   -1.1594    1.0000 </r>
       <r>   -0.9969    1.0000 </r>
       <r>   -0.6905    1.0000 </r>
       <r>   -0.5022    1.0000 </r>
       <r>   -0.1839    1.0000 </r>
       <r>    0.0356    1.0000 </r>
       <r>    0.4280    1.0000 </r>
       <r>    0.8055    1.0000 </r>
       <r>    1.0744    1.0000 </r>
       <r>    9.2690    0.0000 </r>
       <r>   10.3683    0.0000 </r>
       <r>   10.6853    0.0000 </r>
       <r>   11.0897    0.0000 </r>
       <r>   11.6018    0.0000 </r>
      </set>
      <set comment="kpoint 12">
       <r>  -18.0698    1.0000 </r>
       <r>  -17.1866    1.0000 </r>
       <r>  -16.7956    1.0000 </r>
       <r>  -16.2408    1.0000 </r>
       <r>  -16.1955    1.0000 </r>
       <r>  -16.1755    1.0000 </r>
       <r>   -7.2807    1.0000 </r>
       <r>   -6.5703    1.0000 </r>
       <r>   -4.6269    1.0000 </r>
       <r>   -4.3786    1.0000 </r>
       <r>   -4.2967    1.0000 </r>
       <r>   -3.7095    1.0000 </r>
       <r>   -2.0630    1.0000 </r>
       <r>   -1.6871    1.0000 </r>
       <r>   -1.5623    1.0000 </r>
       <r>   -1.1951    1.0000 </r>
       <r>   -0.9958    1.0000 </r>
       <r>   -0.5763    1.0000 </r>
       <r>   -0.4847    1.0000 </r>
       <r>    0.0007    1.0000 </r>
       <r>    0.0702    1.0000 </r>
       <r>    0.2730    1.0000 </r>
       <r>    0.8560    1.0000 </r>
       <r>    1.0054    1.0000 </r>
       <r>    8.5437    0.0000 </r>
       <r>   10.4298    0.0000 </r>
       <r>   10.5567    0.0000 </r>
       <r>   11.0583    0.0000 </r>
       <r>   11.4122    0.0000 </r>
      </set>
      <set comment="kpoint 13">
       <r>  -17.8803    1.0000 </r>
       <r>  -17.4015    1.0000 </r>
       <r>  -16.7820    1.0000 </r>
       <r>  -16.2468    1.0000 </r>
       <r>  -16.2085    1.0000 </r>
       <r>  -16.1870    1.0000 </r>
       <r>   -7.3151    1.0000 </r>
       <r>   -6.3081    1.0000 </r>
       <r>   -4.8151    1.0000 </r>
       <r>   -4.3559    1.0000 </r>
       <r>   -4.3250    1.0000 </r>
       <r>   -3.5436    1.0000 </r>
       <r>   -1.9908    1.0000 </r>
       <r>   -1.8243    1.0000 </r>
       <r>   -1.5936    1.0000 </r>
       <r>   -1.2122    1.0000 </r>
       <r>   -1.0040    1.0000 </r>
       <r>   -0.6596    1.0000 </r>
       <r>   -0.5920    1.0000 </r>
       <r>   -0.0022    1.0000 </r>
       <r>    0.0632    1.0000 </r>
       <r>    0.3035    1.0000 </r>
       <r>    0.8391    1.0000 </r>
       <r>    1.0631    1.0000 </r>
       <r>    9.3811    0.0000 </r>
       <r>   10.1187    0.0000 </r>
       <r>   10.8445    0.0000 </r>
       <r>   10.8450    0.0000 </r>
       <r>   11.6377    0.0000 </r>
      </set>
      <set comment="kpoint 14">
       <r>  -18.2920    1.0000 </r>
       <r>  -17.2823    1.0000 </r>
       <r>  -16.4484    1.0000 </r>
       <r>  -16.1959    1.0000 </r>
       <r>  -16.1657    1.0000 </r>
       <r>  -16.1350    1.0000 </r>
       <r>   -7.8446    1.0000 </r>
       <r>   -6.3441    1.0000 </r>
       <r>   -4.4906    1.0000 </r>
       <r>   -4.4143    1.0000 </r>
       <r>   -4.3653    1.0000 </r>
       <r>   -3.8672    1.0000 </r>
       <r>   -1.9392    1.0000 </r>
       <r>   -1.6605    1.0000 </r>
       <r>   -1.5596    1.0000 </r>
       <r>   -1.2275    1.0000 </r>
       <r>   -0.5995    1.0000 </r>
       <r>   -0.4784    1.0000 </r>
       <r>   -0.4184    1.0000 </r>
       <r>   -0.2786    1.0000 </r>
       <r>    0.0830    1.0000 </r>
       <r>    0.5247    1.0000 </r>
       <r>    0.8151    1.0000 </r>
       <r>    0.9747    1.0000 </r>
       <r>    7.5167    0.0000 </r>
       <r>   10.2555    0.0000 </r>
       <r>   10.4203    0.0000 </r>
       <r>   10.5231    0.0000 </r>
       <r>   11.2243    0.0000 </r>
      </set>
      <set comment="kpoint 15">
       <r>  -18.2146    1.0000 </r>
       <r>  -17.2813    1.0000 </r>
       <r>  -16.5315    1.0000 </r>
       <r>  -16.2107    1.0000 </r>
       <r>  -16.1847    1.0000 </r>
       <r>  -16.1460    1.0000 </r>
       <r>   -7.6996    1.0000 </r>
       <r>   -6.3523    1.0000 </r>
       <r>   -4.6690    1.0000 </r>
       <r>   -4.3723    1.0000 </r>
       <r>   -4.1760    1.0000 </r>
       <r>   -3.9168    1.0000 </r>
       <r>   -2.0394    1.0000 </r>
       <r>   -1.6446    1.0000 </r>
       <r>   -1.5237    1.0000 </r>
       <r>   -1.1498    1.0000 </r>
       <r>   -0.8292    1.0000 </r>
       <r>   -0.4926    1.0000 </r>
       <r>   -0.3892    1.0000 </r>
       <r>   -0.2346    1.0000 </r>
       <r>    0.1659    1.0000 </r>
       <r>    0.4208    1.0000 </r>
       <r>    0.7565    1.0000 </r>
       <r>    1.0164    1.0000 </r>
       <r>    7.8927    0.0000 </r>
       <r>   10.2697    0.0000 </r>
       <r>   10.5122    0.0000 </r>
       <r>   10.6069    0.0000 </r>
       <r>   11.3014    0.0000 </r>
      </set>
      <set comment="kpoint 16">
       <r>  -18.0129    1.0000 </r>
       <r>  -17.3215    1.0000 </r>
       <r>  -16.7178    1.0000 </r>
       <r>  -16.2382    1.0000 </r>
       <r>  -16.2111    1.0000 </r>
       <r>  -16.1660    1.0000 </r>
       <r>   -7.4064    1.0000 </r>
       <r>   -6.3241    1.0000 </r>
       <r>   -4.9040    1.0000 </r>
       <r>   -4.3310    1.0000 </r>
       <r>   -4.0949    1.0000 </r>
       <r>   -3.8206    1.0000 </r>
       <r>   -2.1346    1.0000 </r>
       <r>   -1.7071    1.0000 </r>
       <r>   -1.4700    1.0000 </r>
       <r>   -1.2070    1.0000 </r>
       <r>   -0.8911    1.0000 </r>
       <r>   -0.5976    1.0000 </r>
       <r>   -0.4868    1.0000 </r>
       <r>   -0.0495    1.0000 </r>
       <r>    0.1655    1.0000 </r>
       <r>    0.2852    1.0000 </r>
       <r>    0.7992    1.0000 </r>
       <r>    0.9717    1.0000 </r>
       <r>    8.8086    0.0000 </r>
       <r>   10.3219    0.0000 </r>
       <r>   10.5757    0.0000 </r>
       <r>   11.0592    0.0000 </r>
       <r>   11.5391    0.0000 </r>
      </set>
      <set comment="kpoint 17">
       <r>  -17.8579    1.0000 </r>
       <r>  -17.3902    1.0000 </r>
       <r>  -16.8283    1.0000 </r>
       <r>  -16.2470    1.0000 </r>
       <r>  -16.2127    1.0000 </r>
       <r>  -16.1783    1.0000 </r>
       <r>   -7.2675    1.0000 </r>
       <r>   -6.2688    1.0000 </r>
       <r>   -5.0395    1.0000 </r>
       <r>   -4.3526    1.0000 </r>
       <r>   -4.1003    1.0000 </r>
       <r>   -3.6670    1.0000 </r>
       <r>   -2.0429    1.0000 </r>
       <r>   -1.9418    1.0000 </r>
       <r>   -1.4665    1.0000 </r>
       <r>   -1.2570    1.0000 </r>
       <r>   -0.8407    1.0000 </r>
       <r>   -0.7207    1.0000 </r>
       <r>   -0.4163    1.0000 </r>
       <r>   -0.0682    1.0000 </r>
       <r>    0.1447    1.0000 </r>
       <r>    0.3374    1.0000 </r>
       <r>    0.7262    1.0000 </r>
       <r>    1.0023    1.0000 </r>
       <r>    9.5745    0.0000 </r>
       <r>   10.1844    0.0000 </r>
       <r>   10.6876    0.0000 </r>
       <r>   11.1558    0.0000 </r>
       <r>   11.5838    0.0000 </r>
      </set>
      <set comment="kpoint 18">
       <r>  -18.0166    1.0000 </r>
       <r>  -17.3014    1.0000 </r>
       <r>  -16.7513    1.0000 </r>
       <r>  -16.2303    1.0000 </r>
       <r>  -16.1901    1.0000 </r>
       <r>  -16.1774    1.0000 </r>
       <r>   -7.4101    1.0000 </r>
       <r>   -6.3255    1.0000 </r>
       <r>   -4.9056    1.0000 </r>
       <r>   -4.3703    1.0000 </r>
       <r>   -4.0717    1.0000 </r>
       <r>   -3.7711    1.0000 </r>
       <r>   -2.0703    1.0000 </r>
       <r>   -1.6986    1.0000 </r>
       <r>   -1.5231    1.0000 </r>
       <r>   -1.3855    1.0000 </r>
       <r>   -0.9207    1.0000 </r>
       <r>   -0.4960    1.0000 </r>
       <r>   -0.3426    1.0000 </r>
       <r>   -0.0854    1.0000 </r>
       <r>    0.0675    1.0000 </r>
       <r>    0.3991    1.0000 </r>
       <r>    0.6413    1.0000 </r>
       <r>    1.0652    1.0000 </r>
       <r>    8.7749    0.0000 </r>
       <r>   10.3820    0.0000 </r>
       <r>   10.7681    0.0000 </r>
       <r>   11.1861    0.0000 </r>
       <r>   11.3687    0.0000 </r>
      </set>
      <set comment="kpoint 19">
       <r>  -18.2152    1.0000 </r>
       <r>  -17.2773    1.0000 </r>
       <r>  -16.5426    1.0000 </r>
       <r>  -16.2093    1.0000 </r>
       <r>  -16.1743    1.0000 </r>
       <r>  -16.1501    1.0000 </r>
       <r>   -7.7007    1.0000 </r>
       <r>   -6.3524    1.0000 </r>
       <r>   -4.6732    1.0000 </r>
       <r>   -4.3734    1.0000 </r>
       <r>   -4.1902    1.0000 </r>
       <r>   -3.8883    1.0000 </r>
       <r>   -2.0127    1.0000 </r>
       <r>   -1.6619    1.0000 </r>
       <r>   -1.5182    1.0000 </r>
       <r>   -1.2005    1.0000 </r>
       <r>   -0.8724    1.0000 </r>
       <r>   -0.4073    1.0000 </r>
       <r>   -0.3781    1.0000 </r>
       <r>   -0.2550    1.0000 </r>
       <r>    0.1961    1.0000 </r>
       <r>    0.3822    1.0000 </r>
       <r>    0.7310    1.0000 </r>
       <r>    1.0460    1.0000 </r>
       <r>    7.8830    0.0000 </r>
       <r>   10.3084    0.0000 </r>
       <r>   10.5372    0.0000 </r>
       <r>   10.6567    0.0000 </r>
       <r>   11.2351    0.0000 </r>
      </set>
      <set comment="kpoint 20">
       <r>  -18.0738    1.0000 </r>
       <r>  -17.2941    1.0000 </r>
       <r>  -16.6846    1.0000 </r>
       <r>  -16.2266    1.0000 </r>
       <r>  -16.2012    1.0000 </r>
       <r>  -16.1627    1.0000 </r>
       <r>   -7.4828    1.0000 </r>
       <r>   -6.3261    1.0000 </r>
       <r>   -4.8827    1.0000 </r>
       <r>   -4.3372    1.0000 </r>
       <r>   -4.0678    1.0000 </r>
       <r>   -3.8562    1.0000 </r>
       <r>   -2.0915    1.0000 </r>
       <r>   -1.6449    1.0000 </r>
       <r>   -1.5263    1.0000 </r>
       <r>   -1.2541    1.0000 </r>
       <r>   -0.9387    1.0000 </r>
       <r>   -0.4892    1.0000 </r>
       <r>   -0.4078    1.0000 </r>
       <r>   -0.1269    1.0000 </r>
       <r>    0.1824    1.0000 </r>
       <r>    0.3131    1.0000 </r>
       <r>    0.7169    1.0000 </r>
       <r>    1.0341    1.0000 </r>
       <r>    8.5237    0.0000 </r>
       <r>   10.3282    0.0000 </r>
       <r>   10.7388    0.0000 </r>
       <r>   10.8907    0.0000 </r>
       <r>   11.3566    0.0000 </r>
      </set>
      <set comment="kpoint 21">
       <r>  -17.8596    1.0000 </r>
       <r>  -17.3884    1.0000 </r>
       <r>  -16.8252    1.0000 </r>
       <r>  -16.2457    1.0000 </r>
       <r>  -16.2214    1.0000 </r>
       <r>  -16.1750    1.0000 </r>
       <r>   -7.2807    1.0000 </r>
       <r>   -6.1850    1.0000 </r>
       <r>   -5.1810    1.0000 </r>
       <r>   -4.3153    1.0000 </r>
       <r>   -4.0678    1.0000 </r>
       <r>   -3.6853    1.0000 </r>
       <r>   -2.0874    1.0000 </r>
       <r>   -1.8096    1.0000 </r>
       <r>   -1.5837    1.0000 </r>
       <r>   -1.1272    1.0000 </r>
       <r>   -0.8943    1.0000 </r>
       <r>   -0.7020    1.0000 </r>
       <r>   -0.4157    1.0000 </r>
       <r>   -0.1329    1.0000 </r>
       <r>    0.1270    1.0000 </r>
       <r>    0.3797    1.0000 </r>
       <r>    0.7436    1.0000 </r>
       <r>    0.9764    1.0000 </r>
       <r>    9.4582    0.0000 </r>
       <r>   10.4469    0.0000 </r>
       <r>   10.6067    0.0000 </r>
       <r>   11.2124    0.0000 </r>
       <r>   11.4315    0.0000 </r>
      </set>
      <set comment="kpoint 22">
       <r>  -17.8623    1.0000 </r>
       <r>  -17.3791    1.0000 </r>
       <r>  -16.8370    1.0000 </r>
       <r>  -16.2408    1.0000 </r>
       <r>  -16.2200    1.0000 </r>
       <r>  -16.1760    1.0000 </r>
       <r>   -7.2819    1.0000 </r>
       <r>   -6.1862    1.0000 </r>
       <r>   -5.1807    1.0000 </r>
       <r>   -4.3246    1.0000 </r>
       <r>   -4.0616    1.0000 </r>
       <r>   -3.6705    1.0000 </r>
       <r>   -2.0515    1.0000 </r>
       <r>   -1.8364    1.0000 </r>
       <r>   -1.6020    1.0000 </r>
       <r>   -1.1808    1.0000 </r>
       <r>   -0.9065    1.0000 </r>
       <r>   -0.6677    1.0000 </r>
       <r>   -0.3181    1.0000 </r>
       <r>   -0.1810    1.0000 </r>
       <r>    0.0774    1.0000 </r>
       <r>    0.4612    1.0000 </r>
       <r>    0.6568    1.0000 </r>
       <r>    1.0126    1.0000 </r>
       <r>    9.4478    0.0000 </r>
       <r>   10.3559    0.0000 </r>
       <r>   10.9142    0.0000 </r>
       <r>   11.0755    0.0000 </r>
       <r>   11.6327    0.0000 </r>
      </set>
      <set comment="kpoint 23">
       <r>  -18.0738    1.0000 </r>
       <r>  -17.2942    1.0000 </r>
       <r>  -16.6847    1.0000 </r>
       <r>  -16.2266    1.0000 </r>
       <r>  -16.2012    1.0000 </r>
       <r>  -16.1627    1.0000 </r>
       <r>   -7.4828    1.0000 </r>
       <r>   -6.3262    1.0000 </r>
       <r>   -4.8827    1.0000 </r>
       <r>   -4.3372    1.0000 </r>
       <r>   -4.0679    1.0000 </r>
       <r>   -3.8562    1.0000 </r>
       <r>   -2.0915    1.0000 </r>
       <r>   -1.6450    1.0000 </r>
       <r>   -1.5263    1.0000 </r>
       <r>   -1.2540    1.0000 </r>
       <r>   -0.9387    1.0000 </r>
       <r>   -0.4892    1.0000 </r>
       <r>   -0.4077    1.0000 </r>
       <r>   -0.1269    1.0000 </r>
       <r>    0.1824    1.0000 </r>
       <r>    0.3130    1.0000 </r>
       <r>    0.7170    1.0000 </r>
       <r>    1.0342    1.0000 </r>
       <r>    8.5237    0.0000 </r>
       <r>   10.3282    0.0000 </r>
       <r>   10.7394    0.0000 </r>
       <r>   10.8908    0.0000 </r>
       <r>   11.3666    0.0000 </r>
      </set>
      <set comment="kpoint 24">
       <r>  -18.2146    1.0000 </r>
       <r>  -17.2813    1.0000 </r>
       <r>  -16.5315    1.0000 </r>
       <r>  -16.2107    1.0000 </r>
       <r>  -16.1848    1.0000 </r>
       <r>  -16.1459    1.0000 </r>
       <r>   -7.6996    1.0000 </r>
       <r>   -6.3523    1.0000 </r>
       <r>   -4.6690    1.0000 </r>
       <r>   -4.3723    1.0000 </r>
       <r>   -4.1760    1.0000 </r>
       <r>   -3.9168    1.0000 </r>
       <r>   -2.0395    1.0000 </r>
       <r>   -1.6445    1.0000 </r>
       <r>   -1.5237    1.0000 </r>
       <r>   -1.1497    1.0000 </r>
       <r>   -0.8293    1.0000 </r>
       <r>   -0.4926    1.0000 </r>
       <r>   -0.3893    1.0000 </r>
       <r>   -0.2346    1.0000 </r>
       <r>    0.1659    1.0000 </r>
       <r>    0.4208    1.0000 </r>
       <r>    0.7566    1.0000 </r>
       <r>    1.0164    1.0000 </r>
       <r>    7.8927    0.0000 </r>
       <r>   10.2698    0.0000 </r>
       <r>   10.5122    0.0000 </r>
       <r>   10.6069    0.0000 </r>
       <r>   11.3069    0.0000 </r>
      </set>
      <set comment="kpoint 25">
       <r>  -17.8623    1.0000 </r>
       <r>  -17.3791    1.0000 </r>
       <r>  -16.8369    1.0000 </r>
       <r>  -16.2408    1.0000 </r>
       <r>  -16.2200    1.0000 </r>
       <r>  -16.1761    1.0000 </r>
       <r>   -7.2819    1.0000 </r>
       <r>   -6.1861    1.0000 </r>
       <r>   -5.1807    1.0000 </r>
       <r>   -4.3247    1.0000 </r>
       <r>   -4.0616    1.0000 </r>
       <r>   -3.6705    1.0000 </r>
       <r>   -2.0515    1.0000 </r>
       <r>   -1.8363    1.0000 </r>
       <r>   -1.6020    1.0000 </r>
       <r>   -1.1808    1.0000 </r>
       <r>   -0.9064    1.0000 </r>
       <r>   -0.6677    1.0000 </r>
       <r>   -0.3181    1.0000 </r>
       <r>   -0.1811    1.0000 </r>
       <r>    0.0775    1.0000 </r>
       <r>    0.4612    1.0000 </r>
       <r>    0.6568    1.0000 </r>
       <r>    1.0126    1.0000 </r>
       <r>    9.4478    0.0000 </r>
       <r>   10.3558    0.0000 </r>
       <r>   10.9145    0.0000 </r>
       <r>   11.0685    0.0000 </r>
       <r>   11.5800    0.0000 </r>
      </set>
      <set comment="kpoint 26">
       <r>  -17.7344    1.0000 </r>
       <r>  -17.4726    1.0000 </r>
       <r>  -16.8759    1.0000 </r>
       <r>  -16.2402    1.0000 </r>
       <r>  -16.2376    1.0000 </r>
       <r>  -16.1783    1.0000 </r>
       <r>   -7.2361    1.0000 </r>
       <r>   -5.9298    1.0000 </r>
       <r>   -5.5133    1.0000 </r>
       <r>   -4.2927    1.0000 </r>
       <r>   -4.0573    1.0000 </r>
       <r>   -3.6125    1.0000 </r>
       <r>   -2.0553    1.0000 </r>
       <r>   -1.7517    1.0000 </r>
       <r>   -1.7482    1.0000 </r>
       <r>   -0.9632    1.0000 </r>
       <r>   -0.9072    1.0000 </r>
       <r>   -0.8405    1.0000 </r>
       <r>   -0.3582    1.0000 </r>
       <r>   -0.2025    1.0000 </r>
       <r>    0.0317    1.0000 </r>
       <r>    0.5792    1.0000 </r>
       <r>    0.6248    1.0000 </r>
       <r>    0.9715    1.0000 </r>
       <r>   10.0571    0.0000 </r>
       <r>   10.2571    0.0000 </r>
       <r>   10.6667    0.0000 </r>
       <r>   11.3910    0.0000 </r>
       <r>   11.4835    0.0000 </r>
      </set>
      <set comment="kpoint 27">
       <r>  -17.8596    1.0000 </r>
       <r>  -17.3885    1.0000 </r>
       <r>  -16.8253    1.0000 </r>
       <r>  -16.2457    1.0000 </r>
       <r>  -16.2214    1.0000 </r>
       <r>  -16.1749    1.0000 </r>
       <r>   -7.2806    1.0000 </r>
       <r>   -6.1851    1.0000 </r>
       <r>   -5.1810    1.0000 </r>
       <r>   -4.3152    1.0000 </r>
       <r>   -4.0678    1.0000 </r>
       <r>   -3.6853    1.0000 </r>
       <r>   -2.0874    1.0000 </r>
       <r>   -1.8096    1.0000 </r>
       <r>   -1.5838    1.0000 </r>
       <r>   -1.1271    1.0000 </r>
       <r>   -0.8943    1.0000 </r>
       <r>   -0.7020    1.0000 </r>
       <r>   -0.4157    1.0000 </r>
       <r>   -0.1329    1.0000 </r>
       <r>    0.1271    1.0000 </r>
       <r>    0.3796    1.0000 </r>
       <r>    0.7436    1.0000 </r>
       <r>    0.9764    1.0000 </r>
       <r>    9.4582    0.0000 </r>
       <r>   10.4470    0.0000 </r>
       <r>   10.6070    0.0000 </r>
       <r>   11.2126    0.0000 </r>
       <r>   11.4352    0.0000 </r>
      </set>
      <set comment="kpoint 28">
       <r>  -18.0129    1.0000 </r>
       <r>  -17.3216    1.0000 </r>
       <r>  -16.7179    1.0000 </r>
       <r>  -16.2382    1.0000 </r>
       <r>  -16.2111    1.0000 </r>
       <r>  -16.1658    1.0000 </r>
       <r>   -7.4064    1.0000 </r>
       <r>   -6.3242    1.0000 </r>
       <r>   -4.9040    1.0000 </r>
       <r>   -4.3309    1.0000 </r>
       <r>   -4.0949    1.0000 </r>
       <r>   -3.8206    1.0000 </r>
       <r>   -2.1347    1.0000 </r>
       <r>   -1.7071    1.0000 </r>
       <r>   -1.4700    1.0000 </r>
       <r>   -1.2069    1.0000 </r>
       <r>   -0.8910    1.0000 </r>
       <r>   -0.5977    1.0000 </r>
       <r>   -0.4868    1.0000 </r>
       <r>   -0.0496    1.0000 </r>
       <r>    0.1655    1.0000 </r>
       <r>    0.2852    1.0000 </r>
       <r>    0.7992    1.0000 </r>
       <r>    0.9718    1.0000 </r>
       <r>    8.8086    0.0000 </r>
       <r>   10.3220    0.0000 </r>
       <r>   10.5748    0.0000 </r>
       <r>   11.0684    0.0000 </r>
       <r>   11.4600    0.0000 </r>
      </set>
      <set comment="kpoint 29">
       <r>  -17.8596    1.0000 </r>
       <r>  -17.3884    1.0000 </r>
       <r>  -16.8253    1.0000 </r>
       <r>  -16.2457    1.0000 </r>
       <r>  -16.2214    1.0000 </r>
       <r>  -16.1750    1.0000 </r>
       <r>   -7.2807    1.0000 </r>
       <r>   -6.1850    1.0000 </r>
       <r>   -5.1810    1.0000 </r>
       <r>   -4.3153    1.0000 </r>
       <r>   -4.0678    1.0000 </r>
       <r>   -3.6853    1.0000 </r>
       <r>   -2.0874    1.0000 </r>
       <r>   -1.8096    1.0000 </r>
       <r>   -1.5837    1.0000 </r>
       <r>   -1.1271    1.0000 </r>
       <r>   -0.8943    1.0000 </r>
       <r>   -0.7020    1.0000 </r>
       <r>   -0.4157    1.0000 </r>
       <r>   -0.1329    1.0000 </r>
       <r>    0.1271    1.0000 </r>
       <r>    0.3796    1.0000 </r>
       <r>    0.7436    1.0000 </r>
       <r>    0.9764    1.0000 </r>
       <r>    9.4582    0.0000 </r>
       <r>   10.4472    0.0000 </r>
       <r>   10.6065    0.0000 </r>
       <r>   11.2094    0.0000 </r>
       <r>   11.4694    0.0000 </r>
      </set>
      <set comment="kpoint 30">
       <r>  -17.8623    1.0000 </r>
       <r>  -17.3792    1.0000 </r>
       <r>  -16.8370    1.0000 </r>
       <r>  -16.2408    1.0000 </r>
       <r>  -16.2200    1.0000 </r>
       <r>  -16.1760    1.0000 </r>
       <r>   -7.2819    1.0000 </r>
       <r>   -6.1862    1.0000 </r>
       <r>   -5.1807    1.0000 </r>
       <r>   -4.3246    1.0000 </r>
       <r>   -4.0616    1.0000 </r>
       <r>   -3.6705    1.0000 </r>
       <r>   -2.0515    1.0000 </r>
       <r>   -1.8364    1.0000 </r>
       <r>   -1.6020    1.0000 </r>
       <r>   -1.1808    1.0000 </r>
       <r>   -0.9064    1.0000 </r>
[...]
       <r>    0.9137    1.0000 </r>
       <r>   10.0002    0.0000 </r>
       <r>   10.3875    0.0000 </r>
       <r>   10.7542    0.0000 </r>
       <r>   11.1238    0.0000 </r>
       <r>   11.4820    0.0000 </r>
      </set>
      <set comment="kpoint 53">
       <r>  -17.9073    1.0000 </r>
       <r>  -17.5792    1.0000 </r>
       <r>  -16.5689    1.0000 </r>
       <r>  -16.2353    1.0000 </r>
       <r>  -16.1892    1.0000 </r>
       <r>  -16.1635    1.0000 </r>
       <r>   -7.6766    1.0000 </r>
       <r>   -5.8214    1.0000 </r>
       <r>   -5.2239    1.0000 </r>
       <r>   -4.3083    1.0000 </r>
       <r>   -4.1478    1.0000 </r>
       <r>   -3.7656    1.0000 </r>
       <r>   -2.0574    1.0000 </r>
       <r>   -1.8368    1.0000 </r>
       <r>   -1.3839    1.0000 </r>
       <r>   -1.2409    1.0000 </r>
       <r>   -0.9321    1.0000 </r>
       <r>   -0.4933    1.0000 </r>
       <r>   -0.3518    1.0000 </r>
       <r>   -0.1425    1.0000 </r>
       <r>    0.0919    1.0000 </r>
       <r>    0.4608    1.0000 </r>
       <r>    0.7471    1.0000 </r>
       <r>    0.9122    1.0000 </r>
       <r>    9.2333    0.0000 </r>
       <r>   10.0955    0.0000 </r>
       <r>   10.5342    0.0000 </r>
       <r>   10.9392    0.0000 </r>
       <r>   11.6236    0.0000 </r>
      </set>
      <set comment="kpoint 54">
       <r>  -17.8799    1.0000 </r>
       <r>  -17.5236    1.0000 </r>
       <r>  -16.6730    1.0000 </r>
       <r>  -16.2440    1.0000 </r>
       <r>  -16.1852    1.0000 </r>
       <r>  -16.1664    1.0000 </r>
       <r>   -7.5409    1.0000 </r>
       <r>   -5.9344    1.0000 </r>
       <r>   -5.2217    1.0000 </r>
       <r>   -4.3305    1.0000 </r>
       <r>   -4.0566    1.0000 </r>
       <r>   -3.7810    1.0000 </r>
       <r>   -2.0785    1.0000 </r>
       <r>   -1.9417    1.0000 </r>
       <r>   -1.3156    1.0000 </r>
       <r>   -1.2515    1.0000 </r>
       <r>   -1.0004    1.0000 </r>
       <r>   -0.4071    1.0000 </r>
       <r>   -0.2964    1.0000 </r>
       <r>   -0.1068    1.0000 </r>
       <r>    0.1370    1.0000 </r>
       <r>    0.3316    1.0000 </r>
       <r>    0.6360    1.0000 </r>
       <r>    0.9845    1.0000 </r>
       <r>    9.3843    0.0000 </r>
       <r>   10.3590    0.0000 </r>
       <r>   10.5581    0.0000 </r>
       <r>   11.1016    0.0000 </r>
       <r>   11.2152    0.0000 </r>
      </set>
      <set comment="kpoint 55">
       <r>  -18.0038    1.0000 </r>
       <r>  -17.6697    1.0000 </r>
       <r>  -16.3526    1.0000 </r>
       <r>  -16.2077    1.0000 </r>
       <r>  -16.1789    1.0000 </r>
       <r>  -16.1414    1.0000 </r>
       <r>   -8.0257    1.0000 </r>
       <r>   -5.6315    1.0000 </r>
       <r>   -5.0436    1.0000 </r>
       <r>   -4.4253    1.0000 </r>
       <r>   -4.3400    1.0000 </r>
       <r>   -3.6730    1.0000 </r>
       <r>   -1.9145    1.0000 </r>
       <r>   -1.6365    1.0000 </r>
       <r>   -1.4877    1.0000 </r>
       <r>   -1.1451    1.0000 </r>
       <r>   -0.9712    1.0000 </r>
       <r>   -0.5636    1.0000 </r>
       <r>   -0.4466    1.0000 </r>
       <r>   -0.3420    1.0000 </r>
       <r>   -0.0136    1.0000 </r>
       <r>    0.6557    1.0000 </r>
       <r>    0.8204    1.0000 </r>
       <r>    1.0259    1.0000 </r>
       <r>    8.7508    0.0000 </r>
       <r>    9.8411    0.0000 </r>
       <r>   10.3322    0.0000 </r>
       <r>   10.6871    0.0000 </r>
       <r>   11.2793    0.0000 </r>
      </set>
     </set>
    </set>
   </array>
  </eigenvalues>
  <separator name="orbital magnetization" >
   <v name="MAGDIPOLOUT">      0.00000000      0.00000000      0.00000000</v>
  </separator>
  <dos>
   <i name="efermi">      1.10910746 </i>
   <total>
    <array>
     <dimension dim="1">gridpoints</dimension>
     <dimension dim="2">spin</dimension>
     <field>energy</field>
     <field>total</field>
     <field>integrated</field>
     <set>
      <set comment="spin 1">
       <r>   -20.3706     0.0000     0.0000 </r>
       <r>   -20.2571     0.0000     0.0000 </r>
       <r>   -20.1436     0.0000     0.0000 </r>
       <r>   -20.0301     0.0000     0.0000 </r>
       <r>   -19.9166     0.0000     0.0000 </r>
       <r>   -19.8031     0.0000     0.0000 </r>
       <r>   -19.6896     0.0000     0.0000 </r>
       <r>   -19.5761     0.0000     0.0000 </r>
       <r>   -19.4626     0.0000     0.0000 </r>
       <r>   -19.3491     0.0000     0.0000 </r>
       <r>   -19.2356     0.0000     0.0000 </r>
       <r>   -19.1221     0.0000     0.0000 </r>
       <r>   -19.0086     0.0000     0.0000 </r>
       <r>   -18.8951     0.0000     0.0000 </r>
       <r>   -18.7816     0.0000     0.0000 </r>
       <r>   -18.6681     0.0000     0.0000 </r>
       <r>   -18.5546     0.0000     0.0000 </r>
       <r>   -18.4411     0.0000     0.0000 </r>
       <r>   -18.3276     0.2406     0.0034 </r>
       <r>   -18.2141     1.3011     0.1109 </r>
       <r>   -18.1006     2.2298     0.3100 </r>
       <r>   -17.9871     4.0044     0.6636 </r>
       <r>   -17.8736     9.0170     1.2576 </r>
       <r>   -17.7601     0.8119     1.9758 </r>
       <r>   -17.6466     1.0641     2.0592 </r>
       <r>   -17.5331     2.0516     2.2327 </r>
       <r>   -17.4196     6.0237     2.6270 </r>
       <r>   -17.3061     3.4012     3.5745 </r>
       <r>   -17.1926     1.3811     3.8247 </r>
       <r>   -17.0791     0.6629     3.9341 </r>
       <r>   -16.9656     0.9014     4.0064 </r>
       <r>   -16.8521     5.6908     4.3081 </r>
       <r>   -16.7386     4.5081     5.2524 </r>
       <r>   -16.6251     2.2055     5.5951 </r>
       <r>   -16.5116     1.3567     5.7898 </r>
       <r>   -16.3981     0.8466     5.9161 </r>
       <r>   -16.2847     0.3469     5.9898 </r>
       <r>   -16.1712    68.4629    11.0110 </r>
       <r>   -16.0577     0.0000    12.0000 </r>
       <r>   -15.9442     0.0000    12.0000 </r>
       <r>   -15.8307     0.0000    12.0000 </r>
       <r>   -15.7172     0.0000    12.0000 </r>
       <r>   -15.6037     0.0000    12.0000 </r>
       <r>   -15.4902     0.0000    12.0000 </r>
       <r>   -15.3767     0.0000    12.0000 </r>
       <r>   -15.2632     0.0000    12.0000 </r>
       <r>   -15.1497     0.0000    12.0000 </r>
       <r>   -15.0362     0.0000    12.0000 </r>
       <r>   -14.9227     0.0000    12.0000 </r>
       <r>   -14.8092     0.0000    12.0000 </r>
       <r>   -14.6957     0.0000    12.0000 </r>
       <r>   -14.5822     0.0000    12.0000 </r>
       <r>   -14.4687     0.0000    12.0000 </r>
       <r>   -14.3552     0.0000    12.0000 </r>
       <r>   -14.2417     0.0000    12.0000 </r>
       <r>   -14.1282     0.0000    12.0000 </r>
       <r>   -14.0147     0.0000    12.0000 </r>
       <r>   -13.9012     0.0000    12.0000 </r>
       <r>   -13.7877     0.0000    12.0000 </r>
       <r>   -13.6742     0.0000    12.0000 </r>
       <r>   -13.5607     0.0000    12.0000 </r>
       <r>   -13.4472     0.0000    12.0000 </r>
       <r>   -13.3337     0.0000    12.0000 </r>
       <r>   -13.2202     0.0000    12.0000 </r>
       <r>   -13.1067     0.0000    12.0000 </r>
       <r>   -12.9932     0.0000    12.0000 </r>
       <r>   -12.8797     0.0000    12.0000 </r>
       <r>   -12.7662     0.0000    12.0000 </r>
       <r>   -12.6527     0.0000    12.0000 </r>
       <r>   -12.5392     0.0000    12.0000 </r>
       <r>   -12.4257     0.0000    12.0000 </r>
       <r>   -12.3122     0.0000    12.0000 </r>
       <r>   -12.1987     0.0000    12.0000 </r>
       <r>   -12.0852     0.0000    12.0000 </r>
       <r>   -11.9717     0.0000    12.0000 </r>
       <r>   -11.8582     0.0000    12.0000 </r>
       <r>   -11.7447     0.0000    12.0000 </r>
       <r>   -11.6312     0.0000    12.0000 </r>
       <r>   -11.5177     0.0000    12.0000 </r>
       <r>   -11.4042     0.0000    12.0000 </r>
       <r>   -11.2907     0.0000    12.0000 </r>
       <r>   -11.1772     0.0000    12.0000 </r>
       <r>   -11.0637     0.0000    12.0000 </r>
       <r>   -10.9502     0.0000    12.0000 </r>
       <r>   -10.8367     0.0000    12.0000 </r>
       <r>   -10.7232     0.0000    12.0000 </r>
       <r>   -10.6097     0.0000    12.0000 </r>
       <r>   -10.4962     0.0000    12.0000 </r>
       <r>   -10.3827     0.0000    12.0000 </r>
       <r>   -10.2692     0.0000    12.0000 </r>
       <r>   -10.1557     0.0000    12.0000 </r>
       <r>   -10.0422     0.0000    12.0000 </r>
       <r>    -9.9287     0.0000    12.0000 </r>
       <r>    -9.8152     0.0000    12.0000 </r>
       <r>    -9.7017     0.0000    12.0000 </r>
       <r>    -9.5882     0.0000    12.0000 </r>
       <r>    -9.4747     0.0000    12.0000 </r>
       <r>    -9.3612     0.0000    12.0000 </r>
       <r>    -9.2477     0.0000    12.0000 </r>
       <r>    -9.1342     0.0000    12.0000 </r>
       <r>    -9.0207     0.0000    12.0000 </r>
       <r>    -8.9072     0.0000    12.0000 </r>
       <r>    -8.7937     0.0000    12.0000 </r>
       <r>    -8.6802     0.0000    12.0000 </r>
       <r>    -8.5667     0.0000    12.0000 </r>
       <r>    -8.4532     0.0000    12.0000 </r>
       <r>    -8.3397     0.0000    12.0000 </r>
       <r>    -8.2262     0.0000    12.0000 </r>
       <r>    -8.1127     0.2483    12.0128 </r>
       <r>    -7.9992     0.4228    12.0565 </r>
       <r>    -7.8857     0.6224    12.1156 </r>
       <r>    -7.7722     0.8324    12.1985 </r>
       <r>    -7.6587     1.0974    12.3048 </r>
       <r>    -7.5452     1.5151    12.4523 </r>
       <r>    -7.4317     2.3499    12.6609 </r>
       <r>    -7.3182     8.9278    13.1613 </r>
       <r>    -7.2047     2.3897    13.7884 </r>
       <r>    -7.0912     0.6227    13.9430 </r>
       <r>    -6.9777     0.3319    13.9953 </r>
       <r>    -6.8642     0.2050    14.0241 </r>
       <r>    -6.7507     0.3330    14.0544 </r>
       <r>    -6.6372     0.4944    14.1008 </r>
       <r>    -6.5237     0.8105    14.1729 </r>
       <r>    -6.4102     1.3475    14.2932 </r>
       <r>    -6.2967     2.8651    14.5001 </r>
       <r>    -6.1832     6.6342    15.0460 </r>
       <r>    -6.0697     2.5018    15.4815 </r>
       <r>    -5.9562     1.4043    15.6968 </r>
       <r>    -5.8427     0.9191    15.8251 </r>
       <r>    -5.7292     0.6236    15.9119 </r>
       <r>    -5.6157     0.6080    15.9736 </r>
       <r>    -5.5022     0.1016    16.0041 </r>
       <r>    -5.3887     1.8768    16.1046 </r>
       <r>    -5.2752     3.6790    16.4233 </r>
       <r>    -5.1617     2.8843    16.7886 </r>
       <r>    -5.0482     2.8895    17.1176 </r>
       <r>    -4.9347     2.2181    17.4120 </r>
       <r>    -4.8212     1.5463    17.6201 </r>
       <r>    -4.7077     1.1376    17.7712 </r>
       <r>    -4.5942     0.8015    17.8813 </r>
       <r>    -4.4807     1.0245    17.9651 </r>
       <r>    -4.3672    15.0021    18.3119 </r>
       <r>    -4.2537     9.3659    20.0184 </r>
       <r>    -4.1402     5.8585    20.8628 </r>
       <r>    -4.0267     5.3868    21.5920 </r>
       <r>    -3.9132     1.8425    22.1046 </r>
       <r>    -3.7997     8.2317    22.8459 </r>
       <r>    -3.6862     4.3157    23.5728 </r>
       <r>    -3.5727     1.9344    23.9314 </r>
       <r>    -3.4592     0.0005    24.0000 </r>
       <r>    -3.3457     0.0000    24.0000 </r>
       <r>    -3.2322     0.0000    24.0000 </r>
       <r>    -3.1187     0.0000    24.0000 </r>
       <r>    -3.0052     0.0000    24.0000 </r>
       <r>    -2.8917     0.0000    24.0000 </r>
       <r>    -2.7782     0.0000    24.0000 </r>
       <r>    -2.6647     0.0000    24.0000 </r>
       <r>    -2.5512     0.0000    24.0000 </r>
       <r>    -2.4377     0.0000    24.0000 </r>
       <r>    -2.3242     0.0000    24.0000 </r>
       <r>    -2.2107     0.0000    24.0000 </r>
       <r>    -2.0972    11.8968    24.5097 </r>
       <r>    -1.9837     6.5371    25.8333 </r>
       <r>    -1.8702     5.3361    26.4798 </r>
       <r>    -1.7567     6.8948    27.3178 </r>
       <r>    -1.6432     6.7163    28.0591 </r>
       <r>    -1.5297    10.5331    28.8530 </r>
       <r>    -1.4163     5.2032    29.7366 </r>
       <r>    -1.3028     1.0639    30.0285 </r>
       <r>    -1.1893    16.0386    30.7297 </r>
       <r>    -1.0758     2.9060    31.8065 </r>
       <r>    -0.9623    11.1283    32.2822 </r>
       <r>    -0.8488     1.5504    33.8422 </r>
       <r>    -0.7353     2.9048    34.0587 </r>
       <r>    -0.6218     6.0372    34.6843 </r>
       <r>    -0.5083    11.5466    35.6110 </r>
       <r>    -0.3948    16.0063    36.8874 </r>
       <r>    -0.2813     4.8596    37.6748 </r>
       <r>    -0.1678    11.2778    38.3337 </r>
       <r>    -0.0543     9.8589    39.6036 </r>
       <r>     0.0592     7.2815    40.2834 </r>
       <r>     0.1727    11.5292    41.7784 </r>
       <r>     0.2862     2.9802    42.0545 </r>
       <r>     0.3997    12.5470    43.1614 </r>
       <r>     0.5132     4.4056    43.8290 </r>
       <r>     0.6267     4.6140    44.3550 </r>
       <r>     0.7402     9.2431    45.1144 </r>
       <r>     0.8537     4.8432    46.1448 </r>
       <r>     0.9672     9.0237    46.9094 </r>
       <r>     1.0807     0.8923    47.9926 </r>
       <r>     1.1942     0.0000    48.0000 </r>
       <r>     1.3077     0.0000    48.0000 </r>
       <r>     1.4212     0.0000    48.0000 </r>
       <r>     1.5347     0.0000    48.0000 </r>
       <r>     1.6482     0.0000    48.0000 </r>
       <r>     1.7617     0.0000    48.0000 </r>
       <r>     1.8752     0.0000    48.0000 </r>
       <r>     1.9887     0.0000    48.0000 </r>
       <r>     2.1022     0.0000    48.0000 </r>
       <r>     2.2157     0.0000    48.0000 </r>
       <r>     2.3292     0.0000    48.0000 </r>
       <r>     2.4427     0.0000    48.0000 </r>
       <r>     2.5562     0.0000    48.0000 </r>
       <r>     2.6697     0.0000    48.0000 </r>
       <r>     2.7832     0.0000    48.0000 </r>
       <r>     2.8967     0.0000    48.0000 </r>
       <r>     3.0102     0.0000    48.0000 </r>
       <r>     3.1237     0.0000    48.0000 </r>
       <r>     3.2372     0.0000    48.0000 </r>
       <r>     3.3507     0.0000    48.0000 </r>
       <r>     3.4642     0.0000    48.0000 </r>
       <r>     3.5777     0.0000    48.0000 </r>
       <r>     3.6912     0.0000    48.0000 </r>
       <r>     3.8047     0.0000    48.0000 </r>
       <r>     3.9182     0.0000    48.0000 </r>
       <r>     4.0317     0.0000    48.0000 </r>
       <r>     4.1452     0.0000    48.0000 </r>
       <r>     4.2587     0.0000    48.0000 </r>
       <r>     4.3722     0.0000    48.0000 </r>
       <r>     4.4857     0.0000    48.0000 </r>
       <r>     4.5992     0.0000    48.0000 </r>
       <r>     4.7127     0.0000    48.0000 </r>
       <r>     4.8262     0.0000    48.0000 </r>
       <r>     4.9397     0.0000    48.0000 </r>
       <r>     5.0532     0.0000    48.0000 </r>
       <r>     5.1667     0.0000    48.0000 </r>
       <r>     5.2802     0.0000    48.0000 </r>
       <r>     5.3937     0.0000    48.0000 </r>
       <r>     5.5072     0.0000    48.0000 </r>
       <r>     5.6207     0.0000    48.0000 </r>
       <r>     5.7342     0.0000    48.0000 </r>
       <r>     5.8477     0.0000    48.0000 </r>
       <r>     5.9612     0.0000    48.0000 </r>
       <r>     6.0747     0.0000    48.0000 </r>
       <r>     6.1882     0.0000    48.0000 </r>
       <r>     6.3017     0.0000    48.0000 </r>
       <r>     6.4152     0.0000    48.0000 </r>
       <r>     6.5287     0.0000    48.0000 </r>
       <r>     6.6422     0.0000    48.0000 </r>
       <r>     6.7557     0.0000    48.0000 </r>
       <r>     6.8692     0.0000    48.0000 </r>
       <r>     6.9827     0.0000    48.0000 </r>
       <r>     7.0962     0.0000    48.0000 </r>
       <r>     7.2097     0.0076    48.0002 </r>
       <r>     7.3232     0.0404    48.0027 </r>
       <r>     7.4367     0.0991    48.0104 </r>
       <r>     7.5502     0.1894    48.0263 </r>
       <r>     7.6637     0.2402    48.0508 </r>
       <r>     7.7772     0.2737    48.0802 </r>
       <r>     7.8907     0.2908    48.1123 </r>
       <r>     8.0042     0.3353    48.1478 </r>
       <r>     8.1177     0.3824    48.1885 </r>
       <r>     8.2312     0.4320    48.2347 </r>
       <r>     8.3447     0.4840    48.2867 </r>
       <r>     8.4582     0.5381    48.3446 </r>
       <r>     8.5717     0.6582    48.4113 </r>
       <r>     8.6852     0.8095    48.4946 </r>
       <r>     8.7987     0.8108    48.5900 </r>
       <r>     8.9122     0.8706    48.6854 </r>
       <r>     9.0257     0.9322    48.7877 </r>
       <r>     9.1392     0.9958    48.8971 </r>
       <r>     9.2527     1.0610    49.0138 </r>
       <r>     9.3662     1.5206    49.1628 </r>
       <r>     9.4797     1.4160    49.3340 </r>
       <r>     9.5932     1.2516    49.4821 </r>
       <r>     9.7067     1.3547    49.6257 </r>
       <r>     9.8202     1.5084    49.7918 </r>
       <r>     9.9337     2.0481    49.9905 </r>
       <r>    10.0472     1.1660    50.1604 </r>
       <r>    10.1607     1.4912    50.2938 </r>
       <r>    10.2742     4.2227    50.5906 </r>
       <r>    10.3877    11.4026    51.5442 </r>
       <r>    10.5012     3.9416    52.2058 </r>
       <r>    10.6147     7.2072    52.7884 </r>
       <r>    10.7282     7.0474    53.6726 </r>
       <r>    10.8417     3.4997    54.3223 </r>
       <r>    10.9552     2.8075    54.6180 </r>
       <r>    11.0687     6.9951    55.1007 </r>
       <r>    11.1822     3.5443    55.8709 </r>
       <r>    11.2957     4.5576    56.2547 </r>
       <r>    11.4092     5.3356    56.8297 </r>
       <r>    11.5227     6.9349    57.5187 </r>
       <r>    11.6362     0.3143    57.9962 </r>
       <r>    11.7497     0.0000    58.0000 </r>
       <r>    11.8632     0.0000    58.0000 </r>
       <r>    11.9767     0.0000    58.0000 </r>
       <r>    12.0902     0.0000    58.0000 </r>
       <r>    12.2037     0.0000    58.0000 </r>
       <r>    12.3172     0.0000    58.0000 </r>
       <r>    12.4307     0.0000    58.0000 </r>
       <r>    12.5442     0.0000    58.0000 </r>
       <r>    12.6577     0.0000    58.0000 </r>
       <r>    12.7712     0.0000    58.0000 </r>
       <r>    12.8847     0.0000    58.0000 </r>
       <r>    12.9982     0.0000    58.0000 </r>
       <r>    13.1117     0.0000    58.0000 </r>
       <r>    13.2252     0.0000    58.0000 </r>
       <r>    13.3387     0.0000    58.0000 </r>
       <r>    13.4521     0.0000    58.0000 </r>
       <r>    13.5656     0.0000    58.0000 </r>
       <r>    13.6791     0.0000    58.0000 </r>
      </set>
     </set>
    </array>
   </total>
  </dos>
 </calculation>
 <structure name="finalpos" >
  <crystal>
   <varray name="basis" >
    <v>       4.91370000       0.00000000       0.00000000 </v>
    <v>      -2.45685000       4.25538903       0.00000000 </v>
    <v>       0.00000000       0.00000000       5.40513000 </v>
   </varray>
   <i name="volume">    113.01967420 </i>
   <varray name="rec_basis" >
    <v>       0.20351263       0.11749807       0.00000000 </v>
    <v>       0.00000000       0.23499614       0.00000000 </v>
    <v>       0.00000000       0.00000000       0.18500943 </v>
   </varray>
  </crystal>
  <varray name="positions" >
   <v>       0.46980000       0.00000000       0.66667000 </v>
   <v>       0.00000000       0.46980000       0.33333000 </v>
   <v>       0.53020000       0.53020000       0.00000000 </v>
   <v>       0.41450000       0.26620000       0.78560000 </v>
   <v>       0.73380000       0.14830000       0.45227000 </v>
   <v>       0.85170000       0.58550000       0.11893000 </v>
   <v>       0.14830000       0.73380000       0.54773000 </v>
   <v>       0.26620000       0.41450000       0.21440000 </v>
   <v>       0.58550000       0.85170000       0.88107000 </v>
  </varray>
 </structure>
</modeling>
