unknown system                          
   1.00000000000000     
     2.573869    0.000000    0.000000
     1.286934    2.229036    0.000000
     0.000000    0.000000   30.304665
   Cu   H 
     4     1
Direct
  0.000000  0.000000  0.395979
  0.333333  0.333333  0.465326
  0.666667  0.666667  0.534674
  0.000000  0.000000  0.604021
  0.627815  0.666667  0.637020
 
   20   20  240
 -.76573E-02 -.69765E-02 -.52666E-02 -.29593E-02 -.66256E-03 0.97393E-03 0.14549E-02 0.67982E-03 -.90621E-03 -.24372E-02
 -.30582E-02 -.24273E-02 -.92808E-03 0.57115E-03 0.12268E-02 0.63675E-03 -.10591E-02 -.33448E-02 -.55702E-02 -.71433E-02
 -.70278E-02 -.58218E-02 -.38126E-02 -.15559E-02 0.25046E-03 0.94847E-03 0.19539E-03 -.17712E-02 -.40971E-02 -.56572E-02
 -.56580E-02 -.41101E-02 -.18247E-02 0.67484E-04 0.72397E-03 -.64432E-04 -.19195E-02 -.41555E-02 -.60673E-02 -.71170E-02
 -.53608E-02 -.38530E-02 -.19093E-02 -.27314E-03 0.15899E-03 -.13103E-02 -.47036E-02 -.90851E-02 -.12801E-01 -.14258E-01
 -.12801E-01 -.91007E-02 -.47616E-02 -.14387E-02 -.56050E-04 -.56543E-03 -.22351E-02 -.41396E-02 -.55298E-02 -.59756E-02
 -.30873E-02 -.16240E-02 -.29733E-03 -.17567E-03 -.23905E-02 -.74576E-02 -.14617E-01 -.21760E-01 -.26245E-01 -.26240E-01
 -.21755E-01 -.14633E-01 -.75197E-02 -.25187E-02 -.37650E-03 -.55316E-03 -.18870E-02 -.32883E-02 -.40833E-02 -.40077E-02
 -.81102E-03 0.16854E-03 0.12558E-03 -.23980E-02 -.85447E-02 -.18131E-01 -.29065E-01 -.37867E-01 -.41249E-01 -.37865E-01
 -.29069E-01 -.18157E-01 -.86087E-02 -.25107E-02 -.34179E-04 -.16327E-04 -.97863E-03 -.18548E-02 -.21498E-02 -.17540E-02
 0.82646E-03 0.86865E-03 -.13411E-02 -.74624E-02 -.18128E-01 -.31864E-01 -.45016E-01 -.53125E-01 -.53126E-01 -.45023E-01
 -.31879E-01 -.18157E-01 -.75095E-02 -.14087E-02 0.78319E-03 0.73630E-03 0.72775E-05 -.50369E-03 -.47655E-03 0.78196E-04
 0.13357E-02 0.13289E-03 -.47248E-02 -.14616E-01 -.29058E-01 -.45012E-01 -.57647E-01 -.62471E-01 -.57654E-01 -.45024E-01
 -.29071E-01 -.14627E-01 -.47333E-02 0.12346E-03 0.13223E-02 0.78517E-03 -.18649E-04 -.34851E-03 -.77067E-05 0.80074E-03
 0.61087E-03 -.18076E-02 -.90957E-02 -.21755E-01 -.37858E-01 -.53118E-01 -.62469E-01 -.62474E-01 -.53130E-01 -.37866E-01
 -.21751E-01 -.90795E-02 -.17873E-02 0.62702E-03 0.48787E-04 -.14997E-02 -.26031E-02 -.26031E-02 -.15016E-02 0.40673E-04
 -.92127E-03 -.41097E-02 -.12805E-01 -.26240E-01 -.41242E-01 -.53121E-01 -.57652E-01 -.53131E-01 -.41252E-01 -.26239E-01
 -.12792E-01 -.40970E-02 -.92872E-03 -.20078E-02 -.50625E-02 -.78823E-02 -.89771E-02 -.78427E-02 -.50088E-02 -.19706E-02
 -.24162E-02 -.56576E-02 -.14260E-01 -.26237E-01 -.37859E-01 -.45020E-01 -.45024E-01 -.37868E-01 -.26240E-01 -.14258E-01
 -.56710E-02 -.24817E-02 -.44961E-02 -.97540E-02 -.15462E-01 -.19036E-01 -.18966E-01 -.15288E-01 -.95607E-02 -.43553E-02
 -.30301E-02 -.56587E-02 -.12804E-01 -.21752E-01 -.29063E-01 -.31875E-01 -.29069E-01 -.21750E-01 -.12793E-01 -.56740E-02
 -.31388E-02 -.62053E-02 -.13802E-01 -.23121E-01 -.30622E-01 -.33398E-01 -.30370E-01 -.22729E-01 -.13425E-01 -.59521E-02
 -.24141E-02 -.41153E-02 -.90991E-02 -.14622E-01 -.18142E-01 -.18143E-01 -.14613E-01 -.90684E-02 -.40956E-02 -.24970E-02
 -.62296E-02 -.15439E-01 -.28011E-01 -.40048E-01 -.47321E-01 -.47118E-01 -.39529E-01 -.27388E-01 -.14929E-01 -.59445E-02
 -.93083E-03 -.18246E-02 -.47430E-02 -.74876E-02 -.85711E-02 -.74688E-02 -.46910E-02 -.17544E-02 -.92704E-03 -.45428E-02
 -.13887E-01 -.28088E-01 -.43763E-01 -.56005E-01 -.60475E-01 -.55518E-01 -.43002E-01 -.27353E-01 -.13397E-01 -.43463E-02
 0.57219E-03 0.93182E-04 -.13849E-02 -.24475E-02 -.24298E-02 -.13194E-02 0.21359E-03 0.69082E-03 -.20117E-02 -.98542E-02
 -.23303E-01 -.40249E-01 -.56137E-01 -.65684E-01 -.65401E-01 -.55419E-01 -.39408E-01 -.22651E-01 -.95398E-02 -.19903E-02
 0.12582E-02 0.79566E-03 0.49522E-04 -.24938E-03 0.10909E-03 0.93958E-03 0.14726E-02 0.14601E-03 -.50784E-02 -.15626E-01
 -.30911E-01 -.47651E-01 -.60744E-01 -.65537E-01 -.60236E-01 -.46877E-01 -.30206E-01 -.15233E-01 -.50365E-02 -.29612E-04
 0.71367E-03 0.60690E-04 -.40317E-03 -.36389E-03 0.19650E-03 0.96392E-03 0.99357E-03 -.13749E-02 -.79113E-02 -.19250E-01
 -.33761E-01 -.47530E-01 -.55866E-01 -.55634E-01 -.46958E-01 -.33140E-01 -.18860E-01 -.78675E-02 -.15985E-02 0.68175E-03
 -.94427E-03 -.17536E-02 -.20293E-02 -.16479E-02 -.70972E-03 0.28902E-03 0.22889E-03 -.24630E-02 -.90119E-02 -.19194E-01
 -.30740E-01 -.39935E-01 -.43339E-01 -.39618E-01 -.30297E-01 -.18881E-01 -.89902E-02 -.27181E-02 -.15813E-03 -.67025E-04
 -.32194E-02 -.39784E-02 -.39195E-02 -.30294E-02 -.15631E-02 -.20336E-03 -.92870E-04 -.24625E-02 -.78706E-02 -.15486E-01
 -.23035E-01 -.27706E-01 -.27599E-01 -.22791E-01 -.15287E-01 -.78782E-02 -.27211E-02 -.51477E-03 -.63991E-03 -.18968E-02
 -.54677E-02 -.59128E-02 -.53300E-02 -.38425E-02 -.18771E-02 -.19961E-03 0.22284E-03 -.13750E-02 -.50199E-02 -.96959E-02
 -.13625E-01 -.15120E-01 -.13526E-01 -.95974E-02 -.50506E-02 -.16058E-02 -.17760E-03 -.66267E-03 -.22857E-02 -.41247E-02
 -.70879E-02 -.70097E-02 -.58231E-02 -.38161E-02 -.15352E-02 0.29803E-03 0.98098E-03 0.14188E-03 -.19644E-02 -.44241E-02
 -.60494E-02 -.60229E-02 -.43833E-02 -.19966E-02 -.35362E-04 0.65048E-03 -.12739E-03 -.19658E-02 -.41713E-02 -.60516E-02
 0.23059E-03 0.20767E-03 0.18575E-03 0.16397E-03 0.14447E-03 0.13156E-03 0.12781E-03 0.13143E-03 0.13745E-03 0.14112E-03
 0.14095E-03 0.14005E-03 0.14513E-03 0.16291E-03 0.19477E-03 0.23351E-03 0.26581E-03 0.28019E-03 0.27417E-03 0.25449E-03
 0.22476E-03 0.22424E-03 0.23343E-03 0.22777E-03 0.18483E-03 0.96510E-04 -.27366E-04 -.16349E-03 -.28249E-03 -.35545E-03
 -.36036E-03 -.28966E-03 -.15620E-03 0.81136E-05 0.16282E-03 0.27395E-03 0.32560E-03 0.32309E-03 0.28797E-03 0.24794E-03
 0.22131E-03 0.25078E-03 0.27080E-03 0.23423E-03 0.10592E-03 -.11844E-03 -.40531E-03 -.69154E-03 -.90446E-03 -.98558E-03
 -.90983E-03 -.69452E-03 -.39484E-03 -.86161E-04 0.16134E-03 0.30601E-03 0.34582E-03 0.31316E-03 0.25674E-03 0.21957E-03
 0.21520E-03 0.25836E-03 0.24654E-03 0.11811E-03 -.15914E-03 -.56707E-03 -.10318E-02 -.14409E-02 -.16809E-02 -.16811E-02
 -.14412E-02 -.10299E-02 -.55742E-03 -.13521E-03 0.15832E-03 0.29697E-03 0.30701E-03 0.24979E-03 0.19286E-03 0.18044E-03
 0.20376E-03 0.22096E-03 0.12317E-03 -.15382E-03 -.62398E-03 -.12289E-02 -.18409E-02 -.22989E-02 -.24684E-02 -.22979E-02
 -.18397E-02 -.12269E-02 -.61769E-03 -.13951E-03 0.14592E-03 0.24767E-03 0.22715E-03 0.16614E-03 0.13230E-03 0.15266E-03
 0.18843E-03 0.12954E-03 -.10309E-03 -.56200E-03 -.12283E-02 -.19911E-02 -.26675E-02 -.30655E-02 -.30637E-02 -.26640E-02
 -.19897E-02 -.12295E-02 -.56254E-03 -.10016E-03 0.13490E-03 0.19294E-03 0.16053E-03 0.12020E-03 0.11985E-03 0.15857E-03
 0.17255E-03 -.38428E-05 -.39577E-03 -.10297E-02 -.18418E-02 -.26688E-02 -.32913E-02 -.35212E-02 -.32861E-02 -.26634E-02
 -.18413E-02 -.10351E-02 -.40517E-03 -.15378E-04 0.15957E-03 0.19657E-03 0.18041E-03 0.17123E-03 0.18865E-03 0.20923E-03
 0.15857E-03 -.15163E-03 -.68808E-03 -.14415E-02 -.23013E-02 -.30683E-02 -.35228E-02 -.35209E-02 -.30638E-02 -.22974E-02
 -.14424E-02 -.69714E-03 -.16921E-03 0.13565E-03 0.27658E-03 0.32739E-03 0.34288E-03 0.34885E-03 0.34379E-03 0.29920E-03
 0.14739E-03 -.28002E-03 -.90456E-03 -.16822E-02 -.24709E-02 -.30666E-02 -.32882E-02 -.30643E-02 -.24686E-02 -.16821E-02
 -.90763E-03 -.28721E-03 0.13426E-03 0.38892E-03 0.53572E-03 0.61784E-03 0.65048E-03 0.63243E-03 0.55730E-03 0.40850E-03
 0.13953E-03 -.35720E-03 -.98578E-03 -.16811E-02 -.22989E-02 -.26656E-02 -.26643E-02 -.22969E-02 -.16810E-02 -.98559E-03
 -.35348E-03 0.14448E-03 0.50583E-03 0.76102E-03 0.93570E-03 0.10334E-02 0.10427E-02 0.95561E-03 0.77605E-03 0.50834E-03
 0.13605E-03 -.36095E-03 -.90778E-03 -.14394E-02 -.18393E-02 -.19898E-02 -.18408E-02 -.14406E-02 -.90511E-03 -.35166E-03
 0.14902E-03 0.57660E-03 0.93332E-03 0.12161E-02 0.14069E-02 0.14809E-02 0.14216E-02 0.12329E-02 0.93921E-03 0.56908E-03
 0.13860E-03 -.28650E-03 -.69069E-03 -.10284E-02 -.12277E-02 -.12310E-02 -.10361E-02 -.69700E-03 -.28616E-03 0.14545E-03
 0.57642E-03 0.99426E-03 0.13732E-02 0.16710E-02 0.18414E-02 0.18509E-02 0.16924E-02 0.13914E-02 0.99939E-03 0.57069E-03
 0.14889E-03 -.15132E-03 -.39301E-03 -.56057E-03 -.62469E-03 -.57106E-03 -.41353E-03 -.17674E-03 0.12746E-03 0.49914E-03
 0.92649E-03 0.13679E-02 0.17590E-02 0.20340E-02 0.21427E-02 0.20594E-02 0.17923E-02 0.13922E-02 0.94024E-03 0.51297E-03
 0.16791E-03 0.88686E-05 -.92325E-04 -.14881E-03 -.15907E-03 -.12307E-03 -.39067E-04 0.11262E-03 0.36650E-03 0.73874E-03
 0.11950E-02 0.16544E-02 0.20253E-02 0.22383E-02 0.22544E-02 0.20649E-02 0.17003E-02 0.12381E-02 0.78290E-03 0.41780E-03
 0.19434E-03 0.15316E-03 0.14157E-03 0.12876E-03 0.10771E-03 0.90740E-04 0.11345E-03 0.23169E-03 0.49282E-03 0.89469E-03
 0.13699E-02 0.18129E-02 0.21265E-02 0.22489E-02 0.21576E-02 0.18674E-02 0.14385E-02 0.97229E-03 0.57737E-03 0.31903E-03
 0.22306E-03 0.25093E-03 0.27013E-03 0.24841E-03 0.18724E-03 0.12406E-03 0.12542E-03 0.25987E-03 0.55680E-03 0.97958E-03
 0.14362E-02 0.18188E-02 0.20417E-02 0.20587E-02 0.18665E-02 0.15082E-02 0.10718E-02 0.66729E-03 0.38236E-03 0.24540E-03
 0.24589E-03 0.29121E-03 0.29581E-03 0.24080E-03 0.14602E-03 0.69861E-04 0.89214E-04 0.26020E-03 0.58175E-03 0.98940E-03
 0.13834E-02 0.16686E-02 0.17805E-02 0.16960E-02 0.14371E-02 0.10710E-02 0.69516E-03 0.40279E-03 0.24370E-03 0.20880E-03
 0.25590E-03 0.28306E-03 0.25492E-03 0.17232E-03 0.72248E-04 0.18012E-04 0.72578E-04 0.26502E-03 0.57026E-03 0.91605E-03
 0.12121E-02 0.13827E-02 0.13887E-02 0.12351E-02 0.96846E-03 0.66415E-03 0.40184E-03 0.23676E-03 0.18093E-03 0.20475E-03
 0.25227E-03 0.24935E-03 0.19834E-03 0.11427E-03 0.38357E-04 0.21096E-04 0.98361E-04 0.27336E-03 0.51254E-03 0.75569E-03
 0.93580E-03 0.10026E-02 0.94137E-03 0.77886E-03 0.57091E-03 0.37845E-03 0.24462E-03 0.18417E-03 0.18574E-03 0.22050E-03
 0.24109E-03 0.21734E-03 0.16926E-03 0.11152E-03 0.71762E-04 0.77090E-04 0.13963E-03 0.25058E-03 0.38368E-03 0.50322E-03
 0.57450E-03 0.57650E-03 0.51285E-03 0.41217E-03 0.31353E-03 0.24593E-03 0.21683E-03 0.21640E-03 0.22931E-03 0.24168E-03
 0.80371E-02 0.73563E-02 0.56481E-02 0.33441E-02 0.10496E-02 -.58931E-03 -.10791E-02 -.31756E-03 0.12545E-02 0.27748E-02
 0.33910E-02 0.27629E-02 0.12742E-02 -.20948E-03 -.85009E-03 -.25085E-03 0.14469E-02 0.37301E-02 0.59526E-02 0.75238E-02
 0.74078E-02 0.62002E-02 0.41952E-02 0.19437E-02 0.13588E-03 -.57145E-03 0.17036E-03 0.21287E-02 0.44481E-02 0.60001E-02
 0.59941E-02 0.44486E-02 0.21779E-02 0.30528E-03 -.33826E-03 0.45260E-03 0.23054E-02 0.45409E-02 0.64536E-02 0.75014E-02
 0.57424E-02 0.42361E-02 0.22952E-02 0.65833E-03 0.21895E-03 0.16774E-02 0.50623E-02 0.94408E-02 0.13156E-01 0.14610E-01
 0.13149E-01 0.94509E-02 0.51218E-02 0.18120E-02 0.43852E-03 0.95062E-03 0.26196E-02 0.45235E-02 0.59133E-02 0.63580E-02
 0.34720E-02 0.20132E-02 0.68403E-03 0.55387E-03 0.27595E-02 0.78203E-02 0.14975E-01 0.22115E-01 0.26598E-01 0.26594E-01
 0.22112E-01 0.14994E-01 0.78837E-02 0.28877E-02 0.75319E-03 0.93720E-03 0.22732E-02 0.36706E-02 0.44612E-02 0.43865E-02
 0.11982E-02 0.21982E-03 0.25490E-03 0.27683E-02 0.89095E-02 0.18493E-01 0.29421E-01 0.38215E-01 0.41593E-01 0.38213E-01
 0.29427E-01 0.18520E-01 0.89739E-02 0.28796E-02 0.41248E-03 0.40385E-03 0.13669E-02 0.22361E-02 0.25260E-02 0.21337E-02
 -.44171E-03 -.49007E-03 0.17100E-02 0.78261E-02 0.18490E-01 0.32220E-01 0.45360E-01 0.53456E-01 0.53458E-01 0.45366E-01
 0.32235E-01 0.18519E-01 0.78738E-02 0.17804E-02 -.39984E-03 -.34638E-03 0.37899E-03 0.88254E-03 0.85401E-03 0.30424E-03
 -.96019E-03 0.23288E-03 0.50833E-02 0.14974E-01 0.29414E-01 0.45355E-01 0.57971E-01 0.62786E-01 0.57979E-01 0.45368E-01
 0.29428E-01 0.14985E-01 0.50924E-02 0.24466E-03 -.94202E-03 -.40087E-03 0.39708E-03 0.72114E-03 0.38200E-03 -.42232E-03
 -.24941E-03 0.21637E-02 0.94494E-02 0.22109E-01 0.38206E-01 0.53450E-01 0.62784E-01 0.62788E-01 0.53461E-01 0.38216E-01
 0.22108E-01 0.94328E-02 0.21372E-02 -.27060E-03 0.31844E-03 0.18714E-02 0.29710E-02 0.29665E-02 0.18650E-02 0.32380E-03
 0.12684E-02 0.44589E-02 0.13158E-01 0.26592E-01 0.41585E-01 0.53453E-01 0.57977E-01 0.53461E-01 0.41595E-01 0.26592E-01
 0.13144E-01 0.44425E-02 0.12713E-02 0.23550E-02 0.54175E-02 0.82421E-02 0.93364E-02 0.81983E-02 0.53604E-02 0.23190E-02
 0.27531E-02 0.59996E-02 0.14611E-01 0.26591E-01 0.38208E-01 0.45363E-01 0.45369E-01 0.38218E-01 0.26594E-01 0.14607E-01
 0.60125E-02 0.28207E-02 0.48393E-02 0.10103E-01 0.15814E-01 0.19389E-01 0.19320E-01 0.15642E-01 0.99085E-02 0.46954E-02
 0.33630E-02 0.59954E-02 0.13152E-01 0.22109E-01 0.29421E-01 0.32231E-01 0.29427E-01 0.22109E-01 0.13147E-01 0.60176E-02
 0.34755E-02 0.65458E-02 0.14152E-01 0.23475E-01 0.30973E-01 0.33747E-01 0.30721E-01 0.23084E-01 0.13776E-01 0.62928E-02
 0.27500E-02 0.44551E-02 0.94501E-02 0.14982E-01 0.18504E-01 0.18504E-01 0.14972E-01 0.94238E-02 0.44440E-02 0.28393E-02
 0.65725E-02 0.15788E-01 0.28363E-01 0.40397E-01 0.47662E-01 0.47460E-01 0.39879E-01 0.27746E-01 0.15284E-01 0.62877E-02
 0.12767E-02 0.21789E-02 0.51042E-02 0.78505E-02 0.89339E-02 0.78317E-02 0.50508E-02 0.21061E-02 0.12712E-02 0.48878E-02
 0.14240E-01 0.28444E-01 0.44109E-01 0.56335E-01 0.60798E-01 0.55851E-01 0.43351E-01 0.27708E-01 0.13748E-01 0.46903E-02
 -.21158E-03 0.28014E-03 0.17594E-02 0.28160E-02 0.27964E-02 0.16892E-02 0.15460E-03 -.33366E-03 0.23584E-02 0.10202E-01
 0.23659E-01 0.40601E-01 0.56471E-01 0.65997E-01 0.65713E-01 0.55750E-01 0.39758E-01 0.23003E-01 0.98860E-02 0.23378E-02
 -.88292E-03 -.40967E-03 0.33422E-03 0.62614E-03 0.26728E-03 -.55845E-03 -.10930E-02 0.22124E-03 0.54319E-02 0.15975E-01
 0.31260E-01 0.47995E-01 0.61072E-01 0.65853E-01 0.60557E-01 0.47215E-01 0.30558E-01 0.15586E-01 0.53874E-02 0.38866E-03
 -.32880E-03 0.32774E-03 0.78921E-03 0.74794E-03 0.18952E-03 -.57595E-03 -.61009E-03 0.17469E-02 0.82706E-02 0.19601E-01
 0.34106E-01 0.47869E-01 0.56201E-01 0.55969E-01 0.47299E-01 0.33490E-01 0.19215E-01 0.82256E-02 0.19625E-02 -.30702E-03
 0.13316E-02 0.21398E-02 0.24140E-02 0.20337E-02 0.10972E-02 0.96465E-04 0.14954E-03 0.28320E-02 0.93725E-02 0.19548E-01
 0.31089E-01 0.40281E-01 0.43685E-01 0.39968E-01 0.30651E-01 0.19239E-01 0.93505E-02 0.30845E-02 0.53379E-03 0.45106E-03
 0.36045E-02 0.43638E-02 0.43033E-02 0.34118E-02 0.19449E-02 0.58307E-03 0.46655E-03 0.28275E-02 0.82284E-02 0.15841E-01
 0.23390E-01 0.28061E-01 0.27951E-01 0.23142E-01 0.15640E-01 0.82393E-02 0.30897E-02 0.88887E-03 0.10182E-02 0.22791E-02
 0.58498E-02 0.62990E-02 0.57138E-02 0.42214E-02 0.22550E-02 0.57897E-03 0.15287E-03 0.17395E-02 0.53732E-02 0.10046E-01
 0.13978E-01 0.15474E-01 0.13875E-01 0.99425E-02 0.54025E-02 0.19726E-02 0.55600E-03 0.10423E-02 0.26614E-02 0.45008E-02
 0.74683E-02 0.73940E-02 0.62059E-02 0.41962E-02 0.19166E-02 0.85859E-04 -.60167E-03 0.22325E-03 0.23137E-02 0.47656E-02
 0.63913E-02 0.63669E-02 0.47278E-02 0.23449E-02 0.39609E-03 -.27367E-03 0.51318E-03 0.23491E-02 0.45478E-02 0.64269E-02
 0.29691E-04 0.65814E-04 0.12311E-03 0.17691E-03 0.20764E-03 0.21510E-03 0.21512E-03 0.22350E-03 0.24312E-03 0.26413E-03
 0.27335E-03 0.26311E-03 0.23429E-03 0.19482E-03 0.15535E-03 0.12317E-03 0.97653E-04 0.72537E-04 0.45468E-04 0.25707E-04
 0.50493E-04 0.71382E-04 0.95787E-04 0.12375E-03 0.16904E-03 0.25581E-03 0.39756E-03 0.57658E-03 0.74455E-03 0.84588E-03
 0.84557E-03 0.74334E-03 0.57014E-03 0.37414E-03 0.20327E-03 0.88451E-04 0.33744E-04 0.20763E-04 0.25779E-04 0.35843E-04
 0.90869E-04 0.80678E-04 0.77596E-04 0.12108E-03 0.26036E-03 0.52595E-03 0.89674E-03 0.12906E-02 0.15926E-02 0.17051E-02
 0.15918E-02 0.12897E-02 0.89129E-03 0.50497E-03 0.21521E-03 0.56033E-04 0.95460E-05 0.27900E-04 0.63350E-04 0.87154E-04
 0.13013E-03 0.97693E-04 0.11192E-03 0.25383E-03 0.59221E-03 0.11310E-02 0.17784E-02 0.23661E-02 0.27159E-02 0.27153E-02
 0.23654E-02 0.17776E-02 0.11253E-02 0.57329E-03 0.21747E-03 0.63569E-04 0.50195E-04 0.96426E-04 0.14056E-03 0.15258E-03
 0.15331E-03 0.13854E-03 0.24811E-03 0.58942E-03 0.12166E-02 0.20682E-02 0.29572E-02 0.36328E-02 0.38844E-02 0.36316E-02
 0.29570E-02 0.20688E-02 0.12130E-02 0.57593E-03 0.22502E-03 0.11270E-03 0.13289E-03 0.18591E-03 0.21294E-03 0.19651E-03
 0.16282E-03 0.22735E-03 0.51448E-03 0.11283E-02 0.20683E-02 0.31793E-02 0.41817E-02 0.47770E-02 0.47756E-02 0.41795E-02
 0.31794E-02 0.20707E-02 0.11302E-02 0.51429E-03 0.22688E-03 0.16480E-03 0.19875E-03 0.23523E-03 0.23324E-03 0.19493E-03
 0.17357E-03 0.37592E-03 0.88799E-03 0.17764E-02 0.29581E-02 0.41830E-02 0.51125E-02 0.54580E-02 0.51082E-02 0.41785E-02
 0.29578E-02 0.17820E-02 0.89896E-03 0.39142E-03 0.19242E-03 0.16582E-03 0.19073E-03 0.20067E-03 0.17885E-03 0.14730E-03
 0.19751E-03 0.56400E-03 0.12856E-02 0.23655E-02 0.36349E-02 0.47799E-02 0.54597E-02 0.54564E-02 0.47730E-02 0.36307E-02
 0.23674E-02 0.12934E-02 0.57738E-03 0.21732E-03 0.98604E-04 0.86989E-04 0.93378E-04 0.84356E-04 0.64905E-04 0.73881E-04
 0.23249E-03 0.74029E-03 0.15910E-02 0.27166E-02 0.38875E-02 0.47792E-02 0.51106E-02 0.47737E-02 0.38826E-02 0.27166E-02
 0.15938E-02 0.74348E-03 0.23965E-03 0.19065E-04 -.42043E-04 -.49588E-04 -.56108E-04 -.68956E-04 -.67108E-04 0.18606E-05
 0.26418E-03 0.84629E-03 0.17047E-02 0.27158E-02 0.36338E-02 0.41818E-02 0.41797E-02 0.36308E-02 0.27164E-02 0.17072E-02
 0.84535E-03 0.26095E-03 -.45062E-04 -.15768E-03 -.18053E-03 -.18498E-03 -.19612E-03 -.20441E-03 -.17602E-03 -.49341E-04
 0.27695E-03 0.84585E-03 0.15897E-02 0.23637E-02 0.29566E-02 0.31794E-02 0.29575E-02 0.23670E-02 0.15937E-02 0.84576E-03
 0.27197E-03 -.75403E-04 -.22934E-03 -.26709E-03 -.26499E-03 -.26855E-03 -.28504E-03 -.29103E-03 -.24127E-03 -.73821E-04
 0.26397E-03 0.74067E-03 0.12858E-02 0.17745E-02 0.20672E-02 0.20704E-02 0.17827E-02 0.12947E-02 0.74532E-03 0.26365E-03
 -.72298E-04 -.24814E-03 -.30098E-03 -.29313E-03 -.28167E-03 -.29469E-03 -.32317E-03 -.32926E-03 -.26224E-03 -.74130E-04
 0.23035E-03 0.56611E-03 0.88950E-03 0.11260E-02 0.12157E-02 0.11353E-02 0.90600E-03 0.58525E-03 0.24770E-03 -.35685E-04
 -.21795E-03 -.29134E-03 -.28868E-03 -.26469E-03 -.26424E-03 -.29706E-03 -.33503E-03 -.33094E-03 -.24326E-03 -.52810E-04
 0.18936E-03 0.37403E-03 0.51152E-03 0.58474E-03 0.59076E-03 0.53234E-03 0.41206E-03 0.23862E-03 0.40133E-04 -.13514E-03
 -.24175E-03 -.26873E-03 -.24958E-03 -.23672E-03 -.26048E-03 -.30739E-03 -.33357E-03 -.29740E-03 -.18424E-03 -.10134E-04
 0.15453E-03 0.21254E-03 0.23462E-03 0.24469E-03 0.25819E-03 0.26496E-03 0.23350E-03 0.13991E-03 -.18294E-05 -.14035E-03
 -.22445E-03 -.24462E-03 -.23759E-03 -.24844E-03 -.28716E-03 -.32071E-03 -.30435E-03 -.21977E-03 -.87572E-04 0.49687E-04
 0.13144E-03 0.10922E-03 0.88993E-04 0.10765E-03 0.16674E-03 0.22631E-03 0.23041E-03 0.15008E-03 0.95538E-05 -.13042E-03
 -.21993E-03 -.25536E-03 -.27026E-03 -.29308E-03 -.31546E-03 -.30130E-03 -.22486E-03 -.99420E-04 0.28594E-04 0.11153E-03
 0.11466E-03 0.63935E-04 0.53566E-04 0.10905E-03 0.20596E-03 0.28130E-03 0.27479E-03 0.17165E-03 0.12304E-04 -.13937E-03
 -.24155E-03 -.29398E-03 -.31836E-03 -.32463E-03 -.29862E-03 -.22129E-03 -.97370E-04 0.35962E-04 0.12901E-03 0.15177E-03
 0.93645E-04 0.55637E-04 0.78788E-04 0.16549E-03 0.27156E-03 0.32972E-03 0.29257E-03 0.16397E-03 -.64942E-05 -.16011E-03
 -.26393E-03 -.31620E-03 -.32590E-03 -.29353E-03 -.21368E-03 -.92951E-04 0.39230E-04 0.14033E-03 0.17829E-03 0.15174E-03
 0.64584E-04 0.59710E-04 0.11537E-03 0.21219E-03 0.30022E-03 0.32571E-03 0.26338E-03 0.13143E-03 -.22506E-04 -.15181E-03
 -.23245E-03 -.26170E-03 -.24347E-03 -.18037E-03 -.80019E-04 0.35347E-04 0.13115E-03 0.17674E-03 0.16370E-03 0.11272E-03
 0.37458E-04 0.63103E-04 0.13291E-03 0.21649E-03 0.27235E-03 0.27141E-03 0.21238E-03 0.11955E-03 0.26415E-04 -.41922E-04
 -.75963E-04 -.77491E-04 -.51636E-04 -.39091E-05 0.56514E-04 0.11337E-03 0.14650E-03 0.14240E-03 0.10524E-03 0.59171E-04
 -.76896E-02 -.70015E-02 -.52760E-02 -.29610E-02 -.66846E-03 0.96276E-03 0.14471E-02 0.67981E-03 -.90470E-03 -.24415E-02
 -.30661E-02 -.24305E-02 -.92526E-03 0.57145E-03 0.12178E-02 0.62354E-03 -.10662E-02 -.33455E-02 -.55770E-02 -.71660E-02
 -.70522E-02 -.58373E-02 -.38196E-02 -.15633E-02 0.23865E-03 0.93766E-03 0.19096E-03 -.17732E-02 -.41048E-02 -.56707E-02
 -.56675E-02 -.41091E-02 -.18197E-02 0.63944E-04 0.70906E-03 -.80647E-04 -.19277E-02 -.41594E-02 -.60787E-02 -.71396E-02
 -.53690E-02 -.38590E-02 -.19183E-02 -.28883E-03 0.14132E-03 -.13215E-02 -.47074E-02 -.90903E-02 -.12816E-01 -.14278E-01
 -.12815E-01 -.91040E-02 -.47629E-02 -.14483E-02 -.74178E-04 -.58284E-03 -.22450E-02 -.41448E-02 -.55367E-02 -.59852E-02
 -.30876E-02 -.16297E-02 -.31167E-03 -.19647E-03 -.24101E-02 -.74698E-02 -.14623E-01 -.21767E-01 -.26258E-01 -.26257E-01
 -.21769E-01 -.14643E-01 -.75310E-02 -.25352E-02 -.39587E-03 -.56934E-03 -.18963E-02 -.32918E-02 -.40838E-02 -.40070E-02
 -.81637E-03 0.15822E-03 0.10995E-03 -.24162E-02 -.85612E-02 -.18143E-01 -.29074E-01 -.37875E-01 -.41258E-01 -.37873E-01
 -.29078E-01 -.18169E-01 -.86248E-02 -.25301E-02 -.52957E-04 -.30382E-04 -.98675E-03 -.18586E-02 -.21518E-02 -.17566E-02
 0.81482E-03 0.85825E-03 -.13508E-02 -.74729E-02 -.18139E-01 -.31874E-01 -.45024E-01 -.53130E-01 -.53131E-01 -.45028E-01
 -.31886E-01 -.18166E-01 -.75211E-02 -.14229E-02 0.76821E-03 0.72335E-03 -.26679E-05 -.51236E-03 -.48638E-03 0.66674E-04
 0.13270E-02 0.12786E-03 -.47282E-02 -.14621E-01 -.29065E-01 -.45019E-01 -.57650E-01 -.62472E-01 -.57657E-01 -.45032E-01
 -.29080E-01 -.14632E-01 -.47353E-02 0.12052E-03 0.13143E-02 0.77235E-03 -.32835E-04 -.36180E-03 -.20115E-04 0.78933E-03
 0.61027E-03 -.18104E-02 -.91009E-02 -.21762E-01 -.37865E-01 -.53123E-01 -.62470E-01 -.62475E-01 -.53137E-01 -.37879E-01
 -.21764E-01 -.90849E-02 -.17833E-02 0.63299E-03 0.47283E-04 -.15114E-02 -.26190E-02 -.26151E-02 -.15066E-02 0.39988E-04
 -.91971E-03 -.41179E-02 -.12819E-01 -.26252E-01 -.41249E-01 -.53124E-01 -.57655E-01 -.53137E-01 -.41262E-01 -.26253E-01
 -.12805E-01 -.41039E-02 -.92739E-03 -.20028E-02 -.50619E-02 -.78905E-02 -.89894E-02 -.78497E-02 -.50062E-02 -.19638E-02
 -.24204E-02 -.56715E-02 -.14279E-01 -.26252E-01 -.37867E-01 -.45024E-01 -.45032E-01 -.37881E-01 -.26254E-01 -.14269E-01
 -.56799E-02 -.24898E-02 -.45028E-02 -.97577E-02 -.15464E-01 -.19039E-01 -.18972E-01 -.15294E-01 -.95620E-02 -.43543E-02
 -.30385E-02 -.56692E-02 -.12818E-01 -.21765E-01 -.29072E-01 -.31882E-01 -.29079E-01 -.21764E-01 -.12806E-01 -.56834E-02
 -.31459E-02 -.62152E-02 -.13815E-01 -.23132E-01 -.30626E-01 -.33400E-01 -.30375E-01 -.22741E-01 -.13438E-01 -.59628E-02
 -.24182E-02 -.41155E-02 -.91034E-02 -.14632E-01 -.18155E-01 -.18153E-01 -.14620E-01 -.90746E-02 -.41033E-02 -.25060E-02
 -.62401E-02 -.15451E-01 -.28024E-01 -.40058E-01 -.47325E-01 -.47121E-01 -.39538E-01 -.27405E-01 -.14949E-01 -.59581E-02
 -.92855E-03 -.18201E-02 -.47448E-02 -.74995E-02 -.85882E-02 -.74816E-02 -.46940E-02 -.17512E-02 -.92650E-03 -.45504E-02
 -.13901E-01 -.28101E-01 -.43771E-01 -.56008E-01 -.60477E-01 -.55523E-01 -.43012E-01 -.27367E-01 -.13410E-01 -.43518E-02
 0.57285E-03 0.90452E-04 -.13936E-02 -.24635E-02 -.24492E-02 -.13339E-02 0.21023E-03 0.69628E-03 -.20072E-02 -.98582E-02
 -.23314E-01 -.40258E-01 -.56140E-01 -.65683E-01 -.65403E-01 -.55426E-01 -.39416E-01 -.22656E-01 -.95401E-02 -.19887E-02
 0.12503E-02 0.78231E-03 0.33002E-04 -.26725E-03 0.91712E-04 0.92568E-03 0.14649E-02 0.14422E-03 -.50780E-02 -.15627E-01
 -.30914E-01 -.47654E-01 -.60745E-01 -.65539E-01 -.60241E-01 -.46883E-01 -.30210E-01 -.15234E-01 -.50350E-02 -.31326E-04
 0.70171E-03 0.45614E-04 -.41965E-03 -.37895E-03 0.18406E-03 0.95253E-03 0.98127E-03 -.13872E-02 -.79200E-02 -.19253E-01
 -.33760E-01 -.47530E-01 -.55870E-01 -.55641E-01 -.46965E-01 -.33146E-01 -.18865E-01 -.78733E-02 -.16057E-02 0.67263E-03
 -.95048E-03 -.17617E-02 -.20397E-02 -.16574E-02 -.71723E-03 0.27989E-03 0.21450E-03 -.24804E-02 -.90256E-02 -.19201E-01
 -.30743E-01 -.39941E-01 -.43348E-01 -.39626E-01 -.30302E-01 -.18887E-01 -.90008E-02 -.27331E-02 -.17182E-03 -.75814E-04
 -.32197E-02 -.39830E-02 -.39261E-02 -.30342E-02 -.15673E-02 -.21214E-03 -.10710E-03 -.24767E-02 -.78800E-02 -.15493E-01
 -.23046E-01 -.27722E-01 -.27612E-01 -.22796E-01 -.15287E-01 -.78847E-02 -.27365E-02 -.53166E-03 -.64924E-03 -.18981E-02
 -.54745E-02 -.59250E-02 -.53385E-02 -.38444E-02 -.18797E-02 -.20963E-03 0.20968E-03 -.13818E-02 -.50198E-02 -.96991E-02
 -.13639E-01 -.15140E-01 -.13538E-01 -.95976E-02 -.50494E-02 -.16137E-02 -.19210E-03 -.67252E-03 -.22864E-02 -.41240E-02
 -.71108E-02 -.70331E-02 -.58339E-02 -.38165E-02 -.15380E-02 0.28689E-03 0.96981E-03 0.14058E-03 -.19589E-02 -.44244E-02
 -.60606E-02 -.60363E-02 -.43884E-02 -.19949E-02 -.37627E-04 0.64036E-03 -.13726E-03 -.19679E-02 -.41710E-02 -.60615E-02
 0.40523E-03 0.36998E-03 0.31017E-03 0.24566E-03 0.20068E-03 0.18425E-03 0.17678E-03 0.14456E-03 0.75327E-04 -.13866E-05
 -.35299E-04 -.15179E-06 0.83447E-04 0.16970E-03 0.22873E-03 0.26464E-03 0.29838E-03 0.34051E-03 0.38269E-03 0.40835E-03
 0.38468E-03 0.35874E-03 0.32580E-03 0.28493E-03 0.22579E-03 0.12411E-03 -.45533E-04 -.27877E-03 -.51908E-03 -.67514E-03
 -.67552E-03 -.51783E-03 -.26934E-03 -.19548E-04 0.17214E-03 0.29370E-03 0.36173E-03 0.39562E-03 0.40688E-03 0.40175E-03
 0.34105E-03 0.34114E-03 0.32809E-03 0.26347E-03 0.94729E-04 -.22123E-03 -.67759E-03 -.11870E-02 -.15965E-02 -.17561E-02
 -.16009E-02 -.11901E-02 -.67063E-03 -.19687E-03 0.13796E-03 0.31931E-03 0.38485E-03 0.38646E-03 0.36590E-03 0.34775E-03
 0.28987E-03 0.31173E-03 0.27437E-03 0.90149E-04 -.32480E-03 -.99222E-03 -.18183E-02 -.25933E-02 -.30671E-02 -.30693E-02
 -.25984E-02 -.18218E-02 -.98728E-03 -.30575E-03 0.12303E-03 0.31368E-03 0.34701E-03 0.31320E-03 0.27696E-03 0.26898E-03
 0.25090E-03 0.25670E-03 0.10985E-03 -.31982E-03 -.11102E-02 -.22043E-02 -.33746E-02 -.42834E-02 -.46262E-02 -.42817E-02
 -.33735E-02 -.22045E-02 -.11089E-02 -.31258E-03 0.12432E-03 0.27487E-03 0.26686E-03 0.21435E-03 0.18637E-03 0.20530E-03
 0.23117E-03 0.15137E-03 -.20795E-03 -.98701E-03 -.22030E-02 -.36711E-02 -.50215E-02 -.58344E-02 -.58318E-02 -.50158E-02
 -.36669E-02 -.22035E-02 -.99172E-03 -.21372E-03 0.14762E-03 0.23034E-03 0.19213E-03 0.14604E-03 0.14549E-03 0.19132E-03
 0.21289E-03 -.26976E-04 -.66950E-03 -.18154E-02 -.33743E-02 -.50221E-02 -.62913E-02 -.67674E-02 -.62869E-02 -.50178E-02
 -.33745E-02 -.18208E-02 -.67841E-03 -.38849E-04 0.19780E-03 0.21224E-03 0.16349E-03 0.14253E-03 0.17430E-03 0.22823E-03
 0.16659E-03 -.26993E-03 -.11843E-02 -.25931E-02 -.42847E-02 -.58363E-02 -.67687E-02 -.67661E-02 -.58322E-02 -.42851E-02
 -.25990E-02 -.11917E-02 -.27811E-03 0.15257E-03 0.25562E-03 0.21717E-03 0.17313E-03 0.18358E-03 0.24109E-03 0.27846E-03
 0.84364E-04 -.51747E-03 -.15970E-02 -.30681E-02 -.46281E-02 -.58342E-02 -.62886E-02 -.58326E-02 -.46274E-02 -.30693E-02
 -.15990E-02 -.52090E-03 0.75193E-04 0.27836E-03 0.26086E-03 0.18637E-03 0.15794E-03 0.20456E-03 0.28568E-03 0.29730E-03
 -.11435E-05 -.67645E-03 -.17564E-02 -.30695E-02 -.42827E-02 -.50171E-02 -.50184E-02 -.42848E-02 -.30686E-02 -.17513E-02
 -.67081E-03 -.23550E-05 0.26145E-03 0.25030E-03 0.13105E-03 0.40482E-04 0.49623E-04 0.15313E-03 0.27319E-03 0.27473E-03
 -.38255E-04 -.67566E-03 -.15990E-02 -.25967E-02 -.33730E-02 -.36667E-02 -.33738E-02 -.25977E-02 -.15977E-02 -.67021E-03
 -.32201E-04 0.24009E-03 0.20666E-03 0.13384E-04 -.17629E-03 -.24353E-03 -.15226E-03 0.44657E-04 0.22673E-03 0.24332E-03
 -.13831E-05 -.51493E-03 -.11860E-02 -.18196E-02 -.22043E-02 -.22040E-02 -.18211E-02 -.11918E-02 -.52140E-03 -.39457E-05
 0.23769E-03 0.18280E-03 -.83521E-04 -.40068E-03 -.59929E-03 -.57946E-03 -.35581E-03 -.42902E-04 0.20227E-03 0.24163E-03
 0.85940E-04 -.26491E-03 -.66778E-03 -.98830E-03 -.11132E-02 -.99742E-03 -.68425E-03 -.28426E-03 0.67614E-04 0.25145E-03
 0.19502E-03 -.92719E-04 -.50197E-03 -.85091E-03 -.97185E-03 -.80629E-03 -.43772E-03 -.37527E-04 0.22953E-03 0.27224E-03
 0.17386E-03 -.17975E-04 -.20031E-03 -.31516E-03 -.32689E-03 -.23071E-03 -.56722E-04 0.13378E-03 0.25683E-03 0.22448E-03
 -.15049E-04 -.42583E-03 -.86541E-03 -.11396E-02 -.11133E-02 -.79755E-03 -.34246E-03 0.59766E-04 0.28128E-03 0.30068E-03
 0.22979E-03 0.16604E-03 0.12368E-03 0.10060E-03 0.94769E-04 0.11328E-03 0.16135E-03 0.21795E-03 0.22027E-03 0.86008E-04
 -.22314E-03 -.64046E-03 -.99958E-03 -.11251E-02 -.94857E-03 -.55617E-03 -.12840E-03 0.17664E-03 0.30354E-03 0.29494E-03
 0.25860E-03 0.27742E-03 0.29227E-03 0.27582E-03 0.22688E-03 0.17499E-03 0.15381E-03 0.15862E-03 0.12780E-03 -.18569E-04
 -.30010E-03 -.62679E-03 -.83836E-03 -.81386E-03 -.56157E-03 -.21117E-03 0.82214E-04 0.23715E-03 0.27274E-03 0.26066E-03
 0.28476E-03 0.33633E-03 0.34637E-03 0.29458E-03 0.20129E-03 0.11752E-03 0.86440E-04 0.99498E-04 0.90637E-04 -.10292E-04
 -.20298E-03 -.39448E-03 -.46294E-03 -.35632E-03 -.13515E-03 0.79350E-04 0.20018E-03 0.22668E-03 0.21924E-03 0.23497E-03
 0.32264E-03 0.36495E-03 0.34055E-03 0.25073E-03 0.13728E-03 0.60749E-04 0.58004E-04 0.10794E-03 0.14264E-03 0.10649E-03
 0.12481E-04 -.63243E-04 -.50112E-04 0.50862E-04 0.16936E-03 0.23197E-03 0.22461E-03 0.19402E-03 0.19666E-03 0.24967E-03
 0.36572E-03 0.37609E-03 0.31836E-03 0.21210E-03 0.10824E-03 0.62738E-04 0.97195E-04 0.17794E-03 0.24085E-03 0.24680E-03
 0.21501E-03 0.19857E-03 0.22684E-03 0.27569E-03 0.29601E-03 0.26709E-03 0.21797E-03 0.19829E-03 0.23304E-03 0.30392E-03
 0.39751E-03 0.37634E-03 0.30534E-03 0.21070E-03 0.13733E-03 0.12343E-03 0.17006E-03 0.23628E-03 0.27287E-03 0.26567E-03
 0.24401E-03 0.24482E-03 0.27214E-03 0.29597E-03 0.28911E-03 0.25872E-03 0.23910E-03 0.25755E-03 0.31044E-03 0.36843E-03
 0.80062E-02 0.73302E-02 0.56312E-02 0.33329E-02 0.10385E-02 -.60015E-03 -.10852E-02 -.31708E-03 0.12578E-02 0.27767E-02
 0.33920E-02 0.27659E-02 0.12783E-02 -.20966E-03 -.85829E-03 -.26413E-03 0.14341E-02 0.37179E-02 0.59353E-02 0.74975E-02
 0.73816E-02 0.61831E-02 0.41839E-02 0.19315E-02 0.12229E-03 -.58061E-03 0.16916E-03 0.21316E-02 0.44490E-02 0.59991E-02
 0.59961E-02 0.44552E-02 0.21827E-02 0.30104E-03 -.35113E-03 0.43800E-03 0.22927E-02 0.45257E-02 0.64302E-02 0.74721E-02