unknown system                          
   1.00000000000000     
     2.573869    0.000000    0.000000
     1.286934    2.229036    0.000000
     0.000000    0.000000   30.304665
   Cu   H 
     4     1
Direct
  0.000000  0.000000  0.395979
  0.333333  0.333333  0.465326
  0.666667  0.666667  0.534674
  0.000000  0.000000  0.604021
  0.627815  0.666667  0.637020
 
   20   20  240
 -.76573449090E-02 -.69764902913E-02 -.52665869516E-02 -.29593387495E-02 -.66256285334E-03
 0.97392583973E-03 0.14548569505E-02 0.67982106129E-03 -.90621254241E-03 -.24371645665E-02
 -.30581668233E-02 -.24272832171E-02 -.92808027052E-03 0.57115385962E-03 0.12268085407E-02
 0.63674990281E-03 -.10591372401E-02 -.33447626568E-02 -.55702495326E-02 -.71432868133E-02
 -.70278254714E-02 -.58218341857E-02 -.38126436687E-02 -.15559149619E-02 0.25045907020E-03
 0.94846719739E-03 0.19538851142E-03 -.17711737698E-02 -.40970794891E-02 -.56572475907E-02
 -.56580013399E-02 -.41100863497E-02 -.18246708401E-02 0.67483800073E-04 0.72397267732E-03
 -.64431868310E-04 -.19194952799E-02 -.41554812303E-02 -.60673281902E-02 -.71170050604E-02
 -.53608144156E-02 -.38530020026E-02 -.19092964853E-02 -.27314123645E-03 0.15899109749E-03
 -.13103035966E-02 -.47035567234E-02 -.90851146497E-02 -.12801466011E-01 -.14258328965E-01
 -.12801274462E-01 -.91006635389E-02 -.47615548079E-02 -.14386995371E-02 -.56049823954E-04
 -.56543425364E-03 -.22351179198E-02 -.41396279551E-02 -.55297845619E-02 -.59756083784E-02
 -.30872639387E-02 -.16240182135E-02 -.29733449009E-03 -.17566763714E-03 -.23905059126E-02
 -.74576311750E-02 -.14616593751E-01 -.21759592528E-01 -.26244532726E-01 -.26240396404E-01
 -.21755336236E-01 -.14632996975E-01 -.75197421998E-02 -.25187141078E-02 -.37649891490E-03
 -.55315741471E-03 -.18870269163E-02 -.32883117924E-02 -.40833083019E-02 -.40076571388E-02
 -.81102120538E-03 0.16854498335E-03 0.12558014521E-03 -.23979563104E-02 -.85446884303E-02
 -.18130556060E-01 -.29064719850E-01 -.37867159301E-01 -.41249250145E-01 -.37864773545E-01
 -.29069122490E-01 -.18156763434E-01 -.86086560969E-02 -.25106743026E-02 -.34179030607E-04
 -.16326984223E-04 -.97862564405E-03 -.18547825975E-02 -.21498002960E-02 -.17540354923E-02
 0.82645681417E-03 0.86864650567E-03 -.13411359503E-02 -.74624341472E-02 -.18127973830E-01
 -.31863717916E-01 -.45016264680E-01 -.53124826020E-01 -.53126338668E-01 -.45022683301E-01
 -.31879345475E-01 -.18157333808E-01 -.75095213503E-02 -.14086566800E-02 0.78319318186E-03
 0.73629871116E-03 0.72774577120E-05 -.50368818444E-03 -.47654665326E-03 0.78195687934E-04
 0.13357175341E-02 0.13289014068E-03 -.47248321179E-02 -.14615779296E-01 -.29057689770E-01
 -.45011802026E-01 -.57646674258E-01 -.62471064192E-01 -.57653594405E-01 -.45023573226E-01
 -.29070637455E-01 -.14626597526E-01 -.47333204586E-02 0.12346314720E-03 0.13223140138E-02
 0.78516579526E-03 -.18649370588E-04 -.34851450616E-03 -.77066523545E-05 0.80073874827E-03
 0.61087183991E-03 -.18076420059E-02 -.90957062172E-02 -.21755163552E-01 -.37858374445E-01
 -.53118430208E-01 -.62468789258E-01 -.62474261931E-01 -.53130098961E-01 -.37865848985E-01
 -.21750619946E-01 -.90795201744E-02 -.17872579759E-02 0.62702486673E-03 0.48786879724E-04
 -.14996864813E-02 -.26030991062E-02 -.26030623160E-02 -.15016301062E-02 0.40673490403E-04
 -.92127005978E-03 -.41097403547E-02 -.12805135691E-01 -.26239955633E-01 -.41241790128E-01
 -.53121058789E-01 -.57652062043E-01 -.53130574167E-01 -.41251562287E-01 -.26239130805E-01
 -.12792011675E-01 -.40970285473E-02 -.92872170398E-03 -.20078484257E-02 -.50624651496E-02
 -.78822672806E-02 -.89771147315E-02 -.78426805363E-02 -.50087843512E-02 -.19706332829E-02
 -.24161847880E-02 -.56575727570E-02 -.14260345938E-01 -.26237410616E-01 -.37859445391E-01
 -.45019524596E-01 -.45023852098E-01 -.37867593667E-01 -.26240257558E-01 -.14257994115E-01
 -.56709982735E-02 -.24816968786E-02 -.44961187515E-02 -.97540482774E-02 -.15461648201E-01
 -.19035510891E-01 -.18965526615E-01 -.15288393359E-01 -.95606885943E-02 -.43553210515E-02
 -.30301415492E-02 -.56586839933E-02 -.12803852328E-01 -.21751893951E-01 -.29063147775E-01
 -.31875370629E-01 -.29069214557E-01 -.21750149878E-01 -.12792660973E-01 -.56740271954E-02
 -.31387733712E-02 -.62053404521E-02 -.13802066784E-01 -.23120839279E-01 -.30621627743E-01
 -.33398465043E-01 -.30369956117E-01 -.22729052102E-01 -.13424505199E-01 -.59521238747E-02
 -.24141191034E-02 -.41152597390E-02 -.90991324340E-02 -.14621866072E-01 -.18142290909E-01
 -.18143401344E-01 -.14613165713E-01 -.90684198156E-02 -.40956468900E-02 -.24969950615E-02
 -.62296494370E-02 -.15438927478E-01 -.28010553186E-01 -.40047881505E-01 -.47320591615E-01
 -.47118347870E-01 -.39529424732E-01 -.27388497169E-01 -.14929495621E-01 -.59444735851E-02
 -.93083249471E-03 -.18246188363E-02 -.47430458368E-02 -.74876109171E-02 -.85711157987E-02
 -.74688390282E-02 -.46909670773E-02 -.17543863777E-02 -.92704217165E-03 -.45427744001E-02
 -.13887483144E-01 -.28087876192E-01 -.43762713798E-01 -.56004850942E-01 -.60475204896E-01
 -.55517805085E-01 -.43002272093E-01 -.27352893150E-01 -.13397275401E-01 -.43462977840E-02
 0.57219093305E-03 0.93181605877E-04 -.13848857055E-02 -.24475374804E-02 -.24298438553E-02
 -.13193813495E-02 0.21359391739E-03 0.69082257382E-03 -.20117336190E-02 -.98542223750E-02
 -.23303281054E-01 -.40248727205E-01 -.56137074540E-01 -.65683607940E-01 -.65400619666E-01
 -.55419209676E-01 -.39408494332E-01 -.22650925354E-01 -.95397629045E-02 -.19903036253E-02
 0.12582430253E-02 0.79566340034E-03 0.49522493157E-04 -.24937616251E-03 0.10908920152E-03
 0.93957606877E-03 0.14726019537E-02 0.14600729438E-03 -.50783723338E-02 -.15625945263E-01
 -.30910698346E-01 -.47651281754E-01 -.60743731266E-01 -.65536707806E-01 -.60235725244E-01
 -.46876542104E-01 -.30206033703E-01 -.15233391476E-01 -.50365059320E-02 -.29612349614E-04
 0.71367373420E-03 0.60690400375E-04 -.40317141926E-03 -.36389276195E-03 0.19649702813E-03
 0.96391569474E-03 0.99356599583E-03 -.13749057258E-02 -.79113216408E-02 -.19250404881E-01
 -.33761292179E-01 -.47529943404E-01 -.55865801841E-01 -.55634038902E-01 -.46957993437E-01
 -.33140377910E-01 -.18860418376E-01 -.78675334076E-02 -.15984800559E-02 0.68174870587E-03
 -.94427494577E-03 -.17536448605E-02 -.20292778577E-02 -.16478736321E-02 -.70972063560E-03
 0.28901533307E-03 0.22888794078E-03 -.24629994994E-02 -.90119150501E-02 -.19193941076E-01
 -.30739508931E-01 -.39935308520E-01 -.43338530787E-01 -.39617943212E-01 -.30296618860E-01
 -.18881442413E-01 -.89902072620E-02 -.27181348649E-02 -.15813097262E-03 -.67024616328E-04
 -.32193811026E-02 -.39783705284E-02 -.39194549292E-02 -.30294380360E-02 -.15630738399E-02
 -.20335604037E-03 -.92869730707E-04 -.24625274014E-02 -.78705728620E-02 -.15485637010E-01
 -.23034666922E-01 -.27706415668E-01 -.27599317175E-01 -.22791333925E-01 -.15286557388E-01
 -.78782381355E-02 -.27211182017E-02 -.51476567756E-03 -.63991421112E-03 -.18968439397E-02
 -.54677482092E-02 -.59128169046E-02 -.53300077542E-02 -.38425445955E-02 -.18771206001E-02
 -.19961252181E-03 0.22283950608E-03 -.13749768588E-02 -.50198884737E-02 -.96959097435E-02
 -.13624909429E-01 -.15120376639E-01 -.13526029340E-01 -.95973795470E-02 -.50505705985E-02
 -.16058162549E-02 -.17759986024E-03 -.66266776554E-03 -.22857382076E-02 -.41246721344E-02
 -.70879061468E-02 -.70097198014E-02 -.58231216310E-02 -.38161452186E-02 -.15352036073E-02
 0.29803432881E-03 0.98097864716E-03 0.14188171718E-03 -.19643819785E-02 -.44241390608E-02
 -.60493952652E-02 -.60228718797E-02 -.43833474538E-02 -.19965533738E-02 -.35362309347E-04
 0.65047781587E-03 -.12738784073E-03 -.19658491195E-02 -.41713264679E-02 -.60515694623E-02
 0.23058644001E-03 0.20766793330E-03 0.18574949013E-03 0.16397054299E-03 0.14446530110E-03
 0.13155987557E-03 0.12781065881E-03 0.13143323915E-03 0.13745281217E-03 0.14111603108E-03
 0.14094606245E-03 0.14004645551E-03 0.14513389419E-03 0.16290945255E-03 0.19477289348E-03
 0.23350510349E-03 0.26580932268E-03 0.28019447785E-03 0.27416866510E-03 0.25449242901E-03
 0.22475638332E-03 0.22423541236E-03 0.23343198256E-03 0.22776529363E-03 0.18483214518E-03
 0.96510349280E-04 -.27365961373E-04 -.16349453175E-03 -.28249232628E-03 -.35545133991E-03
 -.36035819444E-03 -.28966483596E-03 -.15620075460E-03 0.81135554098E-05 0.16281661219E-03
 0.27394718808E-03 0.32560196888E-03 0.32308943980E-03 0.28797297739E-03 0.24794430158E-03
 0.22130505647E-03 0.25077806595E-03 0.27079991992E-03 0.23423237377E-03 0.10592268718E-03
 -.11844255461E-03 -.40530548614E-03 -.69153728286E-03 -.90446370367E-03 -.98558282504E-03
 -.90982929944E-03 -.69452190796E-03 -.39483850882E-03 -.86161096675E-04 0.16134279770E-03
 0.30600706995E-03 0.34582149772E-03 0.31315543924E-03 0.25673909704E-03 0.21956677551E-03
 0.21519848548E-03 0.25835512508E-03 0.24653800020E-03 0.11811456071E-03 -.15913660225E-03
 -.56707424609E-03 -.10318083318E-02 -.14408650520E-02 -.16809041742E-02 -.16811172024E-02
 -.14411670503E-02 -.10299215197E-02 -.55742383755E-03 -.13520556800E-03 0.15831891807E-03
 0.29697120124E-03 0.30700959974E-03 0.24978536300E-03 0.19286193515E-03 0.18044428134E-03
 0.20376254872E-03 0.22095848226E-03 0.12316976014E-03 -.15381970956E-03 -.62398316222E-03
 -.12289257784E-02 -.18408860501E-02 -.22988508155E-02 -.24684394873E-02 -.22978676039E-02
 -.18397089100E-02 -.12268657689E-02 -.61769290739E-03 -.13951245234E-03 0.14592126573E-03
 0.24767330700E-03 0.22714703010E-03 0.16614137473E-03 0.13229795638E-03 0.15265700887E-03
 0.18843110934E-03 0.12953587847E-03 -.10308503215E-03 -.56200038641E-03 -.12282734777E-02
 -.19910616707E-02 -.26674755548E-02 -.30655310058E-02 -.30636621254E-02 -.26640234725E-02
 -.19897003227E-02 -.12294825521E-02 -.56253509482E-03 -.10015510351E-03 0.13490462467E-03
 0.19293765666E-03 0.16053179948E-03 0.12019657922E-03 0.11984849596E-03 0.15856849859E-03
 0.17255276431E-03 -.38427980655E-05 -.39576570425E-03 -.10296768981E-02 -.18418188139E-02
 -.26687714147E-02 -.32913048431E-02 -.35211516882E-02 -.32861455407E-02 -.26634146986E-02
 -.18413258331E-02 -.10351498967E-02 -.40517325494E-03 -.15377756029E-04 0.15956569939E-03
 0.19657027363E-03 0.18040857313E-03 0.17123039501E-03 0.18865440910E-03 0.20923193716E-03
 0.15857232513E-03 -.15162733024E-03 -.68807649556E-03 -.14414511104E-02 -.23013324539E-02
 -.30683208362E-02 -.35227754088E-02 -.35208611674E-02 -.30637722479E-02 -.22974145495E-02
 -.14423893900E-02 -.69714346996E-03 -.16921287034E-03 0.13565115743E-03 0.27658331683E-03
 0.32738985549E-03 0.34287909869E-03 0.34884541013E-03 0.34379182920E-03 0.29919974375E-03
 0.14739321291E-03 -.28002025708E-03 -.90456042652E-03 -.16822053269E-02 -.24709488201E-02
 -.30666498366E-02 -.32882116287E-02 -.30643121217E-02 -.24685709555E-02 -.16820701657E-02
 -.90763442517E-03 -.28720502411E-03 0.13426285452E-03 0.38892414305E-03 0.53572141650E-03
 0.61783850507E-03 0.65047576602E-03 0.63242817384E-03 0.55729712185E-03 0.40849602552E-03
 0.13952577931E-03 -.35720415591E-03 -.98577574126E-03 -.16811118194E-02 -.22988761023E-02
 -.26656140126E-02 -.26642778659E-02 -.22968888170E-02 -.16809519842E-02 -.98559015847E-03
 -.35348499182E-03 0.14448187995E-03 0.50583369288E-03 0.76101533288E-03 0.93570109516E-03
 0.10333901156E-02 0.10426824535E-02 0.95560683350E-03 0.77605134295E-03 0.50834247973E-03
 0.13604986382E-03 -.36094745547E-03 -.90778194327E-03 -.14394141664E-02 -.18393051410E-02
 -.19898398694E-02 -.18408122958E-02 -.14406397158E-02 -.90510581985E-03 -.35165696379E-03
 0.14902153823E-03 0.57659761628E-03 0.93332241618E-03 0.12160753883E-02 0.14069034816E-02
 0.14809202053E-02 0.14215805795E-02 0.12329107993E-02 0.93921111830E-03 0.56907795966E-03
 0.13859974104E-03 -.28650042749E-03 -.69068591262E-03 -.10284275943E-02 -.12276701667E-02
 -.12309765846E-02 -.10360756016E-02 -.69700482971E-03 -.28615563640E-03 0.14544978372E-03
 0.57642425994E-03 0.99426109740E-03 0.13732356121E-02 0.16710002568E-02 0.18413567516E-02
 0.18508929348E-02 0.16923999624E-02 0.13914364845E-02 0.99939001538E-03 0.57068790413E-03
 0.14888987491E-03 -.15131923870E-03 -.39300550397E-03 -.56057382126E-03 -.62469375573E-03
 -.57106303831E-03 -.41353497544E-03 -.17674326421E-03 0.12745576588E-03 0.49913687172E-03
 0.92649217113E-03 0.13679155504E-02 0.17589688334E-02 0.20339827399E-02 0.21427422826E-02
 0.20593725341E-02 0.17923157768E-02 0.13921991610E-02 0.94024252146E-03 0.51296549637E-03
 0.16790692108E-03 0.88686430999E-05 -.92324658624E-04 -.14880537621E-03 -.15906659506E-03
 -.12306510165E-03 -.39066537511E-04 0.11262360584E-03 0.36649745099E-03 0.73873502764E-03
 0.11950089674E-02 0.16543916206E-02 0.20253314773E-02 0.22382864445E-02 0.22544081881E-02
 0.20649157365E-02 0.17002598853E-02 0.12381041266E-02 0.78290318070E-03 0.41780355276E-03
 0.19434340653E-03 0.15316166041E-03 0.14157163211E-03 0.12875880657E-03 0.10770854651E-03
 0.90740055285E-04 0.11345360448E-03 0.23169028862E-03 0.49281789086E-03 0.89468634103E-03
 0.13698685045E-02 0.18129418664E-02 0.21264688992E-02 0.22489445156E-02 0.21575625629E-02
 0.18673966636E-02 0.14384828269E-02 0.97228899811E-03 0.57736526649E-03 0.31903394532E-03
 0.22305788303E-03 0.25092800007E-03 0.27013023521E-03 0.24840880258E-03 0.18724160620E-03
 0.12406354455E-03 0.12542357754E-03 0.25987350684E-03 0.55680336847E-03 0.97958494763E-03
 0.14361763407E-02 0.18187543058E-02 0.20417004704E-02 0.20587311582E-02 0.18665037275E-02
 0.15081586115E-02 0.10717907572E-02 0.66728643473E-03 0.38236020445E-03 0.24539885825E-03
 0.24588985474E-03 0.29121254721E-03 0.29581459694E-03 0.24079541834E-03 0.14602474312E-03
 0.69860578208E-04 0.89213775937E-04 0.26019934815E-03 0.58174876005E-03 0.98940309395E-03
 0.13834443270E-02 0.16685556200E-02 0.17804798869E-02 0.16960383284E-02 0.14371304244E-02
 0.10709542372E-02 0.69516367376E-03 0.40279237123E-03 0.24370379451E-03 0.20880229499E-03
 0.25590173829E-03 0.28306368915E-03 0.25492136569E-03 0.17231939188E-03 0.72248336096E-04
 0.18012236097E-04 0.72577699996E-04 0.26501713469E-03 0.57025588028E-03 0.91604817051E-03
 0.12120737668E-02 0.13827207204E-02 0.13887232407E-02 0.12350819821E-02 0.96845776235E-03
 0.66415298960E-03 0.40183546187E-03 0.23675857952E-03 0.18093406237E-03 0.20475442102E-03
 0.25227084041E-03 0.24934999453E-03 0.19834401201E-03 0.11426698757E-03 0.38357027108E-04
 0.21095583747E-04 0.98360800976E-04 0.27336478455E-03 0.51254406884E-03 0.75568637335E-03
 0.93580431507E-03 0.10025791549E-02 0.94137300985E-03 0.77886116013E-03 0.57091374076E-03
 0.37844947417E-03 0.24461809194E-03 0.18416992668E-03 0.18574016900E-03 0.22050263681E-03
 0.24109349692E-03 0.21734409938E-03 0.16926208957E-03 0.11152244440E-03 0.71761922641E-04
 0.77089922712E-04 0.13962754525E-03 0.25058392823E-03 0.38367558540E-03 0.50321524757E-03
 0.57449506480E-03 0.57649641935E-03 0.51285318730E-03 0.41216520691E-03 0.31352556854E-03
 0.24593108354E-03 0.21683215084E-03 0.21640186662E-03 0.22930607531E-03 0.24168246739E-03
 0.80371287657E-02 0.73563309272E-02 0.56481218737E-02 0.33441412220E-02 0.10496423821E-02
 -.58930614942E-03 -.10791474291E-02 -.31755831174E-03 0.12545416493E-02 0.27748262569E-02
 0.33910112607E-02 0.27628651220E-02 0.12741856037E-02 -.20947617899E-03 -.85009260378E-03
 -.25085020712E-03 0.14469458871E-02 0.37300694332E-02 0.59525511865E-02 0.75238464630E-02
 0.74077912408E-02 0.62001954394E-02 0.41952234611E-02 0.19436793883E-02 0.13587570677E-03
 -.57144760601E-03 0.17035822070E-03 0.21287207388E-02 0.44480735121E-02 0.60001306163E-02
 0.59940845948E-02 0.44485852737E-02 0.21778945646E-02 0.30527600939E-03 -.33826418696E-03
 0.45259816869E-03 0.23053776539E-02 0.45408582197E-02 0.64536105892E-02 0.75014291092E-02
 0.57423913753E-02 0.42361111758E-02 0.22951789891E-02 0.65833044786E-03 0.21895192059E-03
 0.16773769438E-02 0.50623491321E-02 0.94407917850E-02 0.13155893335E-01 0.14609625212E-01
 0.13149293605E-01 0.94508996747E-02 0.51217890950E-02 0.18120266369E-02 0.43851761671E-03
 0.95061808173E-03 0.26196217932E-02 0.45235075508E-02 0.59133081766E-02 0.63580075290E-02
 0.34720208713E-02 0.20132070552E-02 0.68402591336E-03 0.55386689125E-03 0.27595058053E-02
 0.78202854494E-02 0.14975178244E-01 0.22114778058E-01 0.26597569494E-01 0.26594153226E-01
 0.22112324326E-01 0.14993598450E-01 0.78836977498E-02 0.28876842558E-02 0.75319121811E-03
 0.93719516235E-03 0.22731690013E-02 0.36706329354E-02 0.44612432210E-02 0.43865243602E-02
 0.11981532944E-02 0.21981975749E-03 0.25490393263E-03 0.27683338636E-02 0.89095104538E-02
 0.18492703498E-01 0.29421254511E-01 0.38215225997E-01 0.41593124914E-01 0.38213399113E-01
 0.29426959028E-01 0.18520420130E-01 0.89738542174E-02 0.28795817127E-02 0.41248078320E-03
 0.40385109500E-03 0.13669219444E-02 0.22360607428E-02 0.25259665688E-02 0.21337337373E-02
 -.44170627469E-03 -.49006879895E-03 0.17100186776E-02 0.78261409778E-02 0.18490362093E-01
 0.32220365455E-01 0.45359662907E-01 0.53456163324E-01 0.53457736797E-01 0.45365954831E-01
 0.32235315695E-01 0.18518995505E-01 0.78737776918E-02 0.17803714604E-02 -.39984310436E-03
 -.34638210184E-03 0.37898908886E-03 0.88253644878E-03 0.85400522170E-03 0.30424169103E-03
 -.96018580300E-03 0.23287540805E-03 0.50833321149E-02 0.14973810485E-01 0.29413796857E-01
 0.45355073311E-01 0.57970877612E-01 0.62786219469E-01 0.57978654264E-01 0.45368036443E-01
 0.29427586591E-01 0.14984940806E-01 0.50924338274E-02 0.24465706854E-03 -.94201518063E-03
 -.40086773978E-03 0.39707971625E-03 0.72113663134E-03 0.38199772531E-03 -.42232415791E-03
 -.24941255132E-03 0.21636627476E-02 0.94493873601E-02 0.22108700542E-01 0.38205648154E-01
 0.53449642514E-01 0.62784017738E-01 0.62788446177E-01 0.53460627984E-01 0.38215963003E-01
 0.22108279628E-01 0.94327934144E-02 0.21372300271E-02 -.27059843872E-03 0.31843523654E-03
 0.18713859057E-02 0.29710331850E-02 0.29664569740E-02 0.18650068365E-02 0.32380075987E-03
 0.12684484405E-02 0.44588617466E-02 0.13157518862E-01 0.26591683230E-01 0.41585291677E-01
 0.53452535574E-01 0.57977282421E-01 0.53461324195E-01 0.41595110819E-01 0.26591780730E-01
 0.13143851810E-01 0.44424760492E-02 0.12713129900E-02 0.23550469604E-02 0.54175379435E-02
 0.82420796792E-02 0.93363794430E-02 0.81983183588E-02 0.53603523333E-02 0.23189802173E-02
 0.27530674725E-02 0.59996139025E-02 0.14610787021E-01 0.26590747748E-01 0.38208102846E-01
 0.45362927943E-01 0.45368564121E-01 0.38218457251E-01 0.26593920721E-01 0.14606903502E-01
 0.60124746631E-02 0.28207330459E-02 0.48392755430E-02 0.10102972343E-01 0.15813738313E-01
 0.19388759154E-01 0.19319699472E-01 0.15641648364E-01 0.99085019359E-02 0.46953688549E-02
 0.33629576668E-02 0.59953538694E-02 0.13152150683E-01 0.22108615067E-01 0.29420524073E-01
 0.32231138108E-01 0.29426650753E-01 0.22109367382E-01 0.13146939475E-01 0.60175612019E-02
 0.34754519636E-02 0.65457873447E-02 0.14151896280E-01 0.23475280479E-01 0.30973263152E-01
 0.33747157111E-01 0.30721387232E-01 0.23084371068E-01 0.13776188175E-01 0.62927778216E-02
 0.27499772914E-02 0.44550660826E-02 0.94501020682E-02 0.14981626319E-01 0.18504342436E-01
 0.18504275822E-01 0.14972294953E-01 0.94237788645E-02 0.44440059651E-02 0.28392789780E-02
 0.65725394983E-02 0.15788103929E-01 0.28363498371E-01 0.40396631533E-01 0.47662194957E-01
 0.47459639356E-01 0.39879042101E-01 0.27745613750E-01 0.15283734688E-01 0.62877176959E-02
 0.12766975078E-02 0.21789415432E-02 0.51041700376E-02 0.78504795660E-02 0.89339129228E-02
 0.78317108353E-02 0.50508041938E-02 0.21061044521E-02 0.12712217851E-02 0.48878422506E-02
 0.14240363368E-01 0.28443760113E-01 0.44108534738E-01 0.56334506955E-01 0.60798399399E-01
 0.55850823733E-01 0.43351075308E-01 0.27708440678E-01 0.13747705264E-01 0.46902743983E-02
 -.21157805297E-03 0.28014198196E-03 0.17593714445E-02 0.28159710840E-02 0.27963797085E-02
 0.16891887376E-02 0.15459833717E-03 -.33365594141E-03 0.23583686425E-02 0.10201940141E-01
 0.23658649157E-01 0.40601411576E-01 0.56470614028E-01 0.65997077749E-01 0.65713169249E-01
 0.55750314397E-01 0.39758046620E-01 0.23003482336E-01 0.98860427583E-02 0.23377898309E-02
 -.88292189560E-03 -.40967451983E-03 0.33422471057E-03 0.62614291136E-03 0.26727539827E-03
 -.55845294146E-03 -.10930163186E-02 0.22123897990E-03 0.54318956241E-02 0.15974652253E-01
 0.31260072251E-01 0.47994644771E-01 0.61071792872E-01 0.65853138398E-01 0.60557040529E-01
 0.47215072142E-01 0.30557713926E-01 0.15586092735E-01 0.53874347532E-02 0.38865712143E-03
 -.32880022954E-03 0.32774073452E-03 0.78921305979E-03 0.74794002472E-03 0.18952245134E-03
 -.57595396281E-03 -.61009052231E-03 0.17468827982E-02 0.82706288312E-02 0.19600938931E-01
 0.34106233524E-01 0.47869389536E-01 0.56200527065E-01 0.55968953848E-01 0.47299350844E-01
 0.33490061065E-01 0.19215378770E-01 0.82255773374E-02 0.19625499825E-02 -.30701653543E-03
 0.13316213447E-02 0.21397586827E-02 0.24139578064E-02 0.20337061479E-02 0.10972243501E-02
 0.96465379755E-04 0.14953993998E-03 0.28320413941E-02 0.93725435380E-02 0.19548053215E-01
 0.31088516087E-01 0.40281230603E-01 0.43684871860E-01 0.39967959161E-01 0.30650938389E-01
 0.19238710927E-01 0.93504842104E-02 0.30845088661E-02 0.53379308120E-03 0.45105623099E-03
 0.36044749674E-02 0.43638301314E-02 0.43032719080E-02 0.34118048314E-02 0.19448614315E-02
 0.58307460785E-03 0.46655005070E-03 0.28274523531E-02 0.82284430325E-02 0.15840972474E-01
 0.23390177444E-01 0.28061026617E-01 0.27951197582E-01 0.23141921048E-01 0.15640463640E-01
 0.82393256095E-02 0.30896939580E-02 0.88887271006E-03 0.10182079283E-02 0.22790615602E-02
 0.58498080093E-02 0.62990467226E-02 0.57137860150E-02 0.42214451180E-02 0.22550335368E-02
 0.57897371562E-03 0.15287245819E-03 0.17395201109E-02 0.53731600084E-02 0.10046026455E-01
 0.13978297144E-01 0.15474479421E-01 0.13874847336E-01 0.99425160275E-02 0.54024577935E-02
 0.19726356331E-02 0.55600412441E-03 0.10422900937E-02 0.26614396039E-02 0.45007727318E-02
 0.74682639711E-02 0.73940360364E-02 0.62059441118E-02 0.41962102529E-02 0.19165629387E-02
 0.85859315959E-04 -.60166677652E-03 0.22325182858E-03 0.23137104311E-02 0.47655674263E-02
 0.63913245783E-02 0.63668666881E-02 0.47278061974E-02 0.23449474124E-02 0.39609165487E-03
 -.27366626176E-03 0.51318373477E-03 0.23491170825E-02 0.45478337054E-02 0.64268647652E-02
 0.29691132113E-04 0.65814171421E-04 0.12311123936E-03 0.17691019718E-03 0.20764383436E-03
 0.21510240698E-03 0.21512005140E-03 0.22350082680E-03 0.24312300891E-03 0.26413014186E-03
 0.27335367433E-03 0.26310913950E-03 0.23428799210E-03 0.19481513182E-03 0.15534620665E-03
 0.12317223403E-03 0.97653346160E-04 0.72537461790E-04 0.45468142162E-04 0.25706916176E-04
 0.50492516039E-04 0.71381755333E-04 0.95787314251E-04 0.12374783807E-03 0.16903782553E-03
 0.25580784797E-03 0.39756256466E-03 0.57658095358E-03 0.74455222821E-03 0.84587910648E-03
 0.84556879293E-03 0.74334493593E-03 0.57014180616E-03 0.37413626489E-03 0.20327003467E-03
 0.88451187509E-04 0.33743607531E-04 0.20763009388E-04 0.25779276882E-04 0.35843068190E-04
 0.90869403778E-04 0.80678492395E-04 0.77596289714E-04 0.12107513737E-03 0.26035878811E-03
 0.52595302098E-03 0.89673857050E-03 0.12906427844E-02 0.15925770890E-02 0.17051449434E-02
 0.15917529558E-02 0.12897387357E-02 0.89129252796E-03 0.50496723654E-03 0.21520585689E-03
 0.56032834607E-04 0.95459897125E-05 0.27900105692E-04 0.63350125743E-04 0.87154306357E-04
 0.13012778533E-03 0.97692824426E-04 0.11191568669E-03 0.25382699367E-03 0.59220727925E-03
 0.11310465675E-02 0.17783931182E-02 0.23661342384E-02 0.27158608365E-02 0.27152833455E-02
 0.23653948114E-02 0.17776229974E-02 0.11253448786E-02 0.57328660498E-03 0.21747432915E-03
 0.63568674932E-04 0.50194625771E-04 0.96426063692E-04 0.14055746038E-03 0.15258250107E-03
 0.15331219515E-03 0.13854167513E-03 0.24811336063E-03 0.58941963128E-03 0.12166368663E-02
 0.20682139525E-02 0.29571501591E-02 0.36327919407E-02 0.38844352349E-02 0.36316357364E-02
 0.29569969782E-02 0.20687959270E-02 0.12129503890E-02 0.57592721259E-03 0.22502318372E-03
 0.11270443534E-03 0.13289125451E-03 0.18590736389E-03 0.21294225837E-03 0.19651400555E-03
 0.16282270857E-03 0.22734952709E-03 0.51447713749E-03 0.11282753468E-02 0.20682775290E-02
 0.31793462932E-02 0.41817124194E-02 0.47769513020E-02 0.47755596619E-02 0.41794527952E-02
 0.31793561759E-02 0.20706995040E-02 0.11302484780E-02 0.51428603092E-03 0.22687787207E-03
 0.16480070427E-03 0.19875305765E-03 0.23522678876E-03 0.23323783032E-03 0.19493457826E-03
 0.17357137978E-03 0.37591700591E-03 0.88799169335E-03 0.17764205958E-02 0.29580614649E-02
 0.41830195635E-02 0.51125132686E-02 0.54579832552E-02 0.51082464105E-02 0.41785421747E-02
 0.29577869402E-02 0.17820412532E-02 0.89895596519E-03 0.39142286094E-03 0.19242122331E-03
 0.16581898747E-03 0.19073225516E-03 0.20066587021E-03 0.17885435020E-03 0.14730338344E-03
 0.19750989182E-03 0.56400489166E-03 0.12856229238E-02 0.23655485168E-02 0.36349468531E-02
 0.47798775907E-02 0.54597297452E-02 0.54564128308E-02 0.47730445218E-02 0.36306942423E-02
 0.23673936189E-02 0.12934238667E-02 0.57737589516E-03 0.21732162003E-03 0.98603900369E-04
 0.86989074724E-04 0.93377630655E-04 0.84356447765E-04 0.64904604294E-04 0.73880503287E-04
 0.23249374314E-03 0.74029398699E-03 0.15909633992E-02 0.27166480158E-02 0.38874750502E-02
 0.47791730278E-02 0.51105797542E-02 0.47737459763E-02 0.38826349404E-02 0.27165737363E-02
 0.15937578496E-02 0.74348238553E-03 0.23965359662E-03 0.19064810076E-04 -.42043415142E-04
 -.49587758291E-04 -.56108104726E-04 -.68956335600E-04 -.67108362398E-04 0.18606060657E-05
 0.26418128425E-03 0.84629476311E-03 0.17046897509E-02 0.27158082720E-02 0.36337959609E-02
 0.41818284749E-02 0.41797399700E-02 0.36308033841E-02 0.27164450567E-02 0.17072134344E-02
 0.84535485278E-03 0.26094657100E-03 -.45061564634E-04 -.15768349261E-03 -.18052688516E-03
 -.18497632964E-03 -.19611940813E-03 -.20441185056E-03 -.17601635912E-03 -.49340568790E-04
 0.27694884498E-03 0.84584597210E-03 0.15896732880E-02 0.23636875778E-02 0.29566012011E-02
 0.31794047254E-02 0.29575049525E-02 0.23669686460E-02 0.15937072352E-02 0.84575818014E-03
 0.27196561508E-03 -.75402770651E-04 -.22933676400E-03 -.26709335512E-03 -.26498859463E-03
 -.26855083400E-03 -.28503885486E-03 -.29103386004E-03 -.24127359816E-03 -.73820956658E-04
 0.26396585748E-03 0.74067098785E-03 0.12858130449E-02 0.17745462272E-02 0.20671915645E-02
 0.20703983121E-02 0.17827323013E-02 0.12947439888E-02 0.74532134560E-03 0.26364972128E-03
 -.72297792038E-04 -.24813760139E-03 -.30097815732E-03 -.29312697490E-03 -.28167307926E-03
 -.29469206302E-03 -.32316968264E-03 -.32926111810E-03 -.26224354689E-03 -.74129623883E-04
 0.23034564380E-03 0.56610509221E-03 0.88950320288E-03 0.11260244544E-02 0.12157150292E-02
 0.11352613869E-02 0.90600045830E-03 0.58524526513E-03 0.24769844947E-03 -.35684529077E-04
 -.21795307283E-03 -.29134421875E-03 -.28868051019E-03 -.26468520484E-03 -.26424180805E-03
 -.29706405925E-03 -.33502673164E-03 -.33094486427E-03 -.24325689933E-03 -.52809560643E-04
 0.18936139574E-03 0.37402648400E-03 0.51151560188E-03 0.58473874323E-03 0.59075998056E-03
 0.53234467845E-03 0.41205963491E-03 0.23862215580E-03 0.40132558933E-04 -.13514360010E-03
 -.24175216370E-03 -.26873298246E-03 -.24958002145E-03 -.23672140039E-03 -.26047825278E-03
 -.30738821112E-03 -.33356817162E-03 -.29740041925E-03 -.18423907786E-03 -.10133963332E-04
 0.15452934341E-03 0.21253780628E-03 0.23462311465E-03 0.24468529995E-03 0.25818770658E-03
 0.26496022722E-03 0.23350329879E-03 0.13990560288E-03 -.18294225512E-05 -.14035019661E-03
 -.22445340808E-03 -.24462288251E-03 -.23759415424E-03 -.24843763122E-03 -.28715734501E-03
 -.32071162767E-03 -.30434967512E-03 -.21976640732E-03 -.87571861613E-04 0.49687405856E-04
 0.13144149334E-03 0.10921825852E-03 0.88992835515E-04 0.10764508392E-03 0.16673562003E-03
 0.22631175260E-03 0.23040625425E-03 0.15008495933E-03 0.95538115126E-05 -.13041673057E-03
 -.21992535505E-03 -.25535888699E-03 -.27025687186E-03 -.29308251213E-03 -.31545715455E-03
 -.30129543818E-03 -.22486335804E-03 -.99420073134E-04 0.28594115165E-04 0.11153497687E-03
 0.11466007416E-03 0.63934657788E-04 0.53566428392E-04 0.10905402675E-03 0.20596246199E-03
 0.28129582074E-03 0.27479262528E-03 0.17164545765E-03 0.12303703919E-04 -.13936610134E-03
 -.24155305797E-03 -.29398418044E-03 -.31836169663E-03 -.32463235835E-03 -.29862195073E-03
 -.22128853884E-03 -.97370434936E-04 0.35962090401E-04 0.12901006386E-03 0.15176734365E-03
 0.93644883918E-04 0.55637054174E-04 0.78787825714E-04 0.16548612501E-03 0.27156194614E-03
 0.32971930000E-03 0.29256845971E-03 0.16397167118E-03 -.64941681934E-05 -.16011275182E-03
 -.26392528650E-03 -.31619897552E-03 -.32589892717E-03 -.29352781153E-03 -.21368055249E-03
 -.92951038354E-04 0.39230243729E-04 0.14032818785E-03 0.17829353231E-03 0.15173619659E-03
 0.64583816481E-04 0.59710306630E-04 0.11537324514E-03 0.21218771428E-03 0.30022408112E-03
 0.32570905745E-03 0.26338295814E-03 0.13142917823E-03 -.22505974144E-04 -.15180611769E-03
 -.23244973150E-03 -.26169528294E-03 -.24346780408E-03 -.18036952023E-03 -.80018924109E-04
 0.35346952359E-04 0.13114961475E-03 0.17674000796E-03 0.16369618635E-03 0.11271517189E-03
 0.37457760072E-04 0.63102621198E-04 0.13291313974E-03 0.21648950349E-03 0.27235192499E-03
 0.27141237177E-03 0.21238162960E-03 0.11955344944E-03 0.26414822454E-04 -.41921594466E-04
 -.75962911854E-04 -.77491322919E-04 -.51635973445E-04 -.39091465602E-05 0.56514220827E-04
 0.11336606427E-03 0.14650011376E-03 0.14240439637E-03 0.10524256982E-03 0.59170953250E-04
 -.76895908911E-02 -.70014559807E-02 -.52759505037E-02 -.29609787010E-02 -.66845797004E-03
 0.96276354162E-03 0.14470800357E-02 0.67980989251E-03 -.90469745279E-03 -.24415158946E-02
 -.30661008840E-02 -.24305396973E-02 -.92526422138E-03 0.57145393654E-03 0.12177927542E-02
 0.62354082603E-03 -.10662029296E-02 -.33454590673E-02 -.55770348677E-02 -.71660457848E-02
 -.70522474107E-02 -.58372614996E-02 -.38195759498E-02 -.15632519718E-02 0.23864722614E-03