    5    5    1    1
  0.3477306E+02  0.2573869E-09  0.2573869E-09  0.3030466E-08  0.5000000E-15
  1.000000000000000E-004
  CAR 
 unknown system                          
     45     52     28
 
  0.0000000E+00  0.0000000E+00  0.0000000E+00  0.1000000E-01
    1      -11.612351   1.000000
    2      -10.597223   1.000000
    3       -8.988599   1.000000
    4       -7.530248   1.000000
    5       -6.082971   1.000000
    6       -5.563146   1.000000
    7       -5.539989   1.000000
    8       -5.513698   1.000000
    9       -5.319861   1.000000
   10       -5.282252   1.000000
   11       -5.279760   1.000000
   12       -5.227330   1.000000
   13       -5.226087   1.000000
   14       -4.971295   1.000000
   15       -4.970663   1.000000
   16       -4.879250   1.000000
   17       -4.765908   1.000000
   18       -4.730618   1.000000
   19       -4.477823   1.000000
   20       -4.476985   1.000000
   21       -4.259412   1.000000
   22       -4.258115   1.000000
   23       -3.987493   1.000000
   24       -3.986799   1.000000
   25       -2.920786   1.000000
   26        1.609898   0.000000
   27        1.936382   0.000000
   28        2.365370   0.000000
 
  0.1000000E+00  0.6938894E-17  0.0000000E+00  0.2000000E-01
    1      -11.307697   1.000000
    2      -10.299487   1.000000
    3       -8.726207   1.000000
    4       -7.309780   1.000000
    5       -6.116346   1.000000
    6       -5.667037   1.000000
    7       -5.614738   1.000000
    8       -5.436096   1.000000
    9       -5.369190   1.000000
   10       -5.333817   1.000000
   11       -5.287669   1.000000
   12       -5.200864   1.000000
   13       -5.127904   1.000000
   14       -5.112297   1.000000
   15       -4.994676   1.000000
   16       -4.886821   1.000000
   17       -4.754232   1.000000
   18       -4.699065   1.000000
   19       -4.486378   1.000000
   20       -4.453308   1.000000
   21       -4.289227   1.000000
   22       -4.254776   1.000000
   23       -3.982620   1.000000
   24       -3.767842   1.000000
   25       -2.234813   0.111051
   26        1.854040   0.000000
   27        2.240285   0.000000
   28        2.667850   0.000000
 
  0.2000000E+00 -0.1387779E-16  0.0000000E+00  0.2000000E-01
    1      -10.435144   1.000000
    2       -9.457248   1.000000
    3       -8.045121   1.000000
    4       -6.795636   1.000000
    5       -6.251330   1.000000
    6       -5.937638   1.000000
    7       -5.739204   1.000000
    8       -5.629980   1.000000
    9       -5.479643   1.000000
   10       -5.257679   1.000000
   11       -5.204207   1.000000
   12       -5.174189   1.000000
   13       -5.073810   1.000000
   14       -5.002493   1.000000
   15       -4.872072   1.000000
   16       -4.817395   1.000000
   17       -4.783637   1.000000
   18       -4.601748   1.000000
   19       -4.561728   1.000000
   20       -4.433038   1.000000
   21       -4.255402   1.000000
   22       -4.076119   1.000000
   23       -3.977759   1.000000
   24       -2.909103   1.000000
   25       -0.909569   0.000000
   26        2.579652   0.000000
   27        3.150262   0.000000
   28        3.575588   0.000000
 
  0.3000000E+00 -0.2775558E-16  0.0000000E+00  0.2000000E-01
    1       -9.178551   1.000000
    2       -8.299453   1.000000
    3       -7.372302   1.000000
    4       -6.572127   1.000000
    5       -6.339158   1.000000
    6       -6.162990   1.000000
    7       -5.866679   1.000000
    8       -5.643028   1.000000
    9       -5.519100   1.000000
   10       -5.279698   1.000000
   11       -5.169458   1.000000
   12       -5.052105   1.000000
   13       -4.875247   1.000000
   14       -4.825252   1.000000
   15       -4.733997   1.000000
   16       -4.599362   1.000000
   17       -4.506536   1.000000
   18       -4.366307   1.000000
   19       -4.331817   1.000000
   20       -4.244261   1.000000
   21       -4.127289   1.000000
   22       -3.964718   1.000000
   23       -3.594746   1.000000
   24       -1.744502   0.000000
   25        0.758773   0.000000
   26        3.751863   0.000000
   27        4.629421   0.000000
   28        5.065384   0.000000
 
  0.4000000E+00 -0.2775558E-16  0.0000000E+00  0.2000000E-01
    1       -8.182395   1.000000
    2       -7.386310   1.000000
    3       -7.028037   1.000000
    4       -6.588887   1.000000
    5       -6.507395   1.000000
    6       -6.303447   1.000000
    7       -6.006483   1.000000
    8       -5.435706   1.000000
    9       -5.307278   1.000000
   10       -5.255101   1.000000
   11       -5.213911   1.000000
   12       -4.913803   1.000000
   13       -4.828411   1.000000
   14       -4.476458   1.000000
   15       -4.351018   1.000000
   16       -4.313345   1.000000
   17       -4.103814   1.000000
   18       -4.100327   1.000000
   19       -4.047590   1.000000
   20       -3.966019   1.000000
   21       -3.810684   1.000000
   22       -3.523268   1.000000
   23       -2.521903   0.997738
   24       -0.342984   0.000000
   25        2.217269   0.000000
   26        2.456315   0.000000
   27        3.244887   0.000000
   28        4.521617   0.000000
 
  0.5000000E+00 -0.2775558E-16  0.0000000E+00  0.1000000E-01
    1       -7.958386   1.000000
    2       -7.116474   1.000000
    3       -6.902582   1.000000
    4       -6.599573   1.000000
    5       -6.552543   1.000000
    6       -6.352605   1.000000
    7       -6.043603   1.000000
    8       -5.406887   1.000000
    9       -5.292090   1.000000
   10       -5.228190   1.000000
   11       -5.018365   1.000000
   12       -4.932348   1.000000
   13       -4.591601   1.000000
   14       -4.439871   1.000000
   15       -4.254555   1.000000
   16       -4.144146   1.000000
   17       -4.043929   1.000000
   18       -3.949354   1.000000
   19       -3.891049   1.000000
   20       -3.693674   1.000000
   21       -3.672996   1.000000
   22       -2.187881   0.029736
   23       -1.358601   0.000000
   24       -0.817288   0.000000
   25        1.317272   0.000000
   26        1.655002   0.000000
   27        2.744745   0.000000
   28        3.897357   0.000000
 
  0.0000000E+00  0.1000000E+00  0.0000000E+00  0.2000000E-01
    1      -11.308917   1.000000
    2      -10.299446   1.000000
    3       -8.724895   1.000000
    4       -7.309016   1.000000
    5       -6.101781   1.000000
    6       -5.665732   1.000000
    7       -5.616553   1.000000
    8       -5.435566   1.000000
    9       -5.369776   1.000000
   10       -5.330859   1.000000
   11       -5.288564   1.000000
   12       -5.203244   1.000000
   13       -5.128331   1.000000
   14       -5.113383   1.000000
   15       -4.994493   1.000000
   16       -4.887832   1.000000
   17       -4.769486   1.000000
   18       -4.696412   1.000000
   19       -4.487745   1.000000
   20       -4.452844   1.000000
   21       -4.288665   1.000000
   22       -4.254968   1.000000
   23       -3.982775   1.000000
   24       -3.768581   1.000000
   25       -2.235464   0.112803
   26        1.854174   0.000000
   27        2.240217   0.000000
   28        2.667719   0.000000
 
  0.1000000E+00  0.1000000E+00  0.0000000E+00  0.2000000E-01
    1      -11.310362   1.000000
    2      -10.299480   1.000000
    3       -8.723657   1.000000
    4       -7.308368   1.000000
    5       -6.089229   1.000000
    6       -5.670632   1.000000
    7       -5.607382   1.000000
    8       -5.432415   1.000000
    9       -5.371174   1.000000
   10       -5.330281   1.000000
   11       -5.287876   1.000000
   12       -5.206478   1.000000
   13       -5.128203   1.000000
   14       -5.115266   1.000000
   15       -4.994072   1.000000
   16       -4.889440   1.000000
   17       -4.778710   1.000000
   18       -4.699352   1.000000
   19       -4.489268   1.000000
   20       -4.452416   1.000000
   21       -4.288382   1.000000
   22       -4.255869   1.000000
   23       -3.983203   1.000000
   24       -3.770343   1.000000
   25       -2.236341   0.115195
   26        1.854345   0.000000
   27        2.240135   0.000000
   28        2.667655   0.000000
 
  0.2000000E+00  0.1000000E+00  0.0000000E+00  0.2000000E-01
    1      -10.722224   1.000000
    2       -9.726960   1.000000
    3       -8.243492   1.000000
    4       -6.926289   1.000000
    5       -6.172952   1.000000
    6       -5.839567   1.000000
    7       -5.743800   1.000000
    8       -5.549648   1.000000
    9       -5.462830   1.000000
   10       -5.315715   1.000000
   11       -5.230059   1.000000
   12       -5.163236   1.000000
   13       -5.111192   1.000000
   14       -5.089480   1.000000
   15       -4.923313   1.000000
   16       -4.841573   1.000000
   17       -4.706018   1.000000
   18       -4.617426   1.000000
   19       -4.592236   1.000000
   20       -4.442283   1.000000
   21       -4.344255   1.000000
   22       -4.080529   1.000000
   23       -4.021883   1.000000
   24       -3.163840   1.000000
   25       -1.301400   0.000000
   26        2.340135   0.000000
   27        2.847305   0.000000
   28        3.273032   0.000000
 
  0.3000000E+00  0.1000000E+00  0.0000000E+00  0.2000000E-01
    1       -9.642350   1.000000
    2       -8.701062   1.000000
    3       -7.531165   1.000000
    4       -6.537419   1.000000
    5       -6.224226   1.000000
    6       -6.042455   1.000000
    7       -5.865735   1.000000
    8       -5.741829   1.000000
    9       -5.598502   1.000000
   10       -5.304146   1.000000
   11       -5.259318   1.000000
   12       -5.177217   1.000000
   13       -5.027875   1.000000
   14       -4.910953   1.000000
   15       -4.828528   1.000000
   16       -4.747700   1.000000
   17       -4.573619   1.000000
   18       -4.478502   1.000000
   19       -4.355996   1.000000
   20       -4.293386   1.000000
   21       -4.140116   1.000000
   22       -4.042270   1.000000
   23       -3.721756   1.000000
   24       -2.178643   0.021935
   25        0.143035   0.000000
   26        3.312538   0.000000
   27        4.055585   0.000000
   28        4.507350   0.000000
 
  0.4000000E+00  0.1000000E+00  0.0000000E+00  0.2000000E-01
    1       -8.441404   1.000000
    2       -7.614326   1.000000
    3       -7.058375   1.000000
    4       -6.524653   1.000000
    5       -6.357171   1.000000
    6       -6.164527   1.000000
    7       -5.945566   1.000000
    8       -5.630435   1.000000
    9       -5.537177   1.000000
   10       -5.321846   1.000000
   11       -5.237868   1.000000
   12       -5.080664   1.000000
   13       -4.902709   1.000000
   14       -4.730816   1.000000
   15       -4.604837   1.000000
   16       -4.492239   1.000000
   17       -4.365547   1.000000
   18       -4.231732   1.000000
   19       -4.156421   1.000000
   20       -3.983322   1.000000
   21       -3.931949   1.000000
   22       -3.616818   1.000000
   23       -2.838093   1.000000
   24       -0.774741   0.000000
   25        1.905719   0.000000
   26        3.965826   0.000000
   27        4.391822   0.000000
   28        5.215592   0.000000
 
  0.5000000E+00  0.1000000E+00  0.0000000E+00  0.2000000E-01
    1       -7.909133   1.000000
    2       -7.039235   1.000000
    3       -6.822680   1.000000
    4       -6.504410   1.000000
    5       -6.466088   1.000000
    6       -6.257141   1.000000
    7       -6.033088   1.000000
    8       -5.521391   1.000000
    9       -5.369477   1.000000
   10       -5.256091   1.000000
   11       -5.207920   1.000000
   12       -5.006032   1.000000
   13       -4.783155   1.000000
   14       -4.510383   1.000000
   15       -4.389185   1.000000
   16       -4.242944   1.000000
   17       -4.126886   1.000000
   18       -4.070478   1.000000
   19       -4.020273   1.000000
   20       -3.863492   1.000000
   21       -3.399835   1.000000
   22       -2.322450   0.507349
   23       -1.353061   0.000000
   24        0.082423   0.000000
   25        1.796513   0.000000
   26        1.939131   0.000000
   27        3.029632   0.000000
   28        4.320598   0.000000
 
 -0.4000000E+00  0.1000000E+00  0.0000000E+00  0.2000000E-01
    1       -7.916197   1.000000
    2       -7.040170   1.000000
    3       -6.823667   1.000000
    4       -6.506751   1.000000
    5       -6.466737   1.000000
    6       -6.253049   1.000000
    7       -6.029795   1.000000
    8       -5.513255   1.000000
    9       -5.373063   1.000000
   10       -5.255760   1.000000
   11       -5.198980   1.000000
   12       -5.005298   1.000000
   13       -4.780754   1.000000
   14       -4.515784   1.000000
   15       -4.386810   1.000000
   16       -4.243618   1.000000
   17       -4.126470   1.000000
   18       -4.072572   1.000000
   19       -4.020258   1.000000
   20       -3.863604   1.000000
   21       -3.410038   1.000000
   22       -2.321258   0.500620
   23       -1.348334   0.000000
   24        0.084409   0.000000
   25        1.797959   0.000000
   26        1.939457   0.000000
   27        3.028026   0.000000
   28        4.322642   0.000000
 
 -0.3000000E+00  0.1000000E+00  0.0000000E+00  0.2000000E-01
    1       -8.445682   1.000000
    2       -7.619567   1.000000
    3       -7.063411   1.000000
    4       -6.526005   1.000000
    5       -6.357199   1.000000
    6       -6.160507   1.000000
    7       -5.939693   1.000000
    8       -5.625292   1.000000
    9       -5.532786   1.000000
   10       -5.319556   1.000000
   11       -5.231467   1.000000
   12       -5.081595   1.000000
   13       -4.899925   1.000000
   14       -4.729735   1.000000
   15       -4.618788   1.000000
   16       -4.489797   1.000000
   17       -4.366417   1.000000
   18       -4.237691   1.000000
   19       -4.158427   1.000000
   20       -3.985388   1.000000
   21       -3.934152   1.000000
   22       -3.615697   1.000000
   23       -2.829374   1.000000
   24       -0.762997   0.000000
   25        1.913977   0.000000
   26        3.958565   0.000000
   27        4.390638   0.000000
   28        5.213521   0.000000
 
 -0.2000000E+00  0.1000000E+00  0.0000000E+00  0.2000000E-01
    1       -9.637794   1.000000
    2       -8.704113   1.000000
    3       -7.541913   1.000000
    4       -6.542639   1.000000
    5       -6.230429   1.000000
    6       -6.039501   1.000000
    7       -5.860474   1.000000
    8       -5.740978   1.000000
    9       -5.598491   1.000000
   10       -5.303140   1.000000
   11       -5.258746   1.000000
   12       -5.171436   1.000000
   13       -5.030901   1.000000
   14       -4.921729   1.000000
   15       -4.831386   1.000000
   16       -4.746579   1.000000
   17       -4.576373   1.000000
   18       -4.473601   1.000000
   19       -4.350705   1.000000
   20       -4.293099   1.000000
   21       -4.139854   1.000000
   22       -4.042070   1.000000
   23       -3.713527   1.000000
   24       -2.166475   0.014357
   25        0.149027   0.000000
   26        3.312798   0.000000
   27        4.055861   0.000000
   28        4.511886   0.000000
 
 -0.1000000E+00  0.1000000E+00  0.0000000E+00  0.2000000E-01
    1      -10.718187   1.000000
    2       -9.727426   1.000000
    3       -8.248384   1.000000
    4       -6.928790   1.000000
    5       -6.195153   1.000000
    6       -5.838709   1.000000
    7       -5.741571   1.000000
    8       -5.549814   1.000000
    9       -5.464124   1.000000
   10       -5.320413   1.000000
   11       -5.240618   1.000000
   12       -5.162069   1.000000
   13       -5.100604   1.000000
   14       -5.088495   1.000000
   15       -4.922835   1.000000
   16       -4.841588   1.000000
   17       -4.704474   1.000000
   18       -4.602652   1.000000
   19       -4.590537   1.000000
   20       -4.441901   1.000000
   21       -4.342900   1.000000
   22       -4.077856   1.000000
   23       -4.020705   1.000000
   24       -3.155597   1.000000
   25       -1.298276   0.000000
   26        2.339808   0.000000
   27        2.847526   0.000000
   28        3.272620   0.000000
 
  0.0000000E+00  0.2000000E+00  0.0000000E+00  0.2000000E-01
    1      -10.441355   1.000000
    2       -9.456587   1.000000
    3       -8.037197   1.000000
    4       -6.789705   1.000000
    5       -6.220696   1.000000
    6       -5.936323   1.000000
    7       -5.736467   1.000000
    8       -5.631968   1.000000
    9       -5.477283   1.000000
   10       -5.259179   1.000000
   11       -5.205945   1.000000
   12       -5.171362   1.000000
   13       -5.087371   1.000000
   14       -5.005748   1.000000
   15       -4.871423   1.000000
   16       -4.821576   1.000000
   17       -4.786480   1.000000
   18       -4.605434   1.000000
   19       -4.564908   1.000000
   20       -4.434336   1.000000
   21       -4.255815   1.000000
   22       -4.082477   1.000000
   23       -3.977885   1.000000
   24       -2.919728   1.000000
   25       -0.914156   0.000000
   26        2.579648   0.000000
   27        3.149990   0.000000
   28        3.576989   0.000000
 
  0.1000000E+00  0.2000000E+00  0.0000000E+00  0.2000000E-01
    1      -10.725635   1.000000
    2       -9.726355   1.000000
    3       -8.238366   1.000000
    4       -6.923372   1.000000
    5       -6.144428   1.000000
    6       -5.842623   1.000000
    7       -5.748365   1.000000
    8       -5.551396   1.000000
    9       -5.462550   1.000000
   10       -5.314463   1.000000
   11       -5.218956   1.000000
   12       -5.165133   1.000000
   13       -5.125549   1.000000
   14       -5.089247   1.000000
   15       -4.922906   1.000000
   16       -4.840458   1.000000
   17       -4.709177   1.000000
   18       -4.634965   1.000000
   19       -4.591806   1.000000
   20       -4.440271   1.000000
   21       -4.344378   1.000000
   22       -4.083818   1.000000
   23       -4.021985   1.000000
   24       -3.169431   1.000000
   25       -1.303860   0.000000
   26        2.340407   0.000000
   27        2.847102   0.000000
   28        3.272704   0.000000
 
  0.2000000E+00  0.2000000E+00  0.0000000E+00  0.2000000E-01
    1      -10.448825   1.000000
    2       -9.456299   1.000000
    3       -8.030020   1.000000
    4       -6.785072   1.000000
    5       -6.188970   1.000000
    6       -5.930602   1.000000
    7       -5.732512   1.000000
    8       -5.631525   1.000000
    9       -5.476112   1.000000
   10       -5.259427   1.000000
   11       -5.205469   1.000000
   12       -5.170977   1.000000
   13       -5.095547   1.000000
   14       -5.011596   1.000000
   15       -4.871900   1.000000
   16       -4.824045   1.000000
   17       -4.791745   1.000000
   18       -4.607748   1.000000
   19       -4.570169   1.000000
   20       -4.436169   1.000000
   21       -4.256651   1.000000
   22       -4.090756   1.000000
   23       -3.978335   1.000000
   24       -2.933388   1.000000
   25       -0.919748   0.000000
   26        2.579641   0.000000
   27        3.149676   0.000000
   28        3.575158   0.000000
 
  0.3000000E+00  0.2000000E+00  0.0000000E+00  0.2000000E-01
    1       -9.658505   1.000000
    2       -8.699503   1.000000
    3       -7.514353   1.000000
    4       -6.514571   1.000000
    5       -6.215466   1.000000
    6       -6.031313   1.000000
    7       -5.850629   1.000000
    8       -5.740799   1.000000
    9       -5.595971   1.000000
   10       -5.298641   1.000000
   11       -5.255355   1.000000
   12       -5.181332   1.000000
   13       -5.041580   1.000000
   14       -4.927635   1.000000
   15       -4.834660   1.000000
   16       -4.747593   1.000000
   17       -4.573469   1.000000
   18       -4.479941   1.000000
   19       -4.362069   1.000000
   20       -4.293951   1.000000
   21       -4.140230   1.000000
   22       -4.042958   1.000000
   23       -3.733305   1.000000
   24       -2.200435   0.043899
   25        0.130998   0.000000
   26        3.309309   0.000000
   27        4.055394   0.000000
   28        4.500550   0.000000
 
  0.4000000E+00  0.2000000E+00  0.0000000E+00  0.2000000E-01
    1       -8.578149   1.000000
    2       -7.679975   1.000000
    3       -7.002617   1.000000
    4       -6.465294   1.000000
    5       -6.136031   1.000000
    6       -6.044169   1.000000
    7       -5.900024   1.000000
    8       -5.836120   1.000000
    9       -5.571030   1.000000
   10       -5.412119   1.000000
   11       -5.363529   1.000000
   12       -5.293851   1.000000
   13       -4.974966   1.000000
   14       -4.901309   1.000000
   15       -4.757198   1.000000
   16       -4.617258   1.000000
   17       -4.408682   1.000000
   18       -4.262554   1.000000
   19       -4.187620   1.000000
   20       -3.978758   1.000000
   21       -3.917704   1.000000
   22       -3.570676   1.000000
   23       -2.857620   1.000000
   24       -0.931526   0.000000
   25        1.674417   0.000000
   26        4.515446   0.000000
   27        5.358847   0.000000
   28        5.655344   0.000000
 
  0.5000000E+00  0.2000000E+00  0.0000000E+00  0.2000000E-01
    1       -7.826312   1.000000
    2       -6.878497   1.000000
    3       -6.654373   1.000000
    4       -6.395512   1.000000
    5       -6.252049   1.000000
    6       -6.074776   1.000000
    7       -5.958622   1.000000
    8       -5.754674   1.000000
    9       -5.577243   1.000000
   10       -5.509912   1.000000
   11       -5.341071   1.000000
   12       -5.057188   1.000000
   13       -4.958555   1.000000
   14       -4.808346   1.000000
   15       -4.623138   1.000000
   16       -4.528087   1.000000
   17       -4.370270   1.000000
   18       -4.192883   1.000000
   19       -4.030722   1.000000
   20       -3.883916   1.000000
   21       -3.182401   1.000000
   22       -2.355129   0.684590
   23       -1.250339   0.000000
   24        0.768247   0.000000
   25        2.974555   0.000000
   26        3.250044   0.000000
   27        3.889550   0.000000
   28        5.047562   0.000000
 
 -0.4000000E+00  0.2000000E+00  0.0000000E+00  0.2000000E-01
    1       -7.672702   1.000000
    2       -6.669770   1.000000
    3       -6.550236   1.000000
    4       -6.321383   1.000000
    5       -6.201215   1.000000
    6       -6.147940   1.000000
    7       -5.962794   1.000000
    8       -5.806506   1.000000
    9       -5.548105   1.000000
   10       -5.449245   1.000000
   11       -5.258303   1.000000
   12       -5.095574   1.000000
   13       -4.885623   1.000000
   14       -4.692736   1.000000
   15       -4.557951   1.000000
   16       -4.437317   1.000000
   17       -4.277033   1.000000
   18       -4.108282   1.000000
   19       -4.059068   1.000000
   20       -3.954367   1.000000
   21       -2.411881   0.900283
   22       -0.722729   0.000000
   23       -0.170503   0.000000
   24        0.592113   0.000000
   25        2.038124   0.000000
   26        2.258155   0.000000
   27        3.390179   0.000000
   28        4.503684   0.000000
 
 -0.3000000E+00  0.2000000E+00  0.0000000E+00  0.2000000E-01
    1       -7.841823   1.000000
    2       -6.882948   1.000000
    3       -6.653829   1.000000
    4       -6.395507   1.000000
    5       -6.252405   1.000000
    6       -6.067474   1.000000
    7       -5.957205   1.000000
    8       -5.748489   1.000000
    9       -5.575279   1.000000
   10       -5.505471   1.000000
   11       -5.335955   1.000000
   12       -5.057343   1.000000
   13       -4.957812   1.000000
   14       -4.807969   1.000000
   15       -4.624714   1.000000
   16       -4.524967   1.000000
   17       -4.371314   1.000000
   18       -4.191706   1.000000
   19       -4.033153   1.000000
   20       -3.883404   1.000000
   21       -3.203553   1.000000
   22       -2.351228   0.664727
   23       -1.235034   0.000000
   24        0.789040   0.000000
   25        2.973428   0.000000
   26        3.252324   0.000000
   27        3.896440   0.000000
   28        5.065011   0.000000
 
 -0.2000000E+00  0.2000000E+00  0.0000000E+00  0.2000000E-01
    1       -8.569951   1.000000
    2       -7.691846   1.000000
    3       -7.021446   1.000000
    4       -6.466954   1.000000
    5       -6.138780   1.000000
    6       -6.043887   1.000000
    7       -5.900486   1.000000
    8       -5.833968   1.000000
    9       -5.571125   1.000000
   10       -5.412177   1.000000
   11       -5.349465   1.000000
   12       -5.292642   1.000000
   13       -4.976669   1.000000
   14       -4.905103   1.000000
   15       -4.744499   1.000000
   16       -4.625505   1.000000
   17       -4.407613   1.000000
   18       -4.263241   1.000000
   19       -4.197011   1.000000
   20       -3.978859   1.000000
   21       -3.922693   1.000000
   22       -3.567515   1.000000
   23       -2.840959   1.000000
   24       -0.904180   0.000000
   25        1.695672   0.000000
   26        4.529750   0.000000
   27        5.348929   0.000000
   28        5.666505   0.000000
 
 -0.1000000E+00  0.2000000E+00  0.0000000E+00  0.2000000E-01
    1       -9.645086   1.000000
    2       -8.703049   1.000000
    3       -7.532958   1.000000
    4       -6.530832   1.000000
    5       -6.228183   1.000000
    6       -6.036155   1.000000
    7       -5.853074   1.000000
    8       -5.741049   1.000000
    9       -5.596323   1.000000
   10       -5.300429   1.000000
   11       -5.256827   1.000000
   12       -5.172376   1.000000
   13       -5.038625   1.000000
   14       -4.930890   1.000000
   15       -4.834329   1.000000
   16       -4.746309   1.000000
   17       -4.576199   1.000000
   18       -4.474210   1.000000
   19       -4.353100   1.000000
   20       -4.293209   1.000000
   21       -4.139862   1.000000
   22       -4.042415   1.000000
   23       -3.718516   1.000000
   24       -2.176353   0.020294
   25        0.143510   0.000000
   26        3.311284   0.000000
   27        4.055804   0.000000
   28        4.507674   0.000000
 
  0.0000000E+00  0.3000000E+00  0.0000000E+00  0.2000000E-01
    1       -9.199672   1.000000
    2       -8.293595   1.000000
    3       -7.346991   1.000000
    4       -6.545445   1.000000
    5       -6.338787   1.000000
    6       -6.151955   1.000000
    7       -5.858370   1.000000
    8       -5.641120   1.000000
    9       -5.515817   1.000000
   10       -5.278327   1.000000
   11       -5.176800   1.000000
   12       -5.053248   1.000000
   13       -4.886660   1.000000
   14       -4.825380   1.000000
   15       -4.734286   1.000000
   16       -4.606247   1.000000
   17       -4.506122   1.000000
   18       -4.368539   1.000000
   19       -4.333050   1.000000
   20       -4.244430   1.000000
   21       -4.127269   1.000000
   22       -3.964834   1.000000
   23       -3.612393   1.000000
   24       -1.772478   0.000000
   25        0.739511   0.000000
   26        3.739732   0.000000
   27        4.631395   0.000000
   28        5.044611   0.000000
 
  0.1000000E+00  0.3000000E+00  0.0000000E+00  0.2000000E-01
    1       -9.653583   1.000000
    2       -8.697022   1.000000
    3       -7.510664   1.000000
    4       -6.517845   1.000000
    5       -6.212742   1.000000
    6       -6.042923   1.000000
    7       -5.865320   1.000000
    8       -5.743350   1.000000
    9       -5.596772   1.000000
   10       -5.303196   1.000000
   11       -5.259101   1.000000
   12       -5.187091   1.000000
   13       -5.033603   1.000000
   14       -4.908146   1.000000
   15       -4.831897   1.000000
   16       -4.747913   1.000000
   17       -4.569909   1.000000
   18       -4.483316   1.000000
   19       -4.364170   1.000000
   20       -4.293270   1.000000
   21       -4.139822   1.000000
   22       -4.042048   1.000000
   23       -3.734874   1.000000
   24       -2.198251   0.041104
   25        0.132638   0.000000
   26        3.310733   0.000000
   27        4.055225   0.000000
   28        4.513579   0.000000
 
  0.2000000E+00  0.3000000E+00  0.0000000E+00  0.2000000E-01
    1       -9.662431   1.000000
    2       -8.696525   1.000000
    3       -7.502873   1.000000
    4       -6.506988   1.000000
    5       -6.206045   1.000000
    6       -6.034388   1.000000
    7       -5.857889   1.000000
    8       -5.742325   1.000000
    9       -5.596548   1.000000
   10       -5.300383   1.000000
   11       -5.257240   1.000000
   12       -5.190458   1.000000
   13       -5.039648   1.000000
   14       -4.915667   1.000000
   15       -4.834661   1.000000
   16       -4.748200   1.000000
   17       -4.569944   1.000000
   18       -4.484220   1.000000
   19       -4.367893   1.000000
   20       -4.293704   1.000000
   21       -4.139928   1.000000
   22       -4.042381   1.000000
   23       -3.741440   1.000000
   24       -2.210149   0.058235
   25        0.126122   0.000000
   26        3.309020   0.000000
   27        4.055089   0.000000
   28        4.510573   0.000000
 
  0.3000000E+00  0.3000000E+00  0.0000000E+00  0.2000000E-01
    1       -9.225441   1.000000
    2       -8.289387   1.000000
    3       -7.324948   1.000000
    4       -6.520309   1.000000
    5       -6.332874   1.000000
    6       -6.130916   1.000000
    7       -5.844784   1.000000
    8       -5.638938   1.000000
    9       -5.511211   1.000000
   10       -5.277227   1.000000
   11       -5.185187   1.000000
   12       -5.055014   1.000000
   13       -4.894681   1.000000
   14       -4.825690   1.000000
   15       -4.732298   1.000000
   16       -4.616557   1.000000
   17       -4.506449   1.000000
   18       -4.371016   1.000000
   19       -4.335274   1.000000
   20       -4.245198   1.000000
   21       -4.127785   1.000000
   22       -3.965272   1.000000
   23       -3.634372   1.000000
   24       -1.806127   0.000000
   25        0.716492   0.000000
   26        3.725496   0.000000
   27        4.633268   0.000000
   28        5.016332   0.000000
 
  0.4000000E+00  0.3000000E+00  0.0000000E+00  0.2000000E-01
    1       -8.504375   1.000000
    2       -7.595100   1.000000
    3       -7.018692   1.000000
    4       -6.484485   1.000000