unknown system                          
   1.00000000000000     
     2.573869    0.000000    0.000000
     1.286934    2.229036    0.000000
     0.000000    0.000000   30.304665
   Cu   H 
     4     1
Direct
  0.000000  0.000000  0.395979
  0.333333  0.333333  0.465326
  0.666667  0.666667  0.534674
  0.000000  0.000000  0.604021
  0.627815  0.666667  0.637020
 
   10   10  120
 0.32823E-10 0.35978E-10 0.23614E-12 0.21051E-10 0.27561E-13 0.27052E-11 0.88263E-14 0.62839E-08 0.11157E-12 0.44856E-10
 0.38608E-10 0.14396E-10 0.27903E-12 0.13188E-10 0.25008E-13 0.17967E-08 0.96173E-14 0.45719E-11 0.10690E-12 0.16156E-10
 0.23668E-12 0.27085E-12 0.17927E-12 0.10798E-12 0.50931E-14 0.50099E-13 0.17764E-13 0.10192E-11 0.16848E-13 0.24411E-12
 0.19726E-10 0.13792E-10 0.10984E-12 0.55039E-13 0.10464E-13 0.58004E-12 0.10561E-13 0.13581E-11 0.15108E-12 0.41991E-10
 0.35139E-13 0.31697E-13 0.58981E-14 0.12268E-13 0.16126E-13 0.36360E-13 0.18596E-14 0.23551E-13 0.45061E-13 0.34139E-13
 0.26764E-11 0.22104E-09 0.48808E-13 0.50113E-12 0.30226E-13 0.22161E-11 0.72581E-14 0.25160E-12 0.54082E-13 0.13155E-09
 0.19096E-13 0.19609E-13 0.37081E-13 0.22288E-13 0.23870E-14 0.13989E-13 0.90344E-14 0.11380E-13 0.33723E-14 0.18985E-13
 0.19990E-11 0.98563E-12 0.90927E-12 0.49577E-12 0.12101E-13 0.14640E-12 0.79659E-14 0.35555E-13 0.21150E-13 0.58635E-12
 0.15533E-12 0.16214E-12 0.20765E-13 0.23807E-12 0.41064E-13 0.67571E-13 0.24702E-14 0.45547E-13 0.79839E-13 0.18975E-12
 0.46784E-10 0.30009E-10 0.20620E-12 0.19165E-10 0.30476E-13 0.47774E-06 0.89234E-14 0.15052E-11 0.15079E-12 0.33950E-10
 0.10709E-11 0.81355E-12 0.48716E-12 0.17453E-11 0.71193E-14 0.18582E-12 0.48878E-13 0.30237E-11 0.30947E-13 0.51317E-12
 0.76065E-12 0.43796E-08 0.40001E-12 0.41969E-11 0.12962E-13 0.81851E-11 0.26382E-13 0.45653E-11 0.13070E-12 0.18709E-10
 0.46585E-12 0.39432E-12 0.18505E-12 0.78645E-13 0.27617E-14 0.41023E-13 0.42966E-13 0.11848E-11 0.21139E-13 0.27527E-12
 0.15657E-11 0.43131E-11 0.79575E-13 0.12143E-13 0.35527E-14 0.17966E-12 0.29809E-13 0.15596E-11 0.14547E-12 0.90708E-10
 0.80908E-14 0.15626E-13 0.32335E-14 0.38858E-14 0.65642E-14 0.17347E-13 0.25119E-14 0.15168E-13 0.33029E-13 0.19776E-13
 0.16612E-12 0.53659E-11 0.40495E-13 0.16821E-12 0.15030E-13 0.20586E-11 0.14141E-13 0.23594E-11 0.10508E-12 0.72964E-11
 0.12196E-12 0.57149E-13 0.87846E-13 0.68640E-13 0.32474E-14 0.29601E-13 0.32890E-13 0.57315E-13 0.76605E-14 0.41467E-13
 0.19004E-11 0.12022E-11 0.11445E-11 0.66999E-12 0.87430E-14 0.77960E-12 0.30864E-13 0.33966E-12 0.36374E-13 0.14792E-11
 0.37248E-13 0.19316E-12 0.25698E-13 0.22553E-12 0.28422E-13 0.13935E-12 0.53846E-14 0.88290E-13 0.11234E-12 0.14915E-12
 0.40156E-12 0.31710E-10 0.23499E-12 0.33359E-10 0.17847E-13 0.50723E-11 0.17361E-13 0.51191E-11 0.12236E-12 0.58204E-11
 0.26281E-13 0.33903E-13 0.63102E-13 0.38552E-13 0.16931E-14 0.19734E-13 0.45353E-13 0.48683E-13 0.68487E-14 0.27457E-13
 0.33418E-13 0.20449E-10 0.47692E-12 0.14759E-11 0.64948E-14 0.92963E-12 0.46699E-13 0.39632E-11 0.10635E-12 0.17602E-10
 0.61041E-13 0.47247E-12 0.11900E-12 0.26423E-13 0.15266E-14 0.17569E-13 0.60479E-13 0.10461E-11 0.19332E-13 0.28325E-12
 0.36651E-13 0.15053E-11 0.27117E-13 0.36221E-14 0.13739E-14 0.39926E-13 0.54040E-13 0.16124E-11 0.13166E-12 0.30487E-09
 0.18319E-14 0.74107E-14 0.16653E-14 0.14849E-14 0.27478E-14 0.80908E-14 0.23870E-14 0.75773E-14 0.16764E-13 0.94924E-14
 0.18735E-13 0.80924E-12 0.17458E-13 0.38580E-13 0.72720E-14 0.21664E-11 0.28894E-13 0.57591E-11 0.91621E-13 0.32452E-11
 0.57704E-13 0.11421E-12 0.11288E-12 0.14352E-12 0.28033E-14 0.64310E-13 0.90900E-13 0.18149E-12 0.12879E-13 0.91011E-13
 0.55511E-13 0.11755E-11 0.10486E-11 0.68728E-12 0.49266E-14 0.12678E-11 0.79659E-13 0.80469E-12 0.32682E-13 0.32648E-11
 0.75842E-14 0.15143E-12 0.23426E-13 0.19260E-12 0.14405E-13 0.11752E-12 0.88818E-14 0.72331E-13 0.10639E-12 0.11732E-12
 0.24238E-13 0.27105E-10 0.24603E-12 0.72286E-10 0.87708E-14 0.25972E-11 0.35930E-13 0.21957E-10 0.99143E-13 0.22796E-11
 0.60646E-14 0.75079E-14 0.11505E-13 0.84238E-14 0.79103E-15 0.44964E-14 0.12948E-13 0.96728E-14 0.22760E-14 0.66475E-14
 0.74801E-14 0.44349E-11 0.78922E-12 0.92580E-12 0.46074E-14 0.45108E-12 0.18671E-12 0.38712E-11 0.12426E-12 0.21799E-10
 0.11227E-13 0.75578E-12 0.11191E-12 0.23606E-13 0.10270E-14 0.16265E-13 0.12017E-12 0.12829E-11 0.19998E-13 0.29111E-12
 0.82573E-14 0.93751E-12 0.23689E-13 0.19568E-14 0.76328E-15 0.27853E-13 0.24465E-12 0.18052E-11 0.11552E-12 0.13961E-07
 0.70777E-15 0.52736E-14 0.11935E-14 0.84655E-15 0.16653E-14 0.55789E-14 0.25674E-14 0.59119E-14 0.10880E-13 0.68834E-14
 0.42744E-14 0.41490E-12 0.16209E-13 0.27311E-13 0.50793E-14 0.20622E-11 0.89040E-13 0.18552E-10 0.11402E-12 0.15769E-11
 0.11754E-13 0.53135E-12 0.18820E-12 0.83800E-12 0.30809E-14 0.21616E-12 0.25993E-12 0.14799E-12 0.24730E-13 0.28885E-12
 0.10769E-13 0.13683E-11 0.13728E-11 0.89588E-12 0.41356E-14 0.29341E-11 0.81740E-13 0.21341E-12 0.47934E-13 0.47697E-10
 0.24564E-14 0.17442E-12 0.23870E-13 0.16485E-12 0.94924E-14 0.13625E-12 0.17097E-13 0.98616E-13 0.12380E-12 0.89581E-13
 0.60785E-14 0.31893E-10 0.25750E-12 0.24652E-09 0.63838E-14 0.13954E-11 0.10547E-12 0.88592E-10 0.77868E-13 0.12303E-11
 0.18319E-14 0.21788E-14 0.31780E-14 0.24147E-14 0.33307E-15 0.15266E-14 0.28449E-14 0.26784E-14 0.91593E-15 0.20817E-14
 0.22343E-14 0.19613E-11 0.12144E-11 0.50146E-12 0.28311E-14 0.18428E-12 0.54381E-12 0.35626E-11 0.11204E-12 0.21650E-10
 0.29837E-14 0.11421E-11 0.78368E-13 0.85626E-14 0.47184E-15 0.67585E-14 0.12454E-12 0.12616E-11 0.19873E-13 0.33219E-12
 0.24564E-14 0.50522E-12 0.87291E-14 0.73552E-15 0.37470E-15 0.93814E-14 0.80218E-12 0.19732E-11 0.12984E-12 0.62989E-09
 0.24980E-15 0.31225E-14 0.62450E-15 0.40246E-15 0.79103E-15 0.32613E-14 0.22760E-14 0.31086E-14 0.58287E-14 0.36637E-14
 0.14988E-14 0.17460E-12 0.66891E-14 0.93675E-14 0.29421E-14 0.22813E-11 0.19498E-12 0.72720E-12 0.49710E-13 0.17843E-11
 0.25535E-14 0.17683E-11 0.14580E-12 0.35506E-11 0.23870E-14 0.46244E-12 0.11180E-12 0.25147E-13 0.21455E-13 0.51523E-12
 0.29282E-14 0.14490E-11 0.14220E-11 0.10588E-11 0.22204E-14 0.41242E-12 0.20373E-13 0.26396E-13 0.25646E-13 0.24083E-09
 0.91593E-15 0.15216E-12 0.23509E-13 0.17807E-12 0.51070E-14 0.56122E-13 0.16653E-13 0.43493E-13 0.11383E-12 0.85223E-13
 0.19013E-14 0.28948E-10 0.29848E-12 0.22504E-07 0.33584E-14 0.16169E-11 0.20831E-12 0.11681E-10 0.75592E-13 0.75258E-12
 0.58287E-15 0.68001E-15 0.13461E-14 0.91593E-15 0.19429E-15 0.69389E-15 0.99920E-15 0.10547E-14 0.45797E-15 0.69389E-15
 0.74940E-15 0.10571E-11 0.29954E-11 0.35175E-12 0.18596E-14 0.10560E-12 0.33925E-11 0.33630E-11 0.13536E-12 0.33808E-10
 0.12212E-14 0.28250E-11 0.68529E-13 0.62728E-14 0.36082E-15 0.51209E-14 0.12457E-12 0.16177E-11 0.23218E-13 0.31150E-12
 0.91593E-15 0.35434E-12 0.62589E-14 0.46491E-15 0.25674E-15 0.64393E-14 0.69392E-11 0.20640E-11 0.11312E-12 0.12447E-09
 0.13878E-15 0.20123E-14 0.40246E-15 0.24980E-15 0.51348E-15 0.21094E-14 0.20262E-14 0.21649E-14 0.41633E-14 0.24147E-14
 0.58287E-15 0.10146E-12 0.51348E-14 0.63699E-14 0.19429E-14 0.22986E-11 0.56746E-12 0.24555E-12 0.35083E-13 0.16538E-11
 0.79103E-15 0.89620E-11 0.11328E-12 0.29652E-10 0.21649E-14 0.92198E-12 0.47407E-13 0.70499E-14 0.18541E-13 0.68906E-12
 0.10547E-14 0.16450E-11 0.18832E-11 0.12026E-11 0.16098E-14 0.17800E-12 0.62172E-14 0.76050E-14 0.22010E-13 0.73601E-11
 0.41633E-15 0.18113E-12 0.27048E-13 0.14858E-12 0.37192E-14 0.36915E-13 0.15904E-13 0.31808E-13 0.12904E-12 0.67890E-13
 0.68001E-15 0.45049E-10 0.28369E-12 0.44318E-09 0.22760E-14 0.15574E-11 0.45197E-12 0.33629E-11 0.61215E-13 0.51741E-12
 0.36082E-15 0.47184E-15 0.54123E-15 0.44409E-15 0.13878E-15 0.30531E-15 0.41633E-15 0.51348E-15 0.23592E-15 0.48572E-15
 0.47184E-15 0.67388E-12 0.98695E-11 0.23385E-12 0.12768E-14 0.58301E-13 0.73351E-11 0.30267E-11 0.10790E-12 0.37786E-10
 0.45797E-15 0.90333E-11 0.55109E-13 0.34625E-14 0.29490E-15 0.30184E-14 0.80207E-13 0.16798E-11 0.18971E-13 0.29843E-12
 0.44409E-15 0.23549E-12 0.35458E-14 0.29837E-15 0.13531E-15 0.33654E-14 0.13889E-10 0.21971E-11 0.12616E-12 0.51981E-10
 0.41633E-16 0.14017E-14 0.29143E-15 0.16306E-15 0.31919E-15 0.13184E-14 0.16098E-14 0.16376E-14 0.26090E-14 0.16653E-14
 0.41633E-15 0.57017E-13 0.30392E-14 0.34001E-14 0.13461E-14 0.26320E-11 0.51009E-12 0.54318E-13 0.15321E-13 0.42176E-11
 0.27756E-15 0.47260E-11 0.64754E-13 0.73499E-11 0.17208E-14 0.47035E-12 0.12018E-13 0.22204E-14 0.75495E-14 0.31106E-12
 0.51348E-15 0.16896E-11 0.19992E-11 0.13629E-11 0.12490E-14 0.45908E-13 0.21649E-14 0.22482E-14 0.11213E-13 0.30165E-11
 0.20817E-15 0.13668E-12 0.21677E-13 0.16115E-12 0.23870E-14 0.15543E-13 0.71332E-14 0.14239E-13 0.11843E-12 0.63990E-13
 0.41633E-15 0.48410E-10 0.27608E-12 0.88572E-10 0.15266E-14 0.42239E-11 0.33482E-12 0.19407E-11 0.59175E-13 0.37001E-12
 0.19429E-15 0.16653E-15 0.29143E-15 0.30531E-15 0.55511E-16 0.22204E-15 0.19429E-15 0.31919E-15 0.13878E-15 0.22204E-15
 0.19429E-15 0.45183E-12 0.84808E-08 0.17614E-12 0.86042E-15 0.37130E-13 0.30323E-11 0.27850E-11 0.11913E-12 0.92580E-10
 0.27756E-15 0.14772E-07 0.42664E-13 0.21788E-14 0.15613E-15 0.19706E-14 0.43396E-13 0.21718E-11 0.21913E-13 0.31136E-12
 0.31919E-15 0.17773E-12 0.21927E-14 0.15786E-15 0.86736E-16 0.21320E-14 0.35021E-11 0.22818E-11 0.11802E-12 0.28245E-10
 0.41633E-16 0.99920E-15 0.24980E-15 0.10061E-15 0.17347E-15 0.99920E-15 0.14710E-14 0.11380E-14 0.17486E-14 0.12490E-14
 0.19429E-15 0.36467E-13 0.19984E-14 0.21164E-14 0.84655E-15 0.27353E-11 0.29332E-12 0.23814E-13 0.91038E-14 0.11872E-10
 0.16653E-15 0.12422E-11 0.33896E-13 0.13063E-11 0.14155E-14 0.20606E-12 0.46629E-14 0.99920E-15 0.38303E-14 0.13620E-12
 0.27756E-15 0.18069E-11 0.26194E-11 0.15613E-11 0.99920E-15 0.21094E-13 0.88818E-15 0.11935E-14 0.74662E-14 0.14828E-11
 0.83267E-16 0.14981E-12 0.24827E-13 0.14747E-12 0.15266E-14 0.91038E-14 0.37748E-14 0.86597E-14 0.10572E-12 0.54561E-13
 0.18041E-15 0.12923E-09 0.28841E-12 0.39332E-10 0.11102E-14 0.13532E-10 0.18099E-12 0.11607E-11 0.50647E-13 0.28133E-12
 0.13878E-16 0.55511E-16 0.19429E-15 0.22204E-15 0.97145E-16 0.11102E-15 0.27756E-16 0.14572E-15 0.97145E-16 0.13878E-15
 0.13878E-15 0.32834E-12 0.19309E-10 0.13066E-12 0.72164E-15 0.24503E-13 0.60568E-12 0.24883E-11 0.10139E-12 0.22209E-09
 0.76328E-16 0.18961E-10 0.35433E-13 0.16515E-14 0.13184E-15 0.15266E-14 0.26115E-13 0.21264E-11 0.19235E-13 0.30894E-12
 0.19429E-15 0.13114E-12 0.16237E-14 0.14789E-15 0.90206E-16 0.15404E-14 0.58940E-12 0.23776E-11 0.91371E-13 0.17523E-10
  0.0000     0.66613E-15 0.17347E-15 0.10408E-15 0.58113E-16 0.66613E-15 0.12490E-14 0.74940E-15 0.12212E-14 0.80491E-15
 0.11102E-15 0.24109E-13 0.14710E-14 0.15075E-14 0.63838E-15 0.35303E-11 0.99643E-13 0.11768E-13 0.54678E-14 0.23234E-10
 0.27756E-16 0.31333E-12 0.20643E-13 0.30276E-12 0.11796E-14 0.71276E-13 0.21094E-14 0.55511E-15 0.19429E-14 0.51625E-13
 0.12490E-15 0.17847E-11 0.26504E-11 0.17090E-11 0.58287E-15 0.10769E-13 0.49960E-15 0.66613E-15 0.46629E-14 0.10845E-11
 0.83267E-16 0.12504E-12 0.21663E-13 0.11044E-12 0.12490E-14 0.54678E-14 0.18319E-14 0.53013E-14 0.94341E-13 0.41897E-13
 0.90206E-16 0.33739E-09 0.28871E-12 0.21706E-10 0.81879E-15 0.15595E-10 0.68029E-13 0.91252E-12 0.39392E-13 0.21809E-12
  0.0000     0.27756E-16 0.62450E-16 0.22204E-15 0.62450E-16 0.22204E-15 0.11102E-15 0.17347E-15 0.13878E-16 0.12490E-15
 0.55511E-16 0.24516E-12 0.32779E-11 0.10169E-12 0.47531E-15 0.19963E-13 0.16095E-12 0.22712E-11 0.13381E-12 0.24944E-06
 0.27756E-16 0.32655E-11 0.29719E-13 0.11206E-14 0.12447E-15 0.10478E-14 0.14641E-13 0.29124E-11 0.23974E-13 0.38539E-12
 0.11102E-15 0.10202E-12 0.10790E-14 0.12403E-15 0.34694E-16 0.10885E-14 0.15274E-12 0.24580E-11 0.10945E-12 0.11860E-10
 0.27756E-16 0.54123E-15 0.12447E-15 0.48572E-16 0.87604E-16 0.66613E-15 0.11102E-14 0.72164E-15 0.94369E-15 0.67307E-15
 0.11102E-15 0.19831E-13 0.99226E-15 0.10937E-14 0.61062E-15 0.35601E-11 0.47989E-13 0.63283E-14 0.34417E-14 0.41934E-11
 -.13878E-16 0.10348E-12 0.12206E-13 0.98491E-13 0.10547E-14 0.35888E-13 0.13323E-14 0.31919E-15 0.14433E-14 0.27318E-13
 0.11102E-15 0.18109E-11 0.36063E-11 0.19583E-11 0.56899E-15 0.59119E-14 0.30531E-15 0.29143E-15 0.30878E-14 0.70573E-12
 0.69389E-17 0.16154E-12 0.26215E-13 0.12923E-12 0.94369E-15 0.34694E-14 0.12629E-14 0.33723E-14 0.86126E-13 0.42785E-13
 0.90206E-16 0.31196E-07 0.36184E-12 0.13743E-10 0.65226E-15 0.33622E-11 0.34764E-13 0.64822E-12 0.40426E-13 0.17503E-12
 -.41633E-16 -.27756E-16 0.55511E-16 0.27756E-16 0.69389E-16 0.48572E-16 0.83267E-16 0.55511E-16 0.69389E-17 -.13878E-16
 0.41633E-16 0.18922E-12 0.16800E-11 0.78645E-13 0.40939E-15 0.11866E-13 0.63241E-13 0.19940E-11 0.84502E-13 0.19858E-09
 0.34694E-16 0.16185E-11 0.20359E-13 0.75287E-15 0.79797E-16 0.79103E-15 0.77091E-14 0.28049E-11 0.19096E-13 0.29911E-12
 0.34694E-16 0.78625E-13 0.71818E-15 0.11102E-15 0.48572E-16 0.75287E-15 0.58342E-13 0.25274E-11 0.87749E-13 0.85054E-11
 -.27756E-16 0.41633E-15 0.86736E-16 0.13878E-15 0.48572E-16 0.32613E-15 0.87430E-15 0.54123E-15 0.54123E-15 0.40939E-15
 0.90206E-16 0.11727E-13 0.72511E-15 0.75981E-15 0.36776E-15 0.59754E-11 0.18680E-13 0.33029E-14 0.19845E-14 0.57505E-12
 0.27756E-16 0.45644E-13 0.63699E-14 0.42466E-13 0.72858E-15 0.15071E-13 0.48572E-15 0.16653E-15 0.58287E-15 0.12317E-13
 0.55511E-16 0.17037E-11 0.36089E-11 0.21222E-11 0.40246E-15 0.30254E-14 0.23592E-15 0.27062E-15 0.18666E-14 0.59368E-12
 -.69389E-17 0.98997E-13 0.20928E-13 0.10018E-12 0.52736E-15 0.19568E-14 0.51348E-15 0.20400E-14 0.61930E-13 0.33452E-13
 -.41633E-16 0.15858E-09 0.28617E-12 0.93148E-11 0.50654E-15 0.49875E-12 0.14745E-13 0.56415E-12 0.32085E-13 0.14242E-12
 0.13878E-16 0.27756E-16 0.10408E-15 0.34694E-16 0.55511E-16 0.34694E-16 0.83267E-16 0.12490E-15 -.34694E-16 0.27756E-16
 0.27756E-16 0.14860E-12 0.92807E-12 0.64400E-13 0.38164E-15 0.10887E-13 0.27957E-13 0.17824E-11 0.10077E-12 0.31407E-10
 0.13878E-16 0.92914E-12 0.18895E-13 0.67307E-15 0.34694E-16 0.65919E-15 0.51903E-14 0.34149E-11 0.22787E-13 0.32740E-12
 0.69389E-16 0.64344E-13 0.65226E-15 0.69389E-16 0.13878E-16 0.70083E-15 0.26756E-13 0.25218E-11 0.96367E-13 0.63993E-11
 0.13878E-16 0.36082E-15 0.11796E-15 -.13878E-16 -.20817E-16 0.33307E-15 0.68001E-15 0.41633E-15 0.43715E-15 0.38164E-15
 0.83267E-16 0.10769E-13 0.65919E-15 0.58287E-15 0.31919E-15 0.61360E-11 0.11172E-13 0.27894E-14 0.18943E-14 0.35558E-12
 0.69389E-17 0.22371E-13 0.47115E-14 0.21698E-13 0.66613E-15 0.95479E-14 0.56899E-15 0.34001E-15 0.52042E-15 0.78965E-14
 0.55511E-16 0.16121E-11 0.42585E-11 0.22413E-11 0.42327E-15 0.27270E-14 0.13184E-15 0.17347E-15 0.15959E-14 0.45543E-12
 -.34694E-16 0.11341E-12 0.24175E-13 0.10673E-12 0.58981E-15 0.17833E-14 0.63144E-15 0.18319E-14 0.63470E-13 0.32072E-13
 0.69389E-17 0.29914E-10 0.31433E-12 0.68421E-11 0.34001E-15 0.31679E-12 0.89304E-14 0.44739E-12 0.31017E-13 0.11915E-12
 -.48572E-16 -.69389E-17 0.76328E-16 0.27756E-16 0.69389E-17 -.13878E-16 -.76328E-16 0.13878E-16 -.20817E-16 -.13878E-16
  0.0000     0.12025E-12 0.58668E-12 0.51785E-13 0.22898E-15 0.75703E-14 0.14926E-13 0.15885E-11 0.96728E-13 0.14499E-10
 -.69389E-16 0.57906E-12 0.14794E-13 0.40939E-15 0.34694E-16 0.56899E-15 0.32890E-14 0.37261E-11 0.22440E-13 0.32437E-12
 0.41633E-16 0.51917E-13 0.49960E-15 0.48572E-16 0.41633E-16 0.49266E-15 0.13975E-13 0.25749E-11 0.83406E-13 0.48742E-11
 -.27756E-16 0.20817E-15 0.12490E-15 0.97145E-16 -.69389E-17 0.22898E-15 0.63838E-15 0.34001E-15 0.43715E-15 0.45103E-15
 -.20817E-16 0.74454E-14 0.50654E-15 0.40246E-15 0.23592E-15 0.11381E-10 0.59328E-14 0.16237E-14 0.10408E-14 0.16151E-12
 -.27756E-16 0.12879E-13 0.30323E-14 0.12046E-13 0.56205E-15 0.52805E-14 0.13878E-15 0.11102E-15 0.29837E-15 0.47462E-14
  0.0000     0.15101E-11 0.45657E-11 0.24197E-11 0.23592E-15 0.15127E-14 0.69389E-16 0.69389E-16 0.10478E-14 0.39711E-12
 -.27756E-16 0.10682E-12 0.23849E-13 0.90643E-13 0.39552E-15 0.11172E-14 0.20817E-15 0.10825E-14 0.53631E-13 0.26833E-13
 0.69389E-17 0.13425E-10 0.31607E-12 0.50735E-11 0.34001E-15 0.14246E-12 0.49682E-14 0.39525E-12 0.26333E-13 0.99684E-13
 -.20817E-16 -.34694E-16 0.69389E-17 0.34694E-16 0.20817E-16 0.13878E-16 -.69389E-17 0.41633E-16 0.69389E-17 -.20817E-16
 0.20817E-16 0.96326E-13 0.40455E-12 0.42168E-13 0.17347E-15 0.61201E-14 0.79520E-14 0.13968E-11 0.87395E-13 0.39689E-11
 -.69389E-17 0.40310E-12 0.12677E-13 0.40246E-15 0.69389E-17 0.39552E-15 0.22482E-14 0.39091E-11 0.19755E-13 0.33623E-12
 0.13878E-16 0.42154E-13 0.33307E-15 0.83267E-16 -.69389E-17 0.41633E-15 0.75495E-14 0.24370E-11 0.74170E-13 0.38722E-11
 -.62450E-16 0.18735E-15 0.83267E-16 -.27756E-16 0.27756E-16 0.25674E-15 0.39552E-15 0.24286E-15 0.23592E-15 0.22898E-15
  0.0000     0.60160E-14 0.34001E-15 0.29143E-15 0.21511E-15 0.15501E-10 0.36568E-14 0.11727E-14 0.78410E-15 0.92579E-13
 -.48572E-16 0.70430E-14 0.21788E-14 0.68834E-14 0.36776E-15 0.33237E-14 0.25674E-15 0.11102E-15 0.24980E-15 0.29907E-14
 -.34694E-16 0.13610E-11 0.46427E-11 0.23316E-11 0.20123E-15 0.10270E-14 -.13878E-16 0.83267E-16 0.84655E-15 0.35230E-12
 -.13878E-16 0.92412E-13 0.20428E-13 0.77521E-13 0.28449E-15 0.84655E-15 0.16653E-15 0.86042E-15 0.49426E-13 0.23502E-13
 -.27756E-16 0.37645E-11 0.32815E-12 0.39879E-11 0.20123E-15 0.82975E-13 0.31780E-14 0.35540E-12 0.23141E-13 0.85786E-13
 -.41633E-16 -.27756E-16 0.20817E-16 -.13878E-16 0.41633E-16 -.27756E-16 -.13878E-16 0.27756E-16 0.41633E-16 0.76328E-16
 -.69389E-17 0.80255E-13 0.26888E-12 0.34611E-13 0.13878E-15 0.51209E-14 0.49891E-14 0.12403E-11 0.86750E-13 0.24724E-11
 -.69389E-17 0.26453E-12 0.10568E-13 0.26368E-15 0.11102E-15 0.36082E-15 0.16306E-14 0.61113E-11 0.22621E-13 0.33855E-12
 -.27756E-16 0.34847E-13 0.27062E-15 0.27756E-16 0.41633E-16 0.29143E-15 0.45866E-14 0.24519E-11 0.76598E-13 0.30946E-11
 -.41633E-16 0.22204E-15 0.90206E-16 0.55511E-16  0.0000     0.11102E-15 0.38858E-15 0.21511E-15 0.22204E-15 0.25674E-15
  0.0000     0.51278E-14 0.32613E-15 0.24980E-15 0.18041E-15 0.27309E-10 0.24286E-14 0.90900E-15 0.72858E-15 0.64872E-13
 -.69389E-17 0.47670E-14 0.16584E-14 0.44062E-14 0.38858E-15 0.22898E-14 0.15266E-15 0.65919E-16 0.18735E-15 0.21511E-14
 -.27756E-16 0.12377E-11 0.69900E-11 0.24133E-11 0.22204E-15 0.75634E-15 0.36429E-16 0.11970E-15 0.61756E-15 0.31841E-12
 0.69389E-17 0.89290E-13 0.23065E-13 0.80075E-13 0.31225E-15 0.79103E-15 0.18735E-15 0.76328E-15 0.35243E-13 0.21524E-13
 -.27756E-16 0.23070E-11 0.33122E-12 0.31378E-11 0.22204E-15 0.58009E-13 0.22898E-14 0.32276E-12 0.21330E-13 0.73143E-13
 -.55511E-16 -.34694E-16 -.13878E-16 -.41633E-16 -.34694E-16 -.27756E-16 -.27756E-16 0.55511E-16 -.27756E-16 -.13878E-16
 -.55511E-16 0.64504E-13 0.19841E-12 0.29352E-13 -.13878E-16 0.32890E-14 0.32474E-14 0.10832E-11 0.62783E-13 0.99046E-12
 -.20817E-16 0.19663E-12 0.82157E-14 0.19429E-15 -.20817E-16 0.20123E-15 0.10547E-14 0.89981E-11 0.17715E-13 0.28408E-12
 -.69389E-16 0.29407E-13 0.18041E-15 -.48572E-16 -.76328E-16 0.18041E-15 0.29213E-14 0.23037E-11 0.66461E-13 0.25483E-11
 -.76328E-16 0.55511E-16 0.69389E-16 -.69389E-17 -.90206E-16 0.97145E-16 0.24286E-15 0.55511E-16 0.13878E-15 0.20817E-15
 -.41633E-16 0.32266E-14 0.15959E-15 0.11102E-15 0.34694E-16 0.10186E-09 0.14884E-14 0.41633E-15 0.43715E-15 0.34400E-13
 -.11102E-15 0.30947E-14 0.10825E-14 0.29005E-14 0.18735E-15 0.12594E-14 0.17347E-16 -.10408E-16 0.10235E-15 0.13357E-14
 -.55511E-16 0.10870E-11 0.95434E-11 0.22694E-11 0.16653E-15 0.33654E-15 -.10669E-15 -.13704E-15 0.34001E-15 0.29064E-12
 -.69389E-16 0.63755E-13 0.17646E-13 0.66870E-13 0.12837E-15 0.33307E-15 0.15439E-15 0.41980E-15 0.28141E-13 0.18666E-13
 -.76328E-16 0.93639E-12 0.27725E-12 0.25736E-11 0.15266E-15 0.31326E-13 0.12525E-14 0.29595E-12 0.18562E-13 0.65239E-13
 -.55511E-16 -.13878E-16 0.83267E-16 0.90206E-16 0.16653E-15  0.0000     0.13878E-16 0.11102E-15 0.13878E-16 -.69389E-17
 -.13878E-16 0.55018E-13 0.16210E-12 0.22649E-13 0.83267E-16 0.31780E-14 0.19776E-14 0.95766E-12 0.72352E-13 0.64398E-12
  0.0000     0.16032E-12 0.68417E-14 0.16653E-15 0.27756E-16 0.21511E-15 0.74940E-15 0.87140E-11 0.20761E-13 0.29447E-12
  0.0000     0.22891E-13 0.19429E-15 0.55511E-16 0.27756E-16 0.33307E-15 0.17347E-14 0.22491E-11 0.64157E-13 0.20920E-11
 0.27756E-16 0.90206E-16 0.97145E-16 0.90206E-16 -.55511E-16 0.12490E-15 0.23592E-15 0.23592E-15 0.24980E-15 0.19776E-15
 0.11102E-15 0.31988E-14 0.29143E-15 0.11102E-15 0.69389E-16 0.71561E-09 0.11935E-14 0.56032E-15 0.36776E-15 0.32530E-13
 0.20817E-16 0.19568E-14 0.88818E-15 0.17486E-14 0.21511E-15 0.12212E-14 0.19949E-16 0.16653E-15 0.34955E-15 0.12369E-14
  0.0000     0.96289E-12 0.84189E-11 0.22151E-11 0.22204E-15 0.51608E-15 0.11102E-15 0.12143E-16 0.53429E-15 0.25967E-12
 0.27756E-16 0.72102E-13 0.20345E-13 0.64698E-13 0.20817E-15 0.36082E-15 0.20990E-15 0.52389E-15 0.22485E-13 0.16584E-13
  0.0000     0.61338E-12 0.28773E-12 0.20957E-11 0.21858E-15 0.29714E-13 0.11536E-14 0.26248E-12 0.16723E-13 0.56698E-13
 -.83267E-16 -.48572E-16 -.41633E-16 -.41633E-16  0.0000     0.27756E-16 0.13878E-16 0.13878E-16 -.13878E-16 0.55511E-16
 -.55511E-16 0.45394E-13 0.12264E-12 0.20685E-13  0.0000     0.24286E-14 0.15543E-14 0.84063E-12 0.64573E-13 0.31182E-12
 0.13878E-16 0.12149E-12 0.71748E-14 0.18735E-15 0.55511E-16 0.19429E-15 0.80491E-15 0.15432E-10 0.17902E-13 0.27824E-12
 -.97145E-16 0.20851E-13 0.18041E-15 -.41633E-16 -.55511E-16 0.22204E-15 0.14017E-14 0.21454E-11 0.58654E-13 0.17419E-11
 -.13878E-16 -.69389E-17 0.41633E-16 -.69389E-16 -.27756E-16 0.27756E-16 0.13878E-15 0.15959E-15 0.11796E-15 0.27756E-16
 -.13878E-16 0.24702E-14 0.16653E-15 0.19429E-15 0.41633E-16 0.71981E-08 0.83267E-15 0.32266E-15 0.41633E-15 0.19040E-13
 -.41633E-16 0.15057E-14 0.86042E-15 0.14988E-14 0.17347E-15 0.83267E-15 0.41633E-16 0.27756E-16 0.10061E-15 0.64532E-15
 -.27756E-16 0.83922E-12 0.12872E-10 0.20809E-11 0.14572E-15 0.19082E-15 -.27756E-16 -.14398E-15 0.26368E-15 0.23793E-12
 -.69389E-17 0.62977E-13 0.17389E-13 0.57891E-13 0.48572E-16 0.36082E-15 0.48572E-16 0.34694E-15 0.24841E-13 0.15044E-13
  0.0000     0.29661E-12 0.27089E-12 0.17450E-11 0.83267E-16 0.17368E-13 0.59328E-15 0.24003E-12 0.15127E-13 0.50675E-13
  0.0000     -.41633E-16 0.27756E-16 0.27756E-16  0.0000     0.13878E-16 -.41633E-16 -.13878E-16 -.55511E-16  0.0000    
 -.13878E-16 0.38469E-13 0.10118E-12 0.17431E-13 0.13184E-15 0.20539E-14 0.11102E-14 0.73919E-12 0.58037E-13 0.20262E-12
 -.69389E-16 0.10011E-12 0.49405E-14 0.83267E-16 -.55511E-16 0.16653E-15 0.47184E-15 0.24636E-10 0.21594E-13 0.26808E-12
  0.0000     0.17542E-13 0.13878E-15  0.0000     -.13878E-16 0.97145E-16 0.97145E-15 0.20706E-11 0.58717E-13 0.14593E-11
 0.41633E-16 0.12490E-15 0.27756E-16  0.0000     0.27756E-16 0.69389E-16 0.18041E-15 0.22204E-15 0.27756E-15 0.83267E-16
 0.27756E-16 0.20539E-14 0.15266E-15 0.97145E-16 0.83267E-16 0.32826E-10 0.63838E-15 0.58981E-15 0.51348E-15 0.15987E-13
  0.0000     0.11657E-14 0.49960E-15 0.11241E-14 0.23592E-15 0.69389E-15 0.10755E-15 0.69389E-16 0.14225E-15 0.55511E-15
 -.41633E-16 0.72992E-12 0.16978E-10 0.19712E-11 0.26368E-15 0.45103E-15 0.11102E-15 -.34694E-17 0.38858E-15 0.23179E-12
 -.55511E-16 0.55081E-13 0.20747E-13 0.56122E-13 0.20123E-15 0.20817E-15 0.90206E-16 0.38858E-15 0.18312E-13 0.13739E-13
 -.27756E-16 0.19103E-12 0.26118E-12 0.14539E-11 0.19429E-15 0.14669E-13 0.77716E-15 0.23275E-12 0.14044E-13 0.44749E-13
 -.83267E-16 -.83267E-16 -.41633E-16 -.13878E-16  0.0000     -.83267E-16  0.0000     0.69389E-16 -.41633E-16 0.13878E-16
 -.97145E-16 0.31475E-13 0.81560E-13 0.15044E-13 -.41633E-16 0.16653E-14 0.83267E-15 0.64584E-12 0.47448E-13 0.14254E-12
 -.41633E-16 0.80894E-13 0.48017E-14 0.11102E-15 0.69389E-16 0.15266E-15 0.45797E-15 0.52061E-10 0.16528E-13 0.21953E-12
 -.27756E-16 0.15044E-13 0.97145E-16 0.27756E-16 -.83267E-16 0.12490E-15 0.63838E-15 0.19177E-11 0.49044E-13 0.12390E-11
  0.0000     0.69389E-17 0.41633E-16 -.41633E-16 -.27756E-16 0.83267E-16 0.69389E-16 0.69389E-16 0.12490E-15 0.83267E-16
 -.83267E-16 0.15821E-14 0.16653E-15 0.83267E-16 0.69389E-16 0.18899E-10 0.45797E-15 0.19429E-15 0.24980E-15 0.10825E-13
 -.27756E-16 0.90206E-15 0.47184E-15 0.76328E-15 0.97145E-16 0.44409E-15 -.12490E-15 0.27756E-16 0.13878E-15 0.44409E-15
 -.13878E-16 0.62915E-12 0.26151E-10 0.17747E-11 0.97145E-16 0.41633E-16 -.69389E-16 -.27756E-16 0.69389E-16 0.21227E-12
 -.27756E-16 0.43937E-13 0.15821E-13 0.46754E-13 0.97145E-16 0.11102E-15 -.83267E-16 0.22204E-15 0.14849E-13 0.11852E-13
 -.11102E-15 0.13411E-12 0.21266E-12 0.12373E-11  0.0000     0.98671E-14 0.36082E-15 0.21191E-12 0.12018E-13 0.41397E-13
 -.41633E-16 0.13878E-16 0.41633E-16 0.27756E-16 0.55511E-16 -.27756E-16 0.13878E-16  0.0000     -.27756E-16 0.41633E-16
 -.27756E-16 0.26756E-13 0.67571E-13 0.13795E-13 0.55511E-16 0.15821E-14 0.69389E-15 0.56696E-12 0.42563E-13 0.89331E-13
 -.41633E-16 0.67085E-13 0.38858E-14 0.83267E-16 -.27756E-16 0.11102E-15 0.38858E-15 0.65816E-09 0.20581E-13 0.19963E-12
 -.27756E-16 0.13739E-13 0.12490E-15 0.13878E-16 -.41633E-16 0.12490E-15 0.61062E-15 0.18473E-11 0.49724E-13 0.10452E-11
 -.41633E-16 0.69389E-16 0.97145E-16  0.0000     0.27756E-16 0.27756E-16 0.19429E-15 0.22204E-15 0.41633E-16 0.55511E-16
 -.13878E-16 0.15821E-14 0.19429E-15 0.15266E-15  0.0000     0.71804E-11 0.33307E-15 0.30531E-15 0.27756E-15 0.10131E-13
  0.0000     0.86042E-15 0.38858E-15 0.73552E-15 0.16653E-15 0.26368E-15  0.0000     0.55511E-16 0.12490E-15 0.44409E-15
 0.27756E-16 0.54375E-12 0.82733E-10 0.16663E-11 0.11102E-15 0.41633E-16 0.27756E-16 0.55511E-16 0.15266E-15 0.20697E-12
 -.13878E-16 0.39094E-13 0.19401E-13 0.45922E-13 0.23592E-15 0.30531E-15 0.41633E-16 0.20817E-15 0.14086E-13 0.11074E-13
  0.0000     0.84446E-13 0.19271E-12 0.10398E-11 0.11102E-15 0.93814E-14 0.38858E-15 0.20434E-12 0.11310E-13 0.37303E-13
 -.83267E-16 -.13878E-16 0.55511E-16 0.55511E-16 0.55511E-16 -.83267E-16 0.41633E-16 0.27756E-16 0.13878E-16 -.27756E-16
 -.20817E-16 0.22440E-13 0.56552E-13 0.11519E-13  0.0000     0.12768E-14 0.55511E-15 0.49373E-12 0.39940E-13 0.57197E-13
 -.27756E-16 0.56219E-13 0.38025E-14 0.12490E-15 -.27756E-16 0.12490E-15 0.26368E-15 0.66394E-08 0.17708E-13 0.17354E-12
 -.27756E-16 0.11588E-13 0.69389E-16 -.11102E-15 -.27756E-16 0.41633E-16 0.47184E-15 0.16793E-11 0.41259E-13 0.89469E-12
 0.27756E-16 0.69389E-16  0.0000     -.27756E-16 -.97145E-16 0.27756E-16 0.97145E-16 0.11102E-15 0.23592E-15 0.55511E-16
 -.27756E-16 0.12490E-14 0.97145E-16 0.41633E-16 0.69389E-16 0.69445E-11 0.36082E-15 0.27756E-15 0.18041E-15 0.77716E-14
 -.41633E-16 0.59674E-15 0.27756E-15 0.58287E-15 0.69389E-16 0.33307E-15 0.11102E-15 -.55511E-16 0.41633E-16 0.30531E-15
 -.55511E-16 0.46549E-12 0.16322E-09 0.14618E-11 0.55511E-16 0.19429E-15 -.27756E-16 0.12490E-15 0.15266E-15 0.18248E-12
 0.13878E-16 0.36443E-13 0.16487E-13 0.38108E-13 0.27756E-15 0.12490E-15 0.11102E-15 0.23592E-15 0.11935E-13 0.94647E-14
 -.41633E-16 0.54567E-13 0.16626E-12 0.89304E-12 0.27756E-16 0.72720E-14 0.30531E-15 0.17862E-12 0.96867E-14 0.34361E-13
 -.58981E-16 -.10408E-16 0.34694E-16  0.0000     0.97145E-16 -.27756E-16 -.27756E-16 0.13878E-16  0.0000     0.55511E-16
 0.10408E-16 0.18707E-13 0.47989E-13 0.10728E-13  0.0000     0.12490E-14 0.45797E-15 0.43190E-12 0.32301E-13 0.33733E-13
 -.55511E-16 0.47656E-13 0.33723E-14 0.41633E-16 0.13878E-16 0.13878E-15 0.29143E-15 0.15370E-09 0.15037E-13 0.14371E-12
 -.27756E-16 0.10589E-13 0.55511E-16 -.41633E-16  0.0000     0.16653E-15 0.49960E-15 0.15687E-11 0.35597E-13 0.76060E-12
 -.41633E-16 0.13878E-16 0.69389E-16 0.27756E-16 -.13878E-16 0.55511E-16 0.13878E-15 0.55511E-16 0.13878E-16 0.83267E-16
 -.41633E-16 0.12768E-14 0.12490E-15 0.11102E-15 0.97145E-16 0.31037E-11 0.26368E-15 0.20817E-15 0.22204E-15 0.71193E-14
 -.55511E-16 0.56899E-15 0.33307E-15 0.51348E-15 0.55511E-16 0.22204E-15  0.0000     -.55511E-16 0.97145E-16 0.27756E-15
 -.83267E-16 0.40046E-12 0.17112E-08 0.13182E-11 -.13878E-16 0.20817E-15 0.55511E-16 -.27756E-16 0.97145E-16 0.18069E-12
 -.27756E-16 0.28935E-13 0.13857E-13 0.32405E-13 0.15266E-15 0.97145E-16 -.27756E-16 0.83267E-16 0.11491E-13 0.83961E-14
 -.52042E-16 0.32592E-13 0.13661E-12 0.75789E-12 0.97145E-16 0.66475E-14 0.22204E-15 0.17547E-12 0.85210E-14 0.31884E-13
 -.41633E-16 -.27756E-16 0.65919E-16 -.55511E-16 0.55511E-16 -.27756E-16 0.13878E-16  0.0000     -.69389E-17 -.52042E-17
 -.69389E-17 0.15883E-13 0.40426E-13 0.99087E-14 0.27756E-16 0.13045E-14 0.49960E-15 0.37703E-12 0.30857E-13 0.20197E-13
 -.17347E-16 0.40259E-13 0.33307E-14 0.55511E-16 0.69389E-16 0.11102E-15 0.30531E-15 0.27840E-10 0.19155E-13 0.12591E-12
 -.97145E-16 0.98671E-14 0.55511E-16  0.0000      0.0000     0.16653E-15 0.45797E-15 0.15172E-11 0.41009E-13 0.65187E-12
 0.27756E-16 0.97145E-16 0.69389E-16 -.27756E-16  0.0000     0.55511E-16 0.11102E-15 0.11102E-15 0.55511E-16 0.97145E-16
 0.27756E-16 0.12074E-14 0.83267E-16 0.11102E-15 0.27756E-16 0.10247E-10 0.36082E-15 0.12490E-15 0.97145E-16 0.70638E-14
 -.27756E-16 0.51348E-15 0.27756E-15 0.48572E-15 0.18041E-15 0.24980E-15 -.41633E-16  0.0000     0.69389E-16 0.27756E-15
 -.69389E-16 0.34692E-12 0.13650E-09 0.12490E-11 0.83267E-16 0.13878E-15 -.27756E-16 -.13878E-16 0.69389E-16 0.13754E-12
 0.69389E-17 0.27874E-13 0.17666E-13 0.37137E-13 0.11102E-15 0.13878E-15 0.41633E-16 0.15266E-15 0.10991E-13 0.82850E-14
 -.90206E-16 0.19391E-13 0.11976E-12 0.64992E-12 0.55511E-16 0.65226E-14 0.16653E-15 0.13251E-12 0.84516E-14 0.29154E-13
 -.43043E-16 0.30385E-16 0.37676E-16 0.37297E-16 0.91073E-16 0.49440E-16 0.22009E-16 0.31659E-16 0.13336E-16 0.63060E-16
 -.48762E-16 0.13178E-13 0.34626E-13 0.94924E-14 0.60715E-16 0.12603E-14 0.53169E-15 0.32978E-12 0.25607E-13 0.14058E-13
 -.26997E-16 0.34565E-13 0.33255E-14 0.65188E-16 0.34694E-16 0.13227E-15 0.28059E-15 0.12207E-10 0.17246E-13 0.95514E-13
 -.31876E-16 0.94629E-14 0.55213E-16 -.76328E-16 0.21684E-17 0.14225E-15 0.42262E-15 0.14254E-11 0.37198E-13 0.55587E-12