PROCAR lm decomposed
# of k-points:   52         # of bands:   28         # of ions:    5

 k-point     1 :    0.00000000 0.00000000 0.00000000     weight = 0.01000000

band     1 # energy  -11.61235061 # occ.  2.00000000
 
ion      s     py     pz     px    dxy    dyz    dz2    dxz  x2-y2    tot
    1  0.007  0.000  0.001  0.000  0.000  0.000  0.000  0.000  0.000  0.008
    2  0.043  0.000  0.002  0.000  0.000  0.000  0.000  0.000  0.000  0.045
    3  0.134  0.000  0.003  0.000  0.000  0.000  0.000  0.000  0.000  0.137
    4  0.304  0.000  0.000  0.000  0.000  0.000  0.009  0.000  0.000  0.314
    5  0.088  0.000  0.001  0.000  0.000  0.000  0.000  0.000  0.000  0.089
tot    0.576  0.000  0.007  0.000  0.000  0.000  0.009  0.000  0.000  0.592
 
band     2 # energy  -10.59722293 # occ.  2.00000000
 
ion      s     py     pz     px    dxy    dyz    dz2    dxz  x2-y2    tot
    1  0.117  0.000  0.010  0.000  0.000  0.000  0.000  0.000  0.000  0.128
    2  0.263  0.000  0.000  0.000  0.000  0.000  0.002  0.000  0.000  0.266
    3  0.050  0.000  0.018  0.000  0.000  0.000  0.001  0.000  0.000  0.068
    4  0.067  0.000  0.008  0.000  0.000  0.000  0.011  0.000  0.000  0.087
    5  0.039  0.000  0.000  0.000  0.000  0.000  0.000  0.000  0.000  0.040
tot    0.537  0.000  0.037  0.000  0.000  0.000  0.015  0.000  0.000  0.588
 
band     3 # energy   -8.98859891 # occ.  2.00000000
 
ion      s     py     pz     px    dxy    dyz    dz2    dxz  x2-y2    tot
    1  0.190  0.000  0.002  0.000  0.000  0.000  0.020  0.000  0.000  0.212
    2  0.004  0.000  0.045  0.000  0.000  0.000  0.001  0.000  0.000  0.050
    3  0.203  0.000  0.000  0.000  0.000  0.000  0.040  0.000  0.000  0.243
    4  0.009  0.000  0.031  0.000  0.000  0.000  0.025  0.000  0.000  0.066
    5  0.032  0.000  0.000  0.000  0.000  0.000  0.000  0.000  0.000  0.032
tot    0.437  0.000  0.079  0.000  0.000  0.000  0.086  0.000  0.000  0.603
 
band     4 # energy   -7.53024819 # occ.  2.00000000
 
ion      s     py     pz     px    dxy    dyz    dz2    dxz  x2-y2    tot
    1  0.109  0.000  0.005  0.000  0.000  0.000  0.131  0.000  0.000  0.245
    2  0.101  0.000  0.003  0.000  0.000  0.000  0.226  0.000  0.000  0.329
    3  0.032  0.000  0.014  0.000  0.000  0.000  0.091  0.000  0.000  0.137
    4  0.000  0.000  0.011  0.000  0.000  0.000  0.014  0.000  0.000  0.026
    5  0.006  0.000  0.000  0.000  0.000  0.000  0.000  0.000  0.000  0.006
tot    0.247  0.000  0.034  0.000  0.000  0.000  0.462  0.000  0.000  0.743
 
band     5 # energy   -6.08297135 # occ.  2.00000000
 
ion      s     py     pz     px    dxy    dyz    dz2    dxz  x2-y2    tot
    1  0.000  0.000  0.000  0.000  0.000  0.000  0.004  0.000  0.000  0.004
    2  0.001  0.000  0.001  0.000  0.000  0.000  0.006  0.000  0.000  0.007
    3  0.002  0.000  0.002  0.000  0.000  0.000  0.077  0.000  0.000  0.081
    4  0.005  0.000  0.042  0.000  0.009  0.000  0.593  0.002  0.000  0.650
    5  0.049  0.000  0.001  0.000  0.000  0.000  0.000  0.000  0.000  0.050
tot    0.056  0.000  0.045  0.000  0.009  0.000  0.680  0.002  0.000  0.792
 
band     6 # energy   -5.56314621 # occ.  2.00000000
 
ion      s     py     pz     px    dxy    dyz    dz2    dxz  x2-y2    tot
    1  0.000  0.000  0.001  0.000  0.000  0.000  0.027  0.000  0.000  0.027
    2  0.001  0.000  0.001  0.000  0.003  0.000  0.002  0.000  0.000  0.007
    3  0.000  0.000  0.006  0.000  0.009  0.000  0.257  0.013  0.000  0.286
    4  0.003  0.000  0.008  0.000  0.469  0.000  0.135  0.001  0.007  0.624
    5  0.002  0.000  0.000  0.001  0.000  0.000  0.000  0.000  0.000  0.003
tot    0.007  0.000  0.016  0.001  0.482  0.001  0.420  0.014  0.007  0.947
 
band     7 # energy   -5.53998901 # occ.  2.00000000
 
ion      s     py     pz     px    dxy    dyz    dz2    dxz  x2-y2    tot
    1  0.000  0.000  0.000  0.000  0.000  0.000  0.001  0.000  0.000  0.001
    2  0.000  0.000  0.000  0.000  0.000  0.000  0.000  0.000  0.008  0.008
    3  0.000  0.000  0.000  0.000  0.000  0.026  0.006  0.000  0.019  0.051
    4  0.000  0.000  0.000  0.000  0.000  0.001  0.002  0.001  0.900  0.905
    5  0.000  0.001  0.000  0.000  0.000  0.000  0.000  0.000  0.000  0.001
tot    0.000  0.001  0.000  0.000  0.001  0.028  0.009  0.001  0.927  0.966
 
band     8 # energy   -5.51369829 # occ.  2.00000000
 
ion      s     py     pz     px    dxy    dyz    dz2    dxz  x2-y2    tot
    1  0.000  0.000  0.001  0.000  0.000  0.000  0.035  0.000  0.000  0.035
    2  0.001  0.000  0.003  0.000  0.005  0.000  0.003  0.000  0.000  0.012
    3  0.002  0.000  0.003  0.000  0.009  0.000  0.349  0.013  0.000  0.377
    4  0.001  0.000  0.012  0.000  0.424  0.000  0.073  0.000  0.003  0.514
    5  0.003  0.000  0.000  0.001  0.000  0.000  0.000  0.000  0.000  0.004
tot    0.007  0.000  0.019  0.001  0.438  0.000  0.460  0.014  0.003  0.941
 
band     9 # energy   -5.31986068 # occ.  2.00000000
 
ion      s     py     pz     px    dxy    dyz    dz2    dxz  x2-y2    tot
    1  0.001  0.000  0.005  0.000  0.000  0.000  0.255  0.000  0.000  0.261
    2  0.004  0.000  0.000  0.000  0.001  0.000  0.584  0.000  0.000  0.589
    3  0.001  0.000  0.013  0.000  0.000  0.000  0.053  0.001  0.000  0.067
    4  0.002  0.000  0.006  0.000  0.004  0.000  0.000  0.001  0.000  0.012
    5  0.003  0.000  0.000  0.000  0.000  0.000  0.000  0.000  0.000  0.003
tot    0.010  0.000  0.025  0.000  0.005  0.000  0.892  0.002  0.000  0.933
 
band    10 # energy   -5.28225163 # occ.  2.00000000
 
ion      s     py     pz     px    dxy    dyz    dz2    dxz  x2-y2    tot
    1  0.000  0.000  0.000  0.000  0.005  0.000  0.000  0.000  0.009  0.015
    2  0.000  0.000  0.000  0.000  0.003  0.034  0.001  0.020  0.006  0.064
    3  0.000  0.000  0.000  0.000  0.268  0.015  0.000  0.010  0.457  0.750
    4  0.000  0.000  0.000  0.000  0.008  0.074  0.000  0.044  0.011  0.138
    5  0.000  0.000  0.000  0.000  0.000  0.000  0.000  0.000  0.000  0.000
tot    0.000  0.000  0.000  0.000  0.284  0.124  0.001  0.074  0.483  0.967
 
band    11 # energy   -5.27976043 # occ.  2.00000000
 
ion      s     py     pz     px    dxy    dyz    dz2    dxz  x2-y2    tot
    1  0.000  0.000  0.000  0.000  0.010  0.000  0.000  0.000  0.006  0.016
    2  0.000  0.000  0.000  0.000  0.010  0.020  0.000  0.034  0.007  0.071
    3  0.000  0.000  0.000  0.000  0.466  0.007  0.000  0.012  0.278  0.763
    4  0.000  0.000  0.000  0.000  0.007  0.039  0.000  0.067  0.003  0.116
    5  0.000  0.000  0.000  0.000  0.000  0.000  0.000  0.000  0.000  0.000
tot    0.000  0.000  0.000  0.000  0.494  0.065  0.001  0.113  0.294  0.966
 
band    12 # energy   -5.22733013 # occ.  2.00000000
 
ion      s     py     pz     px    dxy    dyz    dz2    dxz  x2-y2    tot
    1  0.000  0.000  0.000  0.000  0.003  0.017  0.000  0.011  0.005  0.037
    2  0.000  0.000  0.000  0.000  0.342  0.005  0.000  0.003  0.500  0.851
    3  0.000  0.000  0.000  0.000  0.000  0.032  0.000  0.021  0.000  0.053
    4  0.000  0.000  0.000  0.000  0.006  0.007  0.000  0.005  0.008  0.026
    5  0.000  0.000  0.000  0.000  0.000  0.000  0.000  0.000  0.000  0.000
tot    0.000  0.000  0.000  0.000  0.351  0.061  0.001  0.041  0.513  0.967
 
band    13 # energy   -5.22608716 # occ.  2.00000000
 
ion      s     py     pz     px    dxy    dyz    dz2    dxz  x2-y2    tot
    1  0.000  0.000  0.000  0.000  0.004  0.012  0.001  0.017  0.003  0.036
    2  0.000  0.000  0.000  0.000  0.495  0.005  0.000  0.007  0.339  0.846
    3  0.000  0.000  0.000  0.000  0.002  0.022  0.000  0.032  0.002  0.058
    4  0.000  0.000  0.000  0.000  0.009  0.005  0.000  0.007  0.006  0.027
    5  0.000  0.000  0.000  0.000  0.000  0.000  0.000  0.000  0.000  0.000
tot    0.000  0.000  0.000  0.000  0.510  0.043  0.001  0.063  0.349  0.967
 
band    14 # energy   -4.97129549 # occ.  2.00000000
 
ion      s     py     pz     px    dxy    dyz    dz2    dxz  x2-y2    tot
    1  0.000  0.000  0.000  0.000  0.236  0.005  0.000  0.002  0.598  0.841
    2  0.000  0.000  0.000  0.000  0.000  0.059  0.000  0.023  0.001  0.084
    3  0.000  0.000  0.000  0.000  0.008  0.002  0.000  0.001  0.021  0.031
    4  0.000  0.000  0.000  0.000  0.001  0.007  0.000  0.003  0.001  0.012
    5  0.000  0.000  0.000  0.000  0.000  0.000  0.000  0.000  0.000  0.000
tot    0.000  0.000  0.000  0.000  0.245  0.073  0.000  0.029  0.621  0.968
 
band    15 # energy   -4.97066250 # occ.  2.00000000
 
ion      s     py     pz     px    dxy    dyz    dz2    dxz  x2-y2    tot
    1  0.000  0.000  0.000  0.000  0.599  0.002  0.000  0.005  0.236  0.842
    2  0.000  0.000  0.000  0.000  0.001  0.023  0.000  0.059  0.000  0.083
    3  0.000  0.000  0.000  0.000  0.022  0.001  0.000  0.002  0.009  0.034
    4  0.000  0.000  0.000  0.000  0.001  0.002  0.000  0.006  0.000  0.010
    5  0.000  0.000  0.000  0.000  0.000  0.000  0.000  0.000  0.000  0.000
tot    0.000  0.000  0.000  0.000  0.623  0.028  0.000  0.072  0.246  0.968
 
band    16 # energy   -4.87924986 # occ.  2.00000000
 
ion      s     py     pz     px    dxy    dyz    dz2    dxz  x2-y2    tot
    1  0.026  0.000  0.000  0.000  0.000  0.000  0.393  0.000  0.000  0.419
    2  0.012  0.000  0.044  0.000  0.001  0.000  0.050  0.000  0.000  0.108
    3  0.000  0.000  0.077  0.000  0.007  0.000  0.001  0.003  0.000  0.089
    4  0.014  0.000  0.041  0.000  0.002  0.001  0.026  0.023  0.000  0.107
    5  0.016  0.000  0.000  0.000  0.000  0.000  0.000  0.000  0.000  0.016
tot    0.068  0.000  0.163  0.000  0.011  0.001  0.470  0.026  0.001  0.740
 
band    17 # energy   -4.76590842 # occ.  2.00000000
 
ion      s     py     pz     px    dxy    dyz    dz2    dxz  x2-y2    tot
    1  0.001  0.000  0.000  0.000  0.000  0.002  0.008  0.002  0.001  0.013
    2  0.000  0.000  0.001  0.000  0.009  0.003  0.002  0.002  0.013  0.030
    3  0.000  0.000  0.002  0.000  0.061  0.051  0.000  0.037  0.083  0.235
    4  0.000  0.000  0.002  0.000  0.001  0.399  0.000  0.293  0.001  0.696
    5  0.001  0.001  0.000  0.000  0.000  0.000  0.000  0.000  0.000  0.001
tot    0.002  0.001  0.005  0.001  0.072  0.455  0.010  0.334  0.098  0.976
 
band    18 # energy   -4.73061770 # occ.  2.00000000
 
ion      s     py     pz     px    dxy    dyz    dz2    dxz  x2-y2    tot
    1  0.000  0.000  0.000  0.000  0.000  0.002  0.004  0.002  0.000  0.008
    2  0.000  0.000  0.000  0.000  0.012  0.002  0.001  0.002  0.010  0.027
    3  0.000  0.000  0.001  0.000  0.073  0.046  0.000  0.059  0.058  0.238
    4  0.000  0.000  0.001  0.000  0.004  0.308  0.000  0.389  0.003  0.705
    5  0.000  0.000  0.000  0.000  0.000  0.000  0.000  0.000  0.000  0.001
tot    0.001  0.000  0.003  0.000  0.089  0.358  0.005  0.452  0.071  0.979
 
band    19 # energy   -4.47782310 # occ.  2.00000000
 
ion      s     py     pz     px    dxy    dyz    dz2    dxz  x2-y2    tot
    1  0.000  0.000  0.000  0.000  0.026  0.035  0.000  0.013  0.067  0.141
    2  0.000  0.000  0.000  0.000  0.018  0.320  0.000  0.124  0.045  0.506
    3  0.000  0.000  0.000  0.000  0.007  0.181  0.000  0.071  0.018  0.278
    4  0.000  0.000  0.000  0.000  0.003  0.036  0.000  0.013  0.008  0.059
    5  0.000  0.000  0.000  0.000  0.000  0.000  0.000  0.000  0.000  0.000
tot    0.000  0.000  0.000  0.000  0.054  0.571  0.000  0.221  0.138  0.984
 
band    20 # energy   -4.47698546 # occ.  2.00000000
 
ion      s     py     pz     px    dxy    dyz    dz2    dxz  x2-y2    tot
    1  0.000  0.000  0.000  0.000  0.067  0.014  0.000  0.035  0.026  0.142
    2  0.000  0.000  0.000  0.000  0.044  0.125  0.000  0.321  0.017  0.507
    3  0.000  0.000  0.000  0.000  0.017  0.067  0.000  0.176  0.006  0.268
    4  0.000  0.000  0.000  0.000  0.007  0.017  0.000  0.041  0.002  0.067
    5  0.000  0.000  0.000  0.000  0.000  0.000  0.000  0.000  0.000  0.000
tot    0.000  0.000  0.000  0.000  0.136  0.223  0.000  0.573  0.052  0.984
 
band    21 # energy   -4.25941184 # occ.  2.00000000
 
ion      s     py     pz     px    dxy    dyz    dz2    dxz  x2-y2    tot
    1  0.000  0.000  0.000  0.000  0.004  0.211  0.000  0.113  0.007  0.336
    2  0.000  0.000  0.000  0.000  0.000  0.077  0.000  0.041  0.000  0.118
    3  0.000  0.000  0.000  0.000  0.003  0.284  0.000  0.153  0.006  0.447
    4  0.000  0.000  0.000  0.000  0.004  0.049  0.000  0.025  0.007  0.085
    5  0.000  0.000  0.000  0.000  0.000  0.000  0.000  0.000  0.000  0.000
tot    0.000  0.000  0.000  0.000  0.011  0.621  0.000  0.333  0.021  0.986
 
band    22 # energy   -4.25811464 # occ.  2.00000000
 
ion      s     py     pz     px    dxy    dyz    dz2    dxz  x2-y2    tot
    1  0.000  0.000  0.000  0.000  0.007  0.113  0.000  0.210  0.004  0.334
    2  0.000  0.000  0.000  0.000  0.000  0.041  0.000  0.076  0.000  0.117
    3  0.000  0.000  0.000  0.000  0.007  0.150  0.000  0.281  0.004  0.442
    4  0.000  0.000  0.000  0.000  0.006  0.030  0.000  0.054  0.003  0.093
    5  0.000  0.000  0.000  0.000  0.000  0.000  0.000  0.000  0.000  0.000
tot    0.000  0.000  0.000  0.000  0.020  0.334  0.000  0.622  0.011  0.986
 
band    23 # energy   -3.98749333 # occ.  2.00000000
 
ion      s     py     pz     px    dxy    dyz    dz2    dxz  x2-y2    tot
    1  0.000  0.000  0.000  0.000  0.003  0.363  0.000  0.209  0.005  0.580
    2  0.000  0.000  0.000  0.000  0.008  0.172  0.000  0.099  0.015  0.295
    3  0.000  0.000  0.000  0.000  0.002  0.062  0.000  0.036  0.004  0.105
    4  0.000  0.000  0.000  0.000  0.001  0.006  0.000  0.003  0.001  0.010
    5  0.000  0.000  0.000  0.000  0.000  0.000  0.000  0.000  0.000  0.000
tot    0.000  0.000  0.000  0.000  0.014  0.603  0.000  0.348  0.024  0.990
 
band    24 # energy   -3.98679937 # occ.  2.00000000
 
ion      s     py     pz     px    dxy    dyz    dz2    dxz  x2-y2    tot
    1  0.000  0.000  0.000  0.000  0.005  0.210  0.000  0.363  0.003  0.580
    2  0.000  0.000  0.000  0.000  0.015  0.099  0.000  0.172  0.008  0.294
    3  0.000  0.000  0.000  0.000  0.004  0.036  0.000  0.062  0.002  0.104
    4  0.000  0.000  0.000  0.000  0.001  0.004  0.000  0.006  0.000  0.011
    5  0.000  0.000  0.000  0.000  0.000  0.000  0.000  0.000  0.000  0.000
tot    0.000  0.000  0.000  0.000  0.024  0.348  0.000  0.603  0.014  0.990
 
band    25 # energy   -2.92078552 # occ.  2.00000000
 
ion      s     py     pz     px    dxy    dyz    dz2    dxz  x2-y2    tot
    1  0.020  0.000  0.152  0.000  0.000  0.000  0.031  0.000  0.000  0.203
    2  0.015  0.000  0.079  0.000  0.000  0.000  0.023  0.000  0.000  0.117
    3  0.012  0.000  0.036  0.000  0.000  0.000  0.018  0.000  0.000  0.066
    4  0.009  0.000  0.012  0.000  0.000  0.000  0.008  0.000  0.000  0.030
    5  0.004  0.000  0.000  0.000  0.000  0.000  0.000  0.000  0.000  0.004
tot    0.060  0.000  0.280  0.000  0.000  0.000  0.081  0.000  0.000  0.420
 
band    26 # energy    1.60989850 # occ.  0.00000000
 
ion      s     py     pz     px    dxy    dyz    dz2    dxz  x2-y2    tot
    1  0.018  0.000  0.002  0.000  0.000  0.000  0.018  0.000  0.000  0.038
    2  0.025  0.000  0.001  0.000  0.000  0.000  0.023  0.000  0.000  0.050
    3  0.033  0.000  0.001  0.000  0.000  0.000  0.029  0.000  0.000  0.063
    4  0.035  0.000  0.000  0.000  0.000  0.000  0.037  0.000  0.000  0.072
    5  0.000  0.000  0.002  0.000  0.000  0.000  0.000  0.000  0.000  0.003
tot    0.112  0.000  0.007  0.000  0.000  0.000  0.107  0.000  0.000  0.225
 
band    27 # energy    1.93638157 # occ.  0.00000000
 
ion      s     py     pz     px    dxy    dyz    dz2    dxz  x2-y2    tot
    1  0.006  0.000  0.004  0.000  0.000  0.000  0.006  0.000  0.000  0.015
    2  0.001  0.000  0.004  0.000  0.000  0.000  0.001  0.000  0.000  0.006
    3  0.000  0.000  0.005  0.000  0.000  0.000  0.000  0.000  0.000  0.005
    4  0.003  0.000  0.003  0.000  0.000  0.000  0.005  0.000  0.000  0.011
    5  0.001  0.000  0.001  0.000  0.000  0.000  0.000  0.000  0.000  0.002
tot    0.011  0.000  0.016  0.000  0.000  0.000  0.012  0.000  0.000  0.039
 
band    28 # energy    2.36537035 # occ.  0.00000000
 
ion      s     py     pz     px    dxy    dyz    dz2    dxz  x2-y2    tot
    1  0.005  0.000  0.002  0.000  0.000  0.000  0.005  0.000  0.000  0.011
    2  0.001  0.000  0.003  0.000  0.000  0.000  0.001  0.000  0.000  0.005
    3  0.000  0.000  0.003  0.000  0.000  0.000  0.000  0.000  0.000  0.003
    4  0.002  0.000  0.002  0.000  0.000  0.000  0.003  0.000  0.000  0.007
    5  0.001  0.000  0.000  0.000  0.000  0.000  0.000  0.000  0.000  0.001
tot    0.008  0.000  0.010  0.000  0.000  0.000  0.009  0.000  0.000  0.027
 

 k-point     2 :    0.10000000 0.00000000 0.00000000     weight = 0.02000000

band     1 # energy  -11.30769716 # occ.  2.00000000
 
ion      s     py     pz     px    dxy    dyz    dz2    dxz  x2-y2    tot
    1  0.006  0.000  0.001  0.000  0.000  0.000  0.000  0.000  0.000  0.007
    2  0.040  0.000  0.001  0.001  0.000  0.000  0.000  0.000  0.000  0.043
    3  0.127  0.001  0.003  0.003  0.000  0.000  0.000  0.000  0.000  0.134
    4  0.296  0.003  0.000  0.008  0.000  0.000  0.008  0.000  0.000  0.316
    5  0.092  0.000  0.001  0.000  0.000  0.000  0.000  0.000  0.000  0.093
tot    0.561  0.004  0.007  0.011  0.000  0.000  0.008  0.001  0.000  0.592
 
band     2 # energy  -10.29948711 # occ.  2.00000000
 
ion      s     py     pz     px    dxy    dyz    dz2    dxz  x2-y2    tot
    1  0.112  0.001  0.010  0.002  0.000  0.000  0.000  0.001  0.000  0.126
    2  0.256  0.002  0.000  0.006  0.000  0.000  0.002  0.000  0.000  0.266
    3  0.052  0.000  0.017  0.001  0.000  0.000  0.000  0.001  0.000  0.073
    4  0.060  0.001  0.008  0.002  0.000  0.000  0.011  0.001  0.000  0.084
    5  0.040  0.000  0.000  0.000  0.000  0.000  0.000  0.000  0.000  0.040
tot    0.520  0.004  0.036  0.011  0.001  0.001  0.013  0.003  0.000  0.589
 
band     3 # energy   -8.72620722 # occ.  2.00000000
 
ion      s     py     pz     px    dxy    dyz    dz2    dxz  x2-y2    tot
    1  0.179  0.001  0.002  0.004  0.000  0.000  0.017  0.000  0.000  0.205
    2  0.005  0.000  0.044  0.000  0.000  0.002  0.001  0.005  0.000  0.057
    3  0.194  0.002  0.000  0.005  0.000  0.000  0.037  0.000  0.000  0.239
    4  0.006  0.000  0.031  0.000  0.001  0.002  0.026  0.006  0.000  0.073
    5  0.033  0.000  0.000  0.000  0.000  0.000  0.000  0.000  0.000  0.033
tot    0.417  0.003  0.079  0.010  0.001  0.004  0.081  0.011  0.000  0.607
 
band     4 # energy   -7.30978033 # occ.  2.00000000
 
ion      s     py     pz     px    dxy    dyz    dz2    dxz  x2-y2    tot
    1  0.105  0.001  0.004  0.004  0.001  0.000  0.133  0.000  0.000  0.249
    2  0.090  0.001  0.004  0.004  0.001  0.000  0.228  0.001  0.000  0.329
    3  0.026  0.000  0.015  0.001  0.000  0.001  0.088  0.003  0.000  0.134
    4  0.000  0.000  0.011  0.000  0.001  0.001  0.014  0.004  0.000  0.031
    5  0.005  0.000  0.000  0.000  0.000  0.000  0.000  0.000  0.000  0.006
tot    0.226  0.003  0.034  0.009  0.003  0.003  0.464  0.008  0.001  0.749
 
band     5 # energy   -6.11634616 # occ.  2.00000000
 
ion      s     py     pz     px    dxy    dyz    dz2    dxz  x2-y2    tot
    1  0.000  0.000  0.000  0.000  0.000  0.000  0.004  0.000  0.000  0.004
    2  0.001  0.000  0.000  0.000  0.002  0.000  0.000  0.000  0.001  0.004
    3  0.000  0.000  0.005  0.000  0.012  0.000  0.123  0.001  0.004  0.146
    4  0.007  0.000  0.038  0.001  0.032  0.031  0.420  0.083  0.006  0.617
    5  0.044  0.000  0.001  0.000  0.000  0.000  0.000  0.000  0.000  0.044
tot    0.052  0.000  0.044  0.001  0.045  0.031  0.547  0.084  0.010  0.815
 
band     6 # energy   -5.66703735 # occ.  2.00000000
 
ion      s     py     pz     px    dxy    dyz    dz2    dxz  x2-y2    tot
    1  0.001  0.000  0.000  0.000  0.002  0.000  0.011  0.000  0.001  0.015
    2  0.001  0.000  0.002  0.000  0.025  0.000  0.097  0.001  0.008  0.134
    3  0.000  0.000  0.016  0.000  0.003  0.028  0.069  0.085  0.001  0.202
    4  0.005  0.000  0.006  0.000  0.252  0.006  0.209  0.015  0.082  0.576
    5  0.001  0.000  0.000  0.000  0.000  0.000  0.000  0.000  0.000  0.002
tot    0.009  0.000  0.025  0.001  0.282  0.035  0.385  0.101  0.092  0.929
 
band     7 # energy   -5.61473755 # occ.  2.00000000
 
ion      s     py     pz     px    dxy    dyz    dz2    dxz  x2-y2    tot
    1  0.000  0.000  0.001  0.000  0.001  0.000  0.046  0.000  0.000  0.048
    2  0.001  0.000  0.002  0.000  0.015  0.005  0.001  0.015  0.005  0.045
    3  0.001  0.000  0.002  0.000  0.014  0.000  0.284  0.000  0.005  0.307
    4  0.000  0.000  0.006  0.000  0.307  0.005  0.110  0.017  0.098  0.545
    5  0.001  0.000  0.000  0.000  0.000  0.000  0.000  0.000  0.000  0.001
tot    0.003  0.000  0.012  0.001  0.337  0.011  0.441  0.033  0.108  0.946
 
band     8 # energy   -5.43609645 # occ.  2.00000000
 
ion      s     py     pz     px    dxy    dyz    dz2    dxz  x2-y2    tot
    1  0.000  0.000  0.000  0.000  0.000  0.000  0.000  0.000  0.000  0.001
    2  0.000  0.000  0.000  0.000  0.004  0.001  0.003  0.001  0.007  0.015
    3  0.000  0.000  0.000  0.000  0.002  0.028  0.003  0.009  0.012  0.054
    4  0.000  0.001  0.000  0.000  0.215  0.001  0.000  0.000  0.679  0.896
    5  0.000  0.001  0.000  0.000  0.000  0.000  0.000  0.000  0.000  0.001
tot    0.000  0.002  0.000  0.001  0.221  0.030  0.007  0.010  0.698  0.968
 
band     9 # energy   -5.36919036 # occ.  2.00000000
 
ion      s     py     pz     px    dxy    dyz    dz2    dxz  x2-y2    tot
    1  0.001  0.000  0.002  0.000  0.017  0.003  0.068  0.009  0.006  0.106
    2  0.001  0.000  0.002  0.000  0.017  0.016  0.162  0.044  0.005  0.248
    3  0.000  0.000  0.005  0.000  0.319  0.003  0.042  0.010  0.102  0.482
    4  0.000  0.000  0.002  0.000  0.009  0.010  0.042  0.024  0.017  0.105
    5  0.002  0.000  0.000  0.000  0.000  0.000  0.000  0.000  0.000  0.002
tot    0.005  0.000  0.012  0.001  0.362  0.032  0.315  0.086  0.129  0.942
 
band    10 # energy   -5.33381684 # occ.  2.00000000
 
ion      s     py     pz     px    dxy    dyz    dz2    dxz  x2-y2    tot
    1  0.004  0.000  0.001  0.000  0.029  0.005  0.035  0.015  0.010  0.098
    2  0.003  0.000  0.008  0.000  0.065  0.025  0.201  0.077  0.021  0.401
    3  0.000  0.000  0.021  0.000  0.082  0.002  0.071  0.009  0.029  0.215
    4  0.002  0.000  0.006  0.000  0.069  0.021  0.022  0.062  0.023  0.204
    5  0.002  0.000  0.000  0.000  0.000  0.000  0.000  0.000  0.000  0.002
tot    0.011  0.000  0.036  0.001  0.244  0.053  0.329  0.163  0.083  0.920
 
band    11 # energy   -5.28766901 # occ.  2.00000000
 
ion      s     py     pz     px    dxy    dyz    dz2    dxz  x2-y2    tot
    1  0.001  0.000  0.000  0.000  0.023  0.004  0.032  0.013  0.008  0.081
    2  0.001  0.000  0.000  0.000  0.468  0.000  0.048  0.000  0.161  0.678
    3  0.000  0.000  0.002  0.000  0.031  0.005  0.075  0.010  0.008  0.130
    4  0.001  0.000  0.001  0.000  0.025  0.005  0.021  0.009  0.005  0.067
    5  0.000  0.000  0.000  0.000  0.000  0.000  0.000  0.000  0.000  0.000
tot    0.003  0.000  0.003  0.001  0.547  0.014  0.176  0.032  0.182  0.957
 
band    12 # energy   -5.20086363 # occ.  2.00000000
 
ion      s     py     pz     px    dxy    dyz    dz2    dxz  x2-y2    tot
    1  0.000  0.000  0.000  0.000  0.003  0.003  0.000  0.001  0.009  0.017
    2  0.000  0.000  0.000  0.000  0.003  0.057  0.000  0.019  0.005  0.085
    3  0.000  0.000  0.000  0.000  0.165  0.038  0.000  0.012  0.478  0.694
    4  0.000  0.000  0.000  0.000  0.000  0.126  0.000  0.044  0.002  0.172
    5  0.000  0.000  0.000  0.000  0.000  0.000  0.000  0.000  0.000  0.000
tot    0.000  0.001  0.000  0.000  0.171  0.225  0.001  0.077  0.494  0.969
 
band    13 # energy   -5.12790427 # occ.  2.00000000
 
ion      s     py     pz     px    dxy    dyz    dz2    dxz  x2-y2    tot
    1  0.000  0.000  0.000  0.000  0.002  0.022  0.004  0.007  0.007  0.042
    2  0.000  0.001  0.000  0.000  0.196  0.003  0.001  0.002  0.607  0.810
    3  0.000  0.000  0.000  0.000  0.008  0.039  0.000  0.012  0.029  0.088
    4  0.000  0.000  0.000  0.000  0.006  0.001  0.000  0.000  0.020  0.027
    5  0.000  0.000  0.000  0.000  0.000  0.000  0.000  0.000  0.000  0.000
tot    0.000  0.001  0.000  0.000  0.212  0.065  0.004  0.022  0.663  0.967
 
band    14 # energy   -5.11229720 # occ.  2.00000000
 
ion      s     py     pz     px    dxy    dyz    dz2    dxz  x2-y2    tot
    1  0.003  0.000  0.003  0.000  0.029  0.003  0.360  0.008  0.009  0.415
    2  0.001  0.000  0.019  0.000  0.041  0.011  0.066  0.034  0.010  0.181
    3  0.000  0.000  0.011  0.000  0.175  0.012  0.002  0.037  0.060  0.297
    4  0.002  0.000  0.007  0.000  0.008  0.001  0.001  0.002  0.001  0.022
    5  0.003  0.000  0.000  0.000  0.000  0.000  0.000  0.000  0.000  0.003
tot    0.009  0.000  0.040  0.000  0.253  0.027  0.428  0.081  0.080  0.918
 
band    15 # energy   -4.99467556 # occ.  2.00000000
 
ion      s     py     pz     px    dxy    dyz    dz2    dxz  x2-y2    tot
    1  0.002  0.000  0.000  0.001  0.545  0.001  0.040  0.004  0.184  0.777
    2  0.000  0.000  0.007  0.000  0.005  0.003  0.015  0.010  0.002  0.043
    3  0.001  0.000  0.004  0.000  0.008  0.015  0.028  0.045  0.003  0.103
    4  0.000  0.000  0.001  0.000  0.012  0.003  0.000  0.009  0.004  0.029
    5  0.000  0.000  0.000  0.000  0.000  0.000  0.000  0.000  0.000  0.000
tot    0.003  0.000  0.013  0.001  0.570  0.022  0.084  0.067  0.192  0.952
 
band    16 # energy   -4.88682084 # occ.  2.00000000
 
ion      s     py     pz     px    dxy    dyz    dz2    dxz  x2-y2    tot
    1  0.000  0.001  0.000  0.000  0.177  0.012  0.000  0.004  0.532  0.725
    2  0.000  0.000  0.000  0.000  0.001  0.101  0.000  0.034  0.002  0.138
    3  0.000  0.000  0.000  0.000  0.007  0.012  0.000  0.004  0.025  0.048
    4  0.000  0.000  0.000  0.000  0.001  0.043  0.000  0.014  0.002  0.060
    5  0.000  0.000  0.000  0.000  0.000  0.000  0.000  0.000  0.000  0.000
tot    0.000  0.001  0.000  0.000  0.186  0.167  0.000  0.055  0.561  0.970
 
band    17 # energy   -4.75423243 # occ.  2.00000000
 
ion      s     py     pz     px    dxy    dyz    dz2    dxz  x2-y2    tot
    1  0.000  0.000  0.000  0.000  0.025  0.007  0.000  0.001  0.054  0.087
    2  0.000  0.000  0.000  0.000  0.005  0.006  0.000  0.005  0.033  0.048
    3  0.000  0.000  0.000  0.000  0.035  0.095  0.001  0.009  0.145  0.285
    4  0.000  0.000  0.000  0.000  0.001  0.441  0.000  0.112  0.007  0.561
    5  0.000  0.000  0.000  0.000  0.000  0.000  0.000  0.000  0.000  0.001
tot    0.000  0.001  0.000  0.000  0.065  0.548  0.001  0.126  0.239  0.981
 
band    18 # energy   -4.69906487 # occ.  2.00000000
 
ion      s     py     pz     px    dxy    dyz    dz2    dxz  x2-y2    tot
    1  0.000  0.000  0.000  0.000  0.026  0.006  0.004  0.022  0.014  0.073
    2  0.000  0.000  0.000  0.000  0.040  0.016  0.005  0.032  0.007  0.101
    3  0.002  0.000  0.001  0.000  0.068  0.052  0.022  0.252  0.010  0.408
    4  0.000  0.000  0.007  0.000  0.014  0.060  0.005  0.286  0.002  0.375
    5  0.004  0.000  0.000  0.001  0.000  0.000  0.000  0.000  0.000  0.005
tot    0.007  0.000  0.008  0.001  0.149  0.134  0.037  0.591  0.034  0.961
 
band    19 # energy   -4.48637779 # occ.  2.00000000
 
ion      s     py     pz     px    dxy    dyz    dz2    dxz  x2-y2    tot
    1  0.000  0.000  0.000  0.000  0.034  0.046  0.000  0.023  0.104  0.207
    2  0.000  0.000  0.000  0.000  0.017  0.276  0.000  0.090  0.047  0.429
    3  0.000  0.000  0.000  0.000  0.014  0.139  0.000  0.044  0.039  0.236
    4  0.000  0.000  0.000  0.000  0.002  0.079  0.000  0.024  0.007  0.112
    5  0.000  0.000  0.000  0.000  0.000  0.000  0.000  0.000  0.000  0.000
tot    0.000  0.000  0.000  0.000  0.067  0.540  0.000  0.180  0.197  0.984
 
band    20 # energy   -4.45330792 # occ.  2.00000000
 
ion      s     py     pz     px    dxy    dyz    dz2    dxz  x2-y2    tot
    1  0.000  0.000  0.004  0.000  0.032  0.105  0.002  0.293  0.010  0.446
    2  0.000  0.000  0.004  0.000  0.039  0.053  0.000  0.167  0.015  0.278
    3  0.003  0.000  0.002  0.000  0.007  0.019  0.024  0.052  0.004  0.110
    4  0.000  0.000  0.003  0.000  0.002  0.024  0.000  0.092  0.001  0.122
    5  0.002  0.000  0.000  0.000  0.000  0.000  0.000  0.000  0.000  0.002
tot    0.005  0.000  0.013  0.000  0.079  0.201  0.027  0.604  0.029  0.958
 
band    21 # energy   -4.28922726 # occ.  2.00000000
 
ion      s     py     pz     px    dxy    dyz    dz2    dxz  x2-y2    tot
    1  0.012  0.000  0.014  0.000  0.014  0.083  0.085  0.241  0.004  0.454
    2  0.001  0.000  0.001  0.000  0.010  0.080  0.002  0.254  0.003  0.351
    3  0.001  0.000  0.003  0.000  0.004  0.002  0.009  0.004  0.001  0.026
    4  0.001  0.000  0.005  0.000  0.000  0.016  0.000  0.047  0.000  0.069
    5  0.002  0.000  0.000  0.000  0.000  0.000  0.000  0.000  0.000  0.003
tot    0.017  0.000  0.023  0.001  0.028  0.181  0.097  0.546  0.009  0.902
 
band    22 # energy   -4.25477624 # occ.  2.00000000
 
ion      s     py     pz     px    dxy    dyz    dz2    dxz  x2-y2    tot
    1  0.000  0.000  0.000  0.000  0.003  0.237  0.000  0.082  0.010  0.332
    2  0.000  0.000  0.000  0.000  0.004  0.073  0.000  0.021  0.013  0.111
    3  0.000  0.000  0.000  0.000  0.002  0.332  0.000  0.109  0.005  0.448
    4  0.000  0.000  0.000  0.000  0.003  0.062  0.000  0.023  0.008  0.096
    5  0.000  0.000  0.000  0.000  0.000  0.000  0.000  0.000  0.000  0.000
tot    0.000  0.000  0.000  0.000  0.011  0.704  0.000  0.235  0.036  0.987
 
band    23 # energy   -3.98262044 # occ.  2.00000000
 
ion      s     py     pz     px    dxy    dyz    dz2    dxz  x2-y2    tot
    1  0.000  0.000  0.000  0.000  0.002  0.404  0.000  0.135  0.007  0.550
    2  0.000  0.000  0.000  0.000  0.005  0.222  0.000  0.074  0.016  0.318
    3  0.000  0.000  0.000  0.000  0.002  0.077  0.000  0.025  0.006  0.111