  20  20   0   0
  0.2336395E+02  0.5522883E-09  0.3905268E-09  0.2166505E-08  0.5000000E-15
  1.000000000000000E-004
  CAR 
 unknown system                          
      6.44620856    -38.63932341  301     -0.76359023      1.00000000
    -38.639  0.0000E+00  0.0000E+00
    -38.489  0.0000E+00  0.0000E+00
    -38.339  0.0000E+00  0.0000E+00
    -38.188  0.0000E+00  0.0000E+00
    -38.038  0.0000E+00  0.0000E+00
    -37.888  0.0000E+00  0.0000E+00
    -37.738  0.0000E+00  0.0000E+00
    -37.587  0.0000E+00  0.0000E+00
    -37.437  0.0000E+00  0.0000E+00
    -37.287  0.0000E+00  0.0000E+00
    -37.136  0.0000E+00  0.0000E+00
    -36.986  0.0000E+00  0.0000E+00
    -36.836  0.0000E+00  0.0000E+00
    -36.686  0.0000E+00  0.0000E+00
    -36.535  0.0000E+00  0.2000E+01
    -36.385  0.0000E+00  0.2000E+01
    -36.235  0.0000E+00  0.2000E+01
    -36.084  0.0000E+00  0.2000E+01
    -35.934  0.0000E+00  0.2000E+01
    -35.784  0.0000E+00  0.2000E+01
    -35.634  0.0000E+00  0.2000E+01
    -35.483  0.0000E+00  0.2000E+01
    -35.333  0.0000E+00  0.2000E+01
    -35.183  0.0000E+00  0.4000E+01
    -35.032  0.0000E+00  0.4000E+01
    -34.882  0.0000E+00  0.4000E+01
    -34.732  0.0000E+00  0.4000E+01
    -34.582  0.0000E+00  0.4000E+01
    -34.431  0.0000E+00  0.4000E+01
    -34.281  0.0000E+00  0.6000E+01
    -34.131  0.0000E+00  0.6000E+01
    -33.980  0.0000E+00  0.6000E+01
    -33.830  0.0000E+00  0.6000E+01
    -33.680  0.0000E+00  0.6000E+01
    -33.530  0.0000E+00  0.6000E+01
    -33.379  0.0000E+00  0.8000E+01
    -33.229  0.0000E+00  0.8000E+01
    -33.079  0.0000E+00  0.8000E+01
    -32.928  0.0000E+00  0.8000E+01
    -32.778  0.0000E+00  0.8000E+01
    -32.628  0.0000E+00  0.8000E+01
    -32.478  0.0000E+00  0.8000E+01
    -32.327  0.0000E+00  0.8000E+01
    -32.177  0.0000E+00  0.8000E+01
    -32.027  0.0000E+00  0.8000E+01
    -31.876  0.0000E+00  0.8000E+01
    -31.726  0.0000E+00  0.8000E+01
    -31.576  0.0000E+00  0.8000E+01
    -31.426  0.0000E+00  0.8000E+01
    -31.275  0.0000E+00  0.8000E+01
    -31.125  0.0000E+00  0.8000E+01
    -30.975  0.0000E+00  0.8000E+01
    -30.824  0.0000E+00  0.8000E+01
    -30.674  0.0000E+00  0.8000E+01
    -30.524  0.0000E+00  0.8000E+01
    -30.374  0.0000E+00  0.8000E+01
    -30.223  0.0000E+00  0.8000E+01
    -30.073  0.0000E+00  0.8000E+01
    -29.923  0.0000E+00  0.8000E+01
    -29.773  0.0000E+00  0.8000E+01
    -29.622  0.0000E+00  0.8000E+01
    -29.472  0.0000E+00  0.8000E+01
    -29.322  0.0000E+00  0.8000E+01
    -29.171  0.0000E+00  0.8000E+01
    -29.021  0.0000E+00  0.8000E+01
    -28.871  0.0000E+00  0.8000E+01
    -28.721  0.0000E+00  0.8000E+01
    -28.570  0.0000E+00  0.8000E+01
    -28.420  0.0000E+00  0.8000E+01
    -28.270  0.0000E+00  0.8000E+01
    -28.119  0.0000E+00  0.8000E+01
    -27.969  0.0000E+00  0.8000E+01
    -27.819  0.0000E+00  0.8000E+01
    -27.669  0.0000E+00  0.8000E+01
    -27.518  0.0000E+00  0.8000E+01
    -27.368  0.0000E+00  0.8000E+01
    -27.218  0.0000E+00  0.8000E+01
    -27.067  0.0000E+00  0.8000E+01
    -26.917  0.0000E+00  0.8000E+01
    -26.767  0.0000E+00  0.8000E+01
    -26.617  0.0000E+00  0.8000E+01
    -26.466  0.0000E+00  0.8000E+01
    -26.316  0.0000E+00  0.8000E+01
    -26.166  0.0000E+00  0.8000E+01
    -26.015  0.0000E+00  0.8000E+01
    -25.865  0.0000E+00  0.8000E+01
    -25.715  0.0000E+00  0.8000E+01
    -25.565  0.0000E+00  0.8000E+01
    -25.414  0.0000E+00  0.8000E+01
    -25.264  0.0000E+00  0.8000E+01
    -25.114  0.0000E+00  0.8000E+01
    -24.963  0.0000E+00  0.8000E+01
    -24.813  0.0000E+00  0.8000E+01
    -24.663  0.0000E+00  0.8000E+01
    -24.513  0.0000E+00  0.8000E+01
    -24.362  0.0000E+00  0.8000E+01
    -24.212  0.0000E+00  0.8000E+01
    -24.062  0.0000E+00  0.8000E+01
    -23.911  0.0000E+00  0.8000E+01
    -23.761  0.0000E+00  0.8000E+01
    -23.611  0.0000E+00  0.8000E+01
    -23.461  0.0000E+00  0.8000E+01
    -23.310  0.0000E+00  0.8000E+01
    -23.160  0.0000E+00  0.8000E+01
    -23.010  0.0000E+00  0.8000E+01
    -22.859  0.0000E+00  0.8000E+01
    -22.709  0.0000E+00  0.8000E+01
    -22.559  0.0000E+00  0.8000E+01
    -22.409  0.0000E+00  0.8000E+01
    -22.258  0.0000E+00  0.8000E+01
    -22.108  0.0000E+00  0.8000E+01
    -21.958  0.0000E+00  0.8000E+01
    -21.807  0.0000E+00  0.8000E+01
    -21.657  0.0000E+00  0.8000E+01
    -21.507  0.0000E+00  0.8000E+01
    -21.357  0.0000E+00  0.8000E+01
    -21.206  0.0000E+00  0.8000E+01
    -21.056  0.0000E+00  0.8000E+01
    -20.906  0.0000E+00  0.8000E+01
    -20.755  0.0000E+00  0.8000E+01
    -20.605  0.2779E+01  0.8119E+01
    -20.455  0.4335E+01  0.8760E+01
    -20.305  0.2915E+01  0.9664E+01
    -20.154  0.4764E+01  0.1057E+02
    -20.004  0.3989E+01  0.1136E+02
    -19.854  0.2232E+01  0.1179E+02
    -19.703  0.9772E+01  0.1267E+02
    -19.553  0.0000E+00  0.1400E+02
    -19.403  0.0000E+00  0.1400E+02
    -19.253  0.8524E+01  0.1514E+02
    -19.102  0.1687E+02  0.1661E+02
    -18.952  0.0000E+00  0.1800E+02
    -18.802  0.0000E+00  0.1800E+02
    -18.651  0.1144E+02  0.1945E+02
    -18.501  0.2662E+02  0.2227E+02
    -18.351  0.2754E+02  0.2554E+02
    -18.201  0.1415E+02  0.2790E+02
    -18.050  0.0000E+00  0.3000E+02
    -17.900  0.0000E+00  0.3000E+02
    -17.750  0.7971E+01  0.3130E+02
    -17.599  0.2073E+01  0.3196E+02
    -17.449  0.0000E+00  0.3200E+02
    -17.299  0.2359E+02  0.3247E+02
    -17.149  0.1718E+02  0.3638E+02
    -16.998  0.2940E+01  0.3995E+02
    -16.848  0.0000E+00  0.4000E+02
    -16.698  0.0000E+00  0.4000E+02
    -16.547  0.8796E+01  0.4122E+02
    -16.397  0.2283E+01  0.4213E+02
    -16.247  0.1242E+02  0.4473E+02
    -16.097  0.1229E+02  0.4795E+02
    -15.946  0.0000E+00  0.5000E+02
    -15.796  0.0000E+00  0.5000E+02
    -15.646  0.0000E+00  0.5000E+02
    -15.495  0.2518E+01  0.5006E+02
    -15.345  0.3560E+01  0.5234E+02
    -15.195  0.3190E+02  0.5339E+02
    -15.045  0.3957E+01  0.5592E+02
    -14.894  0.0000E+00  0.5600E+02
    -14.744  0.0000E+00  0.5600E+02
    -14.594  0.0000E+00  0.5600E+02
    -14.443  0.0000E+00  0.5600E+02
    -14.293  0.0000E+00  0.5600E+02
    -14.143  0.0000E+00  0.5600E+02
    -13.993  0.0000E+00  0.5600E+02
    -13.842  0.0000E+00  0.5600E+02
    -13.692  0.0000E+00  0.5600E+02
    -13.542  0.0000E+00  0.5600E+02
    -13.391  0.0000E+00  0.5600E+02
    -13.241  0.0000E+00  0.5600E+02
    -13.091  0.0000E+00  0.5600E+02
    -12.941  0.0000E+00  0.5600E+02
    -12.790  0.0000E+00  0.5600E+02
    -12.640  0.0000E+00  0.5600E+02
    -12.490  0.0000E+00  0.5600E+02
    -12.339  0.0000E+00  0.5600E+02
    -12.189  0.0000E+00  0.5600E+02
    -12.039  0.0000E+00  0.5600E+02
    -11.889  0.0000E+00  0.5600E+02
    -11.738  0.0000E+00  0.5600E+02
    -11.588  0.0000E+00  0.5600E+02
    -11.438  0.0000E+00  0.5600E+02
    -11.287  0.0000E+00  0.5600E+02
    -11.137  0.0000E+00  0.5600E+02
    -10.987  0.0000E+00  0.5600E+02
    -10.837  0.0000E+00  0.5600E+02
    -10.686  0.0000E+00  0.5600E+02
    -10.536  0.0000E+00  0.5600E+02
    -10.386  0.0000E+00  0.5600E+02
    -10.235  0.0000E+00  0.5600E+02
    -10.085  0.0000E+00  0.5600E+02
     -9.935  0.0000E+00  0.5600E+02
     -9.785  0.0000E+00  0.5600E+02
     -9.634  0.0000E+00  0.5600E+02
     -9.484  0.0000E+00  0.5600E+02
     -9.334  0.0000E+00  0.5600E+02
     -9.183  0.0000E+00  0.5600E+02
     -9.033  0.0000E+00  0.5600E+02
     -8.883  0.0000E+00  0.5600E+02
     -8.733  0.0000E+00  0.5600E+02
     -8.582  0.0000E+00  0.5600E+02
     -8.432  0.0000E+00  0.5600E+02
     -8.282  0.0000E+00  0.5600E+02
     -8.131  0.0000E+00  0.5600E+02
     -7.981  0.0000E+00  0.5600E+02
     -7.831  0.0000E+00  0.5600E+02
     -7.681  0.0000E+00  0.5600E+02
     -7.530  0.9724E+00  0.5634E+02
     -7.380  0.9719E+00  0.5649E+02
     -7.230  0.9713E+00  0.5663E+02
     -7.079  0.3303E+01  0.5689E+02
     -6.929  0.1420E+02  0.5833E+02
     -6.779  0.9926E+01  0.5983E+02
     -6.629  0.2258E+02  0.6224E+02
     -6.478  0.7685E+01  0.6397E+02
     -6.328  0.7740E+01  0.6506E+02
     -6.178  0.6103E+01  0.6599E+02
     -6.027  0.8596E+01  0.6712E+02
     -5.877  0.1283E+02  0.6888E+02
     -5.727  0.1151E+02  0.7088E+02
     -5.577  0.1362E+02  0.7275E+02
     -5.426  0.1241E+02  0.7483E+02
     -5.276  0.1359E+02  0.7683E+02
     -5.126  0.1696E+02  0.7926E+02
     -4.975  0.1717E+02  0.8144E+02
     -4.825  0.1110E+02  0.8337E+02
     -4.675  0.1438E+02  0.8573E+02
     -4.525  0.7426E+01  0.8752E+02
     -4.374  0.1049E+02  0.8896E+02
     -4.224  0.1056E+02  0.9095E+02
     -4.074  0.1619E+02  0.9378E+02
     -3.923  0.1250E+02  0.9577E+02
     -3.773  0.1414E+02  0.9759E+02
     -3.623  0.9627E+01  0.9965E+02
     -3.473  0.1058E+02  0.1015E+03
     -3.322  0.7306E+01  0.1029E+03
     -3.172  0.1176E+02  0.1039E+03
     -3.022  0.7253E+01  0.1054E+03
     -2.871  0.3784E+02  0.1074E+03
     -2.721  0.8516E+01  0.1103E+03
     -2.571  0.4863E+01  0.1115E+03
     -2.421  0.3205E+01  0.1120E+03
     -2.270  0.6225E+01  0.1135E+03
     -2.120  0.1369E+02  0.1146E+03
     -1.970  0.1338E+02  0.1165E+03
     -1.819  0.2172E+01  0.1179E+03
     -1.669  0.7885E+01  0.1187E+03
     -1.519  0.5545E+01  0.1196E+03
     -1.369  0.4078E+01  0.1202E+03
     -1.218  0.2108E+02  0.1220E+03
     -1.068  0.1350E+02  0.1234E+03
     -0.918  0.1258E+02  0.1254E+03
     -0.767  0.2113E+02  0.1279E+03
     -0.617  0.7422E+01  0.1309E+03
     -0.467  0.8088E+01  0.1320E+03
     -0.317  0.6836E+01  0.1333E+03
     -0.166  0.4449E+01  0.1341E+03
     -0.016  0.3200E+01  0.1347E+03
      0.134  0.7309E+01  0.1355E+03
      0.285  0.3369E+01  0.1361E+03
      0.435  0.8934E+01  0.1370E+03
      0.585  0.5875E+01  0.1382E+03
      0.735  0.4854E+01  0.1395E+03
      0.886  0.7417E+01  0.1405E+03
      1.036  0.8728E+01  0.1418E+03
      1.186  0.3327E+01  0.1425E+03
      1.337  0.4254E+01  0.1430E+03
      1.487  0.3048E+01  0.1441E+03
      1.637  0.4065E+01  0.1446E+03
      1.787  0.5021E+01  0.1454E+03
      1.938  0.4560E+01  0.1463E+03
      2.088  0.4306E+01  0.1470E+03
      2.238  0.6803E+01  0.1476E+03
      2.389  0.4090E+00  0.1479E+03
      2.539  0.2925E+00  0.1480E+03
      2.689  0.1680E+01  0.1481E+03
      2.839  0.3406E+01  0.1486E+03
      2.990  0.3582E+01  0.1491E+03
      3.140  0.7868E+01  0.1498E+03
      3.290  0.2372E+01  0.1508E+03
      3.441  0.2317E+01  0.1512E+03
      3.591  0.6478E+00  0.1516E+03
      3.741  0.5956E+00  0.1517E+03
      3.891  0.5435E+00  0.1518E+03
      4.042  0.4378E+00  0.1519E+03
      4.192  0.3760E+00  0.1519E+03
      4.342  0.2855E+00  0.1520E+03
      4.493  0.0000E+00  0.1520E+03
      4.643  0.0000E+00  0.1520E+03
      4.793  0.0000E+00  0.1520E+03
      4.943  0.0000E+00  0.1520E+03
      5.094  0.0000E+00  0.1520E+03
      5.244  0.0000E+00  0.1520E+03
      5.394  0.0000E+00  0.1520E+03
      5.544  0.0000E+00  0.1520E+03
      5.695  0.0000E+00  0.1520E+03
      5.845  0.0000E+00  0.1520E+03
      5.995  0.0000E+00  0.1520E+03
      6.146  0.0000E+00  0.1520E+03
      6.296  0.0000E+00  0.1520E+03
      6.446  0.0000E+00  0.1520E+03
