   20   20    1    1
  0.2336395E+02  0.5522883E-09  0.3905268E-09  0.2166505E-08  0.5000000E-15
  1.000000000000000E-004
  CAR 
 unknown system                          
    128     12     76
 
  0.0000000E+00  0.0000000E+00  0.0000000E+00  0.2857143E-01
    1      -36.589981   1.000000
    2      -35.266048   1.000000
    3      -34.306073   1.000000
    4      -33.417157   1.000000
    5      -20.503205   1.000000
    6      -20.032108   1.000000
    7      -19.846361   1.000000
    8      -19.355775   1.000000
    9      -19.044573   1.000000
   10      -18.678224   1.000000
   11      -18.588671   1.000000
   12      -18.533385   1.000000
   13      -18.516521   1.000000
   14      -18.343830   1.000000
   15      -18.091631   1.000000
   16      -17.825744   1.000000
   17      -17.309041   1.000000
   18      -17.289434   1.000000
   19      -17.131651   1.000000
   20      -17.050503   1.000000
   21      -16.518238   1.000000
   22      -16.344420   1.000000
   23      -16.290544   1.000000
   24      -16.158513   1.000000
   25      -16.091131   1.000000
   26      -15.436397   1.000000
   27      -15.168471   1.000000
   28      -15.117360   1.000000
   29       -7.105334   1.000000
   30       -6.794696   1.000000
   31       -6.629904   1.000000
   32       -6.004785   1.000000
   33       -5.887951   1.000000
   34       -5.535264   1.000000
   35       -5.441144   1.000000
   36       -5.295232   1.000000
   37       -5.138931   1.000000
   38       -5.056486   1.000000
   39       -4.996932   1.000000
   40       -4.856580   1.000000
   41       -4.761769   1.000000
   42       -4.579642   1.000000
   43       -4.245296   1.000000
   44       -4.120957   1.000000
   45       -4.079195   1.000000
   46       -3.991314   1.000000
   47       -3.804430   1.000000
   48       -3.765996   1.000000
   49       -3.541708   1.000000
   50       -3.248767   1.000000
   51       -3.015061   1.000000
   52       -2.922650   1.000000
   53       -2.908312   1.000000
   54       -2.696686   1.000000
   55       -2.663278   1.000000
   56       -2.389247   1.000000
   57       -2.294742   1.000000
   58       -1.952765   1.000000
   59       -1.913721   1.000000
   60       -1.368679   1.000000
   61       -1.341827   1.000000
   62       -1.085746   1.000000
   63       -1.078577   1.000000
   64       -1.034604   1.000000
   65       -0.865292   1.117828
   66       -0.774560   0.184674
   67       -0.749308   0.000000
   68       -0.512997   0.000000
   69        0.073614   0.000000
   70        0.291248   0.000000
   71        0.388179   0.000000
   72        0.651996   0.000000
   73        1.326995   0.000000
   74        2.655408   0.000000
   75        3.995598   0.000000
   76        4.149274   0.000000
 
  0.2000000E+00  0.0000000E+00  0.0000000E+00  0.5714286E-01
    1      -36.589679   1.000000
    2      -35.265715   1.000000
    3      -34.305746   1.000000
    4      -33.416892   1.000000
    5      -20.563069   1.000000
    6      -20.189416   1.000000
    7      -19.717749   1.000000
    8      -19.344381   1.000000
    9      -19.124006   1.000000
   10      -18.714064   1.000000
   11      -18.589004   1.000000
   12      -18.467106   1.000000
   13      -18.398916   1.000000
   14      -18.351095   1.000000
   15      -18.162349   1.000000
   16      -17.792126   1.000000
   17      -17.309674   1.000000
   18      -17.274972   1.000000
   19      -17.091449   1.000000
   20      -17.058133   1.000000
   21      -16.490565   1.000000
   22      -16.345096   1.000000
   23      -16.291358   1.000000
   24      -16.134693   1.000000
   25      -16.030686   1.000000
   26      -15.437313   1.000000
   27      -15.174270   1.000000
   28      -15.098662   1.000000
   29       -6.934996   1.000000
   30       -6.751479   1.000000
   31       -6.659340   1.000000
   32       -5.977260   1.000000
   33       -5.746921   1.000000
   34       -5.607437   1.000000
   35       -5.535493   1.000000
   36       -5.335931   1.000000
   37       -5.172398   1.000000
   38       -5.128017   1.000000
   39       -4.923156   1.000000
   40       -4.771250   1.000000
   41       -4.689879   1.000000
   42       -4.638280   1.000000
   43       -4.367277   1.000000
   44       -4.342867   1.000000
   45       -4.077075   1.000000
   46       -4.034428   1.000000
   47       -3.954966   1.000000
   48       -3.738471   1.000000
   49       -3.503915   1.000000
   50       -3.360589   1.000000
   51       -3.186757   1.000000
   52       -3.027004   1.000000
   53       -2.934091   1.000000
   54       -2.791349   1.000000
   55       -2.611016   1.000000
   56       -2.519994   1.000000
   57       -2.300844   1.000000
   58       -2.201406   1.000000
   59       -1.890447   1.000000
   60       -1.410720   1.000000
   61       -1.387600   1.000000
   62       -1.099526   1.000000
   63       -1.072569   1.000000
   64       -0.959390   1.000000
   65       -0.867144   1.081114
   66       -0.738325   0.039894
   67       -0.721604   0.000000
   68       -0.615620   0.000000
   69        0.092369   0.000000
   70        0.329384   0.000000
   71        0.365877   0.000000
   72        1.182285   0.000000
   73        2.654607   0.000000
   74        2.682656   0.000000
   75        4.146194   0.000000
   76        4.284679   0.000000
 
  0.4000000E+00  0.0000000E+00  0.0000000E+00  0.5714286E-01
    1      -36.589192   1.000000
    2      -35.265178   1.000000
    3      -34.305216   1.000000
    4      -33.416464   1.000000
    5      -20.663967   1.000000
    6      -20.302081   1.000000
    7      -19.668249   1.000000
    8      -19.301693   1.000000
    9      -19.230016   1.000000
   10      -18.725178   1.000000
   11      -18.589546   1.000000
   12      -18.381514   1.000000
   13      -18.345882   1.000000
   14      -18.293516   1.000000
   15      -18.227940   1.000000
   16      -17.768739   1.000000
   17      -17.310702   1.000000
   18      -17.261378   1.000000
   19      -17.062573   1.000000
   20      -17.024713   1.000000
   21      -16.420454   1.000000
   22      -16.346190   1.000000
   23      -16.311743   1.000000
   24      -16.061773   1.000000
   25      -15.985218   1.000000
   26      -15.438797   1.000000
   27      -15.175310   1.000000
   28      -15.061961   1.000000
   29       -6.823209   1.000000
   30       -6.705685   1.000000
   31       -6.299985   1.000000
   32       -5.916944   1.000000
   33       -5.819127   1.000000
   34       -5.667782   1.000000
   35       -5.608207   1.000000
   36       -5.489287   1.000000
   37       -5.305566   1.000000
   38       -5.103147   1.000000
   39       -4.800861   1.000000
   40       -4.780697   1.000000
   41       -4.685883   1.000000
   42       -4.634128   1.000000
   43       -4.567922   1.000000
   44       -4.497065   1.000000
   45       -4.128531   1.000000
   46       -4.110692   1.000000
   47       -3.895490   1.000000
   48       -3.888261   1.000000
   49       -3.672150   1.000000
   50       -3.513511   1.000000
   51       -3.347817   1.000000
   52       -3.106486   1.000000
   53       -3.066731   1.000000
   54       -3.004641   1.000000
   55       -2.761712   1.000000
   56       -2.505170   1.000000
   57       -2.364293   1.000000
   58       -2.315412   1.000000
   59       -1.745589   1.000000
   60       -1.547203   1.000000
   61       -1.457885   1.000000
   62       -1.196539   1.000000
   63       -1.060030   1.000000
   64       -1.024992   1.000000
   65       -0.845656   1.012498
   66       -0.808558   0.589084
   67       -0.737188   0.000000
   68       -0.393375   0.000000
   69        0.052032   0.000000
   70        0.318401   0.000000
   71        0.397529   0.000000
   72        1.004016   0.000000
   73        1.318198   0.000000
   74        1.780062   0.000000
   75        2.630723   0.000000
   76        2.725297   0.000000
 
  0.0000000E+00  0.1428571E+00  0.0000000E+00  0.5714286E-01
    1      -36.586552   1.000000
    2      -35.262136   1.000000
    3      -34.302170   1.000000
    4      -33.413314   1.000000
    5      -20.449074   1.000000
    6      -19.991443   1.000000
    7      -19.799327   1.000000
    8      -19.311773   1.000000
    9      -19.062487   1.000000
   10      -18.633298   1.000000
   11      -18.603556   1.000000
   12      -18.546941   1.000000
   13      -18.495658   1.000000
   14      -18.304992   1.000000
   15      -18.106876   1.000000
   16      -17.784768   1.000000
   17      -17.281420   1.000000
   18      -17.236619   1.000000
   19      -17.180849   1.000000
   20      -17.065767   1.000000
   21      -16.565571   1.000000
   22      -16.303379   1.000000
   23      -16.263320   1.000000
   24      -16.201773   1.000000
   25      -16.108648   1.000000
   26      -15.385608   1.000000
   27      -15.199605   1.000000
   28      -15.182223   1.000000
   29       -7.047294   1.000000
   30       -6.724760   1.000000
   31       -6.624171   1.000000
   32       -6.330933   1.000000
   33       -5.855926   1.000000
   34       -5.829780   1.000000
   35       -5.539435   1.000000
   36       -5.494130   1.000000
   37       -5.281361   1.000000
   38       -5.217756   1.000000
   39       -5.051397   1.000000
   40       -4.978569   1.000000
   41       -4.865988   1.000000
   42       -4.621099   1.000000
   43       -4.422389   1.000000
   44       -4.419585   1.000000
   45       -4.076374   1.000000
   46       -4.065909   1.000000
   47       -4.019696   1.000000
   48       -3.724602   1.000000
   49       -3.704069   1.000000
   50       -3.353509   1.000000
   51       -3.167035   1.000000
   52       -3.068724   1.000000
   53       -2.933252   1.000000
   54       -2.820645   1.000000
   55       -2.701200   1.000000
   56       -2.557888   1.000000
   57       -2.338369   1.000000
   58       -2.001776   1.000000
   59       -1.973723   1.000000
   60       -1.500665   1.000000
   61       -1.309940   1.000000
   62       -1.093836   1.000000
   63       -0.970827   1.000000
   64       -0.963302   1.038298
   65       -0.743800   0.261130
   66       -0.651349  -0.029904
   67       -0.519602   0.000000
   68       -0.462096   0.000000
   69        0.132347   0.000000
   70        0.489306   0.000000
   71        0.569760   0.000000
   72        0.682310   0.000000
   73        1.423313   0.000000
   74        1.491899   0.000000
   75        2.771530   0.000000
   76        4.396866   0.000000
 
  0.2000000E+00  0.1428571E+00  0.0000000E+00  0.1142857E+00
    1      -36.586283   1.000000
    2      -35.261843   1.000000
    3      -34.301882   1.000000
    4      -33.413085   1.000000
    5      -20.489472   1.000000
    6      -20.145932   1.000000
    7      -19.693970   1.000000
    8      -19.309708   1.000000
    9      -19.111168   1.000000
   10      -18.705884   1.000000
   11      -18.586620   1.000000
   12      -18.483815   1.000000
   13      -18.381030   1.000000
   14      -18.318508   1.000000
   15      -18.160630   1.000000
   16      -17.773257   1.000000
   17      -17.276891   1.000000
   18      -17.236308   1.000000
   19      -17.124092   1.000000
   20      -17.081767   1.000000
   21      -16.537494   1.000000
   22      -16.314092   1.000000
   23      -16.259255   1.000000
   24      -16.173095   1.000000
   25      -16.043122   1.000000
   26      -15.380691   1.000000
   27      -15.211784   1.000000
   28      -15.140708   1.000000
   29       -6.911151   1.000000
   30       -6.703174   1.000000
   31       -6.649538   1.000000
   32       -6.312520   1.000000
   33       -5.950385   1.000000
   34       -5.759474   1.000000
   35       -5.601366   1.000000
   36       -5.501436   1.000000
   37       -5.331263   1.000000
   38       -5.171696   1.000000
   39       -5.049747   1.000000
   40       -4.968815   1.000000
   41       -4.818825   1.000000
   42       -4.649670   1.000000
   43       -4.575664   1.000000
   44       -4.412241   1.000000
   45       -4.349459   1.000000
   46       -4.053149   1.000000
   47       -3.929795   1.000000
   48       -3.818892   1.000000
   49       -3.687572   1.000000
   50       -3.477712   1.000000
   51       -3.163943   1.000000
   52       -3.086280   1.000000
   53       -3.022132   1.000000
   54       -2.958511   1.000000
   55       -2.842424   1.000000
   56       -2.535393   1.000000
   57       -2.363925   1.000000
   58       -2.183340   1.000000
   59       -1.937241   1.000000
   60       -1.620833   1.000000
   61       -1.305215   1.000000
   62       -1.097963   1.000000
   63       -0.969305   1.000000
   64       -0.933198   1.017835
   65       -0.727070   0.309605
   66       -0.708571  -0.013522
   67       -0.526484   0.000000
   68       -0.414219   0.000000
   69        0.173687   0.000000
   70        0.520438   0.000000
   71        0.555303   0.000000
   72        0.837921   0.000000
   73        1.451052   0.000000
   74        1.481072   0.000000
   75        2.769542   0.000000
   76        2.794364   0.000000
 
  0.4000000E+00  0.1428571E+00  0.0000000E+00  0.1142857E+00
    1      -36.585848   1.000000
    2      -35.261370   1.000000
    3      -34.301417   1.000000
    4      -33.412715   1.000000
    5      -20.572390   1.000000
    6      -20.250644   1.000000
    7      -19.664926   1.000000
    8      -19.297223   1.000000
    9      -19.180318   1.000000
   10      -18.734085   1.000000
   11      -18.576422   1.000000
   12      -18.371237   1.000000
   13      -18.332375   1.000000
   14      -18.306920   1.000000
   15      -18.213767   1.000000
   16      -17.773911   1.000000
   17      -17.257074   1.000000
   18      -17.243008   1.000000
   19      -17.095784   1.000000
   20      -17.045469   1.000000
   21      -16.472195   1.000000
   22      -16.332729   1.000000
   23      -16.255652   1.000000
   24      -16.099254   1.000000
   25      -15.998521   1.000000
   26      -15.363030   1.000000
   27      -15.202929   1.000000
   28      -15.091314   1.000000
   29       -6.839958   1.000000
   30       -6.713071   1.000000
   31       -6.414926   1.000000
   32       -6.292428   1.000000
   33       -6.020097   1.000000
   34       -5.779354   1.000000
   35       -5.593084   1.000000
   36       -5.526423   1.000000
   37       -5.443538   1.000000
   38       -5.281063   1.000000
   39       -5.066327   1.000000
   40       -4.944752   1.000000
   41       -4.817813   1.000000
   42       -4.719900   1.000000
   43       -4.677048   1.000000
   44       -4.518580   1.000000
   45       -4.342837   1.000000
   46       -4.135266   1.000000
   47       -3.961172   1.000000
   48       -3.815835   1.000000
   49       -3.777664   1.000000
   50       -3.544223   1.000000
   51       -3.473219   1.000000
   52       -3.221926   1.000000
   53       -3.106806   1.000000
   54       -2.986095   1.000000
   55       -2.885103   1.000000
   56       -2.814412   1.000000
   57       -2.425286   1.000000
   58       -2.146367   1.000000
   59       -1.861588   1.000000
   60       -1.697966   1.000000
   61       -1.296972   1.000000
   62       -1.245027   1.000000
   63       -1.103209   1.000000
   64       -0.928075   1.000000
   65       -0.872792   1.062544
   66       -0.614651  -0.058029
   67       -0.366414   0.000000
   68       -0.327576   0.000000
   69        0.167444   0.000000
   70        0.529106   0.000000
   71        0.585774   0.000000
   72        0.999553   0.000000
   73        1.438990   0.000000
   74        1.726039   0.000000
   75        2.731884   0.000000
   76        2.797125   0.000000
 
  0.0000000E+00  0.2857143E+00  0.0000000E+00  0.5714286E-01
    1      -36.578832   1.000000
    2      -35.253326   1.000000
    3      -34.293381   1.000000
    4      -33.404659   1.000000
    5      -20.383538   1.000000
    6      -19.866883   1.000000
    7      -19.679999   1.000000
    8      -19.218171   1.000000
    9      -19.089399   1.000000
   10      -18.633073   1.000000
   11      -18.580261   1.000000
   12      -18.516121   1.000000
   13      -18.445766   1.000000
   14      -18.218864   1.000000
   15      -18.115162   1.000000
   16      -17.680456   1.000000
   17      -17.306527   1.000000
   18      -17.221145   1.000000
   19      -17.170411   1.000000
   20      -17.044976   1.000000
   21      -16.632210   1.000000
   22      -16.358476   1.000000
   23      -16.215651   1.000000
   24      -16.137702   1.000000
   25      -16.133119   1.000000
   26      -15.373444   1.000000
   27      -15.347521   1.000000
   28      -15.196707   1.000000
   29       -6.990262   1.000000
   30       -6.927451   1.000000
   31       -6.608957   1.000000
   32       -6.527403   1.000000
   33       -6.368203   1.000000
   34       -6.273778   1.000000
   35       -6.004975   1.000000
   36       -5.793102   1.000000
   37       -5.560250   1.000000
   38       -5.458489   1.000000
   39       -5.300609   1.000000
   40       -5.171299   1.000000
   41       -5.044810   1.000000
   42       -4.982961   1.000000
   43       -4.738594   1.000000
   44       -4.526774   1.000000
   45       -4.516103   1.000000
   46       -4.246036   1.000000
   47       -4.180198   1.000000
   48       -3.988560   1.000000
   49       -3.903330   1.000000
   50       -3.708958   1.000000
   51       -3.410208   1.000000
   52       -3.367351   1.000000
   53       -2.971842   1.000000
   54       -2.812451   1.000000
   55       -2.767036   1.000000
   56       -2.695070   1.000000
   57       -2.262771   1.000000
   58       -2.139916   1.000000
   59       -1.982705   1.000000
   60       -1.498609   1.000000
   61       -1.293126   1.000000
   62       -0.984151   1.000000
   63       -0.811577   1.038643
   64       -0.738534   0.391209
   65       -0.690753   0.000000
   66       -0.534263   0.000000
   67       -0.303313   0.000000
   68        0.166234   0.000000
   69        0.374929   0.000000
   70        0.735651   0.000000
   71        0.979981   0.000000
   72        1.020508   0.000000
   73        1.816462   0.000000
   74        1.873526   0.000000
   75        3.109530   0.000000
   76        3.158263   0.000000
 
  0.2000000E+00  0.2857143E+00  0.0000000E+00  0.1142857E+00
    1      -36.578636   1.000000
    2      -35.253122   1.000000
    3      -34.293182   1.000000
    4      -33.404511   1.000000
    5      -20.362087   1.000000
    6      -20.027805   1.000000
    7      -19.646197   1.000000
    8      -19.234368   1.000000
    9      -19.089286   1.000000
   10      -18.625838   1.000000
   11      -18.584847   1.000000
   12      -18.505470   1.000000
   13      -18.380086   1.000000
   14      -18.233966   1.000000
   15      -18.144254   1.000000
   16      -17.716116   1.000000
   17      -17.265453   1.000000
   18      -17.175221   1.000000
   19      -17.158036   1.000000
   20      -17.087116   1.000000
   21      -16.608119   1.000000
   22      -16.295438   1.000000
   23      -16.231871   1.000000
   24      -16.175038   1.000000
   25      -16.040590   1.000000
   26      -15.375735   1.000000
   27      -15.298007   1.000000
   28      -15.155597   1.000000
   29       -6.970007   1.000000
   30       -6.893268   1.000000
   31       -6.691599   1.000000
   32       -6.550782   1.000000
   33       -6.413935   1.000000
   34       -6.276887   1.000000
   35       -6.017638   1.000000
   36       -5.797536   1.000000
   37       -5.633167   1.000000
   38       -5.409109   1.000000
   39       -5.353105   1.000000
   40       -5.182786   1.000000
   41       -5.041614   1.000000
   42       -4.962783   1.000000
   43       -4.833811   1.000000
   44       -4.698686   1.000000
   45       -4.383797   1.000000
   46       -4.280793   1.000000
   47       -4.142428   1.000000
   48       -4.060544   1.000000
   49       -3.876146   1.000000
   50       -3.762467   1.000000
   51       -3.541277   1.000000
   52       -3.347559   1.000000
   53       -3.154735   1.000000
   54       -2.892436   1.000000
   55       -2.883738   1.000000
   56       -2.549556   1.000000
   57       -2.324075   1.000000
   58       -2.083480   1.000000
   59       -2.031027   1.000000
   60       -1.657852   1.000000
   61       -1.257722   1.000000
   62       -0.964208   1.000000
   63       -0.828836   1.033041
   64       -0.791051   0.879831
   65       -0.712051   0.022314
   66       -0.547327   0.000000
   67       -0.221841   0.000000
   68        0.199470   0.000000
   69        0.418240   0.000000
   70        0.874188   0.000000
   71        0.993259   0.000000
   72        1.017529   0.000000
   73        1.856368   0.000000
   74        1.866915   0.000000
   75        3.125937   0.000000
   76        3.128495   0.000000
 
  0.4000000E+00  0.2857143E+00  0.0000000E+00  0.1142857E+00
    1      -36.578318   1.000000
    2      -35.252790   1.000000
    3      -34.292857   1.000000
    4      -33.404271   1.000000
    5      -20.348576   1.000000
    6      -20.151091   1.000000
    7      -19.699203   1.000000
    8      -19.281841   1.000000
    9      -19.052177   1.000000
   10      -18.723073   1.000000
   11      -18.549391   1.000000
   12      -18.384432   1.000000
   13      -18.343325   1.000000
   14      -18.277580   1.000000
   15      -18.131549   1.000000
   16      -17.801566   1.000000
   17      -17.225296   1.000000
   18      -17.182440   1.000000
   19      -17.110378   1.000000
   20      -17.063625   1.000000
   21      -16.552214   1.000000
   22      -16.310779   1.000000
   23      -16.172287   1.000000
   24      -16.132960   1.000000
   25      -16.007313   1.000000
   26      -15.378850   1.000000
   27      -15.173557   1.000000
   28      -15.116566   1.000000
   29       -7.032754   1.000000
   30       -6.940270   1.000000
   31       -6.691989   1.000000
   32       -6.619461   1.000000
   33       -6.494711   1.000000
   34       -6.067500   1.000000
   35       -6.017906   1.000000
   36       -5.853774   1.000000
   37       -5.730343   1.000000
   38       -5.468712   1.000000
   39       -5.331795   1.000000
   40       -5.213344   1.000000
   41       -5.192211   1.000000
   42       -5.068618   1.000000
   43       -4.903437   1.000000
   44       -4.736309   1.000000
   45       -4.239693   1.000000
   46       -4.230534   1.000000
   47       -4.147997   1.000000
   48       -4.087066   1.000000
   49       -3.944163   1.000000
   50       -3.811783   1.000000
   51       -3.681546   1.000000
   52       -3.477817   1.000000
   53       -3.437599   1.000000
   54       -2.914729   1.000000
   55       -2.877590   1.000000
   56       -2.837266   1.000000
   57       -2.150256   1.000000
   58       -2.045915   1.000000
   59       -1.993424   1.000000
   60       -1.735228   1.000000
   61       -1.241742   1.000000
   62       -1.201278   1.000000
   63       -0.941891   1.005385
   64       -0.797696   0.993335
   65       -0.776748   0.529564
   66       -0.334826   0.000000
   67       -0.171564   0.000000
   68        0.259505   0.000000
   69        0.465604   0.000000
   70        1.001058   0.000000
   71        1.025750   0.000000
   72        1.053208   0.000000
   73        1.835623   0.000000
   74        1.875385   0.000000
   75        3.072042   0.000000
   76        3.108478   0.000000
 
  0.0000000E+00  0.4285714E+00  0.0000000E+00  0.5714286E-01
    1      -36.572624   1.000000
    2      -35.246237   1.000000
    3      -34.286310   1.000000
    4      -33.397695   1.000000
    5      -20.391717   1.000000
    6      -19.716420   1.000000
    7      -19.562398   1.000000
    8      -19.190886   1.000000
    9      -19.071031   1.000000
   10      -18.722822   1.000000
   11      -18.542785   1.000000
   12      -18.403056   1.000000
   13      -18.396756   1.000000
   14      -18.186587   1.000000
   15      -18.061608   1.000000
   16      -17.575774   1.000000
   17      -17.432558   1.000000
   18      -17.200586   1.000000
   19      -17.156371   1.000000
   20      -16.978718   1.000000
   21      -16.635402   1.000000
   22      -16.482023   1.000000
   23      -16.179400   1.000000
   24      -16.108800   1.000000
   25      -16.001473   1.000000
   26      -15.524878   1.000000
   27      -15.455777   1.000000
   28      -15.130887   1.000000
   29       -7.571018   1.000000
   30       -6.975884   1.000000
   31       -6.708321   1.000000
   32       -6.595273   1.000000
   33       -6.589203   1.000000
   34       -6.524460   1.000000
   35       -6.358375   1.000000
   36       -5.968813   1.000000
   37       -5.828389   1.000000
   38       -5.639586   1.000000
   39       -5.564066   1.000000
   40       -5.474331   1.000000
   41       -5.140447   1.000000
   42       -4.969870   1.000000
   43       -4.910288   1.000000
   44       -4.728369   1.000000
   45       -4.609758   1.000000
   46       -4.578868   1.000000
   47       -4.435623   1.000000
   48       -4.162165   1.000000
   49       -4.067500   1.000000
   50       -3.715122   1.000000
   51       -3.548377   1.000000
   52       -3.490232   1.000000
   53       -3.003102   1.000000
   54       -2.858395   1.000000
   55       -2.762771   1.000000
   56       -2.734584   1.000000
   57       -2.302125   1.000000
   58       -2.141324   1.000000
   59       -1.885435   1.000000
   60       -1.432485   1.000000
   61       -1.281476   1.000000
   62       -0.870621   1.000000
   63       -0.735768   0.137118
   64       -0.710303  -0.035682
   65       -0.551047   0.000000
   66       -0.410765   0.000000
   67       -0.182705   0.000000
   68        0.652746   0.000000
   69        0.719629   0.000000
   70        0.771282   0.000000
   71        1.395610   0.000000
   72        1.442703   0.000000
   73        2.124385   0.000000
   74        2.269306   0.000000
   75        3.171215   0.000000
   76        3.532332   0.000000
 
  0.2000000E+00  0.4285714E+00  0.0000000E+00  0.1142857E+00
    1      -36.572485   1.000000
    2      -35.246103   1.000000
    3      -34.286180   1.000000
    4      -33.397612   1.000000
    5      -20.329819   1.000000
    6      -19.858190   1.000000
    7      -19.632052   1.000000
    8      -19.155734   1.000000
    9      -19.102868   1.000000
   10      -18.568723   1.000000
   11      -18.511483   1.000000
   12      -18.496557   1.000000
   13      -18.417405   1.000000
   14      -18.163746   1.000000
   15      -18.128870   1.000000
   16      -17.660113   1.000000
   17      -17.302207   1.000000
   18      -17.217103   1.000000
   19      -17.108828   1.000000
   20      -17.042863   1.000000
   21      -16.618496   1.000000
   22      -16.350579   1.000000
   23      -16.218145   1.000000
   24      -16.100624   1.000000
   25      -16.015167   1.000000
   26      -15.457708   1.000000
   27      -15.392676   1.000000
   28      -15.091878   1.000000
   29       -7.581254   1.000000
   30       -6.944088   1.000000
   31       -6.793682   1.000000
   32       -6.752718   1.000000
   33       -6.627667   1.000000
   34       -6.576218   1.000000
   35       -6.270961   1.000000
   36       -5.982260   1.000000
   37       -5.847810   1.000000
   38       -5.770593   1.000000
   39       -5.534747   1.000000
   40       -5.440432   1.000000
   41       -5.158680   1.000000
   42       -5.109776   1.000000
   43       -4.956345   1.000000
   44       -4.815622   1.000000
   45       -4.657488   1.000000
   46       -4.411877   1.000000
   47       -4.297922   1.000000
   48       -4.186045   1.000000
   49       -4.128871   1.000000
   50       -3.763288   1.000000
   51       -3.669259   1.000000
   52       -3.497502   1.000000
   53       -3.199603   1.000000
   54       -2.875778   1.000000
   55       -2.806655   1.000000
   56       -2.631347   1.000000
   57       -2.302493   1.000000
   58       -2.049118   1.000000
   59       -1.919900   1.000000
   60       -1.625968   1.000000
   61       -1.216791   1.000000
   62       -0.851580   1.000000
   63       -0.755259   0.555577
   64       -0.733175   0.016488
   65       -0.699780  -0.005871
   66       -0.381638   0.000000
   67       -0.033654   0.000000
   68        0.675464   0.000000
   69        0.725990   0.000000
   70        0.906937   0.000000
   71        1.409730   0.000000
   72        1.428937   0.000000
   73        1.968813   0.000000
   74        2.255513   0.000000
   75        3.263024   0.000000
   76        3.492274   0.000000
 
  0.4000000E+00  0.4285714E+00  0.0000000E+00  0.1142857E+00
    1      -36.572264   1.000000
    2      -35.245889   1.000000
    3      -34.285972   1.000000
    4      -33.397478   1.000000
    5      -20.175003   1.000000
    6      -20.032018   1.000000
    7      -19.804538   1.000000
    8      -19.222357   1.000000
    9      -18.967792   1.000000
   10      -18.706635   1.000000
   11      -18.492202   1.000000
   12      -18.414287   1.000000
   13      -18.352053   1.000000
   14      -18.235968   1.000000
   15      -18.059954   1.000000
   16      -17.837135   1.000000
   17      -17.232326   1.000000
   18      -17.184748   1.000000
   19      -17.083490   1.000000
   20      -17.022269   1.000000
   21      -16.576345   1.000000
   22      -16.266907   1.000000
   23      -16.160676   1.000000
   24      -16.154965   1.000000
   25      -15.986323   1.000000
   26      -15.460435   1.000000
   27      -15.197741   1.000000
   28      -15.038456   1.000000
   29       -7.601950   1.000000
   30       -7.107149   1.000000
   31       -6.967943   1.000000
   32       -6.843503   1.000000
   33       -6.662660   1.000000
   34       -6.555961   1.000000
   35       -6.088454   1.000000
   36       -6.016295   1.000000
   37       -5.916945   1.000000
   38       -5.842667   1.000000
   39       -5.600872   1.000000
   40       -5.366601   1.000000
   41       -5.292457   1.000000
   42       -5.280851   1.000000
   43       -5.144655   1.000000
   44       -4.748498   1.000000