<?xml version="1.0" encoding="ISO-8859-1"?>
<modeling>
 <generator>
  <i name="program" type="string">vasp </i>
  <i name="version" type="string">5.4.4.18Apr17-6-g9f103f2a35  </i>
  <i name="subversion" type="string">(build Jun 30 2017 11:15:00) complex            parallel </i>
  <i name="platform" type="string">STALLO_VASP_5.4.4 </i>
  <i name="date" type="string">2019 11 06 </i>
  <i name="time" type="string">13:53:57 </i>
 </generator>
 <incar>
  <i type="string" name="PREC">normal    ! low/normal/accurate</i>
  <i type="string" name="ALGO"> Fast      ! Algorithm for electronic re</i>
  <i type="int" name="ISPIN">     1</i>
  <i type="int" name="NELMIN">     4</i>
  <i name="EDIFF">      0.00001000</i>
  <i type="int" name="NSW">     0</i>
  <i name="ENCUT">    500.00000000</i>
  <i type="logical" name="LREAL"> F  </i>
  <i type="int" name="ISMEAR">    -5</i>
  <i name="SIGMA">      0.20000000</i>
  <i type="logical" name="LWAVE"> F  </i>
  <v type="int" name="KPOINT_BSE">    -1     0     0     0</v>
 </incar>
 <structure name="primitive_cell" >
  <crystal>
   <varray name="basis" >
    <v>       5.52288297       0.00000000       0.00000000 </v>
    <v>       0.00000000       3.90526800       0.00000000 </v>
    <v>       0.00000000       0.00000000      21.66504520 </v>
   </varray>
   <i name="volume">    467.27902047 </i>
   <varray name="rec_basis" >
    <v>       0.18106485       0.00000000       0.00000000 </v>
    <v>       0.00000000       0.25606437       0.00000000 </v>
    <v>       0.00000000       0.00000000       0.04615730 </v>
   </varray>
  </crystal>
  <varray name="positions" >
   <v>      -0.50000000       0.00000000       0.27694380 </v>
   <v>      -0.50000000      -0.50000000       0.27694380 </v>
   <v>      -0.50000000       0.00000000       0.40440449 </v>
   <v>       0.25000000      -0.50000000       0.34067414 </v>
   <v>      -0.25000000      -0.50000000       0.34067414 </v>
   <v>       0.00000000       0.00000000       0.27694380 </v>
   <v>       0.00000000       0.00000000       0.40440449 </v>
   <v>       0.00000000      -0.50000000       0.40440449 </v>
   <v>      -0.25000000      -0.50000000       0.46813483 </v>
   <v>       0.25000000      -0.50000000       0.46813483 </v>
   <v>      -0.50000000       0.00000000      -0.46813483 </v>
   <v>      -0.50000000      -0.50000000      -0.46813483 </v>
   <v>       0.00000000       0.00000000      -0.46813483 </v>
   <v>       0.25000000      -0.50000000      -0.40440449 </v>
   <v>      -0.25000000      -0.50000000      -0.40440449 </v>
   <v>      -0.50000000       0.00000000      -0.34067414 </v>
   <v>       0.00000000       0.00000000      -0.34067414 </v>
   <v>       0.00000000      -0.50000000      -0.34067414 </v>
   <v>      -0.25000000      -0.50000000      -0.27694380 </v>
   <v>       0.25000000      -0.50000000      -0.27694380 </v>
  </varray>
 </structure>
 <varray name="primitive_index" >
  <v type="int" >        1 </v>
  <v type="int" >       17 </v>
  <v type="int" >       14 </v>
  <v type="int" >        2 </v>
  <v type="int" >        3 </v>
  <v type="int" >       13 </v>
  <v type="int" >        4 </v>
  <v type="int" >       18 </v>
  <v type="int" >        5 </v>
  <v type="int" >        6 </v>
  <v type="int" >        7 </v>
  <v type="int" >       19 </v>
  <v type="int" >       15 </v>
  <v type="int" >        8 </v>
  <v type="int" >        9 </v>
  <v type="int" >       16 </v>
  <v type="int" >       10 </v>
  <v type="int" >       20 </v>
  <v type="int" >       11 </v>
  <v type="int" >       12 </v>
 </varray>
 <kpoints>
  <generation param="Gamma">
   <v type="int" name="divisions">       5        7        1 </v>
   <v name="usershift">      0.00000000       0.00000000       0.00000000 </v>
   <v name="genvec1">      0.20000000       0.00000000       0.00000000 </v>
   <v name="genvec2">      0.00000000       0.14285714       0.00000000 </v>
   <v name="genvec3">      0.00000000       0.00000000       1.00000000 </v>
   <v name="shift">      0.00000000       0.00000000       0.00000000 </v>
  </generation>
  <varray name="kpointlist" >
   <v>       0.00000000       0.00000000       0.00000000 </v>
   <v>       0.20000000       0.00000000       0.00000000 </v>
   <v>       0.40000000       0.00000000       0.00000000 </v>
   <v>       0.00000000       0.14285714       0.00000000 </v>
   <v>       0.20000000       0.14285714       0.00000000 </v>
   <v>       0.40000000       0.14285714       0.00000000 </v>
   <v>       0.00000000       0.28571429       0.00000000 </v>
   <v>       0.20000000       0.28571429       0.00000000 </v>
   <v>       0.40000000       0.28571429       0.00000000 </v>
   <v>       0.00000000       0.42857143       0.00000000 </v>
   <v>       0.20000000       0.42857143       0.00000000 </v>
   <v>       0.40000000       0.42857143       0.00000000 </v>
  </varray>
  <varray name="weights" >
   <v>       0.02857143 </v>
   <v>       0.05714286 </v>
   <v>       0.05714286 </v>
   <v>       0.05714286 </v>
   <v>       0.11428571 </v>
   <v>       0.11428571 </v>
   <v>       0.05714286 </v>
   <v>       0.11428571 </v>
   <v>       0.11428571 </v>
   <v>       0.05714286 </v>
   <v>       0.11428571 </v>
   <v>       0.11428571 </v>
  </varray>
  <varray name="tetrahedronlist"  type="int" >
   <v type="int" >        2        1        1        2        5 </v>
   <v type="int" >        2        1        1        4        5 </v>
   <v type="int" >        2        1        4        4        5 </v>
   <v type="int" >        2        1        2        2        5 </v>
   <v type="int" >        2        1        2        5        5 </v>
   <v type="int" >        2        1        4        5        5 </v>
   <v type="int" >        2        2        2        3        6 </v>
   <v type="int" >        2        2        2        5        6 </v>
   <v type="int" >        2        2        5        5        6 </v>
   <v type="int" >        2        2        3        3        6 </v>
   <v type="int" >        2        2        3        6        6 </v>
   <v type="int" >        2        2        5        6        6 </v>
   <v type="int" >        4        3        3        3        6 </v>
   <v type="int" >        4        3        3        6        6 </v>
   <v type="int" >        4        3        6        6        6 </v>
   <v type="int" >        2        2        3        3        5 </v>
   <v type="int" >        2        3        3        5        6 </v>
   <v type="int" >        2        3        5        6        6 </v>
   <v type="int" >        2        2        2        3        5 </v>
   <v type="int" >        2        2        3        5        5 </v>
   <v type="int" >        2        3        5        5        6 </v>
   <v type="int" >        2        1        2        2        4 </v>
   <v type="int" >        2        2        2        4        5 </v>
   <v type="int" >        2        2        4        5        5 </v>
   <v type="int" >        2        1        1        2        4 </v>
   <v type="int" >        2        1        2        4        4 </v>
   <v type="int" >        2        2        4        4        5 </v>
   <v type="int" >        2        4        4        5        8 </v>
   <v type="int" >        2        4        4        7        8 </v>
   <v type="int" >        2        4        7        7        8 </v>
   <v type="int" >        2        4        5        5        8 </v>
   <v type="int" >        2        4        5        8        8 </v>
   <v type="int" >        2        4        7        8        8 </v>
   <v type="int" >        2        5        5        6        9 </v>
   <v type="int" >        2        5        5        8        9 </v>
   <v type="int" >        2        5        8        8        9 </v>
   <v type="int" >        2        5        6        6        9 </v>
   <v type="int" >        2        5        6        9        9 </v>
   <v type="int" >        2        5        8        9        9 </v>
   <v type="int" >        4        6        6        6        9 </v>
   <v type="int" >        4        6        6        9        9 </v>
   <v type="int" >        4        6        9        9        9 </v>
   <v type="int" >        2        5        6        6        8 </v>
   <v type="int" >        2        6        6        8        9 </v>
   <v type="int" >        2        6        8        9        9 </v>
   <v type="int" >        2        5        5        6        8 </v>
   <v type="int" >        2        5        6        8        8 </v>
   <v type="int" >        2        6        8        8        9 </v>
   <v type="int" >        2        4        5        5        7 </v>
   <v type="int" >        2        5        5        7        8 </v>
   <v type="int" >        2        5        7        8        8 </v>
   <v type="int" >        2        4        4        5        7 </v>
   <v type="int" >        2        4        5        7        7 </v>
   <v type="int" >        2        5        7        7        8 </v>
   <v type="int" >        2        7        7        8       11 </v>
   <v type="int" >        2        7        7       10       11 </v>
   <v type="int" >        2        7       10       10       11 </v>
   <v type="int" >        2        7        8        8       11 </v>
   <v type="int" >        2        7        8       11       11 </v>
   <v type="int" >        2        7       10       11       11 </v>
   <v type="int" >        2        8        8        9       12 </v>
   <v type="int" >        2        8        8       11       12 </v>
   <v type="int" >        2        8       11       11       12 </v>
   <v type="int" >        2        8        9        9       12 </v>
   <v type="int" >        2        8        9       12       12 </v>
   <v type="int" >        2        8       11       12       12 </v>
   <v type="int" >        4        9        9        9       12 </v>
   <v type="int" >        4        9        9       12       12 </v>
   <v type="int" >        4        9       12       12       12 </v>
   <v type="int" >        2        8        9        9       11 </v>
   <v type="int" >        2        9        9       11       12 </v>
   <v type="int" >        2        9       11       12       12 </v>
   <v type="int" >        2        8        8        9       11 </v>
   <v type="int" >        2        8        9       11       11 </v>
   <v type="int" >        2        9       11       11       12 </v>
   <v type="int" >        2        7        8        8       10 </v>
   <v type="int" >        2        8        8       10       11 </v>
   <v type="int" >        2        8       10       11       11 </v>
   <v type="int" >        2        7        7        8       10 </v>
   <v type="int" >        2        7        8       10       10 </v>
   <v type="int" >        2        8       10       10       11 </v>
   <v type="int" >        4       10       10       11       11 </v>
   <v type="int" >        4       10       10       10       11 </v>
   <v type="int" >        4       10       11       11       11 </v>
   <v type="int" >        4       11       11       12       12 </v>
   <v type="int" >        4       11       11       11       12 </v>
   <v type="int" >        4       11       12       12       12 </v>
   <v type="int" >        6       12       12       12       12 </v>
  </varray>
  <i name="volumeweight">      0.00476190 </i>
 </kpoints>
 <parameters>
  <separator name="general" >
   <i type="string" name="SYSTEM">unknown system</i>
   <i type="logical" name="LCOMPAT"> F  </i>
  </separator>
  <separator name="electronic" >
   <i type="string" name="PREC">normal</i>
   <i name="ENMAX">    500.00000000</i>
   <i name="ENAUG">    605.39200000</i>
   <i name="EDIFF">      0.00001000</i>
   <i type="int" name="IALGO">    68</i>
   <i type="int" name="IWAVPR">    10</i>
   <i type="int" name="NBANDS">    76</i>
   <i name="NELECT">    128.00000000</i>
   <i type="int" name="TURBO">     0</i>
   <i type="int" name="IRESTART">     0</i>
   <i type="int" name="NREBOOT">     0</i>
   <i type="int" name="NMIN">     0</i>
   <i name="EREF">      0.00000000</i>
   <separator name="electronic smearing" >
    <i type="int" name="ISMEAR">    -5</i>
    <i name="SIGMA">      0.20000000</i>
    <i name="KSPACING">      0.50000000</i>
    <i type="logical" name="KGAMMA"> T  </i>
   </separator>
   <separator name="electronic projectors" >
    <i type="logical" name="LREAL"> F  </i>
    <v name="ROPT">      0.00000000      0.00000000      0.00000000</v>
    <i type="int" name="LMAXPAW">  -100</i>
    <i type="int" name="LMAXMIX">     2</i>
    <i type="logical" name="NLSPLINE"> F  </i>
   </separator>
   <separator name="electronic startup" >
    <i type="int" name="ISTART">     0</i>
    <i type="int" name="ICHARG">     2</i>
    <i type="int" name="INIWAV">     1</i>
   </separator>
   <separator name="electronic spin" >
    <i type="int" name="ISPIN">     1</i>
    <i type="logical" name="LNONCOLLINEAR"> F  </i>
    <v name="MAGMOM">      1.00000000      1.00000000      1.00000000      1.00000000      1.00000000      1.00000000      1.00000000      1.00000000      1.00000000      1.00000000      1.00000000      1.00000000      1.00000000      1.00000000      1.00000000      1.00000000      1.00000000      1.00000000      1.00000000      1.00000000
</v>
    <i name="NUPDOWN">     -1.00000000</i>
    <i type="logical" name="LSORBIT"> F  </i>
    <v name="SAXIS">      0.00000000      0.00000000      1.00000000</v>
    <i type="logical" name="LSPIRAL"> F  </i>
    <v name="QSPIRAL">      0.00000000      0.00000000      0.00000000</v>
    <i type="logical" name="LZEROZ"> F  </i>
   </separator>
   <separator name="electronic exchange-correlation" >
    <i type="logical" name="LASPH"> F  </i>
    <i type="logical" name="LMETAGGA"> F  </i>
   </separator>
   <separator name="electronic convergence" >
    <i type="int" name="NELM">    60</i>
    <i type="int" name="NELMDL">    -5</i>
    <i type="int" name="NELMIN">     4</i>
    <i name="ENINI">    500.00000000</i>
    <separator name="electronic convergence detail" >
     <i type="logical" name="LDIAG"> T  </i>
     <i type="logical" name="LSUBROT"> F  </i>
     <i name="WEIMIN">      0.00000000</i>
     <i name="EBREAK">      0.00000003</i>
     <i name="DEPER">      0.30000000</i>
     <i type="int" name="NRMM">     4</i>
     <i name="TIME">      0.40000000</i>
    </separator>
   </separator>
   <separator name="electronic mixer" >
    <i name="AMIX">      0.40000000</i>
    <i name="BMIX">      1.00000000</i>
    <i name="AMIN">      0.10000000</i>
    <i name="AMIX_MAG">      1.60000000</i>
    <i name="BMIX_MAG">      1.00000000</i>
    <separator name="electronic mixer details" >
     <i type="int" name="IMIX">     4</i>
     <i type="logical" name="MIXFIRST"> F  </i>
     <i type="int" name="MAXMIX">   -45</i>
     <i name="WC">    100.00000000</i>
     <i type="int" name="INIMIX">     1</i>
     <i type="int" name="MIXPRE">     1</i>
     <i type="int" name="MREMOVE">     5</i>
    </separator>
   </separator>
   <separator name="electronic dipolcorrection" >
    <i type="logical" name="LDIPOL"> F  </i>
    <i type="logical" name="LMONO"> F  </i>
    <i type="int" name="IDIPOL">     0</i>
    <i name="EPSILON">      1.00000000</i>
    <v name="DIPOL">   -100.00000000   -100.00000000   -100.00000000</v>
    <i name="EFIELD">      0.00000000</i>
   </separator>
  </separator>
  <separator name="grids" >
   <i type="int" name="NGX">    30</i>
   <i type="int" name="NGY">    24</i>
   <i type="int" name="NGZ">   120</i>
   <i type="int" name="NGXF">    60</i>
   <i type="int" name="NGYF">    48</i>
   <i type="int" name="NGZF">   240</i>
   <i type="logical" name="ADDGRID"> F  </i>
  </separator>
  <separator name="ionic" >
   <i type="int" name="NSW">     0</i>
   <i type="int" name="IBRION">    -1</i>
   <i type="int" name="MDALGO">     0</i>
   <i type="int" name="ISIF">     2</i>
   <i name="PSTRESS">      0.00000000</i>
   <i name="EDIFFG">      0.00010000</i>
   <i type="int" name="NFREE">     0</i>
   <i name="POTIM">      0.50000000</i>
   <i name="SMASS">     -3.00000000</i>
   <i name="SCALEE">      1.00000000</i>
  </separator>
  <separator name="ionic md" >
   <i name="TEBEG">      0.00010000</i>
   <i name="TEEND">      0.00010000</i>
   <i type="int" name="NBLOCK">     1</i>
   <i type="int" name="KBLOCK">     1</i>
   <i type="int" name="NPACO">   256</i>
   <i name="APACO">     16.00000000</i>
  </separator>
  <separator name="symmetry" >
   <i type="int" name="ISYM">     2</i>
   <i name="SYMPREC">      0.00001000</i>
  </separator>
  <separator name="dos" >
   <i type="int" name="LORBIT">     0</i>
   <v name="RWIGS">     -1.00000000     -1.00000000     -1.00000000</v>
   <i type="int" name="NEDOS">   301</i>
   <i name="EMIN">     10.00000000</i>
   <i name="EMAX">    -10.00000000</i>
   <i name="EFERMI">      0.00000000</i>
  </separator>
  <separator name="writing" >
   <i type="int" name="NWRITE">     2</i>
   <i type="logical" name="LWAVE"> F  </i>
   <i type="logical" name="LDOWNSAMPLE"> F  </i>
   <i type="logical" name="LCHARG"> T  </i>
   <i type="logical" name="LPARD"> F  </i>
   <i type="logical" name="LVTOT"> F  </i>
   <i type="logical" name="LVHAR"> F  </i>
   <i type="logical" name="LELF"> F  </i>
   <i type="logical" name="LOPTICS"> F  </i>
   <v name="STM">      0.00000000      0.00000000      0.00000000      0.00000000      0.00000000      0.00000000      0.00000000</v>
  </separator>
  <separator name="performance" >
   <i type="int" name="NPAR">     2</i>
   <i type="int" name="NSIM">     4</i>
   <i type="int" name="NBLK">    -1</i>
   <i type="logical" name="LPLANE"> T  </i>
   <i type="logical" name="LSCALAPACK"> T  </i>
   <i type="logical" name="LSCAAWARE"> F  </i>
   <i type="logical" name="LSCALU"> F  </i>
   <i type="logical" name="LASYNC"> F  </i>
   <i type="logical" name="LORBITALREAL"> F  </i>
  </separator>
  <separator name="miscellaneous" >
   <i type="int" name="IDIOT">     3</i>
   <i type="int" name="ISPECIAL">     0</i>
   <i type="logical" name="LMUSIC"> F  </i>
   <v name="POMASS">     16.00000000     87.62000000     47.88000000</v>
   <v name="DARWINR">      0.00000000      0.00000000      0.00000000</v>
   <v name="DARWINV">      1.00000000      1.00000000      1.00000000</v>
   <i type="logical" name="LCORR"> T  </i>
  </separator>
  <i type="logical" name="GGA_COMPAT"> T  </i>
  <i type="logical" name="LBERRY"> F  </i>
  <i type="int" name="ICORELEVEL">     0</i>
  <i type="logical" name="LDAU"> F  </i>
  <i type="int" name="I_CONSTRAINED_M">     0</i>
  <separator name="electronic exchange-correlation" >
   <i type="string" name="GGA">--</i>
   <i type="int" name="VOSKOWN">     0</i>
   <i type="logical" name="LHFCALC"> F  </i>
   <i type="string" name="PRECFOCK"></i>
   <i type="logical" name="LSYMGRAD"> F  </i>
   <i type="logical" name="LHFONE"> F  </i>
   <i type="logical" name="LRHFCALC"> F  </i>
   <i type="logical" name="LTHOMAS"> F  </i>
   <i type="logical" name="LMODELHF"> F  </i>
   <i name="ENCUT4O">     -1.00000000</i>
   <i type="int" name="EXXOEP">     0</i>
   <i type="int" name="FOURORBIT">     0</i>
   <i name="AEXX">      0.00000000</i>
   <i name="HFALPHA">      0.00000000</i>
   <i name="MCALPHA">      0.00000000</i>
   <i name="ALDAX">      1.00000000</i>
   <i name="AGGAX">      1.00000000</i>
   <i name="ALDAC">      1.00000000</i>
   <i name="AGGAC">      1.00000000</i>
   <i type="int" name="NKREDX">     1</i>
   <i type="int" name="NKREDY">     1</i>
   <i type="int" name="NKREDZ">     1</i>
   <i type="logical" name="SHIFTRED"> F  </i>
   <i type="logical" name="ODDONLY"> F  </i>
   <i type="logical" name="EVENONLY"> F  </i>
   <i type="int" name="LMAXFOCK">     0</i>
   <i type="int" name="NMAXFOCKAE">     0</i>
   <i type="logical" name="LFOCKAEDFT"> F  </i>
   <i name="HFSCREEN">      0.00000000</i>
   <i name="HFSCREENC">      0.00000000</i>
   <i type="int" name="NBANDSGWLOW">     0</i>
  </separator>
  <separator name="vdW DFT" >
   <i type="logical" name="LUSE_VDW"> F  </i>
   <i name="Zab_VDW">     -0.84910000</i>
   <i name="PARAM1">      0.12340000</i>
   <i name="PARAM2">      1.00000000</i>
   <i name="PARAM3">      0.00000000</i>
  </separator>
  <separator name="model GW" >
   <i type="int" name="MODEL_GW">     0</i>
   <i name="MODEL_EPS0">     14.01837061</i>
   <i name="MODEL_ALPHA">      1.00000000</i>
  </separator>
  <separator name="linear response parameters" >
   <i type="logical" name="LEPSILON"> F  </i>
   <i type="logical" name="LRPA"> F  </i>
   <i type="logical" name="LNABLA"> F  </i>
   <i type="logical" name="LVEL"> F  </i>
   <i type="int" name="KINTER">     0</i>
   <i name="CSHIFT">      0.10000000</i>
   <i name="OMEGAMAX">     -1.00000000</i>
   <i name="DEG_THRESHOLD">      0.00200000</i>
   <i name="RTIME">     -0.10000000</i>
   <i name="WPLASMAI">      0.00000000</i>
   <v name="DFIELD">      0.00000000      0.00000000      0.00000000</v>
   <v name="WPLASMA">      0.00000000      0.00000000      0.00000000      0.00000000      0.00000000      0.00000000      0.00000000      0.00000000      0.00000000</v>
  </separator>
  <separator name="orbital magnetization" >
   <i type="logical" name="NUCIND"> F  </i>
   <v name="MAGPOS">      0.00000000      0.00000000      0.00000000</v>
   <i type="logical" name="LNICSALL"> T  </i>
   <i type="logical" name="ORBITALMAG"> F  </i>
   <i type="logical" name="LMAGBLOCH"> F  </i>
   <i type="logical" name="LCHIMAG"> F  </i>
   <i type="logical" name="LGAUGE"> T  </i>
   <i type="int" name="MAGATOM">     0</i>
   <v name="MAGDIPOL">      0.00000000      0.00000000      0.00000000</v>
   <v name="AVECCONST">      0.00000000      0.00000000      0.00000000</v>
  </separator>
  <separator name="response functions" >
   <i type="logical" name="LADDER"> F  </i>
   <i type="logical" name="LRPAFORCE"> F  </i>
   <i type="logical" name="LFXC"> F  </i>
   <i type="logical" name="LHARTREE"> T  </i>
   <i type="int" name="IBSE">     0</i>
   <v type="int" name="KPOINT">    -1     0     0     0</v>
   <i type="logical" name="LTCTE"> F  </i>
   <i type="logical" name="LTETE"> F  </i>
   <i type="logical" name="LTRIPLET"> F  </i>
   <i type="logical" name="LFXCEPS"> F  </i>
   <i type="logical" name="LFXHEG"> F  </i>
   <i type="int" name="NATURALO">     2</i>
   <i type="logical" name="L2ORDER"> F  </i>
   <i type="logical" name="LMP2LT"> F  </i>
   <i type="logical" name="LUSEW"> F  </i>
   <i name="ENCUTGW">     -2.00000000</i>
   <i name="ENCUTGWSOFT">     -2.00000000</i>
   <i name="ENCUTLF">     -1.00000000</i>
   <i type="int" name="LMAXMP2">    -1</i>
   <i name="SCISSOR">      0.00000000</i>
   <i type="int" name="NOMEGA">     0</i>
   <i type="int" name="NOMEGAR">     0</i>
   <i type="int" name="NBANDSGW">    -1</i>
   <i type="int" name="NBANDSO">    -1</i>
   <i type="int" name="NBANDSV">    -1</i>
   <i type="int" name="NELM">     1</i>
   <i type="int" name="NELMHF">     1</i>
   <i type="int" name="DIM">     3</i>
   <i type="int" name="ANTIRES">     0</i>
   <i name="OMEGAMAX">    -30.00000000</i>
   <i name="OMEGAMIN">    -30.00000000</i>
   <i name="OMEGATL">   -200.00000000</i>
   <i type="int" name="OMEGAGRID">   140</i>
   <i name="CSHIFT">     -0.10000000</i>
   <i type="logical" name="SELFENERGY"> F  </i>
   <i type="logical" name="LSPECTRAL"> F  </i>
   <i type="logical" name="LSPECTRALGW"> F  </i>
   <i type="logical" name="LSINGLES"> F  </i>
   <i type="logical" name="LFERMIGW"> F  </i>
   <i type="logical" name="ODDONLYGW"> F  </i>
   <i type="logical" name="EVENONLYGW"> F  </i>
   <i type="int" name="NKREDLFX">     1</i>
   <i type="int" name="NKREDLFY">     1</i>
   <i type="int" name="NKREDLFZ">     1</i>
   <i type="int" name="MAXMEM">  2800</i>
   <i type="int" name="TELESCOPE">     0</i>
   <i type="int" name="TAUPAR">     1</i>
   <i type="int" name="OMEGAPAR">    -1</i>
   <i name="LAMBDA">      1.00000000</i>
  </separator>
  <separator name="External order field" >
   <i name="OFIELD_KAPPA">      0.00000000</i>
   <v name="OFIELD_K">      0.00000000      0.00000000      0.00000000</v>
   <i name="OFIELD_Q6_NEAR">      0.00000000</i>
   <i name="OFIELD_Q6_FAR">      0.00000000</i>
   <i name="OFIELD_A">      0.00000000</i>
  </separator>
 </parameters>
 <atominfo>
  <atoms>      20 </atoms>
  <types>       3 </types>
  <array name="atoms" >
   <dimension dim="1">ion</dimension>
   <field type="string">element</field>
   <field type="int">atomtype</field>
   <set>
    <rc><c>O </c><c>   1</c></rc>
    <rc><c>O </c><c>   1</c></rc>
    <rc><c>O </c><c>   1</c></rc>
    <rc><c>O </c><c>   1</c></rc>
    <rc><c>O </c><c>   1</c></rc>
    <rc><c>O </c><c>   1</c></rc>
    <rc><c>O </c><c>   1</c></rc>
    <rc><c>O </c><c>   1</c></rc>
    <rc><c>O </c><c>   1</c></rc>
    <rc><c>O </c><c>   1</c></rc>
    <rc><c>O </c><c>   1</c></rc>
    <rc><c>O </c><c>   1</c></rc>
    <rc><c>Sr</c><c>   2</c></rc>
    <rc><c>Sr</c><c>   2</c></rc>
    <rc><c>Sr</c><c>   2</c></rc>
    <rc><c>Sr</c><c>   2</c></rc>
    <rc><c>Ti</c><c>   3</c></rc>
    <rc><c>Ti</c><c>   3</c></rc>
    <rc><c>Ti</c><c>   3</c></rc>
    <rc><c>Ti</c><c>   3</c></rc>
   </set>
  </array>
  <array name="atomtypes" >
   <dimension dim="1">type</dimension>
   <field type="int">atomspertype</field>
   <field type="string">element</field>
   <field>mass</field>
   <field>valence</field>
   <field type="string">pseudopotential</field>
   <set>
    <rc><c>  12</c><c>O </c><c>     16.00000000</c><c>      6.00000000</c><c> PAW_PBE O 08Apr2002                    </c></rc>
    <rc><c>   4</c><c>Sr</c><c>     87.62000000</c><c>     10.00000000</c><c> PAW_PBE Sr_sv 07Sep2000                </c></rc>
    <rc><c>   4</c><c>Ti</c><c>     47.88000000</c><c>      4.00000000</c><c> PAW_PBE Ti 08Apr2002                   </c></rc>
   </set>
  </array>
 </atominfo>
 <structure name="initialpos" >
  <crystal>
   <varray name="basis" >
    <v>       5.52288297       0.00000000       0.00000000 </v>
    <v>       0.00000000       3.90526800       0.00000000 </v>
    <v>       0.00000000       0.00000000      21.66504520 </v>
   </varray>
   <i name="volume">    467.27902047 </i>
   <varray name="rec_basis" >
    <v>       0.18106485       0.00000000       0.00000000 </v>
    <v>       0.00000000       0.25606437       0.00000000 </v>
    <v>       0.00000000       0.00000000       0.04615730 </v>
   </varray>
  </crystal>
  <varray name="positions" >
   <v>       0.50000000       0.00000000       0.27694380 </v>
   <v>       0.25000000       0.50000000       0.34067414 </v>
   <v>       0.75000000       0.50000000       0.34067414 </v>
   <v>       0.00000000       0.00000000       0.40440449 </v>
   <v>       0.75000000       0.50000000       0.46813483 </v>
   <v>       0.25000000       0.50000000       0.46813483 </v>
   <v>       0.50000000       0.00000000       0.53186517 </v>
   <v>       0.25000000       0.50000000       0.59559551 </v>
   <v>       0.75000000       0.50000000       0.59559551 </v>
   <v>       0.00000000       0.00000000       0.65932586 </v>
   <v>       0.75000000       0.50000000       0.72305620 </v>
   <v>       0.25000000       0.50000000       0.72305620 </v>
   <v>       0.00000000       0.00000000       0.27694380 </v>
   <v>       0.50000000       0.00000000       0.40440449 </v>
   <v>       0.00000000       0.00000000       0.53186517 </v>
   <v>       0.50000000       0.00000000       0.65932586 </v>
   <v>       0.50000000       0.50000000       0.27694380 </v>
   <v>       0.00000000       0.50000000       0.40440449 </v>
   <v>       0.50000000       0.50000000       0.53186517 </v>
   <v>       0.00000000       0.50000000       0.65932586 </v>
  </varray>
 </structure>
 <calculation>
  <scstep>
   <time name="dav">    6.45    6.46</time>
   <time name="total">    6.58    6.61</time>
   <energy>
    <i name="alphaZ">    378.09908315 </i>
    <i name="ewald">  22731.27163923 </i>
    <i name="hartreedc"> -30966.93774878 </i>
    <i name="XCdc">    325.41603597 </i>
    <i name="pawpsdc">   5334.45189010 </i>
    <i name="pawaedc">  -5139.13784255 </i>
    <i name="eentropy">      0.00000000 </i>
    <i name="bandstr">    -13.42081761 </i>
    <i name="atom">   8937.26825017 </i>
    <i name="e_fr_energy">   1587.01048968 </i>
    <i name="e_wo_entrp">   1587.01048968 </i>
    <i name="e_0_energy">   1587.01048968 </i>
   </energy>
  </scstep>
  <scstep>
   <time name="dav">    7.51    7.52</time>
   <time name="total">    7.52    7.53</time>
   <energy>
    <i name="e_fr_energy">    180.60451063 </i>
    <i name="e_wo_entrp">    180.60451063 </i>
    <i name="e_0_energy">    180.60451063 </i>
   </energy>
  </scstep>
  <scstep>
   <time name="dav">    8.23    8.23</time>
   <time name="total">    8.23    8.23</time>
   <energy>
    <i name="e_fr_energy">   -173.33010513 </i>
    <i name="e_wo_entrp">   -173.33010513 </i>
    <i name="e_0_energy">   -173.33010513 </i>
   </energy>
  </scstep>
  <scstep>
   <time name="dav">    7.97    7.97</time>
   <time name="total">    7.97    7.98</time>
   <energy>
    <i name="e_fr_energy">   -197.37340572 </i>
    <i name="e_wo_entrp">   -197.37340572 </i>
    <i name="e_0_energy">   -197.37340572 </i>
   </energy>
  </scstep>
  <scstep>
   <time name="dav">    9.98    9.98</time>
   <time name="total">   10.23   10.23</time>
   <energy>
    <i name="e_fr_energy">   -198.73380897 </i>
    <i name="e_wo_entrp">   -198.73380897 </i>
    <i name="e_0_energy">   -198.73380897 </i>
   </energy>
  </scstep>
  <scstep>
   <time name="diag">    0.73    0.73</time>
   <time name="diis">    6.29    6.29</time>
   <time name="orth">    0.16    0.16</time>
   <time name="total">    7.57    7.57</time>
   <energy>
    <i name="e_fr_energy">   -206.03123168 </i>
    <i name="e_wo_entrp">   -206.03123168 </i>
    <i name="e_0_energy">   -206.03123168 </i>
   </energy>
  </scstep>
  <scstep>
   <time name="diag">    0.76    0.76</time>
   <time name="diis">    5.58    5.58</time>
   <time name="orth">    0.16    0.16</time>
   <time name="total">    6.89    6.89</time>
   <energy>
    <i name="e_fr_energy">   -172.38851615 </i>
    <i name="e_wo_entrp">   -172.38851615 </i>
    <i name="e_0_energy">   -172.38851615 </i>
   </energy>
  </scstep>
  <scstep>
   <time name="diag">    0.77    0.77</time>
   <time name="diis">    5.39    5.39</time>
   <time name="orth">    0.16    0.16</time>
   <time name="total">    6.69    6.70</time>
   <energy>
    <i name="e_fr_energy">   -160.64909748 </i>
    <i name="e_wo_entrp">   -160.64909748 </i>
    <i name="e_0_energy">   -160.64909748 </i>
   </energy>
  </scstep>
  <scstep>
   <time name="diag">    0.76    0.76</time>
   <time name="diis">    6.19    6.18</time>
   <time name="orth">    0.15    0.15</time>
   <time name="total">    7.47    7.48</time>
   <energy>
    <i name="e_fr_energy">   -156.25290958 </i>
    <i name="e_wo_entrp">   -156.25290958 </i>
    <i name="e_0_energy">   -156.25290958 </i>
   </energy>
  </scstep>
  <scstep>
   <time name="diag">    0.77    0.77</time>
   <time name="diis">    5.72    5.72</time>
   <time name="orth">    0.15    0.16</time>
   <time name="total">    7.04    7.04</time>
   <energy>
    <i name="e_fr_energy">   -157.43696983 </i>
    <i name="e_wo_entrp">   -157.43696983 </i>
    <i name="e_0_energy">   -157.43696983 </i>
   </energy>
  </scstep>
  <scstep>
   <time name="diag">    0.77    0.77</time>
   <time name="diis">    7.35    7.34</time>
   <time name="orth">    0.16    0.16</time>
   <time name="total">    8.66    8.66</time>
   <energy>
    <i name="e_fr_energy">   -156.07607517 </i>
    <i name="e_wo_entrp">   -156.07607517 </i>
    <i name="e_0_energy">   -156.07607517 </i>
   </energy>
  </scstep>
  <scstep>
   <time name="diag">    0.77    0.77</time>
   <time name="diis">    7.24    7.24</time>
   <time name="orth">    0.16    0.16</time>
   <time name="total">    8.56    8.56</time>
   <energy>
    <i name="e_fr_energy">   -158.46045298 </i>
    <i name="e_wo_entrp">   -158.46045298 </i>
    <i name="e_0_energy">   -158.46045298 </i>
   </energy>
  </scstep>
  <scstep>
   <time name="diag">    0.77    0.77</time>
   <time name="diis">    7.31    7.31</time>
   <time name="orth">    0.16    0.16</time>
   <time name="total">    8.63    8.63</time>
   <energy>
    <i name="e_fr_energy">   -159.06381518 </i>
    <i name="e_wo_entrp">   -159.06381518 </i>
    <i name="e_0_energy">   -159.06381518 </i>
   </energy>
  </scstep>
  <scstep>
   <time name="diag">    0.76    0.77</time>
   <time name="diis">    6.00    5.99</time>
   <time name="orth">    0.16    0.16</time>
   <time name="total">    7.31    7.31</time>
   <energy>
    <i name="e_fr_energy">   -156.53645394 </i>
    <i name="e_wo_entrp">   -156.53645394 </i>
    <i name="e_0_energy">   -156.53645394 </i>
   </energy>
  </scstep>
  <scstep>
   <time name="diag">    0.77    0.77</time>
   <time name="diis">    5.83    5.83</time>
   <time name="orth">    0.16    0.16</time>
   <time name="total">    7.14    7.15</time>
   <energy>
    <i name="e_fr_energy">   -153.67136339 </i>
    <i name="e_wo_entrp">   -153.67136339 </i>
    <i name="e_0_energy">   -153.67136339 </i>
   </energy>
  </scstep>
  <scstep>
   <time name="diag">    0.77    0.77</time>
   <time name="diis">    5.76    5.76</time>
   <time name="orth">    0.16    0.16</time>
   <time name="total">    7.08    7.09</time>
   <energy>
    <i name="e_fr_energy">   -150.04653941 </i>
    <i name="e_wo_entrp">   -150.04653941 </i>
    <i name="e_0_energy">   -150.04653941 </i>
   </energy>
  </scstep>
  <scstep>
   <time name="diag">    0.77    0.77</time>
   <time name="diis">    6.47    6.47</time>
   <time name="orth">    0.16    0.16</time>
   <time name="total">    7.79    7.79</time>
   <energy>
    <i name="e_fr_energy">   -149.67499384 </i>
    <i name="e_wo_entrp">   -149.67499384 </i>
    <i name="e_0_energy">   -149.67499384 </i>
   </energy>
  </scstep>
  <scstep>
   <time name="diag">    0.77    0.77</time>
   <time name="diis">    5.56    5.56</time>
   <time name="orth">    0.16    0.16</time>
   <time name="total">    6.88    6.88</time>
   <energy>
    <i name="e_fr_energy">   -149.24196759 </i>
    <i name="e_wo_entrp">   -149.24196759 </i>
    <i name="e_0_energy">   -149.24196759 </i>
   </energy>
  </scstep>
  <scstep>
   <time name="diag">    0.77    0.77</time>
   <time name="diis">    5.69    5.69</time>
   <time name="orth">    0.16    0.16</time>
   <time name="total">    7.00    7.01</time>
   <energy>
    <i name="e_fr_energy">   -149.31290246 </i>
    <i name="e_wo_entrp">   -149.31290246 </i>
    <i name="e_0_energy">   -149.31290246 </i>
   </energy>
  </scstep>
  <scstep>
   <time name="diag">    0.77    0.77</time>
   <time name="diis">    6.15    6.15</time>
   <time name="orth">    0.16    0.16</time>
   <time name="total">    7.47    7.47</time>
   <energy>
    <i name="e_fr_energy">   -148.90059260 </i>
    <i name="e_wo_entrp">   -148.90059260 </i>
    <i name="e_0_energy">   -148.90059260 </i>
   </energy>
  </scstep>
  <scstep>
   <time name="diag">    0.77    0.77</time>
   <time name="diis">    6.55    6.55</time>
   <time name="orth">    0.16    0.16</time>
   <time name="total">    7.87    7.87</time>
   <energy>
    <i name="e_fr_energy">   -148.83346472 </i>
    <i name="e_wo_entrp">   -148.83346472 </i>
    <i name="e_0_energy">   -148.83346472 </i>
   </energy>
  </scstep>
  <scstep>
   <time name="diag">    0.77    0.77</time>
   <time name="diis">    5.66    5.66</time>
   <time name="orth">    0.16    0.16</time>
   <time name="total">    6.98    6.98</time>
   <energy>
    <i name="e_fr_energy">   -148.95204747 </i>
    <i name="e_wo_entrp">   -148.95204747 </i>
    <i name="e_0_energy">   -148.95204747 </i>
   </energy>
  </scstep>
  <scstep>
   <time name="diag">    0.77    0.77</time>
   <time name="diis">    5.45    5.45</time>
   <time name="orth">    0.16    0.16</time>
   <time name="total">    6.77    6.77</time>
   <energy>
    <i name="e_fr_energy">   -148.89118127 </i>
    <i name="e_wo_entrp">   -148.89118127 </i>
    <i name="e_0_energy">   -148.89118127 </i>
   </energy>
  </scstep>
  <scstep>
   <time name="diag">    0.77    0.77</time>
   <time name="diis">    5.69    5.70</time>
   <time name="orth">    0.16    0.16</time>
   <time name="total">    7.01    7.02</time>
   <energy>
    <i name="e_fr_energy">   -148.77566656 </i>
    <i name="e_wo_entrp">   -148.77566656 </i>
    <i name="e_0_energy">   -148.77566656 </i>
   </energy>
  </scstep>
  <scstep>
   <time name="diag">    0.77    0.77</time>
   <time name="diis">    6.06    6.06</time>
   <time name="orth">    0.16    0.16</time>
   <time name="total">    7.38    7.38</time>
   <energy>
    <i name="e_fr_energy">   -148.73080309 </i>
    <i name="e_wo_entrp">   -148.73080309 </i>
    <i name="e_0_energy">   -148.73080309 </i>
   </energy>
  </scstep>
  <scstep>
   <time name="diag">    0.77    0.77</time>
   <time name="diis">    6.00    6.00</time>
   <time name="orth">    0.16    0.16</time>
   <time name="total">    7.32    7.33</time>
   <energy>
    <i name="e_fr_energy">   -148.71417383 </i>
    <i name="e_wo_entrp">   -148.71417383 </i>
    <i name="e_0_energy">   -148.71417383 </i>
   </energy>
  </scstep>
  <scstep>
   <time name="diag">    0.77    0.77</time>
   <time name="diis">    6.35    6.35</time>
   <time name="orth">    0.16    0.16</time>
   <time name="total">    7.68    7.68</time>
   <energy>
    <i name="e_fr_energy">   -148.72261972 </i>
    <i name="e_wo_entrp">   -148.72261972 </i>
    <i name="e_0_energy">   -148.72261972 </i>
   </energy>
  </scstep>
  <scstep>
   <time name="diag">    0.77    0.77</time>
   <time name="diis">    5.48    5.48</time>
   <time name="orth">    0.16    0.16</time>
   <time name="total">    6.81    6.82</time>
   <energy>
    <i name="e_fr_energy">   -148.78315499 </i>
    <i name="e_wo_entrp">   -148.78315499 </i>
    <i name="e_0_energy">   -148.78315499 </i>
   </energy>
  </scstep>
  <scstep>
   <time name="diag">    0.77    0.77</time>
   <time name="diis">    5.74    5.74</time>
   <time name="orth">    0.16    0.16</time>
   <time name="total">    7.08    7.08</time>
   <energy>
    <i name="e_fr_energy">   -148.74055036 </i>
    <i name="e_wo_entrp">   -148.74055036 </i>
    <i name="e_0_energy">   -148.74055036 </i>
   </energy>
  </scstep>
  <scstep>
   <time name="diag">    0.77    0.77</time>
   <time name="diis">    5.39    5.39</time>
   <time name="orth">    0.16    0.16</time>
   <time name="total">    6.72    6.72</time>
   <energy>
    <i name="e_fr_energy">   -148.71388181 </i>
    <i name="e_wo_entrp">   -148.71388181 </i>
    <i name="e_0_energy">   -148.71388181 </i>
   </energy>
  </scstep>
  <scstep>
   <time name="diag">    0.77    0.77</time>
   <time name="diis">    5.38    5.38</time>
   <time name="orth">    0.16    0.17</time>
   <time name="total">    6.71    6.71</time>
   <energy>
    <i name="e_fr_energy">   -148.70996643 </i>
    <i name="e_wo_entrp">   -148.70996643 </i>
    <i name="e_0_energy">   -148.70996643 </i>
   </energy>
  </scstep>
  <scstep>
   <time name="diag">    0.77    0.77</time>
   <time name="diis">    5.83    5.83</time>
   <time name="orth">    0.16    0.16</time>
   <time name="total">    7.15    7.16</time>
   <energy>
    <i name="e_fr_energy">   -148.70861276 </i>
    <i name="e_wo_entrp">   -148.70861276 </i>
    <i name="e_0_energy">   -148.70861276 </i>
   </energy>
  </scstep>
  <scstep>
   <time name="diag">    0.77    0.77</time>
   <time name="diis">    5.79    5.79</time>
   <time name="orth">    0.16    0.16</time>
   <time name="total">    7.12    7.12</time>
   <energy>
    <i name="e_fr_energy">   -148.70880947 </i>
    <i name="e_wo_entrp">   -148.70880947 </i>
    <i name="e_0_energy">   -148.70880947 </i>
   </energy>
  </scstep>
  <scstep>
   <time name="diag">    0.77    0.77</time>
   <time name="diis">    5.64    5.63</time>
   <time name="orth">    0.16    0.16</time>
   <time name="total">    6.96    6.97</time>
   <energy>
    <i name="e_fr_energy">   -148.70818359 </i>
    <i name="e_wo_entrp">   -148.70818359 </i>
    <i name="e_0_energy">   -148.70818359 </i>
   </energy>
  </scstep>
  <scstep>
   <time name="diag">    0.77    0.77</time>
   <time name="diis">    5.09    5.09</time>
   <time name="orth">    0.16    0.16</time>
   <time name="total">    6.41    6.41</time>
   <energy>
    <i name="e_fr_energy">   -148.70917145 </i>
    <i name="e_wo_entrp">   -148.70917145 </i>
    <i name="e_0_energy">   -148.70917145 </i>
   </energy>
  </scstep>
  <scstep>
   <time name="diag">    0.76    0.76</time>
   <time name="diis">    5.15    5.15</time>
   <time name="orth">    0.16    0.16</time>
   <time name="total">    6.48    6.48</time>
   <energy>
    <i name="e_fr_energy">   -148.70885992 </i>
    <i name="e_wo_entrp">   -148.70885992 </i>
    <i name="e_0_energy">   -148.70885992 </i>
   </energy>
  </scstep>
  <scstep>
   <time name="diag">    0.77    0.77</time>
   <time name="diis">    5.16    5.16</time>
   <time name="orth">    0.16    0.16</time>
   <time name="total">    6.49    6.50</time>
   <energy>
    <i name="e_fr_energy">   -148.71020864 </i>
    <i name="e_wo_entrp">   -148.71020864 </i>
    <i name="e_0_energy">   -148.71020864 </i>
   </energy>
  </scstep>
  <scstep>
   <time name="diag">    0.77    0.77</time>
   <time name="diis">    4.56    4.55</time>
   <time name="orth">    0.16    0.16</time>
   <time name="total">    5.89    5.89</time>
   <energy>
    <i name="e_fr_energy">   -148.70988865 </i>
    <i name="e_wo_entrp">   -148.70988865 </i>
    <i name="e_0_energy">   -148.70988865 </i>
   </energy>
  </scstep>
  <scstep>
   <time name="diag">    0.77    0.77</time>
   <time name="diis">    5.09    5.09</time>
   <time name="orth">    0.16    0.16</time>
   <time name="total">    6.42    6.42</time>
   <energy>
    <i name="e_fr_energy">   -148.71036482 </i>
    <i name="e_wo_entrp">   -148.71036482 </i>
    <i name="e_0_energy">   -148.71036482 </i>
   </energy>
  </scstep>
  <scstep>
   <time name="diag">    0.77    0.77</time>
   <time name="diis">    4.58    4.58</time>
   <time name="orth">    0.16    0.16</time>
   <time name="total">    5.92    5.92</time>
   <energy>
    <i name="e_fr_energy">   -148.71081512 </i>
    <i name="e_wo_entrp">   -148.71081512 </i>
    <i name="e_0_energy">   -148.71081512 </i>
   </energy>
  </scstep>
  <scstep>
   <time name="diag">    0.77    0.77</time>
   <time name="diis">    4.40    4.39</time>
   <time name="orth">    0.16    0.16</time>
   <time name="total">    5.73    5.73</time>
   <energy>
    <i name="e_fr_energy">   -148.71058484 </i>
    <i name="e_wo_entrp">   -148.71058484 </i>
    <i name="e_0_energy">   -148.71058484 </i>
   </energy>
  </scstep>
  <scstep>
   <time name="diag">    0.76    0.76</time>
   <time name="diis">    4.57    4.57</time>
   <time name="orth">    0.16    0.16</time>
   <time name="total">    5.90    5.90</time>
   <energy>
    <i name="e_fr_energy">   -148.71018466 </i>
    <i name="e_wo_entrp">   -148.71018466 </i>
    <i name="e_0_energy">   -148.71018466 </i>
   </energy>
  </scstep>
  <scstep>
   <time name="diag">    0.77    0.78</time>
   <time name="diis">    3.92    3.92</time>
   <time name="orth">    0.16    0.16</time>
   <time name="total">    5.25    5.27</time>
   <energy>
    <i name="e_fr_energy">   -148.71025755 </i>
    <i name="e_wo_entrp">   -148.71025755 </i>
    <i name="e_0_energy">   -148.71025755 </i>
   </energy>
  </scstep>
  <scstep>
   <time name="diag">    0.77    0.77</time>
   <time name="diis">    3.79    3.79</time>
   <time name="orth">    0.16    0.16</time>
   <time name="total">    5.13    5.13</time>
   <energy>
    <i name="e_fr_energy">   -148.71024472 </i>
    <i name="e_wo_entrp">   -148.71024472 </i>
    <i name="e_0_energy">   -148.71024472 </i>
   </energy>
  </scstep>
  <scstep>
   <time name="diag">    0.77    0.77</time>
   <time name="diis">    3.31    3.31</time>
   <time name="orth">    0.16    0.16</time>
   <time name="total">    4.65    4.65</time>
   <energy>
    <i name="e_fr_energy">   -148.71020215 </i>
    <i name="e_wo_entrp">   -148.71020215 </i>
    <i name="e_0_energy">   -148.71020215 </i>
   </energy>
  </scstep>
  <scstep>
   <time name="diag">    0.77    0.77</time>
   <time name="diis">    3.13    3.12</time>
   <time name="orth">    0.16    0.16</time>
   <time name="total">    4.46    4.46</time>
   <energy>
    <i name="e_fr_energy">   -148.71022425 </i>
    <i name="e_wo_entrp">   -148.71022425 </i>
    <i name="e_0_energy">   -148.71022425 </i>
   </energy>
  </scstep>
  <scstep>
   <time name="diag">    0.77    0.77</time>
   <time name="diis">    3.10    3.10</time>
   <time name="orth">    0.16    0.16</time>
   <time name="total">    4.44    4.45</time>
   <energy>
    <i name="e_fr_energy">   -148.71018623 </i>
    <i name="e_wo_entrp">   -148.71018623 </i>
    <i name="e_0_energy">   -148.71018623 </i>
   </energy>
  </scstep>
  <scstep>
   <time name="diag">    0.77    0.77</time>
   <time name="diis">    3.03    3.03</time>
   <time name="orth">    0.16    0.16</time>
   <time name="total">    4.36    4.36</time>
   <energy>
    <i name="e_fr_energy">   -148.71020909 </i>
    <i name="e_wo_entrp">   -148.71020909 </i>
    <i name="e_0_energy">   -148.71020909 </i>
   </energy>
  </scstep>
  <scstep>
   <time name="diag">    0.77    0.77</time>
   <time name="diis">    2.92    2.92</time>
   <time name="orth">    0.16    0.16</time>
   <time name="total">    3.98    3.98</time>
   <energy>
    <i name="alphaZ">    378.09908315 </i>
    <i name="ewald">  22731.27163923 </i>
    <i name="hartreedc"> -31289.34192971 </i>
    <i name="XCdc">    340.18629445 </i>
    <i name="pawpsdc">   6163.75477391 </i>
    <i name="pawaedc">  -5993.30511081 </i>
    <i name="eentropy">      0.00000000 </i>
    <i name="bandstr">  -1416.64320165 </i>
    <i name="atom">   8937.26825017 </i>
    <i name="e_fr_energy">   -148.71020124 </i>
    <i name="e_wo_entrp">   -148.71020124 </i>
    <i name="e_0_energy">   -148.71020124 </i>
   </energy>
  </scstep>
  <structure>
   <crystal>
    <varray name="basis" >
     <v>       5.52288297       0.00000000       0.00000000 </v>
     <v>       0.00000000       3.90526800       0.00000000 </v>
     <v>       0.00000000       0.00000000      21.66504520 </v>
    </varray>
    <i name="volume">    467.27902047 </i>
    <varray name="rec_basis" >
     <v>       0.18106485       0.00000000       0.00000000 </v>
     <v>       0.00000000       0.25606437       0.00000000 </v>
     <v>       0.00000000       0.00000000       0.04615730 </v>
    </varray>
   </crystal>
   <varray name="positions" >
    <v>       0.50000000       0.00000000       0.27694380 </v>
    <v>       0.25000000       0.50000000       0.34067414 </v>
    <v>       0.75000000       0.50000000       0.34067414 </v>
    <v>       0.00000000       0.00000000       0.40440449 </v>
    <v>       0.75000000       0.50000000       0.46813483 </v>
    <v>       0.25000000       0.50000000       0.46813483 </v>
    <v>       0.50000000       0.00000000       0.53186517 </v>
    <v>       0.25000000       0.50000000       0.59559551 </v>
    <v>       0.75000000       0.50000000       0.59559551 </v>
    <v>       0.00000000       0.00000000       0.65932586 </v>
    <v>       0.75000000       0.50000000       0.72305620 </v>
    <v>       0.25000000       0.50000000       0.72305620 </v>
    <v>       0.00000000       0.00000000       0.27694380 </v>
    <v>       0.50000000       0.00000000       0.40440449 </v>
    <v>       0.00000000       0.00000000       0.53186517 </v>
    <v>       0.50000000       0.00000000       0.65932586 </v>
    <v>       0.50000000       0.50000000       0.27694380 </v>
    <v>       0.00000000       0.50000000       0.40440449 </v>
    <v>       0.50000000       0.50000000       0.53186517 </v>
    <v>       0.00000000       0.50000000       0.65932586 </v>
   </varray>
  </structure>
  <varray name="forces" >
   <v>      -0.00000000       0.00000000      -1.51517166 </v>
   <v>       0.70532414       0.00000000      -2.07354831 </v>
   <v>      -0.70532414       0.00000000      -2.07354831 </v>
   <v>      -0.00000000       0.00000000      -0.75782895 </v>
   <v>       0.55276936       0.00000000      -1.26524779 </v>
   <v>      -0.55276936      -0.00000000      -1.26524779 </v>
   <v>      -0.00000000       0.00000000      -0.59063338 </v>
   <v>       0.80790050       0.00000000      -1.45506524 </v>
   <v>      -0.80790050       0.00000000      -1.45506524 </v>
   <v>      -0.00000000       0.00000000      -1.12865549 </v>
   <v>       0.19468915       0.00000000      -0.99689580 </v>
   <v>      -0.19468915       0.00000000      -0.99689580 </v>
   <v>      -0.00000000       0.00000000       0.99034130 </v>
   <v>      -0.00000000       0.00000000       0.96155475 </v>
   <v>      -0.00000000       0.00000000       0.74748220 </v>
   <v>      -0.00000000       0.00000000       1.59481000 </v>
   <v>      -0.00000000       0.00000000       2.28510770 </v>
   <v>      -0.00000000       0.00000000       2.59635445 </v>
   <v>      -0.00000000       0.00000000       2.34624624 </v>
   <v>      -0.00000000       0.00000000       4.05190709 </v>
  </varray>
  <varray name="stress" >
   <v>      13.55072255       0.00000000       0.00000000 </v>
   <v>       0.00000000      30.75008819       0.00000000 </v>
   <v>       0.00000000       0.00000000       8.77051789 </v>
  </varray>
  <energy>
   <i name="e_fr_energy">   -148.71020124 </i>
   <i name="e_wo_entrp">   -148.71020124 </i>
   <i name="e_0_energy">      0.00000000 </i>
  </energy>
  <time name="totalsc">  343.89  344.12</time>
  <eigenvalues>
   <array>
    <dimension dim="1">band</dimension>
    <dimension dim="2">kpoint</dimension>
    <dimension dim="3">spin</dimension>
    <field>eigene</field>
    <field>occ</field>
    <set>
     <set comment="spin 1">
      <set comment="kpoint 1">
       <r>  -36.5900    1.0000 </r>
       <r>  -35.2660    1.0000 </r>
       <r>  -34.3061    1.0000 </r>
       <r>  -33.4172    1.0000 </r>
       <r>  -20.5032    1.0000 </r>
       <r>  -20.0321    1.0000 </r>
       <r>  -19.8464    1.0000 </r>
       <r>  -19.3558    1.0000 </r>
       <r>  -19.0446    1.0000 </r>
       <r>  -18.6782    1.0000 </r>
       <r>  -18.5887    1.0000 </r>
       <r>  -18.5334    1.0000 </r>
       <r>  -18.5165    1.0000 </r>
       <r>  -18.3438    1.0000 </r>
       <r>  -18.0916    1.0000 </r>
       <r>  -17.8257    1.0000 </r>
       <r>  -17.3090    1.0000 </r>
       <r>  -17.2894    1.0000 </r>
       <r>  -17.1317    1.0000 </r>
       <r>  -17.0505    1.0000 </r>
       <r>  -16.5182    1.0000 </r>
       <r>  -16.3444    1.0000 </r>
       <r>  -16.2905    1.0000 </r>
       <r>  -16.1585    1.0000 </r>
       <r>  -16.0911    1.0000 </r>
       <r>  -15.4364    1.0000 </r>
       <r>  -15.1685    1.0000 </r>
       <r>  -15.1174    1.0000 </r>
       <r>   -7.1053    1.0000 </r>
       <r>   -6.7947    1.0000 </r>
       <r>   -6.6299    1.0000 </r>
       <r>   -6.0048    1.0000 </r>
       <r>   -5.8880    1.0000 </r>
       <r>   -5.5353    1.0000 </r>
       <r>   -5.4411    1.0000 </r>
       <r>   -5.2952    1.0000 </r>
       <r>   -5.1389    1.0000 </r>
       <r>   -5.0565    1.0000 </r>
       <r>   -4.9969    1.0000 </r>
       <r>   -4.8566    1.0000 </r>
       <r>   -4.7618    1.0000 </r>
       <r>   -4.5796    1.0000 </r>
       <r>   -4.2453    1.0000 </r>
       <r>   -4.1210    1.0000 </r>
       <r>   -4.0792    1.0000 </r>
       <r>   -3.9913    1.0000 </r>
       <r>   -3.8044    1.0000 </r>
       <r>   -3.7660    1.0000 </r>
       <r>   -3.5417    1.0000 </r>
       <r>   -3.2488    1.0000 </r>
       <r>   -3.0151    1.0000 </r>
       <r>   -2.9226    1.0000 </r>
       <r>   -2.9083    1.0000 </r>
       <r>   -2.6967    1.0000 </r>
       <r>   -2.6633    1.0000 </r>
       <r>   -2.3892    1.0000 </r>
       <r>   -2.2947    1.0000 </r>
       <r>   -1.9528    1.0000 </r>
       <r>   -1.9137    1.0000 </r>
       <r>   -1.3687    1.0000 </r>
       <r>   -1.3418    1.0000 </r>
       <r>   -1.0857    1.0000 </r>
       <r>   -1.0786    1.0000 </r>
       <r>   -1.0346    1.0000 </r>
       <r>   -0.8653    1.1178 </r>
       <r>   -0.7746    0.1847 </r>
       <r>   -0.7493    0.0000 </r>
       <r>   -0.5130    0.0000 </r>
       <r>    0.0736    0.0000 </r>
       <r>    0.2912    0.0000 </r>
       <r>    0.3882    0.0000 </r>
       <r>    0.6520    0.0000 </r>
       <r>    1.3270    0.0000 </r>
       <r>    2.6554    0.0000 </r>
       <r>    3.9956    0.0000 </r>
       <r>    4.1493    0.0000 </r>
      </set>
      <set comment="kpoint 2">
       <r>  -36.5897    1.0000 </r>
       <r>  -35.2657    1.0000 </r>
       <r>  -34.3057    1.0000 </r>
       <r>  -33.4169    1.0000 </r>
       <r>  -20.5631    1.0000 </r>
       <r>  -20.1894    1.0000 </r>
       <r>  -19.7177    1.0000 </r>
       <r>  -19.3444    1.0000 </r>
       <r>  -19.1240    1.0000 </r>
       <r>  -18.7141    1.0000 </r>
       <r>  -18.5890    1.0000 </r>
       <r>  -18.4671    1.0000 </r>
       <r>  -18.3989    1.0000 </r>
       <r>  -18.3511    1.0000 </r>
       <r>  -18.1623    1.0000 </r>
       <r>  -17.7921    1.0000 </r>
       <r>  -17.3097    1.0000 </r>
       <r>  -17.2750    1.0000 </r>
       <r>  -17.0914    1.0000 </r>
       <r>  -17.0581    1.0000 </r>
       <r>  -16.4906    1.0000 </r>
       <r>  -16.3451    1.0000 </r>
       <r>  -16.2914    1.0000 </r>
       <r>  -16.1347    1.0000 </r>
       <r>  -16.0307    1.0000 </r>
       <r>  -15.4373    1.0000 </r>
       <r>  -15.1743    1.0000 </r>
       <r>  -15.0987    1.0000 </r>
       <r>   -6.9350    1.0000 </r>
       <r>   -6.7515    1.0000 </r>
       <r>   -6.6593    1.0000 </r>
       <r>   -5.9773    1.0000 </r>
       <r>   -5.7469    1.0000 </r>
       <r>   -5.6074    1.0000 </r>
       <r>   -5.5355    1.0000 </r>
       <r>   -5.3359    1.0000 </r>
       <r>   -5.1724    1.0000 </r>
       <r>   -5.1280    1.0000 </r>
       <r>   -4.9232    1.0000 </r>
       <r>   -4.7712    1.0000 </r>
       <r>   -4.6899    1.0000 </r>
       <r>   -4.6383    1.0000 </r>
       <r>   -4.3673    1.0000 </r>
       <r>   -4.3429    1.0000 </r>
       <r>   -4.0771    1.0000 </r>
       <r>   -4.0344    1.0000 </r>
       <r>   -3.9550    1.0000 </r>
       <r>   -3.7385    1.0000 </r>
       <r>   -3.5039    1.0000 </r>
       <r>   -3.3606    1.0000 </r>
       <r>   -3.1868    1.0000 </r>
       <r>   -3.0270    1.0000 </r>
       <r>   -2.9341    1.0000 </r>
       <r>   -2.7913    1.0000 </r>
       <r>   -2.6110    1.0000 </r>
       <r>   -2.5200    1.0000 </r>
       <r>   -2.3008    1.0000 </r>
       <r>   -2.2014    1.0000 </r>
       <r>   -1.8904    1.0000 </r>
       <r>   -1.4107    1.0000 </r>
       <r>   -1.3876    1.0000 </r>
       <r>   -1.0995    1.0000 </r>
       <r>   -1.0726    1.0000 </r>
       <r>   -0.9594    1.0000 </r>
       <r>   -0.8671    1.0811 </r>
       <r>   -0.7383    0.0399 </r>
       <r>   -0.7216    0.0000 </r>
       <r>   -0.6156    0.0000 </r>
       <r>    0.0924    0.0000 </r>
       <r>    0.3294    0.0000 </r>
       <r>    0.3659    0.0000 </r>
       <r>    1.1823    0.0000 </r>
       <r>    2.6546    0.0000 </r>
       <r>    2.6827    0.0000 </r>
       <r>    4.1462    0.0000 </r>
       <r>    4.2847    0.0000 </r>
      </set>
      <set comment="kpoint 3">
       <r>  -36.5892    1.0000 </r>
       <r>  -35.2652    1.0000 </r>
       <r>  -34.3052    1.0000 </r>
       <r>  -33.4165    1.0000 </r>
       <r>  -20.6640    1.0000 </r>
       <r>  -20.3021    1.0000 </r>
       <r>  -19.6682    1.0000 </r>
       <r>  -19.3017    1.0000 </r>
       <r>  -19.2300    1.0000 </r>
       <r>  -18.7252    1.0000 </r>
       <r>  -18.5895    1.0000 </r>
       <r>  -18.3815    1.0000 </r>
       <r>  -18.3459    1.0000 </r>
       <r>  -18.2935    1.0000 </r>
       <r>  -18.2279    1.0000 </r>
       <r>  -17.7687    1.0000 </r>
       <r>  -17.3107    1.0000 </r>
       <r>  -17.2614    1.0000 </r>
       <r>  -17.0626    1.0000 </r>
       <r>  -17.0247    1.0000 </r>
       <r>  -16.4205    1.0000 </r>
       <r>  -16.3462    1.0000 </r>
       <r>  -16.3117    1.0000 </r>
       <r>  -16.0618    1.0000 </r>
       <r>  -15.9852    1.0000 </r>
       <r>  -15.4388    1.0000 </r>
       <r>  -15.1753    1.0000 </r>
       <r>  -15.0620    1.0000 </r>
       <r>   -6.8232    1.0000 </r>
       <r>   -6.7057    1.0000 </r>
       <r>   -6.3000    1.0000 </r>
       <r>   -5.9169    1.0000 </r>
       <r>   -5.8191    1.0000 </r>
       <r>   -5.6678    1.0000 </r>
       <r>   -5.6082    1.0000 </r>
       <r>   -5.4893    1.0000 </r>
       <r>   -5.3056    1.0000 </r>
       <r>   -5.1031    1.0000 </r>
       <r>   -4.8009    1.0000 </r>
       <r>   -4.7807    1.0000 </r>
       <r>   -4.6859    1.0000 </r>
       <r>   -4.6341    1.0000 </r>
       <r>   -4.5679    1.0000 </r>
       <r>   -4.4971    1.0000 </r>
       <r>   -4.1285    1.0000 </r>
       <r>   -4.1107    1.0000 </r>
       <r>   -3.8955    1.0000 </r>
       <r>   -3.8883    1.0000 </r>
       <r>   -3.6722    1.0000 </r>
       <r>   -3.5135    1.0000 </r>
       <r>   -3.3478    1.0000 </r>
       <r>   -3.1065    1.0000 </r>
       <r>   -3.0667    1.0000 </r>
       <r>   -3.0046    1.0000 </r>
       <r>   -2.7617    1.0000 </r>
       <r>   -2.5052    1.0000 </r>
       <r>   -2.3643    1.0000 </r>
       <r>   -2.3154    1.0000 </r>
       <r>   -1.7456    1.0000 </r>
       <r>   -1.5472    1.0000 </r>
       <r>   -1.4579    1.0000 </r>
       <r>   -1.1965    1.0000 </r>
       <r>   -1.0600    1.0000 </r>
       <r>   -1.0250    1.0000 </r>
       <r>   -0.8457    1.0125 </r>
       <r>   -0.8086    0.5891 </r>
       <r>   -0.7372    0.0000 </r>
       <r>   -0.3934    0.0000 </r>
       <r>    0.0520    0.0000 </r>
       <r>    0.3184    0.0000 </r>
       <r>    0.3975    0.0000 </r>
       <r>    1.0040    0.0000 </r>
       <r>    1.3182    0.0000 </r>
       <r>    1.7801    0.0000 </r>
       <r>    2.6307    0.0000 </r>
       <r>    2.7253    0.0000 </r>
      </set>
      <set comment="kpoint 4">
       <r>  -36.5866    1.0000 </r>
       <r>  -35.2621    1.0000 </r>
       <r>  -34.3022    1.0000 </r>
       <r>  -33.4133    1.0000 </r>
       <r>  -20.4491    1.0000 </r>
       <r>  -19.9914    1.0000 </r>
       <r>  -19.7993    1.0000 </r>
       <r>  -19.3118    1.0000 </r>
       <r>  -19.0625    1.0000 </r>
       <r>  -18.6333    1.0000 </r>
       <r>  -18.6036    1.0000 </r>
       <r>  -18.5469    1.0000 </r>
       <r>  -18.4957    1.0000 </r>
       <r>  -18.3050    1.0000 </r>
       <r>  -18.1069    1.0000 </r>
       <r>  -17.7848    1.0000 </r>
       <r>  -17.2814    1.0000 </r>
       <r>  -17.2366    1.0000 </r>
       <r>  -17.1808    1.0000 </r>
       <r>  -17.0658    1.0000 </r>
       <r>  -16.5656    1.0000 </r>
       <r>  -16.3034    1.0000 </r>
       <r>  -16.2633    1.0000 </r>
       <r>  -16.2018    1.0000 </r>
       <r>  -16.1086    1.0000 </r>
       <r>  -15.3856    1.0000 </r>
       <r>  -15.1996    1.0000 </r>
       <r>  -15.1822    1.0000 </r>
       <r>   -7.0473    1.0000 </r>
       <r>   -6.7248    1.0000 </r>
       <r>   -6.6242    1.0000 </r>
       <r>   -6.3309    1.0000 </r>
       <r>   -5.8559    1.0000 </r>
       <r>   -5.8298    1.0000 </r>
       <r>   -5.5394    1.0000 </r>
       <r>   -5.4941    1.0000 </r>
       <r>   -5.2814    1.0000 </r>
       <r>   -5.2178    1.0000 </r>
       <r>   -5.0514    1.0000 </r>
       <r>   -4.9786    1.0000 </r>
       <r>   -4.8660    1.0000 </r>
       <r>   -4.6211    1.0000 </r>
       <r>   -4.4224    1.0000 </r>
       <r>   -4.4196    1.0000 </r>
       <r>   -4.0764    1.0000 </r>
       <r>   -4.0659    1.0000 </r>
       <r>   -4.0197    1.0000 </r>
       <r>   -3.7246    1.0000 </r>
       <r>   -3.7041    1.0000 </r>
       <r>   -3.3535    1.0000 </r>
       <r>   -3.1670    1.0000 </r>
       <r>   -3.0687    1.0000 </r>
       <r>   -2.9333    1.0000 </r>
       <r>   -2.8206    1.0000 </r>
       <r>   -2.7012    1.0000 </r>
       <r>   -2.5579    1.0000 </r>
       <r>   -2.3384    1.0000 </r>
       <r>   -2.0018    1.0000 </r>
       <r>   -1.9737    1.0000 </r>
       <r>   -1.5007    1.0000 </r>
       <r>   -1.3099    1.0000 </r>
       <r>   -1.0938    1.0000 </r>
       <r>   -0.9708    1.0000 </r>
       <r>   -0.9633    1.0383 </r>
       <r>   -0.7438    0.2611 </r>
       <r>   -0.6513   -0.0299 </r>
       <r>   -0.5196    0.0000 </r>
       <r>   -0.4621    0.0000 </r>
       <r>    0.1323    0.0000 </r>
       <r>    0.4893    0.0000 </r>
       <r>    0.5698    0.0000 </r>
       <r>    0.6823    0.0000 </r>
       <r>    1.4233    0.0000 </r>
       <r>    1.4919    0.0000 </r>
       <r>    2.7715    0.0000 </r>
       <r>    4.3969    0.0000 </r>
      </set>
      <set comment="kpoint 5">
       <r>  -36.5863    1.0000 </r>
       <r>  -35.2618    1.0000 </r>
       <r>  -34.3019    1.0000 </r>
       <r>  -33.4131    1.0000 </r>
       <r>  -20.4895    1.0000 </r>
       <r>  -20.1459    1.0000 </r>
       <r>  -19.6940    1.0000 </r>
       <r>  -19.3097    1.0000 </r>
       <r>  -19.1112    1.0000 </r>
       <r>  -18.7059    1.0000 </r>
       <r>  -18.5866    1.0000 </r>
       <r>  -18.4838    1.0000 </r>
       <r>  -18.3810    1.0000 </r>
       <r>  -18.3185    1.0000 </r>
       <r>  -18.1606    1.0000 </r>
       <r>  -17.7733    1.0000 </r>
       <r>  -17.2769    1.0000 </r>
       <r>  -17.2363    1.0000 </r>
       <r>  -17.1241    1.0000 </r>
       <r>  -17.0818    1.0000 </r>
       <r>  -16.5375    1.0000 </r>
       <r>  -16.3141    1.0000 </r>
       <r>  -16.2593    1.0000 </r>
       <r>  -16.1731    1.0000 </r>
       <r>  -16.0431    1.0000 </r>
       <r>  -15.3807    1.0000 </r>
       <r>  -15.2118    1.0000 </r>
       <r>  -15.1407    1.0000 </r>
       <r>   -6.9112    1.0000 </r>
       <r>   -6.7032    1.0000 </r>
       <r>   -6.6495    1.0000 </r>
       <r>   -6.3125    1.0000 </r>
       <r>   -5.9504    1.0000 </r>
       <r>   -5.7595    1.0000 </r>
       <r>   -5.6014    1.0000 </r>
       <r>   -5.5014    1.0000 </r>
       <r>   -5.3313    1.0000 </r>
       <r>   -5.1717    1.0000 </r>
       <r>   -5.0497    1.0000 </r>
       <r>   -4.9688    1.0000 </r>
       <r>   -4.8188    1.0000 </r>
       <r>   -4.6497    1.0000 </r>
       <r>   -4.5757    1.0000 </r>
       <r>   -4.4122    1.0000 </r>
       <r>   -4.3495    1.0000 </r>
       <r>   -4.0531    1.0000 </r>
       <r>   -3.9298    1.0000 </r>
       <r>   -3.8189    1.0000 </r>
       <r>   -3.6876    1.0000 </r>
       <r>   -3.4777    1.0000 </r>
       <r>   -3.1639    1.0000 </r>
       <r>   -3.0863    1.0000 </r>
       <r>   -3.0221    1.0000 </r>
       <r>   -2.9585    1.0000 </r>
       <r>   -2.8424    1.0000 </r>
       <r>   -2.5354    1.0000 </r>
       <r>   -2.3639    1.0000 </r>
       <r>   -2.1833    1.0000 </r>
       <r>   -1.9372    1.0000 </r>
       <r>   -1.6208    1.0000 </r>
       <r>   -1.3052    1.0000 </r>
       <r>   -1.0980    1.0000 </r>
       <r>   -0.9693    1.0000 </r>
       <r>   -0.9332    1.0178 </r>
       <r>   -0.7271    0.3096 </r>
       <r>   -0.7086   -0.0135 </r>
       <r>   -0.5265    0.0000 </r>
       <r>   -0.4142    0.0000 </r>
       <r>    0.1737    0.0000 </r>
       <r>    0.5204    0.0000 </r>
       <r>    0.5553    0.0000 </r>
       <r>    0.8379    0.0000 </r>
       <r>    1.4511    0.0000 </r>
       <r>    1.4811    0.0000 </r>
       <r>    2.7695    0.0000 </r>
       <r>    2.7944    0.0000 </r>
      </set>
      <set comment="kpoint 6">
       <r>  -36.5858    1.0000 </r>
       <r>  -35.2614    1.0000 </r>
       <r>  -34.3014    1.0000 </r>
       <r>  -33.4127    1.0000 </r>
       <r>  -20.5724    1.0000 </r>
       <r>  -20.2506    1.0000 </r>
       <r>  -19.6649    1.0000 </r>
       <r>  -19.2972    1.0000 </r>
       <r>  -19.1803    1.0000 </r>
       <r>  -18.7341    1.0000 </r>
       <r>  -18.5764    1.0000 </r>
       <r>  -18.3712    1.0000 </r>
       <r>  -18.3324    1.0000 </r>
       <r>  -18.3069    1.0000 </r>
       <r>  -18.2138    1.0000 </r>
       <r>  -17.7739    1.0000 </r>
       <r>  -17.2571    1.0000 </r>
       <r>  -17.2430    1.0000 </r>
       <r>  -17.0958    1.0000 </r>
       <r>  -17.0455    1.0000 </r>
       <r>  -16.4722    1.0000 </r>
       <r>  -16.3327    1.0000 </r>
       <r>  -16.2557    1.0000 </r>
       <r>  -16.0993    1.0000 </r>
       <r>  -15.9985    1.0000 </r>
       <r>  -15.3630    1.0000 </r>
       <r>  -15.2029    1.0000 </r>
       <r>  -15.0913    1.0000 </r>
       <r>   -6.8400    1.0000 </r>
       <r>   -6.7131    1.0000 </r>
       <r>   -6.4149    1.0000 </r>
       <r>   -6.2924    1.0000 </r>
       <r>   -6.0201    1.0000 </r>
       <r>   -5.7794    1.0000 </r>
       <r>   -5.5931    1.0000 </r>
       <r>   -5.5264    1.0000 </r>
       <r>   -5.4435    1.0000 </r>
       <r>   -5.2811    1.0000 </r>
       <r>   -5.0663    1.0000 </r>
       <r>   -4.9448    1.0000 </r>
       <r>   -4.8178    1.0000 </r>
       <r>   -4.7199    1.0000 </r>
       <r>   -4.6770    1.0000 </r>
       <r>   -4.5186    1.0000 </r>
       <r>   -4.3428    1.0000 </r>
       <r>   -4.1353    1.0000 </r>
       <r>   -3.9612    1.0000 </r>
       <r>   -3.8158    1.0000 </r>
       <r>   -3.7777    1.0000 </r>
       <r>   -3.5442    1.0000 </r>
       <r>   -3.4732    1.0000 </r>
       <r>   -3.2219    1.0000 </r>
       <r>   -3.1068    1.0000 </r>
       <r>   -2.9861    1.0000 </r>
       <r>   -2.8851    1.0000 </r>
       <r>   -2.8144    1.0000 </r>
       <r>   -2.4253    1.0000 </r>
       <r>   -2.1464    1.0000 </r>
       <r>   -1.8616    1.0000 </r>
       <r>   -1.6980    1.0000 </r>
       <r>   -1.2970    1.0000 </r>
       <r>   -1.2450    1.0000 </r>
       <r>   -1.1032    1.0000 </r>
       <r>   -0.9281    1.0000 </r>
       <r>   -0.8728    1.0625 </r>
       <r>   -0.6147   -0.0580 </r>
       <r>   -0.3664    0.0000 </r>
       <r>   -0.3276    0.0000 </r>
       <r>    0.1674    0.0000 </r>
       <r>    0.5291    0.0000 </r>
       <r>    0.5858    0.0000 </r>
       <r>    0.9996    0.0000 </r>
       <r>    1.4390    0.0000 </r>
       <r>    1.7260    0.0000 </r>
       <r>    2.7319    0.0000 </r>
       <r>    2.7971    0.0000 </r>
      </set>
      <set comment="kpoint 7">
       <r>  -36.5788    1.0000 </r>
       <r>  -35.2533    1.0000 </r>
       <r>  -34.2934    1.0000 </r>
       <r>  -33.4047    1.0000 </r>
       <r>  -20.3835    1.0000 </r>
       <r>  -19.8669    1.0000 </r>
       <r>  -19.6800    1.0000 </r>
       <r>  -19.2182    1.0000 </r>
       <r>  -19.0894    1.0000 </r>
       <r>  -18.6331    1.0000 </r>
       <r>  -18.5803    1.0000 </r>
       <r>  -18.5161    1.0000 </r>
       <r>  -18.4458    1.0000 </r>
       <r>  -18.2189    1.0000 </r>
       <r>  -18.1152    1.0000 </r>
       <r>  -17.6805    1.0000 </r>
       <r>  -17.3065    1.0000 </r>
       <r>  -17.2211    1.0000 </r>
       <r>  -17.1704    1.0000 </r>
       <r>  -17.0450    1.0000 </r>
       <r>  -16.6322    1.0000 </r>
       <r>  -16.3585    1.0000 </r>
       <r>  -16.2157    1.0000 </r>
       <r>  -16.1377    1.0000 </r>
       <r>  -16.1331    1.0000 </r>
       <r>  -15.3734    1.0000 </r>
       <r>  -15.3475    1.0000 </r>
       <r>  -15.1967    1.0000 </r>
       <r>   -6.9903    1.0000 </r>
       <r>   -6.9275    1.0000 </r>
       <r>   -6.6090    1.0000 </r>
       <r>   -6.5274    1.0000 </r>
       <r>   -6.3682    1.0000 </r>
       <r>   -6.2738    1.0000 </r>
       <r>   -6.0050    1.0000 </r>
       <r>   -5.7931    1.0000 </r>
       <r>   -5.5602    1.0000 </r>
       <r>   -5.4585    1.0000 </r>
       <r>   -5.3006    1.0000 </r>
       <r>   -5.1713    1.0000 </r>
       <r>   -5.0448    1.0000 </r>
       <r>   -4.9830    1.0000 </r>
       <r>   -4.7386    1.0000 </r>
       <r>   -4.5268    1.0000 </r>
       <r>   -4.5161    1.0000 </r>
       <r>   -4.2460    1.0000 </r>
       <r>   -4.1802    1.0000 </r>
       <r>   -3.9886    1.0000 </r>
       <r>   -3.9033    1.0000 </r>
       <r>   -3.7090    1.0000 </r>
       <r>   -3.4102    1.0000 </r>
       <r>   -3.3674    1.0000 </r>
       <r>   -2.9718    1.0000 </r>
       <r>   -2.8125    1.0000 </r>
       <r>   -2.7670    1.0000 </r>
       <r>   -2.6951    1.0000 </r>
       <r>   -2.2628    1.0000 </r>
       <r>   -2.1399    1.0000 </r>
       <r>   -1.9827    1.0000 </r>
       <r>   -1.4986    1.0000 </r>
       <r>   -1.2931    1.0000 </r>
       <r>   -0.9842    1.0000 </r>
       <r>   -0.8116    1.0386 </r>
       <r>   -0.7385    0.3912 </r>
       <r>   -0.6908    0.0000 </r>
       <r>   -0.5343    0.0000 </r>
       <r>   -0.3033    0.0000 </r>
       <r>    0.1662    0.0000 </r>
       <r>    0.3749    0.0000 </r>
       <r>    0.7357    0.0000 </r>
       <r>    0.9800    0.0000 </r>
       <r>    1.0205    0.0000 </r>
       <r>    1.8165    0.0000 </r>
       <r>    1.8735    0.0000 </r>
       <r>    3.1095    0.0000 </r>
       <r>    3.1583    0.0000 </r>
      </set>
      <set comment="kpoint 8">
       <r>  -36.5786    1.0000 </r>
       <r>  -35.2531    1.0000 </r>
       <r>  -34.2932    1.0000 </r>
       <r>  -33.4045    1.0000 </r>
       <r>  -20.3621    1.0000 </r>
       <r>  -20.0278    1.0000 </r>
       <r>  -19.6462    1.0000 </r>
       <r>  -19.2344    1.0000 </r>
       <r>  -19.0893    1.0000 </r>
       <r>  -18.6258    1.0000 </r>
       <r>  -18.5848    1.0000 </r>
       <r>  -18.5055    1.0000 </r>
       <r>  -18.3801    1.0000 </r>
       <r>  -18.2340    1.0000 </r>
       <r>  -18.1443    1.0000 </r>
       <r>  -17.7161    1.0000 </r>
       <r>  -17.2655    1.0000 </r>
       <r>  -17.1752    1.0000 </r>
       <r>  -17.1580    1.0000 </r>
       <r>  -17.0871    1.0000 </r>
       <r>  -16.6081    1.0000 </r>
       <r>  -16.2954    1.0000 </r>
       <r>  -16.2319    1.0000 </r>
       <r>  -16.1750    1.0000 </r>
       <r>  -16.0406    1.0000 </r>
       <r>  -15.3757    1.0000 </r>
       <r>  -15.2980    1.0000 </r>
       <r>  -15.1556    1.0000 </r>
       <r>   -6.9700    1.0000 </r>
       <r>   -6.8933    1.0000 </r>
       <r>   -6.6916    1.0000 </r>
       <r>   -6.5508    1.0000 </r>
       <r>   -6.4139    1.0000 </r>
       <r>   -6.2769    1.0000 </r>
       <r>   -6.0176    1.0000 </r>
       <r>   -5.7975    1.0000 </r>
       <r>   -5.6332    1.0000 </r>
       <r>   -5.4091    1.0000 </r>
       <r>   -5.3531    1.0000 </r>
       <r>   -5.1828    1.0000 </r>
       <r>   -5.0416    1.0000 </r>
       <r>   -4.9628    1.0000 </r>
       <r>   -4.8338    1.0000 </r>
       <r>   -4.6987    1.0000 </r>
       <r>   -4.3838    1.0000 </r>
       <r>   -4.2808    1.0000 </r>
       <r>   -4.1424    1.0000 </r>
       <r>   -4.0605    1.0000 </r>
       <r>   -3.8761    1.0000 </r>
       <r>   -3.7625    1.0000 </r>
       <r>   -3.5413    1.0000 </r>
       <r>   -3.3476    1.0000 </r>
       <r>   -3.1547    1.0000 </r>
       <r>   -2.8924    1.0000 </r>
       <r>   -2.8837    1.0000 </r>
       <r>   -2.5496    1.0000 </r>
       <r>   -2.3241    1.0000 </r>
       <r>   -2.0835    1.0000 </r>
       <r>   -2.0310    1.0000 </r>
       <r>   -1.6579    1.0000 </r>
       <r>   -1.2577    1.0000 </r>
       <r>   -0.9642    1.0000 </r>
       <r>   -0.8288    1.0330 </r>
       <r>   -0.7911    0.8798 </r>
       <r>   -0.7121    0.0223 </r>
       <r>   -0.5473    0.0000 </r>
       <r>   -0.2218    0.0000 </r>
       <r>    0.1995    0.0000 </r>
       <r>    0.4182    0.0000 </r>
       <r>    0.8742    0.0000 </r>
       <r>    0.9933    0.0000 </r>
       <r>    1.0175    0.0000 </r>
       <r>    1.8564    0.0000 </r>
       <r>    1.8669    0.0000 </r>
       <r>    3.1259    0.0000 </r>
       <r>    3.1285    0.0000 </r>
      </set>
      <set comment="kpoint 9">
       <r>  -36.5783    1.0000 </r>
       <r>  -35.2528    1.0000 </r>
       <r>  -34.2929    1.0000 </r>
       <r>  -33.4043    1.0000 </r>
       <r>  -20.3486    1.0000 </r>
       <r>  -20.1511    1.0000 </r>
       <r>  -19.6992    1.0000 </r>
       <r>  -19.2818    1.0000 </r>
       <r>  -19.0522    1.0000 </r>
       <r>  -18.7231    1.0000 </r>
       <r>  -18.5494    1.0000 </r>
       <r>  -18.3844    1.0000 </r>
       <r>  -18.3433    1.0000 </r>
       <r>  -18.2776    1.0000 </r>
       <r>  -18.1315    1.0000 </r>
       <r>  -17.8016    1.0000 </r>
       <r>  -17.2253    1.0000 </r>
       <r>  -17.1824    1.0000 </r>
       <r>  -17.1104    1.0000 </r>
       <r>  -17.0636    1.0000 </r>
       <r>  -16.5522    1.0000 </r>
       <r>  -16.3108    1.0000 </r>
       <r>  -16.1723    1.0000 </r>
       <r>  -16.1330    1.0000 </r>
       <r>  -16.0073    1.0000 </r>
       <r>  -15.3788    1.0000 </r>
       <r>  -15.1736    1.0000 </r>
       <r>  -15.1166    1.0000 </r>
       <r>   -7.0328    1.0000 </r>
       <r>   -6.9403    1.0000 </r>
       <r>   -6.6920    1.0000 </r>
       <r>   -6.6195    1.0000 </r>
       <r>   -6.4947    1.0000 </r>
       <r>   -6.0675    1.0000 </r>
       <r>   -6.0179    1.0000 </r>
       <r>   -5.8538    1.0000 </r>
       <r>   -5.7303    1.0000 </r>
       <r>   -5.4687    1.0000 </r>
       <r>   -5.3318    1.0000 </r>
       <r>   -5.2133    1.0000 </r>
       <r>   -5.1922    1.0000 </r>
       <r>   -5.0686    1.0000 </r>
       <r>   -4.9034    1.0000 </r>
       <r>   -4.7363    1.0000 </r>
       <r>   -4.2397    1.0000 </r>
       <r>   -4.2305    1.0000 </r>
       <r>   -4.1480    1.0000 </r>
       <r>   -4.0871    1.0000 </r>
       <r>   -3.9442    1.0000 </r>
       <r>   -3.8118    1.0000 </r>
       <r>   -3.6815    1.0000 </r>
       <r>   -3.4778    1.0000 </r>
       <r>   -3.4376    1.0000 </r>
       <r>   -2.9147    1.0000 </r>
       <r>   -2.8776    1.0000 </r>
       <r>   -2.8373    1.0000 </r>
       <r>   -2.1503    1.0000 </r>
       <r>   -2.0459    1.0000 </r>
       <r>   -1.9934    1.0000 </r>
       <r>   -1.7352    1.0000 </r>
       <r>   -1.2417    1.0000 </r>
       <r>   -1.2013    1.0000 </r>
       <r>   -0.9419    1.0054 </r>
       <r>   -0.7977    0.9933 </r>
       <r>   -0.7767    0.5296 </r>
       <r>   -0.3348    0.0000 </r>
       <r>   -0.1716    0.0000 </r>
       <r>    0.2595    0.0000 </r>
       <r>    0.4656    0.0000 </r>
       <r>    1.0011    0.0000 </r>
       <r>    1.0258    0.0000 </r>
       <r>    1.0532    0.0000 </r>
       <r>    1.8356    0.0000 </r>
       <r>    1.8754    0.0000 </r>
       <r>    3.0720    0.0000 </r>
       <r>    3.1085    0.0000 </r>
      </set>
      <set comment="kpoint 10">
       <r>  -36.5726    1.0000 </r>
       <r>  -35.2462    1.0000 </r>
       <r>  -34.2863    1.0000 </r>
       <r>  -33.3977    1.0000 </r>
       <r>  -20.3917    1.0000 </r>
       <r>  -19.7164    1.0000 </r>
       <r>  -19.5624    1.0000 </r>
       <r>  -19.1909    1.0000 </r>
       <r>  -19.0710    1.0000 </r>
       <r>  -18.7228    1.0000 </r>
       <r>  -18.5428    1.0000 </r>
       <r>  -18.4031    1.0000 </r>
       <r>  -18.3968    1.0000 </r>
       <r>  -18.1866    1.0000 </r>
       <r>  -18.0616    1.0000 </r>
       <r>  -17.5758    1.0000 </r>
       <r>  -17.4326    1.0000 </r>
       <r>  -17.2006    1.0000 </r>
       <r>  -17.1564    1.0000 </r>
       <r>  -16.9787    1.0000 </r>
       <r>  -16.6354    1.0000 </r>
       <r>  -16.4820    1.0000 </r>
       <r>  -16.1794    1.0000 </r>
       <r>  -16.1088    1.0000 </r>
       <r>  -16.0015    1.0000 </r>
       <r>  -15.5249    1.0000 </r>
       <r>  -15.4558    1.0000 </r>
       <r>  -15.1309    1.0000 </r>
       <r>   -7.5710    1.0000 </r>
       <r>   -6.9759    1.0000 </r>
       <r>   -6.7083    1.0000 </r>
       <r>   -6.5953    1.0000 </r>
       <r>   -6.5892    1.0000 </r>
       <r>   -6.5245    1.0000 </r>
       <r>   -6.3584    1.0000 </r>
       <r>   -5.9688    1.0000 </r>
       <r>   -5.8284    1.0000 </r>
       <r>   -5.6396    1.0000 </r>
       <r>   -5.5641    1.0000 </r>
       <r>   -5.4743    1.0000 </r>
       <r>   -5.1404    1.0000 </r>
       <r>   -4.9699    1.0000 </r>
       <r>   -4.9103    1.0000 </r>
       <r>   -4.7284    1.0000 </r>
       <r>   -4.6098    1.0000 </r>
       <r>   -4.5789    1.0000 </r>
       <r>   -4.4356    1.0000 </r>
       <r>   -4.1622    1.0000 </r>
       <r>   -4.0675    1.0000 </r>
       <r>   -3.7151    1.0000 </r>
       <r>   -3.5484    1.0000 </r>
       <r>   -3.4902    1.0000 </r>
       <r>   -3.0031    1.0000 </r>
       <r>   -2.8584    1.0000 </r>
       <r>   -2.7628    1.0000 </r>
       <r>   -2.7346    1.0000 </r>
       <r>   -2.3021    1.0000 </r>
       <r>   -2.1413    1.0000 </r>
       <r>   -1.8854    1.0000 </r>
       <r>   -1.4325    1.0000 </r>
       <r>   -1.2815    1.0000 </r>
       <r>   -0.8706    1.0000 </r>
       <r>   -0.7358    0.1371 </r>
       <r>   -0.7103   -0.0357 </r>
       <r>   -0.5510    0.0000 </r>
       <r>   -0.4108    0.0000 </r>
       <r>   -0.1827    0.0000 </r>
       <r>    0.6527    0.0000 </r>
       <r>    0.7196    0.0000 </r>
       <r>    0.7713    0.0000 </r>
       <r>    1.3956    0.0000 </r>
       <r>    1.4427    0.0000 </r>
       <r>    2.1244    0.0000 </r>
       <r>    2.2693    0.0000 </r>
       <r>    3.1712    0.0000 </r>
       <r>    3.5323    0.0000 </r>
      </set>
      <set comment="kpoint 11">
       <r>  -36.5725    1.0000 </r>
       <r>  -35.2461    1.0000 </r>
       <r>  -34.2862    1.0000 </r>
       <r>  -33.3976    1.0000 </r>
       <r>  -20.3298    1.0000 </r>
       <r>  -19.8582    1.0000 </r>
       <r>  -19.6321    1.0000 </r>
       <r>  -19.1557    1.0000 </r>
       <r>  -19.1029    1.0000 </r>
       <r>  -18.5687    1.0000 </r>
       <r>  -18.5115    1.0000 </r>
       <r>  -18.4966    1.0000 </r>
       <r>  -18.4174    1.0000 </r>
       <r>  -18.1637    1.0000 </r>
       <r>  -18.1289    1.0000 </r>
       <r>  -17.6601    1.0000 </r>
       <r>  -17.3022    1.0000 </r>
       <r>  -17.2171    1.0000 </r>
       <r>  -17.1088    1.0000 </r>
       <r>  -17.0429    1.0000 </r>
       <r>  -16.6185    1.0000 </r>
       <r>  -16.3506    1.0000 </r>
       <r>  -16.2181    1.0000 </r>
       <r>  -16.1006    1.0000 </r>
       <r>  -16.0152    1.0000 </r>
       <r>  -15.4577    1.0000 </r>
       <r>  -15.3927    1.0000 </r>
       <r>  -15.0919    1.0000 </r>
       <r>   -7.5813    1.0000 </r>
       <r>   -6.9441    1.0000 </r>
       <r>   -6.7937    1.0000 </r>
       <r>   -6.7527    1.0000 </r>
       <r>   -6.6277    1.0000 </r>
       <r>   -6.5762    1.0000 </r>
       <r>   -6.2710    1.0000 </r>
       <r>   -5.9823    1.0000 </r>
       <r>   -5.8478    1.0000 </r>
       <r>   -5.7706    1.0000 </r>
       <r>   -5.5347    1.0000 </r>
       <r>   -5.4404    1.0000 </r>
       <r>   -5.1587    1.0000 </r>
       <r>   -5.1098    1.0000 </r>
       <r>   -4.9563    1.0000 </r>
       <r>   -4.8156    1.0000 </r>
       <r>   -4.6575    1.0000 </r>
       <r>   -4.4119    1.0000 </r>
       <r>   -4.2979    1.0000 </r>
       <r>   -4.1860    1.0000 </r>
       <r>   -4.1289    1.0000 </r>
       <r>   -3.7633    1.0000 </r>
       <r>   -3.6693    1.0000 </r>
[...]
      </set>
      <set comment="kpoint 12">
       <r>  -36.5723    1.0000 </r>
       <r>  -35.2459    1.0000 </r>
       <r>  -34.2860    1.0000 </r>
       <r>  -33.3975    1.0000 </r>
       <r>  -20.1750    1.0000 </r>
       <r>  -20.0320    1.0000 </r>
       <r>  -19.8045    1.0000 </r>
       <r>  -19.2224    1.0000 </r>
       <r>  -18.9678    1.0000 </r>
       <r>  -18.7066    1.0000 </r>
       <r>  -18.4922    1.0000 </r>
       <r>  -18.4143    1.0000 </r>
       <r>  -18.3521    1.0000 </r>
       <r>  -18.2360    1.0000 </r>
       <r>  -18.0600    1.0000 </r>
       <r>  -17.8371    1.0000 </r>
       <r>  -17.2323    1.0000 </r>
       <r>  -17.1847    1.0000 </r>
       <r>  -17.0835    1.0000 </r>
       <r>  -17.0223    1.0000 </r>
       <r>  -16.5763    1.0000 </r>
       <r>  -16.2669    1.0000 </r>
       <r>  -16.1607    1.0000 </r>
       <r>  -16.1550    1.0000 </r>
       <r>  -15.9863    1.0000 </r>
       <r>  -15.4604    1.0000 </r>
       <r>  -15.1977    1.0000 </r>
       <r>  -15.0385    1.0000 </r>
       <r>   -7.6020    1.0000 </r>
       <r>   -7.1071    1.0000 </r>
       <r>   -6.9679    1.0000 </r>
       <r>   -6.8435    1.0000 </r>
       <r>   -6.6627    1.0000 </r>
       <r>   -6.5560    1.0000 </r>
       <r>   -6.0885    1.0000 </r>
       <r>   -6.0163    1.0000 </r>
       <r>   -5.9169    1.0000 </r>
       <r>   -5.8427    1.0000 </r>
       <r>   -5.6009    1.0000 </r>
       <r>   -5.3666    1.0000 </r>
       <r>   -5.2925    1.0000 </r>
       <r>   -5.2809    1.0000 </r>
       <r>   -5.1447    1.0000 </r>
       <r>   -4.7485    1.0000 </r>
       <r>   -4.6896    1.0000 </r>
       <r>   -4.2976    1.0000 </r>
       <r>   -4.1982    1.0000 </r>
       <r>   -4.1379    1.0000 </r>
       <r>   -4.0487    1.0000 </r>
       <r>   -3.8531    1.0000 </r>
       <r>   -3.7607    1.0000 </r>
       <r>   -3.6645    1.0000 </r>
       <r>   -3.5630    1.0000 </r>
       <r>   -2.8340    1.0000 </r>
       <r>   -2.8216    1.0000 </r>
       <r>   -2.7520    1.0000 </r>
       <r>   -2.0828    1.0000 </r>
       <r>   -1.9922    1.0000 </r>
       <r>   -1.8916    1.0000 </r>
       <r>   -1.7270    1.0000 </r>
       <r>   -1.2182    1.0000 </r>
       <r>   -1.1524    1.0000 </r>
       <r>   -0.8906    1.0423 </r>
       <r>   -0.7382    0.0709 </r>
       <r>   -0.6402   -0.0486 </r>
       <r>   -0.2554    0.0000 </r>
       <r>    0.0846    0.0000 </r>
       <r>    0.7260    0.0000 </r>
       <r>    1.0854    0.0000 </r>
       <r>    1.3890    0.0000 </r>
       <r>    1.4248    0.0000 </r>
       <r>    1.9188    0.0000 </r>
       <r>    2.2218    0.0000 </r>
       <r>    2.2336    0.0000 </r>
       <r>    3.1729    0.0000 </r>
       <r>    3.4410    0.0000 </r>
      </set>
     </set>
    </set>
   </array>
  </eigenvalues>
  <separator name="orbital magnetization" >
   <v name="MAGDIPOLOUT">      0.00000000      0.00000000      0.00000000</v>
  </separator>
  <dos>
   <i name="efermi">     -0.76359023 </i>
   <total>
    <array>
     <dimension dim="1">gridpoints</dimension>
     <dimension dim="2">spin</dimension>
     <field>energy</field>
     <field>total</field>
     <field>integrated</field>
     <set>
      <set comment="spin 1">
       <r>   -38.6393     0.0000     0.0000 </r>
       <r>   -38.4890     0.0000     0.0000 </r>
       <r>   -38.3388     0.0000     0.0000 </r>
       <r>   -38.1885     0.0000     0.0000 </r>
       <r>   -38.0382     0.0000     0.0000 </r>
       <r>   -37.8879     0.0000     0.0000 </r>
       <r>   -37.7376     0.0000     0.0000 </r>
       <r>   -37.5873     0.0000     0.0000 </r>
       <r>   -37.4370     0.0000     0.0000 </r>
       <r>   -37.2868     0.0000     0.0000 </r>
       <r>   -37.1365     0.0000     0.0000 </r>
       <r>   -36.9862     0.0000     0.0000 </r>
       <r>   -36.8359     0.0000     0.0000 </r>
       <r>   -36.6856     0.0000     0.0000 </r>
       <r>   -36.5353     0.0000     2.0000 </r>
       <r>   -36.3850     0.0000     2.0000 </r>
       <r>   -36.2348     0.0000     2.0000 </r>
       <r>   -36.0845     0.0000     2.0000 </r>
       <r>   -35.9342     0.0000     2.0000 </r>
       <r>   -35.7839     0.0000     2.0000 </r>
       <r>   -35.6336     0.0000     2.0000 </r>
       <r>   -35.4833     0.0000     2.0000 </r>
       <r>   -35.3331     0.0000     2.0000 </r>
       <r>   -35.1828     0.0000     4.0000 </r>
       <r>   -35.0325     0.0000     4.0000 </r>
       <r>   -34.8822     0.0000     4.0000 </r>
       <r>   -34.7319     0.0000     4.0000 </r>
       <r>   -34.5816     0.0000     4.0000 </r>
       <r>   -34.4313     0.0000     4.0000 </r>
       <r>   -34.2811     0.0000     6.0000 </r>
       <r>   -34.1308     0.0000     6.0000 </r>
       <r>   -33.9805     0.0000     6.0000 </r>
       <r>   -33.8302     0.0000     6.0000 </r>
       <r>   -33.6799     0.0000     6.0000 </r>
       <r>   -33.5296     0.0000     6.0000 </r>
       <r>   -33.3793     0.0000     8.0000 </r>
       <r>   -33.2291     0.0000     8.0000 </r>
       <r>   -33.0788     0.0000     8.0000 </r>
       <r>   -32.9285     0.0000     8.0000 </r>
       <r>   -32.7782     0.0000     8.0000 </r>
       <r>   -32.6279     0.0000     8.0000 </r>
       <r>   -32.4776     0.0000     8.0000 </r>
       <r>   -32.3273     0.0000     8.0000 </r>
       <r>   -32.1771     0.0000     8.0000 </r>
       <r>   -32.0268     0.0000     8.0000 </r>
       <r>   -31.8765     0.0000     8.0000 </r>
       <r>   -31.7262     0.0000     8.0000 </r>
       <r>   -31.5759     0.0000     8.0000 </r>
       <r>   -31.4256     0.0000     8.0000 </r>
       <r>   -31.2754     0.0000     8.0000 </r>
       <r>   -31.1251     0.0000     8.0000 </r>
       <r>   -30.9748     0.0000     8.0000 </r>
       <r>   -30.8245     0.0000     8.0000 </r>
       <r>   -30.6742     0.0000     8.0000 </r>
       <r>   -30.5239     0.0000     8.0000 </r>
       <r>   -30.3736     0.0000     8.0000 </r>
       <r>   -30.2234     0.0000     8.0000 </r>
       <r>   -30.0731     0.0000     8.0000 </r>
       <r>   -29.9228     0.0000     8.0000 </r>
       <r>   -29.7725     0.0000     8.0000 </r>
       <r>   -29.6222     0.0000     8.0000 </r>
       <r>   -29.4719     0.0000     8.0000 </r>
       <r>   -29.3216     0.0000     8.0000 </r>
       <r>   -29.1714     0.0000     8.0000 </r>
       <r>   -29.0211     0.0000     8.0000 </r>
       <r>   -28.8708     0.0000     8.0000 </r>
       <r>   -28.7205     0.0000     8.0000 </r>
       <r>   -28.5702     0.0000     8.0000 </r>
       <r>   -28.4199     0.0000     8.0000 </r>
       <r>   -28.2697     0.0000     8.0000 </r>
       <r>   -28.1194     0.0000     8.0000 </r>
       <r>   -27.9691     0.0000     8.0000 </r>
       <r>   -27.8188     0.0000     8.0000 </r>
       <r>   -27.6685     0.0000     8.0000 </r>
       <r>   -27.5182     0.0000     8.0000 </r>
       <r>   -27.3679     0.0000     8.0000 </r>
       <r>   -27.2177     0.0000     8.0000 </r>
       <r>   -27.0674     0.0000     8.0000 </r>
       <r>   -26.9171     0.0000     8.0000 </r>
       <r>   -26.7668     0.0000     8.0000 </r>
       <r>   -26.6165     0.0000     8.0000 </r>
       <r>   -26.4662     0.0000     8.0000 </r>
       <r>   -26.3159     0.0000     8.0000 </r>
       <r>   -26.1657     0.0000     8.0000 </r>
       <r>   -26.0154     0.0000     8.0000 </r>
       <r>   -25.8651     0.0000     8.0000 </r>
       <r>   -25.7148     0.0000     8.0000 </r>
       <r>   -25.5645     0.0000     8.0000 </r>
       <r>   -25.4142     0.0000     8.0000 </r>
       <r>   -25.2639     0.0000     8.0000 </r>
       <r>   -25.1137     0.0000     8.0000 </r>
       <r>   -24.9634     0.0000     8.0000 </r>
       <r>   -24.8131     0.0000     8.0000 </r>
       <r>   -24.6628     0.0000     8.0000 </r>
       <r>   -24.5125     0.0000     8.0000 </r>
       <r>   -24.3622     0.0000     8.0000 </r>
       <r>   -24.2120     0.0000     8.0000 </r>
       <r>   -24.0617     0.0000     8.0000 </r>
       <r>   -23.9114     0.0000     8.0000 </r>
       <r>   -23.7611     0.0000     8.0000 </r>
       <r>   -23.6108     0.0000     8.0000 </r>
       <r>   -23.4605     0.0000     8.0000 </r>
       <r>   -23.3102     0.0000     8.0000 </r>
       <r>   -23.1600     0.0000     8.0000 </r>
       <r>   -23.0097     0.0000     8.0000 </r>
       <r>   -22.8594     0.0000     8.0000 </r>
       <r>   -22.7091     0.0000     8.0000 </r>
       <r>   -22.5588     0.0000     8.0000 </r>
       <r>   -22.4085     0.0000     8.0000 </r>
       <r>   -22.2582     0.0000     8.0000 </r>
       <r>   -22.1080     0.0000     8.0000 </r>
       <r>   -21.9577     0.0000     8.0000 </r>
       <r>   -21.8074     0.0000     8.0000 </r>
       <r>   -21.6571     0.0000     8.0000 </r>
       <r>   -21.5068     0.0000     8.0000 </r>
       <r>   -21.3565     0.0000     8.0000 </r>
       <r>   -21.2063     0.0000     8.0000 </r>
       <r>   -21.0560     0.0000     8.0000 </r>
       <r>   -20.9057     0.0000     8.0000 </r>
       <r>   -20.7554     0.0000     8.0000 </r>
       <r>   -20.6051     2.7789     8.1185 </r>
       <r>   -20.4548     4.3353     8.7604 </r>
       <r>   -20.3045     2.9146     9.6636 </r>
       <r>   -20.1543     4.7638    10.5702 </r>
       <r>   -20.0040     3.9890    11.3639 </r>
       <r>   -19.8537     2.2318    11.7915 </r>
       <r>   -19.7034     9.7721    12.6744 </r>
       <r>   -19.5531     0.0000    14.0000 </r>
       <r>   -19.4028     0.0000    14.0000 </r>
       <r>   -19.2525     8.5245    15.1450 </r>
       <r>   -19.1023    16.8748    16.6124 </r>
       <r>   -18.9520     0.0000    18.0000 </r>
       <r>   -18.8017     0.0000    18.0000 </r>
       <r>   -18.6514    11.4383    19.4485 </r>
       <r>   -18.5011    26.6216    22.2676 </r>
       <r>   -18.3508    27.5406    25.5351 </r>
       <r>   -18.2005    14.1453    27.8984 </r>
       <r>   -18.0503     0.0000    30.0000 </r>
       <r>   -17.9000     0.0000    30.0000 </r>
       <r>   -17.7497     7.9707    31.3046 </r>
       <r>   -17.5994     2.0731    31.9595 </r>
       <r>   -17.4491     0.0000    32.0000 </r>
       <r>   -17.2988    23.5851    32.4654 </r>
       <r>   -17.1486    17.1848    36.3834 </r>
       <r>   -16.9983     2.9398    39.9538 </r>
       <r>   -16.8480     0.0000    40.0000 </r>
       <r>   -16.6977     0.0000    40.0000 </r>
       <r>   -16.5474     8.7964    41.2174 </r>
       <r>   -16.3971     2.2834    42.1338 </r>
       <r>   -16.2468    12.4230    44.7306 </r>
       <r>   -16.0966    12.2902    47.9460 </r>
       <r>   -15.9463     0.0000    50.0000 </r>
       <r>   -15.7960     0.0000    50.0000 </r>
       <r>   -15.6457     0.0000    50.0000 </r>
       <r>   -15.4954     2.5176    50.0621 </r>
       <r>   -15.3451     3.5604    52.3353 </r>
       <r>   -15.1948    31.9018    53.3872 </r>
       <r>   -15.0446     3.9574    55.9198 </r>
       <r>   -14.8943     0.0000    56.0000 </r>
       <r>   -14.7440     0.0000    56.0000 </r>
       <r>   -14.5937     0.0000    56.0000 </r>
       <r>   -14.4434     0.0000    56.0000 </r>
       <r>   -14.2931     0.0000    56.0000 </r>
       <r>   -14.1429     0.0000    56.0000 </r>
       <r>   -13.9926     0.0000    56.0000 </r>
       <r>   -13.8423     0.0000    56.0000 </r>
       <r>   -13.6920     0.0000    56.0000 </r>
       <r>   -13.5417     0.0000    56.0000 </r>
       <r>   -13.3914     0.0000    56.0000 </r>
       <r>   -13.2411     0.0000    56.0000 </r>
       <r>   -13.0909     0.0000    56.0000 </r>
       <r>   -12.9406     0.0000    56.0000 </r>
       <r>   -12.7903     0.0000    56.0000 </r>
       <r>   -12.6400     0.0000    56.0000 </r>
       <r>   -12.4897     0.0000    56.0000 </r>
       <r>   -12.3394     0.0000    56.0000 </r>
       <r>   -12.1891     0.0000    56.0000 </r>
       <r>   -12.0389     0.0000    56.0000 </r>
       <r>   -11.8886     0.0000    56.0000 </r>
       <r>   -11.7383     0.0000    56.0000 </r>
       <r>   -11.5880     0.0000    56.0000 </r>
       <r>   -11.4377     0.0000    56.0000 </r>
       <r>   -11.2874     0.0000    56.0000 </r>
       <r>   -11.1371     0.0000    56.0000 </r>
       <r>   -10.9869     0.0000    56.0000 </r>
       <r>   -10.8366     0.0000    56.0000 </r>
       <r>   -10.6863     0.0000    56.0000 </r>
       <r>   -10.5360     0.0000    56.0000 </r>
       <r>   -10.3857     0.0000    56.0000 </r>
       <r>   -10.2354     0.0000    56.0000 </r>
       <r>   -10.0852     0.0000    56.0000 </r>
       <r>    -9.9349     0.0000    56.0000 </r>
       <r>    -9.7846     0.0000    56.0000 </r>
       <r>    -9.6343     0.0000    56.0000 </r>
       <r>    -9.4840     0.0000    56.0000 </r>
       <r>    -9.3337     0.0000    56.0000 </r>
       <r>    -9.1834     0.0000    56.0000 </r>
       <r>    -9.0332     0.0000    56.0000 </r>
       <r>    -8.8829     0.0000    56.0000 </r>
       <r>    -8.7326     0.0000    56.0000 </r>
       <r>    -8.5823     0.0000    56.0000 </r>
       <r>    -8.4320     0.0000    56.0000 </r>
       <r>    -8.2817     0.0000    56.0000 </r>
       <r>    -8.1314     0.0000    56.0000 </r>
       <r>    -7.9812     0.0000    56.0000 </r>
       <r>    -7.8309     0.0000    56.0000 </r>
       <r>    -7.6806     0.0000    56.0000 </r>
       <r>    -7.5303     0.9724    56.3415 </r>
       <r>    -7.3800     0.9719    56.4876 </r>
       <r>    -7.2297     0.9713    56.6336 </r>
       <r>    -7.0795     3.3034    56.8876 </r>
       <r>    -6.9292    14.2020    58.3279 </r>
       <r>    -6.7789     9.9262    59.8318 </r>
       <r>    -6.6286    22.5840    62.2353 </r>
       <r>    -6.4783     7.6848    63.9721 </r>
       <r>    -6.3280     7.7404    65.0554 </r>
       <r>    -6.1777     6.1027    65.9906 </r>
       <r>    -6.0275     8.5963    67.1179 </r>
       <r>    -5.8772    12.8339    68.8783 </r>
       <r>    -5.7269    11.5125    70.8816 </r>
       <r>    -5.5766    13.6151    72.7498 </r>
       <r>    -5.4263    12.4110    74.8293 </r>
       <r>    -5.2760    13.5867    76.8317 </r>
       <r>    -5.1257    16.9609    79.2636 </r>
       <r>    -4.9755    17.1700    81.4377 </r>
       <r>    -4.8252    11.0960    83.3747 </r>
       <r>    -4.6749    14.3762    85.7264 </r>
       <r>    -4.5246     7.4260    87.5242 </r>
       <r>    -4.3743    10.4925    88.9648 </r>
       <r>    -4.2240    10.5598    90.9456 </r>
       <r>    -4.0737    16.1881    93.7756 </r>
       <r>    -3.9235    12.5041    95.7690 </r>
       <r>    -3.7732    14.1437    97.5903 </r>
       <r>    -3.6229     9.6266    99.6526 </r>
       <r>    -3.4726    10.5805   101.4836 </r>
       <r>    -3.3223     7.3061   102.8936 </r>
       <r>    -3.1720    11.7647   103.9333 </r>
       <r>    -3.0218     7.2525   105.4124 </r>
       <r>    -2.8715    37.8413   107.4454 </r>
       <r>    -2.7212     8.5159   110.3447 </r>
       <r>    -2.5709     4.8629   111.4991 </r>
       <r>    -2.4206     3.2047   112.0039 </r>
       <r>    -2.2703     6.2250   113.4930 </r>
       <r>    -2.1200    13.6871   114.5778 </r>
       <r>    -1.9698    13.3757   116.4664 </r>
       <r>    -1.8195     2.1717   117.8834 </r>
       <r>    -1.6692     7.8852   118.6805 </r>
       <r>    -1.5189     5.5447   119.6233 </r>
       <r>    -1.3686     4.0784   120.1751 </r>
       <r>    -1.2183    21.0773   121.9755 </r>
       <r>    -1.0680    13.4969   123.4411 </r>
       <r>    -0.9178    12.5795   125.3744 </r>
       <r>    -0.7675    21.1298   127.9164 </r>
       <r>    -0.6172     7.4216   130.8984 </r>
       <r>    -0.4669     8.0879   132.0084 </r>
       <r>    -0.3166     6.8360   133.2980 </r>
       <r>    -0.1663     4.4491   134.1189 </r>
       <r>    -0.0161     3.1996   134.6805 </r>
       <r>     0.1342     7.3094   135.4573 </r>
       <r>     0.2845     3.3694   136.0601 </r>
       <r>     0.4348     8.9345   137.0493 </r>
       <r>     0.5851     5.8750   138.2344 </r>
       <r>     0.7354     4.8538   139.4595 </r>
       <r>     0.8857     7.4170   140.4867 </r>
       <r>     1.0359     8.7275   141.7662 </r>
       <r>     1.1862     3.3272   142.5116 </r>
       <r>     1.3365     4.2540   143.0098 </r>
       <r>     1.4868     3.0483   144.0621 </r>
       <r>     1.6371     4.0649   144.6236 </r>
       <r>     1.7874     5.0213   145.4294 </r>
       <r>     1.9377     4.5595   146.2843 </r>
       <r>     2.0879     4.3061   147.0109 </r>
       <r>     2.2382     6.8029   147.6228 </r>
       <r>     2.3885     0.4090   147.9157 </r>
       <r>     2.5388     0.2925   147.9684 </r>
       <r>     2.6891     1.6799   148.0820 </r>
       <r>     2.8394     3.4065   148.5865 </r>
       <r>     2.9897     3.5824   149.1116 </r>
       <r>     3.1399     7.8678   149.8190 </r>
       <r>     3.2902     2.3721   150.8136 </r>
       <r>     3.4405     2.3166   151.1659 </r>
       <r>     3.5908     0.6478   151.6146 </r>
       <r>     3.7411     0.5956   151.7080 </r>
       <r>     3.8914     0.5435   151.7936 </r>
       <r>     4.0416     0.4378   151.8701 </r>
       <r>     4.1919     0.3760   151.9225 </r>
       <r>     4.3422     0.2855   151.9922 </r>
       <r>     4.4925     0.0000   152.0000 </r>
       <r>     4.6428     0.0000   152.0000 </r>
       <r>     4.7931     0.0000   152.0000 </r>
       <r>     4.9434     0.0000   152.0000 </r>
       <r>     5.0936     0.0000   152.0000 </r>
       <r>     5.2439     0.0000   152.0000 </r>
       <r>     5.3942     0.0000   152.0000 </r>
       <r>     5.5445     0.0000   152.0000 </r>
       <r>     5.6948     0.0000   152.0000 </r>
       <r>     5.8451     0.0000   152.0000 </r>
       <r>     5.9954     0.0000   152.0000 </r>
       <r>     6.1456     0.0000   152.0000 </r>
       <r>     6.2959     0.0000   152.0000 </r>
       <r>     6.4462     0.0000   152.0000 </r>
      </set>
     </set>
    </array>
   </total>
  </dos>
 </calculation>
 <structure name="finalpos" >
  <crystal>
   <varray name="basis" >
    <v>       5.52288297       0.00000000       0.00000000 </v>
    <v>       0.00000000       3.90526800       0.00000000 </v>
    <v>       0.00000000       0.00000000      21.66504520 </v>
   </varray>
   <i name="volume">    467.27902047 </i>
   <varray name="rec_basis" >
    <v>       0.18106485       0.00000000       0.00000000 </v>
    <v>       0.00000000       0.25606437       0.00000000 </v>
    <v>       0.00000000       0.00000000       0.04615730 </v>
   </varray>
  </crystal>
  <varray name="positions" >
   <v>       0.50000000       0.00000000       0.27694380 </v>
   <v>       0.25000000       0.50000000       0.34067414 </v>
   <v>       0.75000000       0.50000000       0.34067414 </v>
   <v>       0.00000000       0.00000000       0.40440449 </v>
   <v>       0.75000000       0.50000000       0.46813483 </v>
   <v>       0.25000000       0.50000000       0.46813483 </v>
   <v>       0.50000000       0.00000000       0.53186517 </v>
   <v>       0.25000000       0.50000000       0.59559551 </v>
   <v>       0.75000000       0.50000000       0.59559551 </v>
   <v>       0.00000000       0.00000000       0.65932586 </v>
   <v>       0.75000000       0.50000000       0.72305620 </v>
   <v>       0.25000000       0.50000000       0.72305620 </v>
   <v>       0.00000000       0.00000000       0.27694380 </v>
   <v>       0.50000000       0.00000000       0.40440449 </v>
   <v>       0.00000000       0.00000000       0.53186517 </v>
   <v>       0.50000000       0.00000000       0.65932586 </v>
   <v>       0.50000000       0.50000000       0.27694380 </v>
   <v>       0.00000000       0.50000000       0.40440449 </v>
   <v>       0.50000000       0.50000000       0.53186517 </v>
   <v>       0.00000000       0.50000000       0.65932586 </v>
  </varray>
 </structure>
</modeling>
