unknown system                          
   1.00000000000000     
     2.573869    0.000000    0.000000
     1.286934    2.229036    0.000000
     0.000000    0.000000   30.304665
   Cu   H 
     4     1
Direct
  0.000000  0.000000  0.395979
  0.333333  0.333333  0.465326
  0.666667  0.666667  0.534674
  0.000000  0.000000  0.604021
  0.355765  0.288471  0.637020
 
   20   20  240
 -.76742E-02 -.71467E-02 -.55400E-02 -.32905E-02 -.10327E-02 0.62567E-03 0.12711E-02 0.77631E-03 -.60696E-03 -.22051E-02
 -.31256E-02 -.27543E-02 -.12283E-02 0.56240E-03 0.15303E-02 0.10706E-02 -.67063E-03 -.30490E-02 -.53485E-02 -.70148E-02
 -.70989E-02 -.60099E-02 -.37756E-02 -.10765E-02 0.99922E-03 0.14509E-02 -.36868E-04 -.27823E-02 -.53784E-02 -.64741E-02
 -.55751E-02 -.32978E-02 -.90247E-03 0.50966E-03 0.53347E-03 -.57118E-03 -.22787E-02 -.41358E-02 -.58051E-02 -.69314E-02
 -.54775E-02 -.39819E-02 -.16846E-02 0.45930E-03 0.10727E-02 -.91187E-03 -.53591E-02 -.10646E-01 -.14437E-01 -.15078E-01
 -.12553E-01 -.83080E-02 -.42044E-02 -.15042E-02 -.53489E-03 -.97121E-03 -.22550E-02 -.38251E-02 -.51695E-02 -.58355E-02
 -.31907E-02 -.19129E-02 -.56744E-03 -.18497E-03 -.21380E-02 -.72747E-02 -.14917E-01 -.22682E-01 -.27553E-01 -.27544E-01
 -.22782E-01 -.15287E-01 -.77765E-02 -.23677E-02 0.11197E-03 0.82876E-04 -.13122E-02 -.28711E-02 -.38163E-02 -.38987E-02
 -.78052E-03 -.26813E-03 -.63745E-03 -.30342E-02 -.86826E-02 -.17863E-01 -.28976E-01 -.38637E-01 -.43132E-01 -.40425E-01
 -.31393E-01 -.19394E-01 -.84888E-02 -.14571E-02 0.11774E-02 0.76397E-03 -.70844E-03 -.17780E-02 -.19640E-02 -.14906E-02
 0.11974E-02 0.83719E-03 -.17710E-02 -.80238E-02 -.18573E-01 -.32298E-01 -.45920E-01 -.54938E-01 -.55730E-01 -.47642E-01
 -.33579E-01 -.18520E-01 -.69006E-02 -.62006E-03 0.11423E-02 0.58764E-03 -.30868E-03 -.59223E-03 -.18733E-03 0.57967E-03
 0.20545E-02 0.83036E-03 -.44892E-02 -.15166E-01 -.30446E-01 -.47069E-01 -.60073E-01 -.64861E-01 -.59540E-01 -.46087E-01
 -.29379E-01 -.14620E-01 -.48893E-02 -.34665E-03 0.73838E-03 0.35151E-03 -.21981E-03 -.36862E-03 0.16221E-03 0.12547E-02
 0.12593E-02 -.89631E-03 -.87391E-02 -.22633E-01 -.40030E-01 -.55965E-01 -.65072E-01 -.64151E-01 -.53793E-01 -.37990E-01
 -.21972E-01 -.97135E-02 -.26238E-02 0.65638E-04 0.20562E-04 -.12186E-02 -.24909E-02 -.28932E-02 -.19157E-02 0.37977E-04
 -.82292E-03 -.36581E-02 -.12637E-01 -.26920E-01 -.42823E-01 -.55100E-01 -.59380E-01 -.54294E-01 -.42006E-01 -.26915E-01
 -.13497E-01 -.46047E-02 -.92334E-03 -.14239E-02 -.42105E-02 -.72722E-02 -.89873E-02 -.84647E-02 -.58382E-02 -.24715E-02
 -.28764E-02 -.56908E-02 -.13988E-01 -.26065E-01 -.38155E-01 -.45896E-01 -.46355E-01 -.39393E-01 -.27618E-01 -.15111E-01
 -.57483E-02 -.18562E-02 -.35493E-02 -.89014E-02 -.14879E-01 -.18671E-01 -.18779E-01 -.15379E-01 -.10008E-01 -.49928E-02
 -.36616E-02 -.59080E-02 -.12494E-01 -.21233E-01 -.28906E-01 -.32443E-01 -.30256E-01 -.23026E-01 -.13518E-01 -.55121E-02
 -.22998E-02 -.52893E-02 -.13306E-01 -.23017E-01 -.30413E-01 -.32643E-01 -.29166E-01 -.21679E-01 -.13095E-01 -.63666E-02
 -.29064E-02 -.45998E-02 -.93314E-02 -.14675E-01 -.18241E-01 -.18383E-01 -.14837E-01 -.90094E-02 -.36452E-02 -.18285E-02
 -.56583E-02 -.15139E-01 -.27839E-01 -.39630E-01 -.46327E-01 -.45536E-01 -.37723E-01 -.25913E-01 -.14201E-01 -.59961E-02
 -.11613E-02 -.24976E-02 -.55055E-02 -.79721E-02 -.85676E-02 -.69847E-02 -.39476E-02 -.11049E-02 -.63915E-03 -.45422E-02
 -.13725E-01 -.27265E-01 -.42170E-01 -.54035E-01 -.58686E-01 -.54181E-01 -.42001E-01 -.26479E-01 -.12674E-01 -.40149E-02
 0.71514E-03 -.27277E-03 -.19004E-02 -.26786E-02 -.21991E-02 -.83924E-03 0.48659E-03 0.43313E-03 -.26080E-02 -.10043E-01
 -.22266E-01 -.37792E-01 -.52990E-01 -.63041E-01 -.64046E-01 -.55204E-01 -.39530E-01 -.22416E-01 -.88863E-02 -.13712E-02
 0.17573E-02 0.10517E-02 0.91783E-04 -.33717E-03 -.11778E-03 0.46399E-03 0.70154E-03 -.70195E-03 -.54857E-02 -.15019E-01
 -.29058E-01 -.44916E-01 -.57958E-01 -.63533E-01 -.59374E-01 -.46895E-01 -.30488E-01 -.15255E-01 -.46531E-02 0.55835E-03
 0.12062E-02 0.49499E-03 -.33995E-03 -.78059E-03 -.58398E-03 0.10631E-03 0.39832E-03 -.14846E-02 -.75396E-02 -.18554E-01
 -.32839E-01 -.46316E-01 -.54286E-01 -.53871E-01 -.45483E-01 -.32402E-01 -.18907E-01 -.82868E-02 -.18475E-02 0.87204E-03
 -.87434E-03 -.17082E-02 -.22459E-02 -.21064E-02 -.11659E-02 0.13497E-03 0.49103E-03 -.20115E-02 -.88000E-02 -.19434E-01
 -.31098E-01 -.39701E-01 -.42050E-01 -.37575E-01 -.28419E-01 -.18007E-01 -.92546E-02 -.35630E-02 -.87377E-03 -.31946E-03
 -.35393E-02 -.42236E-02 -.40642E-02 -.30592E-02 -.14987E-02 -.10041E-03 -.38032E-04 -.25487E-02 -.81142E-02 -.15734E-01
 -.22990E-01 -.27130E-01 -.26543E-01 -.21628E-01 -.14476E-01 -.76569E-02 -.29914E-02 -.10005E-02 -.11174E-02 -.22912E-02
 -.57852E-02 -.60595E-02 -.52854E-02 -.38378E-02 -.22115E-02 -.95070E-03 -.63297E-03 -.17847E-02 -.46127E-02 -.86333E-02
 -.12540E-01 -.14645E-01 -.13803E-01 -.10209E-01 -.54055E-02 -.14228E-02 0.35401E-03 -.20639E-03 -.21950E-02 -.43685E-02
 -.71924E-02 -.70722E-02 -.59496E-02 -.42615E-02 -.24609E-02 -.89818E-03 0.12988E-03 0.26695E-03 -.79795E-03 -.29326E-02
 -.52579E-02 -.64472E-02 -.56097E-02 -.30536E-02 -.19426E-03 0.13822E-02 0.92411E-03 -.11803E-02 -.38650E-02 -.60773E-02
 0.20369E-03 0.39738E-03 0.39425E-03 0.19866E-03 0.71704E-05 -.16980E-05 0.16519E-03 0.35260E-03 0.41676E-03 0.32434E-03
 0.13147E-03 -.71736E-04 -.18561E-03 -.13207E-03 0.74017E-04 0.28953E-03 0.34030E-03 0.19436E-03 0.17401E-04 0.13269E-04
 0.17577E-03 0.24426E-03 0.48541E-03 0.80282E-03 0.91816E-03 0.54664E-03 -.29388E-03 -.11471E-02 -.14059E-02 -.84327E-03
 0.13054E-03 0.79240E-03 0.72561E-03 0.13284E-03 -.42909E-03 -.57055E-03 -.32741E-03 0.57543E-05 0.19325E-03 0.20869E-03
 -.11513E-03 -.30616E-04 0.40421E-03 0.82652E-03 0.75222E-03 -.20065E-04 -.11528E-02 -.19423E-02 -.18537E-02 -.97894E-03
 0.20066E-04 0.45875E-03 0.17886E-03 -.38926E-03 -.66407E-03 -.41173E-03 0.12479E-03 0.50589E-03 0.47964E-03 0.15572E-03
 -.24280E-03 -.21508E-03 -.90889E-04 -.53539E-04 -.20971E-03 -.53964E-03 -.95081E-03 -.13445E-02 -.16335E-02 -.17387E-02
 -.16137E-02 -.12796E-02 -.81761E-03 -.31883E-03 0.14684E-03 0.50945E-03 0.67780E-03 0.58645E-03 0.28279E-03 -.57549E-04
 0.12884E-03 -.17623E-03 -.62492E-03 -.91140E-03 -.82900E-03 -.55843E-03 -.60262E-03 -.13189E-02 -.24748E-02 -.33243E-02
 -.32054E-02 -.21041E-02 -.65215E-03 0.40397E-03 0.73554E-03 0.52881E-03 0.19154E-03 0.19441E-04 0.61826E-04 0.17006E-03
 0.62386E-03 0.56353E-04 -.68126E-03 -.11861E-02 -.13266E-02 -.13922E-02 -.18121E-02 -.26636E-02 -.34743E-02 -.35780E-02
 -.27189E-02 -.13154E-02 -.13218E-03 0.31665E-03 0.93453E-04 -.32580E-03 -.46972E-03 -.18172E-03 0.33984E-03 0.71201E-03
 0.71203E-03 0.33339E-03 -.40284E-03 -.13933E-02 -.24311E-02 -.32563E-02 -.36452E-02 -.35039E-02 -.29161E-02 -.21069E-02
 -.13382E-02 -.79462E-03 -.52300E-03 -.44693E-03 -.43092E-03 -.35114E-03 -.14392E-03 0.17474E-03 0.51511E-03 0.74089E-03
 0.45640E-03 0.45522E-03 -.27264E-03 -.17330E-02 -.33358E-02 -.42457E-02 -.40185E-02 -.29578E-02 -.18385E-02 -.12510E-02
 -.11809E-02 -.11727E-02 -.83760E-03 -.19366E-03 0.42219E-03 0.68875E-03 0.55141E-03 0.23095E-03 0.45749E-04 0.17058E-03
 0.17543E-03 0.26922E-03 -.33092E-03 -.15625E-02 -.28295E-02 -.34583E-02 -.32523E-02 -.26018E-02 -.20477E-02 -.17640E-02
 -.14804E-02 -.86539E-03 0.76935E-04 0.98578E-03 0.14494E-02 0.13060E-02 0.72006E-03 0.62538E-04 -.29058E-03 -.18118E-03
 -.15482E-03 -.20516E-03 -.37457E-03 -.84133E-03 -.15859E-02 -.23793E-02 -.29145E-02 -.29648E-02 -.24751E-02 -.15732E-02
 -.51904E-03 0.39964E-03 0.99592E-03 0.12558E-02 0.12886E-02 0.11970E-02 0.99948E-03 0.68134E-03 0.29901E-03 -.11012E-04
 -.56695E-03 -.73487E-03 -.54200E-03 -.53586E-03 -.10903E-02 -.20007E-02 -.26028E-02 -.23419E-02 -.12676E-02 0.33503E-05
 0.80197E-03 0.91518E-03 0.66578E-03 0.56835E-03 0.90130E-03 0.15185E-02 0.19821E-02 0.18868E-02 0.11645E-02 0.16705E-03
 -.65340E-03 -.99977E-03 -.95538E-03 -.93560E-03 -.11516E-02 -.13698E-02 -.11753E-02 -.46146E-03 0.39921E-03 0.89203E-03
 0.83868E-03 0.52888E-03 0.42483E-03 0.77861E-03 0.14901E-02 0.22183E-02 0.25728E-02 0.22908E-02 0.13937E-02 0.24169E-03
 -.12277E-03 -.80858E-03 -.11504E-02 -.10692E-02 -.65650E-03 -.11772E-03 0.30756E-03 0.46057E-03 0.38202E-03 0.31584E-03
 0.52673E-03 0.10587E-02 0.16765E-02 0.20726E-02 0.21353E-02 0.19987E-02 0.18376E-02 0.16548E-02 0.12978E-02 0.66817E-03
 0.57476E-03 -.24534E-03 -.65899E-03 -.43473E-03 0.12325E-03 0.44577E-03 0.22796E-03 -.26934E-03 -.43336E-03 0.15975E-03
 0.13583E-02 0.25285E-02 0.30290E-02 0.26670E-02 0.18005E-02 0.10452E-02 0.82612E-03 0.10926E-02 0.13920E-02 0.12501E-02
 0.80599E-03 0.36375E-03 0.13673E-03 0.16974E-03 0.18910E-03 -.52562E-04 -.43069E-03 -.51039E-03 0.33809E-04 0.10840E-02
 0.21580E-02 0.27778E-02 0.27596E-02 0.22362E-02 0.15161E-02 0.93606E-03 0.72780E-03 0.88486E-03 0.11361E-02 0.11431E-02
 0.59983E-03 0.67458E-03 0.49366E-03 0.16426E-03 -.11791E-03 -.15359E-03 0.14399E-03 0.65215E-03 0.10981E-02 0.12935E-02
 0.13272E-02 0.14693E-02 0.18453E-02 0.22330E-02 0.22418E-02 0.17109E-02 0.90161E-03 0.27942E-03 0.12024E-03 0.33025E-03
 0.38350E-03 0.59950E-03 0.37044E-03 0.65930E-04 0.11112E-03 0.58460E-03 0.11389E-02 0.13090E-02 0.94146E-03 0.37165E-03
 0.18090E-03 0.71539E-03 0.17573E-02 0.26325E-02 0.26946E-02 0.18160E-02 0.49732E-03 -.49754E-03 -.69415E-03 -.21567E-03
 0.26416E-03 0.36906E-03 0.27426E-03 0.24206E-03 0.41690E-03 0.66020E-03 0.72570E-03 0.54972E-03 0.32605E-03 0.31349E-03
 0.61211E-03 0.11135E-02 0.15957E-02 0.18251E-02 0.16349E-02 0.10252E-02 0.24017E-03 -.32496E-03 -.40405E-03 -.87523E-04
 0.13420E-03 0.27351E-03 0.35352E-03 0.24915E-03 -.48217E-04 -.36542E-03 -.39366E-03 0.75188E-04 0.88280E-03 0.15251E-02
 0.15463E-02 0.96384E-03 0.27508E-03 0.44050E-05 0.24335E-03 0.63694E-03 0.78140E-03 0.58767E-03 0.27579E-03 0.10015E-03
 0.95062E-04 0.35234E-03 0.38842E-03 0.12886E-04 -.55577E-03 -.81913E-03 -.40102E-03 0.58506E-03 0.15343E-02 0.17755E-02
 0.11073E-02 -.10846E-04 -.79963E-03 -.76098E-03 -.34792E-04 0.76918E-03 0.10867E-02 0.81295E-03 0.30080E-03 0.43828E-05
 0.80310E-02 0.78889E-02 0.62766E-02 0.36574E-02 0.10653E-02 -.55202E-03 -.82353E-03 0.49759E-04 0.15351E-02 0.29166E-02
 0.34378E-02 0.26734E-02 0.94969E-03 -.70994E-03 -.12693E-02 -.41571E-03 0.13709E-02 0.34085E-02 0.53305E-02 0.69871E-02
 0.74263E-02 0.64205E-02 0.46159E-02 0.25718E-02 0.85770E-03 -.11163E-03 -.39792E-04 0.12436E-02 0.35029E-02 0.58188E-02
 0.68684E-02 0.58207E-02 0.31101E-02 0.26670E-03 -.11463E-02 -.54910E-03 0.15141E-02 0.40168E-02 0.61129E-02 0.73242E-02
 0.52427E-02 0.38067E-02 0.23280E-02 0.11434E-02 0.70251E-03 0.16295E-02 0.43653E-02 0.85766E-02 0.12893E-01 0.15408E-01
 0.14757E-01 0.11043E-01 0.58782E-02 0.14875E-02 -.52100E-03 0.96323E-04 0.23385E-02 0.47237E-02 0.61257E-02 0.61961E-02
 0.27222E-02 0.13852E-02 0.33082E-03 0.34052E-03 0.25939E-02 0.78936E-02 0.15584E-01 0.23287E-01 0.27991E-01 0.27771E-01
 0.22847E-01 0.15297E-01 0.78419E-02 0.26070E-02 0.44360E-03 0.87952E-03 0.25701E-02 0.40625E-02 0.45139E-02 0.39147E-02
 0.10800E-02 -.74900E-04 -.36638E-03 0.20692E-02 0.88521E-02 0.19752E-01 0.31914E-01 0.40970E-01 0.43455E-01 0.38746E-01
 0.29124E-01 0.18189E-01 0.90097E-02 0.31211E-02 0.53871E-03 0.30283E-03 0.11336E-02 0.19859E-02 0.23200E-02 0.19995E-02
 0.11241E-03 -.51930E-03 0.11214E-02 0.73150E-02 0.18905E-01 0.33961E-01 0.48009E-01 0.56059E-01 0.55229E-01 0.46197E-01
 0.32587E-01 0.18873E-01 0.82984E-02 0.19658E-02 -.75009E-03 -.11768E-02 -.51298E-03 0.42769E-03 0.10659E-02 0.96193E-03
 -.55853E-03 0.29277E-03 0.49457E-02 0.14904E-01 0.29688E-01 0.46241E-01 0.59648E-01 0.65156E-01 0.60574E-01 0.47560E-01
 0.30807E-01 0.15557E-01 0.51072E-02 -.88674E-04 -.15271E-02 -.10868E-02 -.86944E-04 0.71815E-03 0.85008E-03 0.19452E-03
 -.27319E-03 0.25206E-02 0.99721E-02 0.22416E-01 0.38271E-01 0.53866E-01 0.64304E-01 0.65507E-01 0.56511E-01 0.40402E-01
 0.22859E-01 0.91470E-02 0.16650E-02 -.37725E-03 0.57320E-03 0.22029E-02 0.31508E-02 0.29135E-02 0.16164E-02 0.52779E-04
 0.12466E-02 0.51222E-02 0.14121E-01 0.27455E-01 0.42363E-01 0.54552E-01 0.59682E-01 0.55459E-01 0.43111E-01 0.27046E-01
 0.12681E-01 0.37982E-02 0.11487E-02 0.29150E-02 0.62778E-02 0.88461E-02 0.93189E-02 0.75520E-02 0.44263E-02 0.16297E-02
 0.26405E-02 0.63269E-02 0.15517E-01 0.28033E-01 0.39864E-01 0.46754E-01 0.46141E-01 0.38342E-01 0.26318E-01 0.14242E-01
 0.57558E-02 0.27260E-02 0.48739E-02 0.10182E-01 0.15814E-01 0.19195E-01 0.18907E-01 0.15097E-01 0.93752E-02 0.43069E-02
 0.26029E-02 0.54850E-02 0.13548E-01 0.23377E-01 0.30759E-01 0.32782E-01 0.29082E-01 0.21557E-01 0.13121E-01 0.65664E-02
 0.39793E-02 0.63545E-02 0.13136E-01 0.22031E-01 0.29660E-01 0.32967E-01 0.30573E-01 0.23327E-01 0.13922E-01 0.59355E-02
 0.16729E-02 0.35190E-02 0.91673E-02 0.15254E-01 0.18803E-01 0.18510E-01 0.14937E-01 0.98337E-02 0.53630E-02 0.36875E-02
 0.65736E-02 0.14602E-01 0.26305E-01 0.38163E-01 0.45919E-01 0.46584E-01 0.39844E-01 0.28110E-01 0.15392E-01 0.57149E-02
 0.97716E-03 0.15582E-02 0.43858E-02 0.73625E-02 0.89100E-02 0.82784E-02 0.57445E-02 0.27045E-02 0.14654E-02 0.45095E-02
 0.13279E-01 0.26998E-01 0.42331E-01 0.54417E-01 0.58988E-01 0.54417E-01 0.42485E-01 0.27405E-01 0.13771E-01 0.46863E-02
 0.46535E-03 0.14778E-03 0.11454E-02 0.24663E-02 0.31033E-02 0.22946E-02 0.33489E-03 -.94209E-03 0.12472E-02 0.91332E-02
 0.22860E-01 0.39819E-01 0.55280E-01 0.64195E-01 0.63468E-01 0.53529E-01 0.38155E-01 0.22480E-01 0.10442E-01 0.33788E-02
 -.16612E-03 -.27431E-03 0.21414E-03 0.69341E-03 0.53022E-03 -.51836E-03 -.15856E-02 -.61516E-03 0.47100E-02 0.15546E-01
 0.30817E-01 0.47076E-01 0.59500E-01 0.63823E-01 0.58431E-01 0.45371E-01 0.29386E-01 0.15383E-01 0.60831E-02 0.14344E-02
 -.88927E-04 0.66250E-03 0.10319E-02 0.81373E-03 0.15645E-03 -.49594E-03 -.22937E-03 0.23594E-02 0.86921E-02 0.19275E-01
 0.32781E-01 0.45863E-01 0.54212E-01 0.54571E-01 0.46572E-01 0.33108E-01 0.18842E-01 0.78007E-02 0.16582E-02 -.33056E-03
 0.15107E-02 0.26043E-02 0.26061E-02 0.19332E-02 0.12563E-02 0.10281E-02 0.16987E-02 0.41630E-02 0.95776E-02 0.18317E-01
 0.28911E-01 0.38113E-01 0.42379E-01 0.39819E-01 0.31258E-01 0.19779E-01 0.91447E-02 0.21001E-02 -.60566E-03 -.11967E-03
 0.39213E-02 0.46803E-02 0.43304E-02 0.33958E-02 0.23607E-02 0.15216E-02 0.14409E-02 0.31994E-02 0.77440E-02 0.14736E-01
 0.22104E-01 0.26981E-01 0.27358E-01 0.23170E-01 0.16125E-01 0.86884E-02 0.30246E-02 0.30111E-03 0.40854E-03 0.21442E-02
 0.59268E-02 0.64238E-02 0.58658E-02 0.43423E-02 0.22412E-02 0.35216E-03 -.19201E-03 0.15603E-02 0.55764E-02 0.10475E-01
 0.14137E-01 0.14975E-01 0.12860E-01 0.90111E-02 0.50926E-02 0.23237E-02 0.11724E-02 0.15148E-02 0.28729E-02 0.45748E-02
 0.72943E-02 0.76893E-02 0.66919E-02 0.43312E-02 0.14514E-02 -.64869E-03 -.94824E-03 0.69151E-03 0.34195E-02 0.58282E-02
 0.66956E-02 0.56483E-02 0.33536E-02 0.10822E-02 -.89379E-04 0.13897E-03 0.13416E-02 0.29095E-02 0.45106E-02 0.60505E-02
 0.31679E-04 0.75756E-03 0.84290E-03 0.37341E-03 0.21148E-04 0.19395E-03 0.60485E-03 0.74140E-03 0.52669E-03 0.30179E-03
 0.26277E-03 0.21263E-03 -.42148E-04 -.29632E-03 -.19916E-03 0.17398E-03 0.30042E-03 -.11918E-03 -.67355E-03 -.66362E-03
 0.18018E-03 0.34253E-03 0.42451E-03 0.58530E-03 0.82359E-03 0.82521E-03 0.34182E-03 -.32681E-03 -.47178E-03 0.26765E-03
 0.13939E-02 0.19665E-02 0.15319E-02 0.52410E-03 -.27150E-03 -.50160E-03 -.39857E-03 -.29417E-03 -.22339E-03 -.58029E-04
 -.47881E-03 -.57601E-03 -.88711E-04 0.55178E-03 0.81380E-03 0.54746E-03 0.11132E-03 0.58592E-04 0.66773E-03 0.16947E-02
 0.25224E-02 0.25910E-02 0.18062E-02 0.63340E-03 -.21623E-03 -.30340E-03 0.21219E-03 0.72158E-03 0.69230E-03 0.12314E-03
 -.78037E-03 -.64216E-03 -.12804E-03 0.29324E-03 0.60097E-03 0.11307E-02 0.19695E-02 0.27087E-02 0.28972E-02 0.25616E-02
 0.20972E-02 0.17263E-02 0.13081E-02 0.73877E-03 0.30014E-03 0.36929E-03 0.83531E-03 0.10723E-02 0.62248E-03 -.23629E-03
 0.14511E-03 0.12652E-03 0.60251E-04 0.26694E-03 0.12411E-02 0.29475E-02 0.45112E-02 0.48918E-02 0.39118E-02 0.24489E-02
 0.15314E-02 0.13683E-02 0.13810E-02 0.10553E-02 0.50833E-03 0.17571E-03 0.19009E-03 0.29083E-03 0.25784E-03 0.16621E-03
 0.99139E-03 0.50423E-03 0.22126E-03 0.74645E-03 0.21868E-02 0.39579E-02 0.51555E-02 0.52308E-02 0.43805E-02 0.32961E-02
 0.25340E-02 0.21105E-02 0.16583E-02 0.90967E-03 0.27477E-05 -.63880E-03 -.67486E-03 -.12591E-03 0.62853E-03 0.10931E-02
 0.57988E-03 0.39524E-03 0.70987E-03 0.14707E-02 0.24245E-02 0.34642E-02 0.45659E-02 0.54711E-02 0.56889E-02 0.49517E-02
 0.35689E-02 0.21764E-02 0.11527E-02 0.41291E-03 -.21414E-03 -.59420E-03 -.44537E-03 0.17651E-03 0.77004E-03 0.87668E-03
 -.22725E-04 0.78817E-03 0.16769E-02 0.22041E-02 0.25391E-02 0.33252E-02 0.47779E-02 0.61229E-02 0.62115E-02 0.47176E-02
 0.25379E-02 0.92699E-03 0.37228E-03 0.42280E-03 0.44980E-03 0.28674E-03 0.99159E-04 -.54475E-04 -.24319E-03 -.34141E-03
 0.27661E-03 0.14945E-02 0.24447E-02 0.30011E-02 0.35009E-02 0.42727E-02 0.50881E-02 0.52314E-02 0.42161E-02 0.23866E-02
 0.71518E-03 -.18008E-04 0.18107E-03 0.68516E-03 0.86814E-03 0.52636E-03 -.15354E-03 -.81778E-03 -.10949E-02 -.71977E-03
 0.45073E-03 0.12486E-02 0.23586E-02 0.35870E-02 0.44415E-02 0.45086E-02 0.38169E-02 0.27762E-02 0.17907E-02 0.10073E-02
 0.41933E-03 0.65714E-04 0.33247E-05 0.12310E-03 0.14896E-03 -.95362E-04 -.47446E-03 -.67582E-03 -.53202E-03 -.12171E-03
 -.41919E-03 0.12039E-03 0.16370E-02 0.32694E-02 0.38768E-02 0.31843E-02 0.20349E-02 0.14346E-02 0.15077E-02 0.15444E-02
 0.96356E-03 -.30041E-04 -.78570E-03 -.95658E-03 -.71219E-03 -.34369E-03 0.32694E-04 0.31975E-03 0.28896E-03 -.11798E-03
 -.98508E-03 -.41367E-03 0.86405E-03 0.19829E-02 0.22714E-02 0.19012E-02 0.15865E-02 0.17026E-02 0.18768E-02 0.15000E-02
 0.48690E-03 -.61568E-03 -.12040E-02 -.11296E-02 -.64138E-03 -.41262E-04 0.43578E-03 0.53704E-03 0.98792E-04 -.63373E-03
 -.14147E-04 0.50925E-04 0.26483E-03 0.69670E-03 0.12252E-02 0.15757E-02 0.15233E-02 0.10756E-02 0.45992E-03 -.59622E-04
 -.35160E-03 -.44056E-03 -.41832E-03 -.36261E-03 -.31633E-03 -.29241E-03 -.27308E-03 -.22479E-03 -.14062E-03 -.59798E-04
 0.11660E-02 0.41416E-03 -.99379E-04 0.20764E-03 0.92414E-03 0.10952E-02 0.31558E-03 -.80508E-03 -.13139E-02 -.89539E-03
 -.68747E-04 0.46092E-03 0.42575E-03 -.12502E-04 -.59928E-03 -.10914E-02 -.11635E-02 -.56306E-03 0.49026E-03 0.12664E-02
 0.94156E-03 0.21985E-03 -.10357E-03 0.18283E-03 0.47844E-03 0.14955E-03 -.66192E-03 -.11915E-02 -.94046E-03 -.19546E-03
 0.37422E-03 0.43013E-03 0.12243E-03 -.30601E-03 -.76889E-03 -.11333E-02 -.10569E-02 -.32283E-03 0.70525E-03 0.12570E-02
 0.14220E-03 0.16932E-03 0.61570E-04 -.44763E-04 -.49390E-04 0.81194E-04 0.29455E-03 0.43861E-03 0.33679E-03 -.41083E-04
 -.48147E-03 -.67140E-03 -.49365E-03 -.16309E-03 -.25372E-04 -.21175E-03 -.51771E-03 -.62812E-03 -.43105E-03 -.92470E-04
 0.20796E-03 0.40499E-03 -.39946E-04 -.40421E-03 -.28985E-04 0.90166E-03 0.15193E-02 0.11736E-02 0.64704E-04 -.10163E-02
 -.14281E-02 -.10923E-02 -.34062E-03 0.40063E-03 0.74946E-03 0.46008E-03 -.35961E-03 -.11475E-02 -.12573E-02 -.59369E-03
 0.58576E-03 0.30106E-03 -.30460E-03 -.44447E-03 0.12862E-03 0.78971E-03 0.77224E-03 0.43067E-04 -.73062E-03 -.98384E-03
 -.77248E-03 -.46459E-03 -.19333E-03 0.14464E-03 0.47216E-03 0.45965E-03 0.29443E-05 -.45820E-03 -.37394E-03 0.19972E-03
 0.22488E-03 0.18117E-04 -.11805E-03 -.17146E-03 -.25906E-03 -.46337E-03 -.62429E-03 -.45506E-03 0.62360E-04 0.50764E-03
 0.39719E-03 -.25942E-03 -.88753E-03 -.89800E-03 -.26202E-03 0.51450E-03 0.93125E-03 0.90752E-03 0.67908E-03 0.44334E-03
 -.23253E-03 0.29989E-03 0.53439E-03 0.11973E-03 -.57295E-03 -.84147E-03 -.35796E-03 0.54052E-03 0.11882E-02 0.11343E-02
 0.40952E-03 -.56701E-03 -.12395E-02 -.11899E-02 -.39931E-03 0.64811E-03 0.12341E-02 0.97454E-03 0.19067E-03 -.36404E-03
 -.77088E-02 -.61360E-02 -.44100E-02 -.28038E-02 -.98567E-03 0.92355E-03 0.19740E-02 0.13284E-02 -.63887E-03 -.25164E-02
 -.31341E-02 -.24504E-02 -.11897E-02 0.13637E-04 0.81221E-03 0.74772E-03 -.73236E-03 -.35401E-02 -.64975E-02 -.80773E-02
 -.68541E-02 -.55097E-02 -.35418E-02 -.12299E-02 0.82226E-03 0.15594E-02 0.20401E-03 -.27665E-02 -.56218E-02 -.66386E-02
 -.54351E-02 -.30623E-02 -.91618E-03 0.26001E-03 0.39866E-03 -.42212E-03 -.21404E-02 -.43814E-02 -.63360E-02 -.72295E-02
 -.60624E-02 -.47489E-02 -.22754E-02 0.58370E-04 0.66842E-03 -.13763E-02 -.57237E-02 -.10781E-01 -.14431E-01 -.15096E-01
 -.12585E-01 -.81825E-02 -.38488E-02 -.10652E-02 -.16948E-03 -.60438E-03 -.16833E-02 -.30710E-02 -.46040E-02 -.58478E-02
 -.42174E-02 -.25086E-02 -.48370E-03 -.13941E-04 -.24038E-02 -.77428E-02 -.15012E-01 -.22350E-01 -.27333E-01 -.27783E-01
 -.23132E-01 -.15212E-01 -.73369E-02 -.21413E-02 -.10177E-03 -.35311E-04 -.73631E-03 -.18512E-02 -.32982E-02 -.44168E-02
 -.77049E-03 0.37418E-03 0.25561E-03 -.25293E-02 -.86654E-02 -.17844E-01 -.28606E-01 -.38203E-01 -.43135E-01 -.40867E-01
 -.31775E-01 -.19438E-01 -.85408E-02 -.20026E-02 0.24726E-03 0.95189E-04 -.73312E-03 -.15056E-02 -.19659E-02 -.17695E-02
 0.18703E-02 0.13661E-02 -.14744E-02 -.78957E-02 -.18497E-01 -.32207E-01 -.45830E-01 -.54900E-01 -.55772E-01 -.47738E-01
 -.33680E-01 -.18615E-01 -.70541E-02 -.94304E-03 0.59109E-03 -.10347E-03 -.90456E-03 -.83507E-03 0.35848E-04 0.11576E-02
 0.17011E-02 0.32145E-04 -.50528E-02 -.15278E-01 -.30505E-01 -.47412E-01 -.60467E-01 -.64858E-01 -.59147E-01 -.45755E-01
 -.29336E-01 -.14520E-01 -.43303E-02 0.44654E-03 0.10793E-02 -.37950E-04 -.78772E-03 -.38051E-03 0.70680E-03 0.16241E-02
 0.16751E-03 -.17694E-02 -.88927E-02 -.22426E-01 -.40133E-01 -.56445E-01 -.65351E-01 -.63863E-01 -.53319E-01 -.37908E-01
 -.22202E-01 -.95682E-02 -.17461E-02 0.11633E-02 0.55922E-03 -.13376E-02 -.26688E-02 -.27399E-02 -.18134E-02 -.50485E-03
 -.82695E-03 -.32891E-02 -.12070E-01 -.26518E-01 -.42762E-01 -.55205E-01 -.59381E-01 -.54194E-01 -.42080E-01 -.27340E-01
 -.14089E-01 -.49891E-02 -.91761E-03 -.11784E-02 -.39848E-02 -.71795E-02 -.90013E-02 -.85754E-02 -.60624E-02 -.27063E-02
 -.19473E-02 -.51866E-02 -.13846E-01 -.25913E-01 -.37880E-01 -.45749E-01 -.46518E-01 -.39686E-01 -.27790E-01 -.15276E-01
 -.62743E-02 -.28009E-02 -.44327E-02 -.92059E-02 -.14668E-01 -.18497E-01 -.18965E-01 -.15598E-01 -.97084E-02 -.41177E-02
 -.36823E-02 -.66003E-02 -.13101E-01 -.21218E-01 -.28588E-01 -.32451E-01 -.30594E-01 -.23066E-01 -.12932E-01 -.48344E-02
 -.22940E-02 -.59623E-02 -.13900E-01 -.22989E-01 -.30082E-01 -.32640E-01 -.29502E-01 -.21729E-01 -.12533E-01 -.57182E-02
 -.38515E-02 -.54935E-02 -.96790E-02 -.14525E-01 -.18099E-01 -.18547E-01 -.15002E-01 -.86684E-02 -.27554E-02 -.89540E-03
 -.51500E-02 -.15009E-01 -.27732E-01 -.39409E-01 -.46199E-01 -.45665E-01 -.37960E-01 -.26053E-01 -.14367E-01 -.65309E-02
 -.11288E-02 -.22476E-02 -.53057E-02 -.79101E-02 -.85848E-02 -.70703E-02 -.41491E-02 -.13441E-02 -.66744E-03 -.41962E-02
 -.13178E-01 -.26897E-01 -.42161E-01 -.54184E-01 -.58692E-01 -.54047E-01 -.42030E-01 -.26874E-01 -.13248E-01 -.43741E-02
 0.18448E-02 0.29533E-03 -.20022E-02 -.28550E-02 -.20591E-02 -.76235E-03 -.88896E-04 -.68955E-03 -.34990E-02 -.10196E-01
 -.22043E-01 -.37878E-01 -.53464E-01 -.63327E-01 -.63775E-01 -.54750E-01 -.39465E-01 -.22653E-01 -.87340E-02 -.47048E-03
 0.21152E-02 0.69083E-03 -.45684E-03 -.35825E-03 0.39170E-03 0.79501E-03 0.32799E-03 -.14967E-02 -.60270E-02 -.15092E-01
 -.29063E-01 -.45202E-01 -.58317E-01 -.63540E-01 -.59029E-01 -.46623E-01 -.30492E-01 -.15182E-01 -.41079E-02 0.13510E-02
 0.50352E-03 -.94220E-04 -.58333E-03 -.57712E-03 -.24455E-04 0.78857E-03 0.96124E-03 -.11584E-02 -.74029E-02 -.18475E-01
 -.32729E-01 -.46196E-01 -.54239E-01 -.53935E-01 -.45610E-01 -.32513E-01 -.18993E-01 -.84408E-02 -.21954E-02 0.28948E-03
 -.91756E-03 -.14435E-02 -.22566E-02 -.23890E-02 -.11362E-02 0.81999E-03 0.14189E-02 -.15124E-02 -.88295E-02 -.19471E-01
 -.30768E-01 -.39288E-01 -.42061E-01 -.38005E-01 -.28759E-01 -.17982E-01 -.92481E-02 -.40926E-02 -.18282E-02 -.10215E-02
 -.25339E-02 -.37153E-02 -.45768E-02 -.40687E-02 -.20786E-02 -.10818E-04 0.12904E-03 -.28278E-02 -.86097E-02 -.15872E-01
 -.22703E-01 -.26935E-01 -.26770E-01 -.21937E-01 -.14351E-01 -.71759E-02 -.27348E-02 -.11928E-02 -.12252E-02 -.17199E-02
 -.52280E-02 -.60699E-02 -.58552E-02 -.46028E-02 -.28272E-02 -.13774E-02 -.10261E-02 -.21985E-02 -.49251E-02 -.87479E-02
 -.12539E-01 -.14667E-01 -.13834E-01 -.10098E-01 -.50892E-02 -.10204E-02 0.72104E-03 0.19988E-03 -.15838E-02 -.36043E-02
 -.74911E-02 -.68222E-02 -.54472E-02 -.40446E-02 -.26423E-02 -.10803E-02 0.28087E-03 0.58439E-03 -.71031E-03 -.31359E-02
 -.54133E-02 -.63197E-02 -.54095E-02 -.31277E-02 -.51100E-03 0.12085E-02 0.10809E-02 -.10061E-02 -.40817E-02 -.66008E-02
 0.38022E-03 0.15952E-02 0.16519E-02 0.75910E-03 0.10861E-03 0.35745E-03 0.92580E-03 0.91876E-03 0.32053E-03 -.12628E-03
 -.45942E-04 0.94609E-04 -.21174E-03 -.67133E-03 -.59142E-03 0.27299E-04 0.33627E-03 -.22111E-03 -.10064E-02 -.86589E-03
 0.60989E-03 0.89348E-03 0.81375E-03 0.71020E-03 0.79537E-03 0.69983E-03 -.60698E-04 -.12449E-02 -.18871E-02 -.13280E-02
 -.47188E-04 0.79432E-03 0.59882E-03 -.12839E-03 -.52322E-03 -.36836E-03 -.12861E-03 -.14855E-03 -.19423E-03 0.97132E-04
 -.56813E-03 -.70218E-03 -.12089E-03 0.47501E-03 0.36443E-03 -.56552E-03 -.17836E-02 -.25807E-02 -.25536E-02 -.17810E-02
 -.71388E-03 0.85435E-04 0.27093E-03 -.31097E-04 -.28318E-03 0.35068E-05 0.76155E-03 0.13550E-02 0.11767E-02 0.29197E-03
 -.11895E-02 -.74758E-03 0.42319E-04 0.12206E-03 -.60883E-03 -.14154E-02 -.18387E-02 -.21935E-02 -.28416E-02 -.34064E-02
 -.31456E-02 -.19963E-02 -.78430E-03 -.22456E-03 -.61041E-04 0.44345E-03 0.13215E-02 0.16912E-02 0.90026E-03 -.47848E-03
 0.19916E-03 0.52292E-03 0.28443E-03 -.54090E-03 -.12765E-02 -.15151E-02 -.17984E-02 -.29296E-02 -.47094E-02 -.58150E-02
 -.51588E-02 -.31255E-02 -.11673E-02 -.27465E-03 -.17802E-03 -.81919E-04 0.23052E-03 0.35824E-03 0.12721E-03 -.45636E-04
 0.13591E-02 0.63028E-03 -.46530E-03 -.14655E-02 -.22262E-02 -.30123E-02 -.41393E-02 -.54817E-02 -.63745E-02 -.60966E-02
 -.45336E-02 -.23850E-02 -.69160E-03 -.88609E-04 -.41756E-03 -.95947E-03 -.10189E-02 -.38479E-03 0.60363E-03 0.13395E-02
 0.41255E-03 -.47324E-03 -.12283E-02 -.22914E-02 -.40483E-02 -.60119E-02 -.71265E-02 -.68454E-02 -.56082E-02 -.41842E-02
 -.28511E-02 -.14796E-02 -.22633E-03 0.33606E-03 -.39876E-04 -.71511E-03 -.72026E-03 0.14271E-03 0.10552E-02 0.11410E-02
 -.62422E-03 -.52824E-03 -.91818E-03 -.26891E-02 -.54620E-02 -.75638E-02 -.76325E-02 -.60029E-02 -.41975E-02 -.31893E-02
 -.25742E-02 -.15203E-02 -.69277E-04 0.91828E-03 0.94120E-03 0.46678E-03 0.21209E-03 0.22206E-03 0.42779E-04 -.39544E-03
 0.10973E-03 0.40986E-03 -.45194E-03 -.25611E-02 -.49665E-02 -.63913E-02 -.63224E-02 -.53310E-02 -.43195E-02 -.35907E-02
 -.27624E-02 -.14784E-02 0.23676E-04 0.11181E-02 0.14030E-02 0.97844E-03 0.22575E-03 -.47267E-03 -.79308E-03 -.53463E-03
 0.64080E-03 -.87939E-05 -.99663E-03 -.20882E-02 -.33241E-02 -.46240E-02 -.54692E-02 -.52713E-02 -.40477E-02 -.25057E-02
 -.13551E-02 -.67825E-03 -.11601E-03 0.45548E-03 0.70959E-03 0.39516E-03 -.16100E-03 -.32499E-03 0.10337E-03 0.63461E-03
 -.75194E-03 -.17343E-02 -.18334E-02 -.16781E-02 -.23175E-02 -.37027E-02 -.44846E-02 -.35380E-02 -.13668E-02 0.37329E-03
 0.64328E-03 -.65577E-04 -.61457E-03 -.56610E-03 -.31760E-03 -.17572E-03 0.10230E-03 0.68138E-03 0.10438E-02 0.50888E-03
 -.17329E-02 -.21215E-02 -.17929E-02 -.15662E-02 -.19782E-02 -.25036E-02 -.21240E-02 -.60919E-03 0.10658E-02 0.16948E-02
 0.10390E-02 -.10452E-03 -.86075E-03 -.10058E-02 -.76652E-03 -.29625E-03 0.32918E-03 0.75927E-03 0.46750E-03 -.60071E-03
 -.15302E-03 -.67358E-03 -.12178E-02 -.14157E-02 -.11394E-02 -.61534E-03 -.16355E-03 0.10850E-03 0.29514E-03 0.43373E-03
 0.38629E-03 0.33387E-04 -.49308E-03 -.87466E-03 -.90792E-03 -.67109E-03 -.37541E-03 -.13593E-03 0.37232E-04 0.79106E-04
 0.17117E-02 0.30126E-03 -.85543E-03 -.75512E-03 0.11990E-03 0.42904E-03 -.36929E-03 -.13867E-02 -.14430E-02 -.49027E-03
 0.42128E-03 0.44017E-03 -.24133E-03 -.90033E-03 -.12104E-02 -.12991E-02 -.11136E-02 -.30609E-03 0.10475E-02 0.20344E-02
 0.12073E-02 0.29267E-04 -.41313E-03 0.13804E-03 0.70023E-03 0.30685E-03 -.76260E-03 -.13324E-02 -.78694E-03 0.21826E-03
 0.60801E-03 0.11494E-03 -.63383E-03 -.10539E-02 -.11705E-02 -.11662E-02 -.81960E-03 0.16667E-03 0.14053E-02 0.19127E-02
 -.55657E-04 0.12474E-03 0.28361E-03 0.40199E-03 0.48241E-03 0.57560E-03 0.72851E-03 0.87169E-03 0.80847E-03 0.39413E-03
 -.25602E-03 -.79051E-03 -.90877E-03 -.63047E-03 -.26068E-03 -.92314E-04 -.16457E-03 -.30211E-03 -.33353E-03 -.22898E-03
 0.38631E-03 0.91234E-03 0.40980E-03 -.16723E-03 0.18756E-03 0.13059E-02 0.20538E-02 0.16434E-02 0.42831E-03 -.64122E-03
 -.10329E-02 -.87574E-03 -.43483E-03 0.20040E-03 0.81296E-03 0.86201E-03 0.14367E-04 -.11957E-02 -.16620E-02 -.88067E-03
 0.13375E-02 0.95572E-03 -.16050E-03 -.70022E-03 -.11101E-03 0.77860E-03 0.86454E-03 0.10422E-03 -.59362E-03 -.60981E-03
 -.25571E-03 -.83456E-04 -.24804E-04 0.36081E-03 0.97462E-03 0.10820E-02 0.32944E-03 -.54784E-03 -.48547E-03 0.53490E-03
 0.81151E-03 0.39443E-03 -.10101E-03 -.43129E-03 -.60796E-03 -.76085E-03 -.79792E-03 -.44523E-03 0.29548E-03 0.91921E-03
 0.86503E-03 0.18023E-03 -.44284E-03 -.37850E-03 0.28976E-03 0.94057E-03 0.11400E-02 0.10219E-02 0.94037E-03 0.95195E-03
 -.23077E-04 0.78128E-03 0.10288E-02 0.31642E-03 -.68259E-03 -.95653E-03 -.21933E-03 0.88243E-03 0.15057E-02 0.13432E-02
 0.64475E-03 -.19236E-03 -.83195E-03 -.95211E-03 -.36867E-03 0.62989E-03 0.12900E-02 0.10423E-02 0.17256E-03 -.37823E-03
 0.80065E-02 0.89068E-02 0.74030E-02 0.41351E-02 0.11091E-02 -.24889E-03 -.11503E-03 0.60178E-03 0.15022E-02 0.26115E-02
 0.34418E-02 0.29856E-02 0.98630E-03 -.12650E-02 -.19879E-02 -.73285E-03 0.13117E-02 0.29114E-02 0.41741E-02 0.59262E-02
 0.76768E-02 0.69244E-02 0.48484E-02 0.24167E-02 0.68364E-03 0.35930E-05 0.20714E-03 0.12642E-02 0.32678E-02 0.56697E-02
 0.70272E-02 0.60705E-02 0.31029E-02 0.19435E-04 -.12784E-02 -.39852E-03 0.16486E-02 0.37626E-02 0.55754E-02 0.70269E-02