unknown system                          
   1.00000000000000     
     2.573869    0.000000    0.000000
     1.286934    2.229036    0.000000
     0.000000    0.000000   30.304665
   Cu   H 
     4     1
Direct
  0.000000  0.000000  0.395979
  0.333333  0.333333  0.465326
  0.666667  0.666667  0.534674
  0.000000  0.000000  0.604021
  0.355765  0.288471  0.637020
 
   20   20  240
 -.76742139453E-02 -.71467266100E-02 -.55400196376E-02 -.32904784127E-02 -.10326687500E-02
 0.62567493191E-03 0.12710832975E-02 0.77631023430E-03 -.60695999831E-03 -.22051232007E-02
 -.31256485576E-02 -.27542883353E-02 -.12282647914E-02 0.56239691296E-03 0.15303451603E-02
 0.10705574909E-02 -.67063401087E-03 -.30489635295E-02 -.53485017582E-02 -.70148424732E-02
 -.70988602205E-02 -.60099452339E-02 -.37756118346E-02 -.10765111139E-02 0.99921734693E-03
 0.14509175754E-02 -.36868145145E-04 -.27823378125E-02 -.53784280904E-02 -.64740525723E-02
 -.55750918756E-02 -.32978142579E-02 -.90247414257E-03 0.50966430014E-03 0.53346924453E-03
 -.57117697142E-03 -.22786863532E-02 -.41358155290E-02 -.58051288494E-02 -.69313913042E-02
 -.54775255219E-02 -.39818953451E-02 -.16845811301E-02 0.45929730018E-03 0.10727494583E-02
 -.91187243344E-03 -.53591202535E-02 -.10645846184E-01 -.14437123826E-01 -.15078154050E-01
 -.12553147704E-01 -.83079897182E-02 -.42044160675E-02 -.15042248755E-02 -.53488557839E-03
 -.97121104056E-03 -.22549593449E-02 -.38251285973E-02 -.51695406362E-02 -.58355256583E-02
 -.31907020380E-02 -.19129368895E-02 -.56744329632E-03 -.18497250386E-03 -.21379610830E-02
 -.72746679036E-02 -.14916936338E-01 -.22682413045E-01 -.27552894086E-01 -.27543903271E-01
 -.22781579637E-01 -.15287084802E-01 -.77765059689E-02 -.23676617129E-02 0.11197455368E-03
 0.82876232710E-04 -.13121881487E-02 -.28710815479E-02 -.38162666066E-02 -.38986572064E-02
 -.78052039635E-03 -.26812830055E-03 -.63744738085E-03 -.30342416305E-02 -.86825902329E-02
 -.17863487089E-01 -.28975537859E-01 -.38636777749E-01 -.43131821417E-01 -.40425459763E-01
 -.31392541033E-01 -.19394428501E-01 -.84887587534E-02 -.14570863963E-02 0.11774045354E-02
 0.76396814595E-03 -.70843756373E-03 -.17779668137E-02 -.19640066258E-02 -.14906486278E-02
 0.11974383789E-02 0.83718985252E-03 -.17710164203E-02 -.80238355007E-02 -.18573343892E-01
 -.32298286645E-01 -.45920304413E-01 -.54938181382E-01 -.55729813394E-01 -.47641618761E-01
 -.33578690575E-01 -.18520308005E-01 -.69006126977E-02 -.62006024135E-03 0.11423283428E-02
 0.58764176879E-03 -.30867823122E-03 -.59223404139E-03 -.18732677057E-03 0.57967328334E-03
 0.20545011230E-02 0.83035871759E-03 -.44891681199E-02 -.15165750116E-01 -.30445984538E-01
 -.47068562706E-01 -.60073293853E-01 -.64860577491E-01 -.59539799911E-01 -.46086909451E-01
 -.29378519876E-01 -.14620250686E-01 -.48892862551E-02 -.34664797177E-03 0.73838458600E-03
 0.35150512069E-03 -.21981437359E-03 -.36862254365E-03 0.16221330762E-03 0.12546892169E-02
 0.12593289804E-02 -.89630723635E-03 -.87391279660E-02 -.22633160174E-01 -.40029660048E-01
 -.55964889610E-01 -.65071760765E-01 -.64151122181E-01 -.53793219095E-01 -.37989582840E-01
 -.21972333801E-01 -.97134510530E-02 -.26238391653E-02 0.65637908349E-04 0.20562472557E-04
 -.12185632964E-02 -.24909302922E-02 -.28931778428E-02 -.19156595610E-02 0.37977083181E-04
 -.82291845338E-03 -.36581195270E-02 -.12636717911E-01 -.26920266586E-01 -.42822552446E-01
 -.55100303672E-01 -.59379914286E-01 -.54293794004E-01 -.42006420759E-01 -.26915429225E-01
 -.13497190780E-01 -.46046959650E-02 -.92334029005E-03 -.14239062632E-02 -.42104782635E-02
 -.72722282243E-02 -.89872540532E-02 -.84647273142E-02 -.58381847604E-02 -.24715012225E-02
 -.28763739814E-02 -.56908301523E-02 -.13988401321E-01 -.26064672931E-01 -.38155078857E-01
 -.45896491642E-01 -.46354896089E-01 -.39393425643E-01 -.27618424345E-01 -.15110535817E-01
 -.57482688186E-02 -.18561558589E-02 -.35492862329E-02 -.89013952557E-02 -.14878934067E-01
 -.18671076608E-01 -.18778993973E-01 -.15378904523E-01 -.10007657095E-01 -.49928263497E-02
 -.36616051118E-02 -.59079947189E-02 -.12494159872E-01 -.21233123829E-01 -.28906386960E-01
 -.32442952495E-01 -.30255887286E-01 -.23026424841E-01 -.13518041144E-01 -.55120722801E-02
 -.22997609240E-02 -.52892811084E-02 -.13306332521E-01 -.23016818677E-01 -.30413256168E-01
 -.32643090427E-01 -.29166123726E-01 -.21678651293E-01 -.13095425214E-01 -.63665692578E-02
 -.29063809840E-02 -.45998481385E-02 -.93314073181E-02 -.14675016843E-01 -.18240712095E-01
 -.18383049871E-01 -.14836665934E-01 -.90094430442E-02 -.36451820559E-02 -.18285301595E-02
 -.56582801328E-02 -.15138754308E-01 -.27839343065E-01 -.39630085062E-01 -.46327159641E-01
 -.45535544730E-01 -.37723218181E-01 -.25913323150E-01 -.14201323356E-01 -.59960774570E-02
 -.11612829009E-02 -.24976466742E-02 -.55054946054E-02 -.79720791819E-02 -.85675837341E-02
 -.69847483791E-02 -.39476059234E-02 -.11048882290E-02 -.63915246772E-03 -.45421552434E-02
 -.13725144471E-01 -.27265483371E-01 -.42169615546E-01 -.54034695065E-01 -.58685731360E-01
 -.54180898866E-01 -.42000574688E-01 -.26478963975E-01 -.12674232977E-01 -.40148596891E-02
 0.71514429717E-03 -.27277247587E-03 -.19003504398E-02 -.26785745081E-02 -.21990971174E-02
 -.83923633787E-03 0.48658563282E-03 0.43312516532E-03 -.26080267449E-02 -.10043490792E-01
 -.22266232672E-01 -.37791843299E-01 -.52990391088E-01 -.63041308705E-01 -.64046054889E-01
 -.55203860922E-01 -.39529959784E-01 -.22415522127E-01 -.88862780701E-02 -.13711768733E-02
 0.17572919448E-02 0.10516982269E-02 0.91783430605E-04 -.33717239975E-03 -.11777820859E-03
 0.46399332793E-03 0.70153659149E-03 -.70194930446E-03 -.54857121982E-02 -.15019283511E-01
 -.29058151022E-01 -.44916418829E-01 -.57957624022E-01 -.63533352969E-01 -.59374260865E-01
 -.46894979611E-01 -.30488343216E-01 -.15255220775E-01 -.46530738356E-02 0.55835444338E-03
 0.12062187853E-02 0.49498728561E-03 -.33995332140E-03 -.78058632843E-03 -.58398347164E-03
 0.10630641117E-03 0.39832399517E-03 -.14845840736E-02 -.75395913766E-02 -.18553935631E-01
 -.32838828918E-01 -.46315793518E-01 -.54286499999E-01 -.53871245060E-01 -.45482712691E-01
 -.32401751782E-01 -.18906822135E-01 -.82867912027E-02 -.18475072615E-02 0.87203750574E-03
 -.87433984424E-03 -.17082460910E-02 -.22459209928E-02 -.21063862808E-02 -.11659348027E-02
 0.13497372720E-03 0.49103062723E-03 -.20114673012E-02 -.87999708615E-02 -.19434038121E-01
 -.31097594901E-01 -.39701080093E-01 -.42050494995E-01 -.37575077646E-01 -.28419125695E-01
 -.18006983632E-01 -.92546371414E-02 -.35629895139E-02 -.87376668314E-03 -.31946033823E-03
 -.35392522286E-02 -.42235785684E-02 -.40641581577E-02 -.30591982601E-02 -.14987379973E-02
 -.10040515701E-03 -.38032334459E-04 -.25487005402E-02 -.81142175459E-02 -.15733626635E-01
 -.22990279861E-01 -.27130254895E-01 -.26542601410E-01 -.21628144825E-01 -.14476338487E-01
 -.76568910290E-02 -.29914045356E-02 -.10004585319E-02 -.11174048770E-02 -.22911689932E-02
 -.57852174054E-02 -.60595258694E-02 -.52853710598E-02 -.38378447485E-02 -.22115441010E-02
 -.95069553814E-03 -.63296623081E-03 -.17847224739E-02 -.46127486201E-02 -.86332516055E-02
 -.12539745984E-01 -.14644749863E-01 -.13803125561E-01 -.10208768211E-01 -.54055172431E-02
 -.14227980394E-02 0.35400726682E-03 -.20638719647E-03 -.21950279031E-02 -.43685132957E-02
 -.71923915003E-02 -.70721846349E-02 -.59496272028E-02 -.42615177223E-02 -.24609171000E-02
 -.89817714630E-03 0.12987921639E-03 0.26694521232E-03 -.79795446819E-03 -.29325999728E-02
 -.52578589612E-02 -.64472064724E-02 -.56097050332E-02 -.30535825078E-02 -.19425573049E-03
 0.13821882560E-02 0.92411078469E-03 -.11803130553E-02 -.38649946390E-02 -.60772665902E-02
 0.20368886999E-03 0.39738472469E-03 0.39424672082E-03 0.19865939646E-03 0.71703532285E-05
 -.16979893758E-05 0.16518846576E-03 0.35259928012E-03 0.41676094644E-03 0.32433706650E-03
 0.13146571517E-03 -.71735785042E-04 -.18560615960E-03 -.13206609177E-03 0.74016865142E-04
 0.28952691599E-03 0.34030468453E-03 0.19436098489E-03 0.17400928186E-04 0.13268887301E-04
 0.17577221570E-03 0.24425600748E-03 0.48541021067E-03 0.80282167932E-03 0.91815900612E-03
 0.54663980286E-03 -.29388397722E-03 -.11471380810E-02 -.14059043320E-02 -.84326503026E-03
 0.13053651003E-03 0.79240047003E-03 0.72561035695E-03 0.13283986874E-03 -.42908623595E-03
 -.57055063300E-03 -.32741229603E-03 0.57543019238E-05 0.19324844300E-03 0.20869151479E-03
 -.11513213997E-03 -.30615842888E-04 0.40421117603E-03 0.82651972721E-03 0.75221508986E-03
 -.20064945687E-04 -.11528440644E-02 -.19422581745E-02 -.18537243441E-02 -.97893801746E-03
 0.20065686115E-04 0.45875056668E-03 0.17886447454E-03 -.38925983944E-03 -.66406860384E-03
 -.41172530891E-03 0.12478523246E-03 0.50588695842E-03 0.47964411874E-03 0.15572150267E-03
 -.24279529714E-03 -.21508350966E-03 -.90888539546E-04 -.53539083211E-04 -.20971365087E-03
 -.53964145495E-03 -.95081123539E-03 -.13445323039E-02 -.16334796456E-02 -.17386948510E-02
 -.16137323809E-02 -.12796303415E-02 -.81761061777E-03 -.31883143144E-03 0.14684340636E-03
 0.50945100526E-03 0.67779961324E-03 0.58645164927E-03 0.28278915124E-03 -.57548874338E-04
 0.12883929855E-03 -.17623239833E-03 -.62492165429E-03 -.91140052901E-03 -.82900214797E-03
 -.55842741291E-03 -.60261707702E-03 -.13189484177E-02 -.24748067661E-02 -.33243274947E-02
 -.32054052803E-02 -.21040886211E-02 -.65214776662E-03 0.40397248156E-03 0.73554459429E-03
 0.52880571477E-03 0.19154404009E-03 0.19441482323E-04 0.61826075012E-04 0.17005851117E-03
 0.62386095755E-03 0.56353113152E-04 -.68125518406E-03 -.11861082663E-02 -.13266157893E-02
 -.13921656264E-02 -.18120717752E-02 -.26636370100E-02 -.34742666919E-02 -.35780321702E-02
 -.27188904735E-02 -.13153830023E-02 -.13218086134E-03 0.31664624967E-03 0.93452661119E-04
 -.32580149900E-03 -.46971843318E-03 -.18172238509E-03 0.33984395284E-03 0.71200895877E-03
 0.71202631835E-03 0.33338585547E-03 -.40284237127E-03 -.13932773705E-02 -.24310595989E-02
 -.32563366673E-02 -.36451860725E-02 -.35038827631E-02 -.29160630439E-02 -.21068754461E-02
 -.13381843586E-02 -.79461747067E-03 -.52300390436E-03 -.44692996224E-03 -.43091592741E-03
 -.35113521527E-03 -.14392057699E-03 0.17473541385E-03 0.51510792326E-03 0.74089201347E-03
 0.45640209031E-03 0.45522112942E-03 -.27264281420E-03 -.17329753879E-02 -.33358174281E-02
 -.42456663088E-02 -.40184738103E-02 -.29578245134E-02 -.18385142980E-02 -.12509683535E-02
 -.11809484356E-02 -.11726521253E-02 -.83760154445E-03 -.19365767095E-03 0.42219076325E-03
 0.68874821725E-03 0.55140591047E-03 0.23094593362E-03 0.45749026377E-04 0.17057853879E-03
 0.17542746985E-03 0.26921680064E-03 -.33092427661E-03 -.15624857329E-02 -.28295431699E-02
 -.34583331589E-02 -.32522780827E-02 -.26017758866E-02 -.20476840049E-02 -.17640126182E-02
 -.14803928385E-02 -.86538890171E-03 0.76934809940E-04 0.98578335029E-03 0.14493668367E-02
 0.13060235631E-02 0.72005722674E-03 0.62537957245E-04 -.29057930758E-03 -.18118071090E-03
 -.15482360362E-03 -.20516307324E-03 -.37456678952E-03 -.84132537629E-03 -.15859130665E-02
 -.23792662915E-02 -.29144560345E-02 -.29647876763E-02 -.24751126788E-02 -.15731864961E-02
 -.51903845752E-03 0.39964412894E-03 0.99591801943E-03 0.12558248169E-02 0.12886047693E-02
 0.11970304837E-02 0.99948053501E-03 0.68134024907E-03 0.29900571702E-03 -.11012354889E-04
 -.56695215235E-03 -.73487378799E-03 -.54199536354E-03 -.53586170971E-03 -.10903337815E-02
 -.20006813234E-02 -.26027971609E-02 -.23419082009E-02 -.12676142183E-02 0.33503257910E-05
 0.80197090803E-03 0.91518012843E-03 0.66577900824E-03 0.56835434704E-03 0.90130017094E-03
 0.15184968101E-02 0.19820758442E-02 0.18868051386E-02 0.11644761459E-02 0.16704767174E-03
 -.65339974388E-03 -.99977110227E-03 -.95538483122E-03 -.93560279637E-03 -.11516214959E-02
 -.13698036888E-02 -.11753248003E-02 -.46146343418E-03 0.39921374662E-03 0.89203135828E-03
 0.83867821523E-03 0.52887541015E-03 0.42482997338E-03 0.77861497467E-03 0.14901268287E-02
 0.22183365015E-02 0.25728147188E-02 0.22907656567E-02 0.13937417861E-02 0.24169151741E-03
 -.12277409410E-03 -.80858002400E-03 -.11504398721E-02 -.10692396613E-02 -.65649607151E-03
 -.11772480849E-03 0.30756017133E-03 0.46057438748E-03 0.38201586352E-03 0.31583745811E-03
 0.52673098742E-03 0.10587050656E-02 0.16765062963E-02 0.20725659780E-02 0.21352587817E-02
 0.19986714758E-02 0.18376321638E-02 0.16547855542E-02 0.12977740895E-02 0.66817289002E-03
 0.57475607277E-03 -.24533886845E-03 -.65898774077E-03 -.43473078480E-03 0.12325470703E-03
 0.44577423638E-03 0.22796025507E-03 -.26934160648E-03 -.43336332712E-03 0.15975041708E-03
 0.13582511044E-02 0.25285372384E-02 0.30289670752E-02 0.26669591067E-02 0.18004651217E-02
 0.10452096089E-02 0.82612040366E-03 0.10925900397E-02 0.13920461910E-02 0.12500604749E-02
 0.80599472885E-03 0.36374609205E-03 0.13673183234E-03 0.16974339309E-03 0.18910326233E-03
 -.52562438469E-04 -.43069491410E-03 -.51039360692E-03 0.33808782430E-04 0.10840186124E-02
 0.21580079715E-02 0.27777806392E-02 0.27595992486E-02 0.22362481087E-02 0.15161272753E-02
 0.93606438802E-03 0.72780179410E-03 0.88485744138E-03 0.11361356510E-02 0.11431130029E-02
 0.59983496888E-03 0.67457935540E-03 0.49365991006E-03 0.16425791051E-03 -.11790724903E-03
 -.15358547100E-03 0.14398765755E-03 0.65215326686E-03 0.10980618350E-02 0.12935373604E-02
 0.13272153540E-02 0.14693413797E-02 0.18453415972E-02 0.22329947204E-02 0.22418400761E-02
 0.17109467211E-02 0.90161314509E-03 0.27941833166E-03 0.12024129958E-03 0.33024501884E-03
 0.38350477269E-03 0.59950375692E-03 0.37043539430E-03 0.65930205835E-04 0.11111826723E-03
 0.58460342422E-03 0.11389347931E-02 0.13090182691E-02 0.94146177064E-03 0.37164897132E-03
 0.18089876516E-03 0.71538775532E-03 0.17572964102E-02 0.26324848531E-02 0.26945839959E-02
 0.18160287305E-02 0.49731771064E-03 -.49754207396E-03 -.69415401688E-03 -.21566602931E-03
 0.26415658277E-03 0.36905767547E-03 0.27426006875E-03 0.24205502916E-03 0.41690237401E-03
 0.66020028908E-03 0.72569532429E-03 0.54972212266E-03 0.32604501184E-03 0.31348900518E-03
 0.61210705953E-03 0.11135280686E-02 0.15956600983E-02 0.18251482766E-02 0.16349158449E-02
 0.10251504101E-02 0.24016843820E-03 -.32496274113E-03 -.40404579215E-03 -.87523125330E-04
 0.13420348319E-03 0.27351467156E-03 0.35352051884E-03 0.24915120161E-03 -.48217325116E-04
 -.36542208235E-03 -.39365983443E-03 0.75188166413E-04 0.88279935097E-03 0.15251067808E-02
 0.15462715973E-02 0.96384187129E-03 0.27508100846E-03 0.44049838657E-05 0.24334691406E-03
 0.63694280034E-03 0.78140423275E-03 0.58766639654E-03 0.27579155420E-03 0.10014671125E-03
 0.95062312198E-04 0.35233912149E-03 0.38841781407E-03 0.12885995716E-04 -.55577252942E-03
 -.81913288966E-03 -.40101537978E-03 0.58506228903E-03 0.15342747171E-02 0.17754843982E-02
 0.11072506579E-02 -.10845978952E-04 -.79963067123E-03 -.76098070231E-03 -.34792332983E-04
 0.76917905876E-03 0.10867303172E-02 0.81295421728E-03 0.30080338649E-03 0.43827808440E-05
 0.80310201652E-02 0.78889217720E-02 0.62765910839E-02 0.36573963418E-02 0.10652600445E-02
 -.55201765963E-03 -.82353287404E-03 0.49758881016E-04 0.15351411214E-02 0.29165861009E-02
 0.34377861028E-02 0.26734349607E-02 0.94968764207E-03 -.70994387777E-03 -.12692897961E-02
 -.41570943627E-03 0.13709048700E-02 0.34084675071E-02 0.53304593263E-02 0.69871330959E-02
 0.74263057857E-02 0.64204776951E-02 0.46158815015E-02 0.25717708021E-02 0.85769667066E-03
 -.11163342462E-03 -.39791921978E-04 0.12435911505E-02 0.35028696263E-02 0.58188070303E-02
 0.68683861758E-02 0.58206777208E-02 0.31101452633E-02 0.26670130740E-03 -.11462516009E-02
 -.54910061405E-03 0.15141454147E-02 0.40168101523E-02 0.61129386063E-02 0.73242237013E-02
 0.52427493987E-02 0.38066989745E-02 0.23280276036E-02 0.11434013199E-02 0.70251186095E-03
 0.16294958566E-02 0.43653204451E-02 0.85766498568E-02 0.12893369981E-01 0.15407974389E-01
 0.14757299170E-01 0.11042920409E-01 0.58782273456E-02 0.14875323769E-02 -.52099928031E-03
 0.96323072967E-04 0.23385029228E-02 0.47236599135E-02 0.61257135716E-02 0.61960668513E-02
 0.27221784146E-02 0.13852346101E-02 0.33081933390E-03 0.34051724235E-03 0.25939470263E-02
 0.78936452847E-02 0.15583878312E-01 0.23287160662E-01 0.27990852038E-01 0.27770549834E-01
 0.22846679056E-01 0.15296991201E-01 0.78418626669E-02 0.26069816515E-02 0.44360067834E-03
 0.87952024518E-03 0.25700513234E-02 0.40624800887E-02 0.45139140890E-02 0.39147021191E-02
 0.10799873097E-02 -.74900026704E-04 -.36637570238E-03 0.20691840391E-02 0.88520528536E-02
 0.19751852268E-01 0.31914318775E-01 0.40969628539E-01 0.43454817341E-01 0.38746207971E-01
 0.29123537065E-01 0.18189029208E-01 0.90097255548E-02 0.31210830256E-02 0.53870733203E-03
 0.30283325276E-03 0.11336008230E-02 0.19859406432E-02 0.23199964119E-02 0.19995088435E-02
 0.11240977977E-03 -.51930040530E-03 0.11214363666E-02 0.73150125852E-02 0.18905428765E-01
 0.33961175007E-01 0.48008567065E-01 0.56059071096E-01 0.55229133749E-01 0.46196998244E-01
 0.32586586750E-01 0.18873145319E-01 0.82983712701E-02 0.19658039223E-02 -.75009281454E-03
 -.11767999749E-02 -.51298086561E-03 0.42768593050E-03 0.10658653312E-02 0.96193367352E-03
 -.55853172728E-03 0.29276525119E-03 0.49456601577E-02 0.14903919175E-01 0.29688323716E-01
 0.46241463278E-01 0.59647751946E-01 0.65155530767E-01 0.60573715032E-01 0.47560081689E-01
 0.30807438364E-01 0.15556640987E-01 0.51072278757E-02 -.88673722153E-04 -.15271354872E-02
 -.10868203754E-02 -.86944420232E-04 0.71815397951E-03 0.85007549536E-03 0.19451992230E-03
 -.27319321130E-03 0.25206379267E-02 0.99721156169E-02 0.22415663519E-01 0.38271012237E-01
 0.53865753046E-01 0.64304314892E-01 0.65506528260E-01 0.56511376158E-01 0.40402279712E-01
 0.22858913835E-01 0.91470459406E-02 0.16649572334E-02 -.37725124180E-03 0.57320113444E-03
 0.22029441484E-02 0.31508087580E-02 0.29135417321E-02 0.16164156969E-02 0.52779305882E-04
 0.12465995384E-02 0.51222155312E-02 0.14120539156E-01 0.27454605811E-01 0.42362703689E-01
 0.54551848368E-01 0.59681783095E-01 0.55458827540E-01 0.43110564632E-01 0.27046396509E-01
 0.12681082475E-01 0.37982390008E-02 0.11487419324E-02 0.29150194473E-02 0.62777738509E-02
 0.88460996087E-02 0.93188846030E-02 0.75520145377E-02 0.44263158174E-02 0.16297224341E-02
 0.26405337383E-02 0.63269301029E-02 0.15517111304E-01 0.28032744349E-01 0.39864057097E-01
 0.46754362584E-01 0.46140905658E-01 0.38341945407E-01 0.26317764049E-01 0.14242361420E-01
 0.57558072542E-02 0.27260006750E-02 0.48738508195E-02 0.10182273450E-01 0.15813736860E-01
 0.19195237938E-01 0.18906592910E-01 0.15096871056E-01 0.93752375375E-02 0.43068702437E-02
 0.26028935588E-02 0.54850140211E-02 0.13547977942E-01 0.23377227503E-01 0.30758830779E-01
 0.32781582444E-01 0.29082025377E-01 0.21557241973E-01 0.13120753723E-01 0.65664239788E-02
 0.39793273393E-02 0.63544985716E-02 0.13135742544E-01 0.22030643746E-01 0.29660293795E-01
 0.32966638935E-01 0.30572924772E-01 0.23327481187E-01 0.13921520923E-01 0.59355383951E-02
 0.16728730820E-02 0.35189660068E-02 0.91672630461E-02 0.15254383996E-01 0.18803445024E-01
 0.18509710268E-01 0.14937188478E-01 0.98336915713E-02 0.53630189369E-02 0.36874674345E-02
 0.65735962030E-02 0.14601707158E-01 0.26305231372E-01 0.38162737141E-01 0.45918954405E-01
 0.46583827744E-01 0.39843989683E-01 0.28109677247E-01 0.15391555966E-01 0.57149476276E-02
 0.97716467684E-03 0.15582082909E-02 0.43858472782E-02 0.73624788050E-02 0.89100137177E-02
 0.82784258946E-02 0.57444622045E-02 0.27044908163E-02 0.14654188298E-02 0.45094676466E-02
 0.13279474740E-01 0.26998452857E-01 0.42330558760E-01 0.54417152269E-01 0.58987742183E-01
 0.54416600200E-01 0.42485182149E-01 0.27405084031E-01 0.13770811727E-01 0.46863154551E-02
 0.46534578238E-03 0.14778173070E-03 0.11454167743E-02 0.24662720146E-02 0.31032548745E-02
 0.22946019512E-02 0.33489387159E-03 -.94209490887E-03 0.12471525484E-02 0.91332422051E-02
 0.22860323146E-01 0.39819186762E-01 0.55280184660E-01 0.64195358587E-01 0.63468344470E-01
 0.53528916390E-01 0.38155102586E-01 0.22480055978E-01 0.10442062190E-01 0.33787601935E-02
 -.16612176513E-03 -.27430690102E-03 0.21413693450E-03 0.69340991135E-03 0.53022237623E-03
 -.51835528143E-03 -.15855508165E-02 -.61515751271E-03 0.47099624573E-02 0.15546257574E-01
 0.30817195263E-01 0.47075739661E-01 0.59499976851E-01 0.63823483935E-01 0.58430905671E-01
 0.45371346435E-01 0.29385747906E-01 0.15382708499E-01 0.60831007734E-02 0.14344493307E-02
 -.88926845550E-04 0.66250472736E-03 0.10319176191E-02 0.81373156763E-03 0.15645237997E-03
 -.49593714348E-03 -.22937179745E-03 0.23594374851E-02 0.86920593191E-02 0.19275487315E-01
 0.32781125878E-01 0.45862952977E-01 0.54212105120E-01 0.54570924724E-01 0.46571814180E-01
 0.33108072577E-01 0.18841948797E-01 0.78006591478E-02 0.16581528915E-02 -.33055583647E-03
 0.15106694636E-02 0.26043417504E-02 0.26061339075E-02 0.19332076097E-02 0.12562804802E-02
 0.10281473033E-02 0.16987070796E-02 0.41630085387E-02 0.95776012340E-02 0.18317133820E-01
 0.28911220858E-01 0.38112976873E-01 0.42379262484E-01 0.39818740734E-01 0.31258076099E-01
 0.19778954003E-01 0.91446634985E-02 0.21001135523E-02 -.60566078415E-03 -.11966986463E-03
 0.39213486187E-02 0.46802606690E-02 0.43304374296E-02 0.33958153563E-02 0.23607488600E-02
 0.15216185218E-02 0.14409268150E-02 0.31994373867E-02 0.77440194669E-02 0.14735785432E-01
 0.22104496909E-01 0.26981315556E-01 0.27358458889E-01 0.23170368334E-01 0.16124741924E-01
 0.86883903931E-02 0.30245670538E-02 0.30110993241E-03 0.40853981105E-03 0.21441841965E-02
 0.59267728532E-02 0.64238338853E-02 0.58657866347E-02 0.43422584340E-02 0.22412130839E-02
 0.35216072195E-03 -.19200964613E-03 0.15603002349E-02 0.55764179998E-02 0.10474619781E-01
 0.14137116596E-01 0.14975387919E-01 0.12859610951E-01 0.90110505030E-02 0.50925956713E-02
 0.23237173182E-02 0.11724073358E-02 0.15147573335E-02 0.28729329679E-02 0.45747583184E-02
 0.72943283283E-02 0.76892994854E-02 0.66919260048E-02 0.43311775167E-02 0.14513696676E-02
 -.64869290020E-03 -.94823578645E-03 0.69151152405E-03 0.34195164584E-02 0.58281708321E-02
 0.66955627668E-02 0.56482971362E-02 0.33535946462E-02 0.10821905624E-02 -.89379197121E-04
 0.13897416574E-03 0.13416487993E-02 0.29094899196E-02 0.45105841114E-02 0.60504975570E-02
 0.31679350172E-04 0.75755939758E-03 0.84289656081E-03 0.37340771667E-03 0.21148328443E-04
 0.19395484460E-03 0.60484545804E-03 0.74140318242E-03 0.52669438786E-03 0.30178836752E-03
 0.26276702445E-03 0.21263118581E-03 -.42148426715E-04 -.29632117192E-03 -.19915877563E-03
 0.17397621859E-03 0.30042485207E-03 -.11918294570E-03 -.67355177589E-03 -.66361981158E-03
 0.18018047354E-03 0.34252732138E-03 0.42451089394E-03 0.58530444394E-03 0.82358999794E-03
 0.82520813802E-03 0.34181940694E-03 -.32681223679E-03 -.47177933701E-03 0.26765206784E-03
 0.13938714693E-02 0.19664531540E-02 0.15318955081E-02 0.52409978556E-03 -.27149626773E-03
 -.50160017770E-03 -.39857002352E-03 -.29417069402E-03 -.22338888380E-03 -.58028564808E-04
 -.47881411456E-03 -.57600719083E-03 -.88711405255E-04 0.55178063522E-03 0.81380492540E-03
 0.54745609474E-03 0.11132296827E-03 0.58591591493E-04 0.66773244925E-03 0.16947062519E-02
 0.25224443045E-02 0.25910232275E-02 0.18062251327E-02 0.63339724363E-03 -.21622600941E-03
 -.30340208974E-03 0.21218535545E-03 0.72158134913E-03 0.69230389022E-03 0.12314038452E-03
 -.78037183260E-03 -.64216250655E-03 -.12804028799E-03 0.29324220003E-03 0.60097338692E-03
 0.11307483842E-02 0.19694991152E-02 0.27087371223E-02 0.28971918549E-02 0.25616117600E-02
 0.20971636284E-02 0.17262697491E-02 0.13081445227E-02 0.73877067460E-03 0.30014205339E-03
 0.36928592883E-03 0.83531147297E-03 0.10722810924E-02 0.62248489530E-03 -.23628559529E-03
 0.14510683152E-03 0.12652112274E-03 0.60251496024E-04 0.26694082889E-03 0.12410622066E-02
 0.29474738188E-02 0.45111650544E-02 0.48918235920E-02 0.39117709061E-02 0.24488689033E-02
 0.15314302737E-02 0.13683352874E-02 0.13809791156E-02 0.10553162728E-02 0.50832792334E-03
 0.17570509303E-03 0.19009281687E-03 0.29083175917E-03 0.25783712897E-03 0.16620707592E-03
 0.99139423335E-03 0.50423194724E-03 0.22125961586E-03 0.74645281096E-03 0.21867576504E-02
 0.39579315111E-02 0.51554599964E-02 0.52308145640E-02 0.43804889043E-02 0.32961195837E-02
 0.25340493417E-02 0.21104813381E-02 0.16582584432E-02 0.90967381637E-03 0.27477344204E-05
 -.63879688383E-03 -.67485706782E-03 -.12591469533E-03 0.62852547472E-03 0.10930903340E-02
 0.57987967430E-03 0.39523513673E-03 0.70986937113E-03 0.14706504984E-02 0.24244924276E-02
 0.34641844693E-02 0.45658652939E-02 0.54710640771E-02 0.56888552999E-02 0.49517472551E-02
 0.35689457187E-02 0.21763824352E-02 0.11527306243E-02 0.41291318909E-03 -.21413697589E-03
 -.59419517196E-03 -.44537135219E-03 0.17650662369E-03 0.77004326617E-03 0.87668483481E-03
 -.22725257651E-04 0.78817347315E-03 0.16768512460E-02 0.22040551929E-02 0.25390732791E-02
 0.33252329080E-02 0.47779348481E-02 0.61229278430E-02 0.62115268346E-02 0.47175810096E-02
 0.25379203860E-02 0.92699396976E-03 0.37227517938E-03 0.42279718323E-03 0.44979764166E-03
 0.28674090778E-03 0.99159280104E-04 -.54475258693E-04 -.24319480654E-03 -.34140859831E-03
 0.27660807886E-03 0.14945192005E-02 0.24446519589E-02 0.30011373407E-02 0.35009408786E-02
 0.42727202656E-02 0.50880999736E-02 0.52314483161E-02 0.42160938337E-02 0.23865582310E-02
 0.71517596900E-03 -.18008143154E-04 0.18106780502E-03 0.68515837367E-03 0.86813849242E-03
 0.52636370220E-03 -.15353625222E-03 -.81778172716E-03 -.10948920501E-02 -.71976687215E-03
 0.45073052161E-03 0.12485912154E-02 0.23586480812E-02 0.35869932765E-02 0.44415492458E-02
 0.45086181638E-02 0.38169034831E-02 0.27761909796E-02 0.17906840985E-02 0.10073439833E-02
 0.41932697462E-03 0.65713920620E-04 0.33247357827E-05 0.12309721841E-03 0.14896474483E-03
 -.95361908343E-04 -.47446297226E-03 -.67582495156E-03 -.53201765457E-03 -.12171063906E-03
 -.41918722824E-03 0.12039453575E-03 0.16370368246E-02 0.32693510111E-02 0.38767565885E-02
 0.31842710280E-02 0.20349079135E-02 0.14346322039E-02 0.15077121592E-02 0.15444436636E-02
 0.96355624771E-03 -.30040632112E-04 -.78569867503E-03 -.95658089622E-03 -.71218752044E-03
 -.34368987510E-03 0.32694352127E-04 0.31974886548E-03 0.28896373153E-03 -.11797551158E-03
 -.98507673334E-03 -.41367133071E-03 0.86404633148E-03 0.19829363660E-02 0.22714338543E-02
 0.19011517278E-02 0.15865398096E-02 0.17026403754E-02 0.18767760421E-02 0.15000292460E-02
 0.48689849050E-03 -.61568348001E-03 -.12040138818E-02 -.11296481238E-02 -.64137723242E-03
 -.41262239403E-04 0.43578026008E-03 0.53703802190E-03 0.98792141982E-04 -.63373148111E-03
 -.14147308875E-04 0.50924648558E-04 0.26482613522E-03 0.69669664011E-03 0.12251920606E-02
 0.15756562379E-02 0.15232945933E-02 0.10756366215E-02 0.45991767761E-03 -.59621778746E-04
 -.35160432006E-03 -.44056130840E-03 -.41832014119E-03 -.36260541319E-03 -.31633159075E-03
 -.29241231227E-03 -.27308046659E-03 -.22479187314E-03 -.14062299625E-03 -.59797819684E-04
 0.11659537562E-02 0.41415838814E-03 -.99379362979E-04 0.20764052542E-03 0.92413796865E-03
 0.10952250238E-02 0.31558233659E-03 -.80508384968E-03 -.13138864643E-02 -.89538987832E-03
 -.68746514431E-04 0.46091742647E-03 0.42575381586E-03 -.12502192705E-04 -.59928169981E-03
 -.10914043905E-02 -.11635245383E-02 -.56305680318E-03 0.49025977849E-03 0.12663648257E-02
 0.94155679227E-03 0.21985400796E-03 -.10356894947E-03 0.18282640734E-03 0.47844133984E-03
 0.14954790836E-03 -.66191588260E-03 -.11915228070E-02 -.94045612207E-03 -.19546152932E-03
 0.37422145756E-03 0.43013457632E-03 0.12243267579E-03 -.30601148984E-03 -.76889287789E-03
 -.11333206041E-02 -.10568766201E-02 -.32283083157E-03 0.70525431815E-03 0.12569804933E-02
 0.14220157071E-03 0.16931948591E-03 0.61570221021E-04 -.44762694529E-04 -.49389852961E-04
 0.81193756699E-04 0.29455070115E-03 0.43861040136E-03 0.33678748525E-03 -.41082592372E-04
 -.48147113500E-03 -.67139847861E-03 -.49365470585E-03 -.16308579352E-03 -.25371507691E-04
 -.21174933812E-03 -.51771491049E-03 -.62811526995E-03 -.43104869243E-03 -.92470303549E-04
 0.20796238232E-03 0.40499308335E-03 -.39946427222E-04 -.40420592705E-03 -.28984669086E-04
 0.90165529092E-03 0.15192769614E-02 0.11736005379E-02 0.64704467437E-04 -.10163326238E-02
 -.14280710219E-02 -.10923334846E-02 -.34062380671E-03 0.40062765587E-03 0.74946429458E-03
 0.46008183012E-03 -.35960868922E-03 -.11474937221E-02 -.12572741225E-02 -.59369327224E-03
 0.58576488294E-03 0.30105637029E-03 -.30460426160E-03 -.44446666448E-03 0.12862001142E-03
 0.78971422235E-03 0.77224162777E-03 0.43067291294E-04 -.73062371276E-03 -.98383531112E-03
 -.77247703098E-03 -.46458755246E-03 -.19332820921E-03 0.14463908781E-03 0.47216038279E-03
 0.45964715249E-03 0.29442969378E-05 -.45819709995E-03 -.37394344858E-03 0.19971704231E-03
 0.22488111722E-03 0.18116759122E-04 -.11805468557E-03 -.17146299695E-03 -.25906144018E-03
 -.46337034891E-03 -.62429415233E-03 -.45506161806E-03 0.62359801902E-04 0.50763552707E-03
 0.39719088318E-03 -.25941513430E-03 -.88752982750E-03 -.89799828759E-03 -.26202324010E-03
 0.51449796478E-03 0.93125088219E-03 0.90751688435E-03 0.67908172832E-03 0.44334231796E-03
 -.23252603955E-03 0.29988633844E-03 0.53438840200E-03 0.11972669762E-03 -.57295289497E-03
 -.84147422689E-03 -.35796314349E-03 0.54052320683E-03 0.11882191556E-02 0.11343023984E-02
 0.40952092648E-03 -.56701203791E-03 -.12395409319E-02 -.11899461797E-02 -.39931212930E-03
 0.64810570423E-03 0.12341090812E-02 0.97454004003E-03 0.19067431430E-03 -.36403520062E-03
 -.77088231744E-02 -.61360367819E-02 -.44100191075E-02 -.28037891313E-02 -.98567486036E-03
 0.92354988470E-03 0.19739915972E-02 0.13284380907E-02 -.63886627455E-03 -.25164216165E-02
 -.31340919568E-02 -.24504220247E-02 -.11896545969E-02 0.13636626804E-04 0.81221167969E-03
 0.74771673768E-03 -.73235642135E-03 -.35401034409E-02 -.64974675407E-02 -.80773190003E-02
 -.68541341710E-02 -.55097050079E-02 -.35417997705E-02 -.12298753747E-02 0.82225640341E-03