    5    5    1    1
  0.3477306E+02  0.2573869E-09  0.2573869E-09  0.3030466E-08  0.5000000E-15
  1.000000000000000E-004
  CAR 
 unknown system                          
     45     31     28
 
  0.0000000E+00  0.0000000E+00  0.0000000E+00  0.1000000E-01
    1      -11.608526   1.000000
    2      -10.591263   1.000000
    3       -8.984420   1.000000
    4       -7.524161   1.000000
    5       -6.087439   1.000000
    6       -5.575521   1.000000
    7       -5.555181   1.000000
    8       -5.523201   1.000000
    9       -5.314658   1.000000
   10       -5.290712   1.000000
   11       -5.285117   1.000000
   12       -5.223201   1.000000
   13       -5.222309   1.000000
   14       -4.964150   1.000000
   15       -4.963684   1.000000
   16       -4.871721   1.000000
   17       -4.749304   1.000000
   18       -4.722285   1.000000
   19       -4.480804   1.000000
   20       -4.477704   1.000000
   21       -4.262719   1.000000
   22       -4.258259   1.000000
   23       -3.982368   1.000000
   24       -3.981808   1.000000
   25       -2.913574   1.000000
   26        1.603443   0.000000
   27        1.917272   0.000000
   28        2.349355   0.000000
 
  0.1000000E+00  0.6938894E-17  0.0000000E+00  0.4000000E-01
    1      -11.303580   1.000000
    2      -10.293814   1.000000
    3       -8.720545   1.000000
    4       -7.301020   1.000000
    5       -6.138516   1.000000
    6       -5.672667   1.000000
    7       -5.586677   1.000000
    8       -5.452573   1.000000
    9       -5.382456   1.000000
   10       -5.347847   1.000000
   11       -5.275745   1.000000
   12       -5.203944   1.000000
   13       -5.125663   1.000000
   14       -5.111654   1.000000
   15       -4.991088   1.000000
   16       -4.880914   1.000000
   17       -4.748408   1.000000
   18       -4.697856   1.000000
   19       -4.487015   1.000000
   20       -4.450616   1.000000
   21       -4.283790   1.000000
   22       -4.255566   1.000000
   23       -3.977876   1.000000
   24       -3.760917   1.000000
   25       -2.227603   0.101168
   26        1.848967   0.000000
   27        2.221118   0.000000
   28        2.652260   0.000000
 
  0.2000000E+00 -0.1387779E-16  0.0000000E+00  0.4000000E-01
    1      -10.429952   1.000000
    2       -9.452794   1.000000
    3       -8.033797   1.000000
    4       -6.771810   1.000000
    5       -6.309303   1.000000
    6       -5.885204   1.000000
    7       -5.762585   1.000000
    8       -5.637903   1.000000
    9       -5.462990   1.000000
   10       -5.267568   1.000000
   11       -5.211239   1.000000
   12       -5.195259   1.000000
   13       -5.048432   1.000000
   14       -4.999653   1.000000
   15       -4.881994   1.000000
   16       -4.812187   1.000000
   17       -4.783620   1.000000
   18       -4.597163   1.000000
   19       -4.565637   1.000000
   20       -4.430193   1.000000
   21       -4.256184   1.000000
   22       -4.074443   1.000000
   23       -3.973576   1.000000
   24       -2.899978   1.000000
   25       -0.905131   0.000000
   26        2.577155   0.000000
   27        3.130760   0.000000
   28        3.559852   0.000000
 
  0.3000000E+00 -0.2775558E-16  0.0000000E+00  0.4000000E-01
    1       -9.172235   1.000000
    2       -8.297955   1.000000
    3       -7.351067   1.000000
    4       -6.569045   1.000000
    5       -6.376211   1.000000
    6       -6.131325   1.000000
    7       -5.850499   1.000000
    8       -5.649660   1.000000
    9       -5.514899   1.000000
   10       -5.276080   1.000000
   11       -5.183094   1.000000
   12       -5.042099   1.000000
   13       -4.869615   1.000000
   14       -4.815254   1.000000
   15       -4.739157   1.000000
   16       -4.630494   1.000000
   17       -4.508915   1.000000
   18       -4.371029   1.000000
   19       -4.333653   1.000000
   20       -4.244542   1.000000
   21       -4.120057   1.000000
   22       -3.960904   1.000000
   23       -3.593218   1.000000
   24       -1.745124   0.000000
   25        0.743746   0.000000
   26        3.741629   0.000000
   27        4.600412   0.000000
   28        4.969894   0.000000
 
  0.4000000E+00 -0.2775558E-16  0.0000000E+00  0.4000000E-01
    1       -8.191083   1.000000
    2       -7.339329   1.000000
    3       -7.046272   1.000000
    4       -6.648067   1.000000
    5       -6.484516   1.000000
    6       -6.269138   1.000000
    7       -5.926027   1.000000
    8       -5.469440   1.000000
    9       -5.335462   1.000000
   10       -5.264856   1.000000
   11       -5.253907   1.000000
   12       -4.913789   1.000000
   13       -4.731174   1.000000
   14       -4.466306   1.000000
   15       -4.371989   1.000000
   16       -4.352140   1.000000
   17       -4.100514   1.000000
   18       -4.075252   1.000000
   19       -4.048346   1.000000
   20       -3.964498   1.000000
   21       -3.802594   1.000000
   22       -3.550242   1.000000
   23       -2.532491   0.998805
   24       -0.365757   0.000000
   25        1.643529   0.000000
   26        2.838903   0.000000
   27        3.641913   0.000000
   28        4.588262   0.000000
 
  0.5000000E+00 -0.2775558E-16  0.0000000E+00  0.2000000E-01
    1       -7.974200   1.000000
    2       -7.024283   1.000000
    3       -6.984469   1.000000
    4       -6.627501   1.000000
    5       -6.539955   1.000000
    6       -6.324740   1.000000
    7       -5.916208   1.000000
    8       -5.405424   1.000000
    9       -5.312714   1.000000
   10       -5.248539   1.000000
   11       -5.166142   1.000000
   12       -4.932327   1.000000
   13       -4.452636   1.000000
   14       -4.427544   1.000000
   15       -4.272850   1.000000
   16       -4.232688   1.000000
   17       -4.041283   1.000000
   18       -3.951629   1.000000
   19       -3.891272   1.000000
   20       -3.685368   1.000000
   21       -3.566746   1.000000
   22       -2.223974   0.092379
   23       -1.354447   0.000000
   24       -0.805232   0.000000
   25        0.513993   0.000000
   26        2.137215   0.000000
   27        3.319033   0.000000
   28        3.955118   0.000000
 
  0.0000000E+00  0.1000000E+00  0.0000000E+00  0.2000000E-01
    1      -11.306035   1.000000
    2      -10.293765   1.000000
    3       -8.718390   1.000000
    4       -7.300028   1.000000
    5       -6.114405   1.000000
    6       -5.678279   1.000000
    7       -5.577596   1.000000
    8       -5.453524   1.000000
    9       -5.374410   1.000000
   10       -5.356292   1.000000
   11       -5.276297   1.000000
   12       -5.208348   1.000000
   13       -5.124967   1.000000
   14       -5.112664   1.000000
   15       -4.991917   1.000000
   16       -4.883114   1.000000
   17       -4.761586   1.000000
   18       -4.696837   1.000000
   19       -4.490261   1.000000
   20       -4.446352   1.000000
   21       -4.284842   1.000000
   22       -4.259282   1.000000
   23       -3.978323   1.000000
   24       -3.766052   1.000000
   25       -2.229829   0.106852
   26        1.849226   0.000000
   27        2.220921   0.000000
   28        2.651903   0.000000
 
  0.2000000E+00  0.1000000E+00  0.0000000E+00  0.2000000E-01
    1      -10.710942   1.000000
    2       -9.722779   1.000000
    3       -8.242342   1.000000
    4       -6.913152   1.000000
    5       -6.255175   1.000000
    6       -5.796479   1.000000
    7       -5.742784   1.000000
    8       -5.585203   1.000000
    9       -5.444210   1.000000
   10       -5.331255   1.000000
   11       -5.257778   1.000000
   12       -5.162770   1.000000
   13       -5.086226   1.000000
   14       -5.080072   1.000000
   15       -4.924396   1.000000
   16       -4.833973   1.000000
   17       -4.699104   1.000000
   18       -4.605769   1.000000
   19       -4.584828   1.000000
   20       -4.442350   1.000000
   21       -4.340594   1.000000
   22       -4.079092   1.000000
   23       -4.013860   1.000000
   24       -3.140149   1.000000
   25       -1.290060   0.000000
   26        2.336494   0.000000
   27        2.828394   0.000000
   28        3.257319   0.000000
 
  0.3000000E+00  0.1000000E+00  0.0000000E+00  0.4000000E-01
    1       -9.627488   1.000000
    2       -8.704257   1.000000
    3       -7.530197   1.000000
    4       -6.500412   1.000000
    5       -6.309036   1.000000
    6       -6.012871   1.000000
    7       -5.881691   1.000000
    8       -5.742606   1.000000
    9       -5.573646   1.000000
   10       -5.293093   1.000000
   11       -5.256279   1.000000
   12       -5.169466   1.000000
   13       -5.047605   1.000000
   14       -4.922824   1.000000
   15       -4.826434   1.000000
   16       -4.746022   1.000000
   17       -4.585351   1.000000
   18       -4.477880   1.000000
   19       -4.352983   1.000000
   20       -4.292119   1.000000
   21       -4.133737   1.000000
   22       -4.039172   1.000000
   23       -3.705942   1.000000
   24       -2.155504   0.010879
   25        0.150930   0.000000
   26        3.311636   0.000000
   27        4.035348   0.000000
   28        4.474799   0.000000
 
  0.4000000E+00  0.1000000E+00  0.0000000E+00  0.4000000E-01
    1       -8.439896   1.000000
    2       -7.616386   1.000000
    3       -7.053316   1.000000
    4       -6.551540   1.000000
    5       -6.348726   1.000000
    6       -6.142805   1.000000
    7       -5.906965   1.000000
    8       -5.628326   1.000000
    9       -5.550223   1.000000
   10       -5.315081   1.000000
   11       -5.218212   1.000000
   12       -5.079139   1.000000
   13       -4.898509   1.000000
   14       -4.730084   1.000000
   15       -4.625123   1.000000
   16       -4.492764   1.000000
   17       -4.373551   1.000000
   18       -4.250458   1.000000
   19       -4.163994   1.000000
   20       -3.980882   1.000000
   21       -3.933459   1.000000
   22       -3.616776   1.000000
   23       -2.823245   1.000000
   24       -0.772773   0.000000
   25        1.829425   0.000000
   26        3.850357   0.000000
   27        4.731136   0.000000
   28        5.176151   0.000000
 
  0.5000000E+00  0.1000000E+00  0.0000000E+00  0.4000000E-01
    1       -7.925718   1.000000
    2       -6.962825   1.000000
    3       -6.890663   1.000000
    4       -6.549049   1.000000
    5       -6.450744   1.000000
    6       -6.223464   1.000000
    7       -5.916701   1.000000
    8       -5.529957   1.000000
    9       -5.415993   1.000000
   10       -5.321937   1.000000
   11       -5.206949   1.000000
   12       -4.939234   1.000000
   13       -4.794043   1.000000
   14       -4.510118   1.000000
   15       -4.377374   1.000000
   16       -4.240962   1.000000
   17       -4.131508   1.000000
   18       -4.095556   1.000000
   19       -4.018268   1.000000
   20       -3.858950   1.000000
   21       -3.378205   1.000000
   22       -2.330166   0.569668
   23       -1.332870   0.000000
   24        0.116578   0.000000
   25        0.943924   0.000000
   26        2.467498   0.000000
   27        3.529294   0.000000
   28        4.444873   0.000000
 
 -0.4000000E+00  0.1000000E+00  0.0000000E+00  0.4000000E-01
    1       -7.913214   1.000000
    2       -6.959966   1.000000
    3       -6.889709   1.000000
    4       -6.548287   1.000000
    5       -6.449514   1.000000
    6       -6.226948   1.000000
    7       -5.920063   1.000000
    8       -5.554657   1.000000
    9       -5.409408   1.000000
   10       -5.324344   1.000000
   11       -5.215376   1.000000
   12       -4.937788   1.000000
   13       -4.798329   1.000000
   14       -4.510055   1.000000
   15       -4.376243   1.000000
   16       -4.239301   1.000000
   17       -4.135192   1.000000
   18       -4.087695   1.000000
   19       -4.019040   1.000000
   20       -3.858138   1.000000
   21       -3.358005   1.000000
   22       -2.329447   0.565669
   23       -1.339332   0.000000
   24        0.111146   0.000000
   25        0.934867   0.000000
   26        2.466181   0.000000
   27        3.534437   0.000000
   28        4.440451   0.000000
 
 -0.3000000E+00  0.1000000E+00  0.0000000E+00  0.4000000E-01
    1       -8.431794   1.000000
    2       -7.607152   1.000000
    3       -7.043195   1.000000
    4       -6.550437   1.000000
    5       -6.349192   1.000000
    6       -6.149582   1.000000
    7       -5.919590   1.000000
    8       -5.639691   1.000000
    9       -5.552863   1.000000
   10       -5.327957   1.000000
   11       -5.222988   1.000000
   12       -5.088088   1.000000
   13       -4.889562   1.000000
   14       -4.727282   1.000000
   15       -4.626686   1.000000
   16       -4.485384   1.000000
   17       -4.372857   1.000000
   18       -4.235028   1.000000
   19       -4.157062   1.000000
   20       -3.977336   1.000000
   21       -3.930749   1.000000
   22       -3.614645   1.000000
   23       -2.833226   1.000000
   24       -0.798378   0.000000
   25        1.810545   0.000000
   26        3.856978   0.000000
   27        4.739865   0.000000
   28        5.179052   0.000000
 
 -0.2000000E+00  0.1000000E+00  0.0000000E+00  0.4000000E-01
    1       -9.635255   1.000000
    2       -8.698107   1.000000
    3       -7.511158   1.000000
    4       -6.487733   1.000000
    5       -6.307561   1.000000
    6       -6.017299   1.000000
    7       -5.888050   1.000000
    8       -5.743966   1.000000
    9       -5.571230   1.000000
   10       -5.295239   1.000000
   11       -5.257901   1.000000
   12       -5.180214   1.000000
   13       -5.040553   1.000000
   14       -4.927378   1.000000
   15       -4.809757   1.000000
   16       -4.746814   1.000000
   17       -4.582402   1.000000
   18       -4.488986   1.000000
   19       -4.351161   1.000000
   20       -4.290778   1.000000
   21       -4.133224   1.000000
   22       -4.041435   1.000000
   23       -3.711831   1.000000
   24       -2.181712   0.027182
   25        0.138195   0.000000
   26        3.311271   0.000000
   27        4.034359   0.000000
   28        4.466609   0.000000
 
 -0.1000000E+00  0.1000000E+00  0.0000000E+00  0.4000000E-01
    1      -10.717793   1.000000
    2       -9.721608   1.000000
    3       -8.233786   1.000000
    4       -6.909472   1.000000
    5       -6.217617   1.000000
    6       -5.797527   1.000000
    7       -5.746049   1.000000
    8       -5.583554   1.000000
    9       -5.441794   1.000000
   10       -5.324377   1.000000
   11       -5.255153   1.000000
   12       -5.170103   1.000000
   13       -5.090405   1.000000
   14       -5.078209   1.000000
   15       -4.928640   1.000000
   16       -4.847848   1.000000
   17       -4.699282   1.000000
   18       -4.602509   1.000000
   19       -4.587268   1.000000
   20       -4.456224   1.000000
   21       -4.342242   1.000000
   22       -4.074605   1.000000
   23       -4.017570   1.000000
   24       -3.159443   1.000000
   25       -1.297010   0.000000
   26        2.337062   0.000000
   27        2.827835   0.000000
   28        3.256558   0.000000
 
  0.0000000E+00  0.2000000E+00  0.0000000E+00  0.2000000E-01
    1      -10.442601   1.000000
    2       -9.451672   1.000000
    3       -8.021301   1.000000
    4       -6.765688   1.000000
    5       -6.249534   1.000000
    6       -5.877487   1.000000
    7       -5.760182   1.000000
    8       -5.636383   1.000000
    9       -5.467744   1.000000
   10       -5.270464   1.000000
   11       -5.226264   1.000000
   12       -5.196215   1.000000
   13       -5.043897   1.000000
   14       -5.004639   1.000000
   15       -4.887647   1.000000
   16       -4.814188   1.000000
   17       -4.789924   1.000000
   18       -4.599427   1.000000
   19       -4.569278   1.000000
   20       -4.433182   1.000000
   21       -4.258965   1.000000
   22       -4.085370   1.000000
   23       -3.974174   1.000000
   24       -2.927544   1.000000
   25       -0.916510   0.000000
   26        2.577234   0.000000
   27        3.129894   0.000000
   28        3.559106   0.000000
 
  0.4000000E+00  0.2000000E+00  0.0000000E+00  0.2000000E-01
    1       -8.546683   1.000000
    2       -7.709673   1.000000
    3       -7.015225   1.000000
    4       -6.428508   1.000000
    5       -6.171757   1.000000
    6       -6.073239   1.000000
    7       -5.910464   1.000000
    8       -5.834192   1.000000
    9       -5.557537   1.000000
   10       -5.409539   1.000000
   11       -5.316253   1.000000
   12       -5.277823   1.000000
   13       -4.987332   1.000000
   14       -4.915443   1.000000
   15       -4.739234   1.000000
   16       -4.637661   1.000000
   17       -4.410985   1.000000
   18       -4.264291   1.000000
   19       -4.203539   1.000000
   20       -3.980797   1.000000
   21       -3.922991   1.000000
   22       -3.561493   1.000000
   23       -2.822412   1.000000
   24       -0.899360   0.000000
   25        1.678559   0.000000
   26        4.522446   0.000000
   27        5.299239   0.000000
   28        5.672748   0.000000
 
  0.5000000E+00  0.2000000E+00  0.0000000E+00  0.4000000E-01
    1       -7.834490   1.000000
    2       -6.869206   1.000000
    3       -6.666215   1.000000
    4       -6.411641   1.000000
    5       -6.243233   1.000000
    6       -6.083524   1.000000
    7       -5.904910   1.000000
    8       -5.769299   1.000000
    9       -5.545128   1.000000
   10       -5.486474   1.000000
   11       -5.376217   1.000000
   12       -5.051719   1.000000
   13       -4.948035   1.000000
   14       -4.809601   1.000000
   15       -4.629059   1.000000
   16       -4.530303   1.000000
   17       -4.369309   1.000000
   18       -4.190285   1.000000
   19       -4.038308   1.000000
   20       -3.881214   1.000000
   21       -3.211103   1.000000
   22       -2.340245   0.624785
   23       -1.211454   0.000000
   24        0.745456   0.000000
   25        2.446553   0.000000
   26        3.556293   0.000000
   27        4.344116   0.000000
   28        4.956481   0.000000
 
 -0.4000000E+00  0.2000000E+00  0.0000000E+00  0.4000000E-01
    1       -7.664895   1.000000
    2       -6.641395   1.000000
    3       -6.576214   1.000000
    4       -6.317459   1.000000
    5       -6.287925   1.000000
    6       -6.049112   1.000000
    7       -5.914084   1.000000
    8       -5.809179   1.000000
    9       -5.565602   1.000000
   10       -5.442293   1.000000
   11       -5.318905   1.000000
   12       -5.085443   1.000000
   13       -4.877073   1.000000
   14       -4.685793   1.000000
   15       -4.555315   1.000000
   16       -4.434658   1.000000
   17       -4.274572   1.000000
   18       -4.121384   1.000000
   19       -4.052536   1.000000
   20       -3.952000   1.000000
   21       -2.388236   0.840560
   22       -0.670062   0.000000
   23       -0.080879   0.000000
   24        0.681047   0.000000
   25        0.998849   0.000000
   26        2.738372   0.000000
   27        4.088369   0.000000
   28        4.293932   0.000000
 
 -0.3000000E+00  0.2000000E+00  0.0000000E+00  0.4000000E-01
    1       -7.804023   1.000000
    2       -6.866721   1.000000
    3       -6.662657   1.000000
    4       -6.411417   1.000000
    5       -6.242170   1.000000
    6       -6.096514   1.000000
    7       -5.912120   1.000000
    8       -5.778618   1.000000
    9       -5.546816   1.000000
   10       -5.499752   1.000000
   11       -5.387952   1.000000
   12       -5.054170   1.000000
   13       -4.947848   1.000000
   14       -4.808694   1.000000
   15       -4.636217   1.000000
   16       -4.523546   1.000000
   17       -4.369661   1.000000
   18       -4.188808   1.000000
   19       -4.032205   1.000000
   20       -3.881500   1.000000
   21       -3.171535   1.000000
   22       -2.340663   0.627023
   23       -1.233868   0.000000
   24        0.695537   0.000000
   25        2.427297   0.000000
   26        3.547955   0.000000
   27        4.352938   0.000000
   28        4.944720   0.000000
 
 -0.2000000E+00  0.2000000E+00  0.0000000E+00  0.4000000E-01
    1       -8.559682   1.000000
    2       -7.686885   1.000000
    3       -6.982652   1.000000
    4       -6.418445   1.000000
    5       -6.179855   1.000000
    6       -6.074258   1.000000
    7       -5.912823   1.000000
    8       -5.834697   1.000000
    9       -5.557537   1.000000
   10       -5.409682   1.000000
   11       -5.338806   1.000000
   12       -5.285477   1.000000
   13       -4.991586   1.000000
   14       -4.923083   1.000000
   15       -4.736685   1.000000
   16       -4.627442   1.000000
   17       -4.416338   1.000000
   18       -4.257177   1.000000
   19       -4.181930   1.000000
   20       -3.983039   1.000000
   21       -3.913330   1.000000
   22       -3.561250   1.000000
   23       -2.843770   1.000000
   24       -0.955093   0.000000
   25        1.633481   0.000000
   26        4.495653   0.000000
   27        5.309697   0.000000
   28        5.660764   0.000000
 
 -0.1000000E+00  0.2000000E+00  0.0000000E+00  0.4000000E-01
    1       -9.650315   1.000000
    2       -8.696474   1.000000
    3       -7.497742   1.000000
    4       -6.468345   1.000000
    5       -6.287869   1.000000
    6       -6.007040   1.000000
    7       -5.880845   1.000000
    8       -5.742061   1.000000
    9       -5.575080   1.000000
   10       -5.293271   1.000000
   11       -5.257701   1.000000
   12       -5.188713   1.000000
   13       -5.051935   1.000000
   14       -4.930450   1.000000
   15       -4.808242   1.000000
   16       -4.748456   1.000000
   17       -4.583774   1.000000
   18       -4.489635   1.000000
   19       -4.358069   1.000000
   20       -4.291796   1.000000
   21       -4.133201   1.000000
   22       -4.041097   1.000000
   23       -3.722538   1.000000
   24       -2.203514   0.053090
   25        0.125668   0.000000
   26        3.308478   0.000000
   27        4.033529   0.000000
   28        4.476589   0.000000
 
  0.0000000E+00  0.3000000E+00  0.0000000E+00  0.2000000E-01
    1       -9.216123   1.000000
    2       -8.288091   1.000000
    3       -7.312905   1.000000
    4       -6.519018   1.000000
    5       -6.363990   1.000000
    6       -6.105148   1.000000
    7       -5.828145   1.000000
    8       -5.649364   1.000000
    9       -5.509175   1.000000
   10       -5.276865   1.000000
   11       -5.203480   1.000000
   12       -5.044047   1.000000
   13       -4.878991   1.000000
   14       -4.815883   1.000000
   15       -4.732231   1.000000
   16       -4.647437   1.000000
   17       -4.510532   1.000000
   18       -4.374110   1.000000
   19       -4.335957   1.000000
   20       -4.246408   1.000000
   21       -4.120108   1.000000
   22       -3.961446   1.000000
   23       -3.624829   1.000000
   24       -1.807049   0.000000
   25        0.699160   0.000000
   26        3.716989   0.000000
   27        4.596906   0.000000
   28        4.929014   0.000000
 
 -0.4000000E+00  0.3000000E+00  0.0000000E+00  0.2000000E-01
    1       -7.546729   1.000000
    2       -6.436590   1.000000
    3       -6.367976   1.000000
    4       -6.227897   1.000000
    5       -6.154228   1.000000
    6       -6.045100   1.000000
    7       -5.946547   1.000000
    8       -5.863699   1.000000
    9       -5.650588   1.000000
   10       -5.571246   1.000000
   11       -5.427850   1.000000
   12       -5.030423   1.000000
   13       -4.978453   1.000000
   14       -4.797513   1.000000
   15       -4.651481   1.000000
   16       -4.492538   1.000000
   17       -4.442021   1.000000
   18       -4.152056   1.000000
   19       -4.067962   1.000000
   20       -3.976129   1.000000
   21       -1.971315   0.000000
   22       -0.346577   0.000000
   23        0.808486   0.000000
   24        1.846219   0.000000
   25        2.366660   0.000000
   26        2.399154   0.000000
   27        3.274208   0.000000
   28        4.079866   0.000000
 
 -0.3000000E+00  0.3000000E+00  0.0000000E+00  0.4000000E-01
    1       -7.527973   1.000000
    2       -6.441574   1.000000
    3       -6.369398   1.000000
    4       -6.228731   1.000000
    5       -6.158285   1.000000
    6       -6.042930   1.000000
    7       -5.946962   1.000000
    8       -5.864306   1.000000
    9       -5.644811   1.000000
   10       -5.583916   1.000000
   11       -5.427984   1.000000
   12       -5.030658   1.000000
   13       -4.978339   1.000000
   14       -4.805215   1.000000
   15       -4.648447   1.000000
   16       -4.493543   1.000000
   17       -4.440897   1.000000
   18       -4.149362   1.000000
   19       -4.067798   1.000000
   20       -3.976710   1.000000
   21       -1.931152   0.000000
   22       -0.350498   0.000000
   23        0.765019   0.000000
   24        1.744974   0.000000
   25        2.357633   0.000000
   26        2.398848   0.000000
   27        3.265930   0.000000
   28        4.033087   0.000000
 
 -0.2000000E+00  0.3000000E+00  0.0000000E+00  0.4000000E-01
    1       -7.834597   1.000000
    2       -6.855950   1.000000
    3       -6.654366   1.000000
    4       -6.398252   1.000000
    5       -6.244562   1.000000
    6       -6.070293   1.000000
    7       -5.905235   1.000000
    8       -5.772146   1.000000
    9       -5.548382   1.000000
   10       -5.492521   1.000000
   11       -5.389214   1.000000
   12       -5.054685   1.000000
   13       -4.952162   1.000000
   14       -4.816187   1.000000
   15       -4.627050   1.000000
   16       -4.532677   1.000000
   17       -4.369119   1.000000
   18       -4.190699   1.000000
   19       -4.031657   1.000000
   20       -3.881502   1.000000
   21       -3.157359   1.000000
   22       -2.342604   0.637369
   23       -1.248768   0.000000
   24        0.631138   0.000000
   25        2.289810   0.000000
   26        3.489528   0.000000
   27        4.453566   0.000000
   28        5.127287   0.000000
 
 -0.1000000E+00  0.3000000E+00  0.0000000E+00  0.4000000E-01
    1       -8.492188   1.000000
    2       -7.589721   1.000000
    3       -7.010188   1.000000
    4       -6.510942   1.000000
    5       -6.346351   1.000000
    6       -6.119762   1.000000
    7       -5.892183   1.000000
    8       -5.627040   1.000000
    9       -5.552058   1.000000
   10       -5.334244   1.000000
   11       -5.217698   1.000000
   12       -5.089904   1.000000
   13       -4.902170   1.000000
   14       -4.731187   1.000000
   15       -4.627626   1.000000
   16       -4.490807   1.000000
   17       -4.375104   1.000000
   18       -4.234354   1.000000
   19       -4.164044   1.000000
   20       -3.978635   1.000000
   21       -3.930562   1.000000
   22       -3.618486   1.000000
   23       -2.859823   1.000000
   24       -0.862059   0.000000
   25        1.716630   0.000000
   26        3.773464   0.000000
   27        4.739917   0.000000
   28        5.254212   0.000000
 
  0.0000000E+00  0.4000000E+00  0.0000000E+00  0.2000000E-01
    1       -8.270016   1.000000
    2       -7.324996   1.000000
    3       -7.015987   1.000000
    4       -6.593331   1.000000
    5       -6.481227   1.000000
    6       -6.231073   1.000000
    7       -5.888140   1.000000
    8       -5.455398   1.000000
    9       -5.318819   1.000000
   10       -5.279649   1.000000
   11       -5.259631   1.000000
   12       -4.925636   1.000000
   13       -4.694679   1.000000
   14       -4.466869   1.000000
   15       -4.371533   1.000000
   16       -4.370736   1.000000
   17       -4.100997   1.000000
   18       -4.063139   1.000000
   19       -4.048276   1.000000
   20       -3.965029   1.000000
   21       -3.802567   1.000000
   22       -3.557558   1.000000
   23       -2.577460   0.999880
   24       -0.480557   0.000000
   25        1.398942   0.000000
   26        2.791578   0.000000
   27        3.679646   0.000000
   28        4.793249   0.000000
 
 -0.2000000E+00  0.4000000E+00  0.0000000E+00  0.2000000E-01
    1       -7.678325   1.000000
    2       -6.644133   1.000000
    3       -6.567389   1.000000
    4       -6.296666   1.000000
    5       -6.288432   1.000000
    6       -6.030530   1.000000
    7       -5.915486   1.000000
    8       -5.820612   1.000000
    9       -5.543425   1.000000
   10       -5.443000   1.000000
   11       -5.321059   1.000000
   12       -5.084071   1.000000
   13       -4.884128   1.000000
   14       -4.686092   1.000000
   15       -4.560077   1.000000
   16       -4.434666   1.000000
   17       -4.275304   1.000000
   18       -4.120120   1.000000
   19       -4.052244   1.000000
   20       -3.952588   1.000000
   21       -2.303537   0.420328
   22       -0.658104   0.000000
   23       -0.063877   0.000000
   24        0.593653   0.000000
   25        0.697855   0.000000
   26        2.668474   0.000000
   27        4.023640   0.000000
   28        4.721225   0.000000
 
 -0.1000000E+00  0.4000000E+00  0.0000000E+00  0.4000000E-01
    1       -7.974935   1.000000
    2       -6.966008   1.000000
    3       -6.869314   1.000000
    4       -6.511429   1.000000
    5       -6.441875   1.000000
    6       -6.192532   1.000000
    7       -5.882825   1.000000
    8       -5.552337   1.000000
    9       -5.399017   1.000000
   10       -5.327558   1.000000
   11       -5.216935   1.000000
   12       -4.916671   1.000000
   13       -4.801668   1.000000
   14       -4.517444   1.000000
   15       -4.375613   1.000000
   16       -4.241677   1.000000
   17       -4.133874   1.000000
   18       -4.091141   1.000000
   19       -4.017829   1.000000
   20       -3.858484   1.000000
   21       -3.306784   1.000000
   22       -2.335930   0.601431
   23       -1.361064   0.000000
   24        0.060044   0.000000
   25        0.586689   0.000000
   26        2.403968   0.000000
   27        3.547103   0.000000
   28        4.787515   0.000000
 
  0.0000000E+00  0.5000000E+00  0.0000000E+00  0.1000000E-01
    1       -8.041738   1.000000
    2       -7.037124   1.000000
    3       -6.963195   1.000000
    4       -6.591988   1.000000