unknown system                          
   1.00000000000000     
     2.573869    0.000000    0.000000
     1.286934    2.229036    0.000000
     0.000000    0.000000   30.304665
   Cu   H 
     4     1
Direct
  0.000000  0.000000  0.395979
  0.333333  0.333333  0.465326
  0.666667  0.666667  0.534674
  0.000000  0.000000  0.604021
  0.355765  0.288471  0.637020
 
   10   10  120
 0.55828E-10 0.25122E-10 0.54663E-12 0.95798E-11 0.70305E-13 0.21291E-11 0.56607E-13 0.13952E-10 0.38406E-12 0.67748E-10
 0.14173E-09 0.80868E-10 0.14858E-11 0.35713E-12 0.66711E-13 0.28536E-10 0.92301E-13 0.21333E-10 0.19686E-13 0.31627E-10
 0.66613E-11 0.56764E-11 0.79915E-12 0.49079E-12 0.28061E-13 0.11754E-13 0.60993E-13 0.43147E-10 0.23037E-12 0.69647E-11
 0.10621E-09 0.27323E-10 0.70416E-13 0.54123E-14 0.63699E-13 0.94724E-12 0.11713E-13 0.64746E-11 0.45312E-12 0.28749E-07
 0.15143E-12 0.85029E-13 0.29990E-13 0.37359E-13 0.25382E-13 0.75426E-13 0.95479E-14 0.90039E-13 0.17247E-12 0.25276E-12
 0.92334E-11 0.98668E-09 0.27220E-12 0.11027E-12 0.44020E-13 0.58129E-11 0.67224E-13 0.79947E-12 0.43729E-13 0.16823E-10
 0.51958E-13 0.55511E-16 0.53985E-13 0.66405E-13 0.53985E-14 0.37192E-14 0.91732E-14 0.13323E-13 0.10131E-13 0.10028E-12
 0.16541E-10 0.19265E-10 0.63795E-12 0.17000E-12 0.29163E-12 0.10697E-11 0.19013E-13 0.44811E-13 0.90900E-14 0.29150E-11
 0.25019E-12 0.26880E-12 0.64209E-13 0.11302E-11 0.31336E-13 0.15446E-13 0.74385E-14 0.26100E-12 0.38959E-12 0.35440E-12
 0.59631E-10 0.56011E-10 0.14292E-11 0.18752E-11 0.16090E-12 0.20399E-10 0.16820E-13 0.77273E-11 0.47537E-12 0.34564E-10
 0.84898E-12 0.18888E-12 0.61045E-12 0.40867E-12 0.11047E-13 0.54121E-12 0.30213E-12 0.23061E-12 0.50192E-13 0.93090E-12
 0.12051E-11 0.65915E-10 0.17871E-11 0.30055E-12 0.24383E-13 0.44926E-11 0.32058E-12 0.14552E-10 0.73289E-13 0.36487E-10
 0.66599E-12 0.40622E-10 0.67478E-12 0.33926E-12 0.90067E-14 0.53013E-14 0.12636E-12 0.66814E-10 0.20128E-12 0.56242E-11
 0.11438E-11 0.60193E-11 0.29643E-13 0.86042E-15 0.18069E-13 0.34017E-12 0.72137E-13 0.60229E-11 0.40852E-12 0.11693E-08
 0.16959E-13 0.40246E-13 0.12185E-13 0.76883E-14 0.59119E-14 0.26978E-13 0.11741E-13 0.39579E-13 0.10515E-12 0.93425E-13
 0.17482E-12 0.10894E-10 0.15823E-12 0.52916E-13 0.21788E-13 0.52078E-11 0.14701E-12 0.91948E-10 0.10114E-12 0.79208E-11
 0.27871E-12 0.42327E-14 0.13450E-12 0.16823E-12 0.76883E-14 0.19360E-13 0.53985E-13 0.77438E-13 0.24175E-13 0.20077E-12
 0.28040E-11 0.14285E-10 0.72213E-12 0.26906E-12 0.10403E-12 0.39638E-10 0.10991E-12 0.10067E-11 0.35735E-13 0.12359E-09
 0.35791E-13 0.29951E-12 0.86306E-13 0.16296E-11 0.30587E-13 0.40731E-13 0.19498E-13 0.53885E-12 0.50462E-12 0.17134E-12
 0.27170E-12 0.59715E-10 0.11188E-11 0.17644E-11 0.63533E-13 0.24859E-10 0.47198E-13 0.83273E-09 0.41392E-12 0.56609E-11
 0.25282E-13 0.12039E-13 0.61950E-13 0.48794E-13 0.22204E-14 0.34278E-13 0.71249E-13 0.26229E-14 0.67168E-14 0.48690E-13
 0.53506E-13 0.83863E-11 0.12739E-11 0.90108E-13 0.92704E-14 0.94719E-12 0.10189E-11 0.10506E-10 0.84689E-13 0.33422E-10
 0.33744E-13 0.27483E-09 0.37920E-12 0.12285E-12 0.35250E-14 -.55511E-16 0.12643E-12 0.28832E-09 0.13697E-12 0.44624E-11
 0.32821E-13 0.17560E-11 0.51625E-14 0.24980E-15 0.62450E-14 0.89484E-13 0.23787E-12 0.58524E-11 0.32507E-12 0.27540E-09
 0.28172E-14 0.18457E-13 0.54401E-14 0.24147E-14 0.18874E-14 0.89095E-14 0.89789E-14 0.13781E-13 0.45394E-13 0.34334E-13
 0.13309E-13 0.10954E-11 0.51653E-13 0.12906E-13 0.10381E-13 0.55096E-11 0.31192E-12 0.16100E-09 0.84349E-13 0.29777E-11
 0.59952E-13 0.42882E-14 0.17414E-12 0.36919E-12 0.66752E-14 0.95798E-13 0.24854E-12 0.27514E-12 0.38566E-13 0.38203E-12
 0.96576E-13 0.10694E-10 0.74216E-12 0.13123E-12 0.33709E-13 0.21111E-08 0.35014E-12 0.46247E-11 0.48128E-13 0.48789E-10
 0.49752E-14 0.21738E-12 0.88526E-13 0.19044E-11 0.18568E-13 0.48586E-13 0.33584E-13 0.33579E-12 0.42644E-12 0.70111E-13
 0.18950E-13 0.45676E-10 0.80167E-12 0.12774E-11 0.19929E-13 0.63252E-11 0.12516E-12 0.36920E-10 0.33171E-12 0.22146E-11
 0.58564E-14 0.54401E-14 0.14475E-13 0.15848E-13 0.74940E-15 0.64948E-14 0.11782E-13 0.43021E-15 0.14433E-14 0.83683E-14
 0.10075E-13 0.28978E-11 0.11377E-11 0.11369E-12 0.55511E-14 0.52466E-12 0.10409E-10 0.76765E-11 0.15313E-12 0.45030E-10
 0.69805E-14 0.12340E-10 0.32230E-12 0.93897E-13 0.17486E-14 0.77716E-15 0.19250E-12 0.30123E-07 0.10378E-12 0.33698E-11
 0.68695E-14 0.10061E-11 0.52736E-14 0.11102E-15 0.31641E-14 0.60563E-13 0.25241E-11 0.52058E-11 0.24052E-12 0.12152E-09
 0.99920E-15 0.13767E-13 0.31919E-14 0.12490E-14 0.80491E-15 0.47462E-14 0.86459E-14 0.98394E-14 0.22315E-13 0.18263E-13
 0.28866E-14 0.45894E-12 0.36970E-13 0.13711E-13 0.77716E-14 0.50826E-11 0.11211E-11 0.31898E-10 0.11480E-12 0.15701E-11
 0.10020E-13 0.13180E-12 0.29853E-12 0.16344E-11 0.69528E-14 0.77323E-12 0.99257E-12 0.22184E-12 0.63866E-13 0.96211E-12
 0.21289E-13 0.83847E-11 0.99754E-12 0.25556E-12 0.16168E-13 0.72287E-10 0.19403E-12 0.56476E-12 0.93550E-13 0.59710E-11
 0.10963E-14 0.22875E-12 0.98116E-13 0.19932E-11 0.13600E-13 0.78909E-13 0.63088E-13 0.31702E-12 0.37534E-12 0.22496E-13
 0.64670E-14 0.57397E-10 0.54311E-12 0.65192E-12 0.10519E-13 0.21928E-11 0.55103E-12 0.61116E-11 0.26808E-12 0.12086E-11
 0.18596E-14 0.24841E-14 0.51070E-14 0.63144E-14 0.24980E-15 0.18874E-14 0.22204E-14 0.41633E-16 0.37470E-15 0.18457E-14
 0.25258E-14 0.14993E-11 0.43922E-12 0.20900E-13 0.28311E-14 0.22526E-12 0.37102E-09 0.59414E-11 0.18399E-12 0.45952E-10
 0.23176E-14 0.41088E-11 0.21666E-12 0.40273E-13 0.66613E-15 -.13878E-15 0.74080E-13 0.51908E-10 0.75689E-13 0.29159E-11
 0.17764E-14 0.45225E-12 0.69389E-15 -.55511E-16 0.14433E-14 0.24369E-13 0.18455E-10 0.48748E-11 0.23891E-12 0.70101E-10
 0.33307E-15 0.83267E-14 0.16098E-14 0.55511E-15 0.33307E-15 0.20817E-14 0.56483E-14 0.47323E-14 0.10575E-13 0.84099E-14
 0.97145E-15 0.15196E-12 0.14100E-13 0.39968E-14 0.50238E-14 0.57282E-11 0.20434E-11 0.31661E-11 0.47587E-13 0.17959E-11
 0.21649E-14 0.23709E-12 0.21053E-12 0.65649E-11 0.52597E-14 0.16108E-11 0.18385E-12 0.31822E-13 0.40190E-13 0.11383E-11
 0.68973E-14 0.65569E-11 0.97544E-12 0.22096E-12 0.62034E-14 0.27570E-11 0.22093E-13 0.46727E-13 0.44284E-13 0.29905E-11
 0.23592E-15 0.18993E-12 0.10654E-12 0.24360E-11 0.87569E-14 0.43743E-13 0.39829E-13 0.93384E-13 0.24405E-12 0.78410E-14
 0.25119E-14 0.51259E-10 0.40848E-12 0.32667E-12 0.40523E-14 0.21719E-11 0.96906E-12 0.31465E-11 0.24124E-12 0.74449E-12
 0.58287E-15 0.12768E-14 0.26645E-14 0.29837E-14 0.55511E-16 0.61062E-15 0.61062E-15 -.27756E-16 0.12490E-15 0.34694E-15
 0.65226E-15 0.86031E-12 0.11555E-12 0.11713E-13 0.16931E-14 0.13395E-12 0.25459E-09 0.45755E-11 0.27325E-12 0.81789E-10
 0.12074E-14 0.20668E-11 0.17356E-12 0.27950E-13 0.38858E-15 0.13878E-15 0.34028E-13 0.95536E-11 0.63019E-13 0.22470E-11
 0.56899E-15 0.28663E-12 0.47184E-15 -.55511E-16 0.94369E-15 0.16265E-13 0.12676E-09 0.42831E-11 0.19793E-12 0.45880E-10
 0.19429E-15 0.56066E-14 0.91593E-15 0.27756E-15 0.16653E-15 0.83267E-15 0.43576E-14 0.29976E-14 0.69944E-14 0.48711E-14
 0.36082E-15 0.76494E-13 0.96034E-14 0.31641E-14 0.33862E-14 0.58199E-11 0.20610E-11 0.62757E-12 0.30559E-13 0.16495E-11
 0.61062E-15 0.42014E-12 0.14069E-12 0.89502E-10 0.43437E-14 0.13035E-11 0.64074E-13 0.83822E-14 0.24342E-13 0.91999E-12
 0.29421E-14 0.52752E-11 0.13379E-11 0.14627E-12 0.29560E-14 0.53271E-12 0.48433E-14 0.14044E-13 0.36554E-13 0.16098E-11
 0.69389E-16 0.20162E-12 0.12687E-12 0.26065E-11 0.75634E-14 0.37567E-13 0.27256E-13 0.47143E-13 0.21413E-12 0.13878E-16
 0.10963E-14 0.13142E-09 0.17668E-12 0.64948E-14 0.19706E-14 0.16787E-11 0.81909E-12 0.17024E-11 0.20077E-12 0.51434E-12
 0.40246E-15 0.95757E-15 0.13045E-14 0.18319E-14 0.83267E-16 0.36082E-15 0.22204E-15 0.97145E-16 0.41633E-16 0.12490E-15
 0.36082E-15 0.55811E-12 0.69389E-14 0.14155E-14 0.10547E-14 0.77549E-13 0.17960E-09 0.36951E-11 0.26566E-12 0.97488E-10
 0.56899E-15 0.12203E-11 0.13636E-12 0.16126E-13 0.13878E-15 0.83267E-16 0.10714E-13 0.21531E-11 0.36277E-13 0.18082E-11
 0.19429E-15 0.16209E-12 0.83267E-16 0.55511E-16 0.61062E-15 0.99365E-14 0.11054E-10 0.39261E-11 0.18203E-12 0.33933E-10
 0.11102E-15 0.42188E-14 0.77716E-15 0.22204E-15 0.13878E-15 0.41633E-15 0.30254E-14 0.20539E-14 0.40107E-14 0.29560E-14
 0.16653E-15 0.37248E-13 0.53568E-14 0.15543E-14 0.24980E-14 0.67179E-11 0.43326E-12 0.11428E-12 0.12698E-13 0.30563E-11
 0.33307E-15 0.14552E-12 0.77494E-13 0.40108E-10 0.32196E-14 0.36800E-12 0.16501E-13 0.26784E-14 0.79659E-14 0.28576E-12
 0.14849E-14 0.42944E-11 0.13704E-11 0.56455E-13 0.13461E-14 0.89047E-13 0.11657E-14 0.49127E-14 0.16681E-13 0.11485E-11
 0.27756E-16 0.14208E-12 0.12232E-12 0.28316E-11 0.53429E-14 0.19540E-13 0.96034E-14 0.15932E-13 0.12886E-12 0.47462E-14
 0.69389E-15 0.20762E-09 0.31058E-13 0.42161E-13 0.98532E-15 0.31853E-11 0.24702E-12 0.12243E-11 0.17489E-12 0.36957E-12
 0.19429E-15 0.59674E-15 0.84655E-15 0.15821E-14 0.55511E-16 0.19429E-15 0.83267E-16 0.83267E-16 0.69389E-16 0.34694E-16
 0.83267E-16 0.35749E-12 0.95202E-14 0.66613E-15 0.66613E-15 0.49821E-13 0.10607E-10 0.29644E-11 0.34239E-12 0.32821E-09
 0.38858E-15 0.82137E-12 0.10680E-12 0.10991E-13 0.11102E-15 0.24980E-15 0.15266E-14 0.42359E-12 0.28810E-13 0.15396E-11
 0.83267E-16 0.99337E-13 0.19429E-15 0.55511E-16 0.47184E-15 0.65226E-14 0.25176E-11 0.34174E-11 0.16524E-12 0.26132E-10
 0.83267E-16 0.30254E-14 0.47184E-15 0.11102E-15  0.0000     0.16653E-15 0.21372E-14 0.13739E-14 0.25535E-14 0.18596E-14
 0.18041E-15 0.19346E-13 0.33029E-14 0.10825E-14 0.19984E-14 0.69014E-11 0.12271E-12 0.45658E-13 0.71332E-14 0.44709E-11
 0.13878E-15 0.58981E-13 0.36735E-13 0.61458E-11 0.25535E-14 0.16213E-12 0.67307E-14 0.10686E-14 0.30115E-14 0.97311E-13
 0.83267E-15 0.35242E-11 0.20088E-11 0.18555E-13 0.70777E-15 0.27929E-13 0.40246E-15 0.22760E-14 0.12081E-13 0.79184E-12
 0.27756E-16 0.14544E-12 0.13863E-12 0.37527E-11 0.42050E-14 0.13795E-13 0.43854E-14 0.70915E-14 0.74621E-13 0.23828E-13
 0.38164E-15 0.95651E-09 0.33723E-14 0.36242E-12 0.41633E-15 0.54075E-11 0.96936E-13 0.84380E-12 0.15631E-12 0.28189E-12
 0.83267E-16 0.44409E-15 0.55511E-15 0.12212E-14 0.41633E-16 0.55511E-16 0.11102E-15 0.11796E-15 0.27756E-16 0.27756E-16
 0.55511E-16 0.20885E-12 0.54595E-13 0.55789E-14 0.44409E-15 0.33168E-13 0.19214E-11 0.27870E-11 0.35998E-12 0.91175E-09
 0.21511E-15 0.58697E-12 0.87257E-13 0.99643E-14 0.97145E-16 0.13878E-15 0.63838E-15 0.11519E-14 0.18083E-13 0.12888E-11
 0.27756E-16 0.53513E-13 -.83267E-16 0.69389E-16 0.27756E-15 0.47462E-14 0.72062E-12 0.30773E-11 0.11033E-12 0.20963E-10
 0.69389E-16 0.23315E-14 0.33307E-15 0.83267E-16 0.13878E-16 0.11102E-15 0.16653E-14 0.98532E-15 0.16098E-14 0.10686E-14
 0.97145E-16 0.93606E-14 0.23592E-14 0.69389E-15 0.15543E-14 0.10456E-10 0.30857E-13 0.19859E-13 0.44548E-14 0.25359E-10
 0.55511E-16 0.26368E-13 0.22371E-13 0.10079E-11 0.20817E-14 0.73719E-13 0.34278E-14 0.48572E-15 0.12351E-14 0.28977E-13
 0.45103E-15 0.29371E-11 0.20280E-11 0.51232E-11 0.19429E-15 0.10415E-13 0.16653E-15 0.12768E-14 0.81393E-14 0.63427E-12
 -.27756E-16 0.11749E-12 0.13672E-12 0.37814E-11 0.33654E-14 0.96034E-14 0.21372E-14 0.34209E-14 0.38913E-13 0.11164E-12
 0.25674E-15 0.22542E-10 0.14534E-12 0.11914E-11 0.12490E-15 0.45468E-07 0.37942E-13 0.68232E-12 0.15318E-12 0.22018E-12
 0.55511E-16 0.34001E-15 0.49960E-15 0.13323E-14 -.20817E-16 0.55511E-16  0.0000     0.34694E-16 0.27756E-16 0.13878E-16
 0.48572E-16 0.13830E-12 0.76390E-13 0.21143E-13 0.21511E-15 0.27287E-13 0.75798E-12 0.31458E-11 0.47373E-12 0.79993E-08
 0.21511E-15 0.46085E-12 0.73865E-13 0.83822E-14 0.12490E-15 0.15266E-15 0.55511E-16 0.30628E-13 0.16487E-13 0.12413E-11
 0.83267E-16 0.29123E-13 0.20817E-16 0.76328E-16 0.20817E-15 0.36707E-14 0.29546E-12 0.27466E-11 0.11295E-12 0.16208E-10
 0.55511E-16 0.20747E-14 0.30531E-15 0.13878E-16 0.41633E-16 0.83267E-16 0.13184E-14 0.81879E-15 0.12490E-14 0.87430E-15
 0.13878E-16 0.72511E-14 0.15266E-14 0.62450E-15 0.14155E-14 0.93364E-11 0.12899E-13 0.10672E-13 0.27478E-14 0.83308E-10
 0.83267E-16 0.12004E-13 0.12816E-13 0.29288E-12 0.17486E-14 0.44791E-13 0.21372E-14 0.30531E-15 0.67307E-15 0.13191E-13
 0.38164E-15 0.24476E-11 0.28801E-11 0.33916E-11 0.18041E-15 0.46907E-14 0.83267E-16 0.74246E-15 0.55164E-14 0.48030E-12
  0.0000     0.14105E-12 0.15743E-12 0.57814E-11 0.28033E-14 0.66960E-14 0.14155E-14 0.17208E-14 0.19013E-13 0.14824E-12
 0.20817E-15 0.58413E-11 0.24000E-12 0.13172E-11 0.10408E-15 0.16386E-10 0.20921E-13 0.51469E-12 0.19710E-12 0.28727E-12
 0.69389E-16 0.28449E-15 0.32613E-15 0.96451E-15 -.41633E-16 0.27756E-16 0.48572E-16 0.83267E-16 -.69389E-17 -.41633E-16
 0.69389E-17 0.44101E-12 0.99594E-13 0.31350E-13 0.11796E-15 0.17035E-13 0.40082E-12 0.31290E-11 0.42673E-12 0.44908E-09
 0.16653E-15 0.45787E-12 0.56719E-13 0.63595E-14 0.10408E-15 0.90206E-16 0.27756E-16 0.23474E-12 0.75981E-14 0.89717E-12
 0.13878E-16 0.12088E-13 -.65919E-16 0.69389E-17 0.12143E-15 0.26368E-14 0.15593E-12 0.24541E-11 0.81199E-13 0.14343E-10
 0.41633E-16 0.14988E-14 0.22204E-15 0.62450E-16 -.72858E-16 0.55511E-16 0.80491E-15 0.61756E-15 0.74940E-15 0.56205E-15
 0.10408E-15 0.25605E-14 0.10547E-14 0.37817E-15 0.10755E-14 0.24415E-10 0.36637E-14 0.52597E-14 0.15821E-14 0.13170E-10
 0.34694E-16 0.78687E-14 0.65919E-14 0.11016E-12 0.12698E-14 0.24904E-13 0.11657E-14 0.18041E-15 0.22204E-15 0.36429E-14
 0.22898E-15 0.20518E-11 0.27794E-11 0.14063E-09 0.69389E-17 0.16653E-14 0.69389E-16 0.51348E-15 0.38095E-14 0.40484E-12
 -.20817E-16 0.84432E-13 0.14760E-12 0.59169E-11 0.21372E-14 0.45866E-14 0.61062E-15 0.58287E-15 0.61132E-14 0.49008E-12
 0.69389E-16 0.71157E-12 0.50267E-11 0.17475E-11 0.13878E-16 0.91378E-12 0.10388E-13 0.43762E-12 0.18991E-12 0.23488E-12
 0.90206E-16 0.43021E-15 0.44409E-15 0.97838E-15 0.55511E-16 -.69389E-16 0.62450E-16 0.90206E-16 -.13878E-16 0.20817E-16
 -.20817E-16 0.28813E-12 0.98588E-13 0.57267E-13 0.22898E-15 0.14967E-13 0.24961E-12 0.33644E-11 0.78236E-12 0.72673E-10
 0.12490E-15 0.50288E-12 0.54151E-13 0.73067E-14 0.41633E-16 0.41633E-16 0.55511E-16 0.34737E-12 0.69666E-14 0.79546E-12
  0.0000     0.29560E-14 0.12490E-15 0.90206E-16 0.18735E-15 0.29352E-14 0.90900E-13 0.21752E-11 0.76480E-13 0.11905E-10
 0.34694E-16 0.14502E-14 0.28449E-15 0.62450E-16 -.20817E-16 0.76328E-16 0.72164E-15 0.49960E-15 0.66613E-15 0.42327E-15
 0.48572E-16 0.19776E-14 0.92981E-15 0.45797E-15 0.95757E-15 0.22247E-10 0.21996E-14 0.41633E-14 0.15404E-14 0.72052E-11
 0.55511E-16 0.48156E-14 0.50029E-14 0.51584E-13 0.11241E-14 0.18444E-13 0.10061E-14 0.97145E-16 0.15266E-15 0.19915E-14
 0.19429E-15 0.17302E-11 0.35867E-11 0.29483E-10 0.27756E-16 0.13045E-14  0.0000     0.45797E-15 0.35111E-14 0.32428E-12
 -.13878E-16 0.87624E-13 0.16714E-12 0.74816E-11 0.18596E-14 0.39690E-14 0.63144E-15 0.61062E-15 0.30254E-14 0.10088E-11
 0.83267E-16 0.12949E-12 0.13928E-10 0.17594E-11 0.13878E-16 0.49834E-12 0.75634E-14 0.35146E-12 0.23307E-12 0.27675E-12
 0.62450E-16 0.45797E-15 0.38858E-15 0.97145E-15 -.12490E-15 -.41633E-16 -.69389E-16 0.48572E-16 0.69389E-17 0.55511E-16
 -.69389E-16 0.19904E-12 0.99545E-13 0.68771E-13 0.34694E-16 0.10804E-13 0.17352E-12 0.34832E-11 0.10403E-11 0.41923E-10
 0.41633E-16 0.49563E-12 0.52812E-13 0.55234E-14 0.83267E-16 0.41633E-16 0.97145E-16 0.51595E-12 0.43854E-14 0.71157E-12
 -.20817E-16 0.45103E-15 -.83267E-16 0.69389E-16 0.11102E-15 0.24356E-14 0.59001E-13 0.19931E-11 0.55768E-13 0.98936E-11
  0.0000     0.12074E-14 0.13184E-15 0.13878E-16 -.27756E-16 0.62450E-16 0.52042E-15 0.39552E-15 0.47184E-15 0.35388E-15
 0.27756E-16 0.92981E-15 0.56899E-15 0.24286E-15 0.73552E-15 0.76632E-10 0.64532E-15 0.24217E-14 0.91593E-15 0.18988E-11
 -.55511E-16 0.34348E-14 0.31294E-14 0.25570E-13 0.94369E-15 0.12330E-13 0.65226E-15 0.11102E-15 0.69389E-16 0.70083E-15
 0.22204E-15 0.14499E-11 0.30796E-11 0.20360E-09 -.20817E-16 0.49266E-15 -.76328E-16 0.26368E-15 0.23662E-14 0.30368E-12
 -.41633E-16 0.74718E-13 0.19525E-12 0.77939E-11 0.16306E-14 0.27825E-14 0.34694E-15 0.24286E-15 0.88818E-15 0.38251E-11
 0.11102E-15 0.45755E-13 0.13088E-06 0.17283E-11 0.69389E-17 0.18962E-12 0.44895E-14 0.30093E-12 0.22717E-12 0.29964E-12
 0.27756E-16 0.45797E-15 0.38164E-15 0.82573E-15 -.10408E-15 -.55511E-16 -.13878E-16 0.34694E-16 -.69389E-17 -.13878E-16
 0.20817E-16 0.15798E-12 0.95327E-13 0.12066E-12 0.83267E-16 0.86112E-14 0.11994E-12 0.37181E-11 0.13137E-11 0.13185E-10
 0.10408E-15 0.51613E-12 0.57995E-13 0.50793E-14 0.55511E-16 -.41633E-16 0.17347E-15 0.60893E-12 0.19984E-14 0.61832E-12
 0.34694E-16 0.14572E-14 -.13878E-16 0.11102E-15 0.69389E-16 0.24147E-14 0.47691E-13 0.16976E-11 0.42785E-13 0.90438E-11
 -.55511E-16 0.11935E-14 0.83267E-16 -.10408E-15 -.55511E-16 -.48572E-16 0.41633E-15 0.27756E-15 0.38164E-15 0.15266E-15
 -.20817E-16 0.44409E-15 0.56205E-15 0.19429E-15 0.61062E-15 0.15458E-09 0.27062E-15 0.17625E-14 0.76328E-15 0.11201E-11
 0.20817E-16 0.22274E-14 0.22968E-14 0.14135E-13 0.65226E-15 0.90761E-14 0.46491E-15 0.55511E-16 0.69389E-17 0.29143E-15
 0.90206E-16 0.12359E-11 0.35069E-11 0.22912E-10 -.48572E-16 0.30531E-15 -.97145E-16 0.26368E-15 0.19498E-14 0.29240E-12
 -.69389E-17 0.65434E-13 0.19921E-12 0.84310E-11 0.13878E-14 0.22413E-14 0.27756E-15 0.24286E-15 0.47184E-15 0.15475E-06
 0.55511E-16 0.23662E-14 0.36565E-10 0.16007E-11 -.69389E-17 0.10328E-12 0.31156E-14 0.26956E-12 0.24090E-12 0.34654E-12
 0.83267E-16 0.54817E-15 0.41633E-15 0.83267E-15 -.11102E-15 0.27756E-16  0.0000     0.76328E-16 0.27756E-16 0.48572E-16
 -.41633E-16 0.12761E-12 0.85675E-13 0.18141E-12 0.10408E-15 0.73483E-14 0.10823E-12 0.40311E-11 0.18923E-11 0.88987E-11
 0.27756E-16 0.57285E-12 0.61159E-13 0.49544E-14 0.62450E-16 0.83267E-16 0.97145E-16 0.65306E-12 0.19429E-14 0.57600E-12
 -.20817E-16 0.92565E-14  0.0000     0.41633E-16 0.83267E-16 0.23731E-14 0.49169E-13 0.15680E-11 0.49453E-13 0.73511E-11
 -.20817E-16 0.16792E-14 0.55511E-16 0.41633E-16 0.83267E-16 -.48572E-16 0.24980E-15 0.34001E-15 0.29143E-15 0.19429E-15
 -.20817E-16 0.42327E-15 0.42327E-15 0.19429E-15 0.51348E-15 0.60278E-08 0.13878E-15 0.12074E-14 0.60021E-15 0.61543E-12
 -.34694E-16 0.17625E-14 0.16029E-14 0.87361E-14 0.61756E-15 0.68487E-14 0.36776E-15 0.76328E-16 0.48572E-16 0.11796E-15
 0.14572E-15 0.10478E-11 0.58184E-11 0.48244E-10 -.12490E-15 0.13184E-15 -.13878E-16 0.22378E-15 0.16862E-14 0.32695E-12
  0.0000     0.60139E-13 0.29048E-12 0.10811E-10 0.11935E-14 0.19013E-14 0.23245E-15 0.97145E-16 0.90206E-16 0.34478E-10
 0.11796E-15 0.91038E-14 0.13895E-10 0.14351E-11 -.20817E-16 0.56732E-13 0.23245E-14 0.29120E-12 0.28262E-12 0.37251E-12
 -.27756E-16 0.47184E-15 0.29837E-15 0.72858E-15 -.69389E-17 -.15266E-15 -.55511E-16 0.55511E-16 0.69389E-17 -.27756E-16
 -.69389E-17 0.10454E-12 0.78382E-13 0.21297E-12 0.27756E-16 0.50307E-14 0.79388E-13 0.44648E-11 0.18570E-11 0.44097E-11
 -.20817E-16 0.63147E-12 0.55747E-13 0.34764E-14 -.83267E-16 -.24980E-15 0.15959E-15 0.71187E-12 0.34694E-15 0.42256E-12
 -.34694E-16 0.21670E-13 0.20817E-16 -.69389E-16 -.62450E-16 0.17278E-14 0.40280E-13 0.13619E-11 0.34292E-13 0.67772E-11
 -.83267E-16 0.11380E-14 -.10408E-15 -.62450E-16 -.48572E-16 -.12490E-15 0.13184E-15 0.16653E-15 0.16653E-15 0.11796E-15
 -.62450E-16 0.55511E-16 0.35388E-15 0.20817E-16 0.28449E-15 0.13903E-09 -.38164E-16 0.73552E-15 0.27756E-15 0.36892E-12
 -.41633E-16 0.12421E-14 0.99920E-15 0.54054E-14 0.52736E-15 0.51903E-14 0.16306E-15 0.43368E-16 -.20817E-16 -.31225E-16
 0.90206E-16 0.92255E-12 0.72996E-11 0.40532E-10 -.55511E-16 0.22551E-16 -.36429E-16 0.13444E-15 0.12455E-14 0.34416E-12
 -.13878E-16 0.41793E-13 0.25974E-12 0.10454E-10 0.11970E-14 0.13409E-14 0.65919E-16 0.48572E-16 0.23592E-15 0.39636E-11
 0.48572E-16 0.27311E-13 0.55523E-11 0.12714E-11 -.10408E-16 0.29792E-13 0.14815E-14 0.30321E-12 0.28564E-12 0.36784E-12
 0.27756E-16 0.63144E-15 0.49960E-15 0.78410E-15 -.27756E-16 -.27756E-16 -.27756E-16 0.16653E-15 0.13184E-15 0.20817E-16
 -.69389E-17 0.92738E-13 0.71686E-13 0.35515E-12 0.83267E-16 0.50862E-14 0.56170E-13 0.45189E-11 0.27469E-11 0.46127E-11
 0.13878E-16 0.62796E-12 0.55865E-13 0.42605E-14 0.83267E-16 -.55511E-16 0.24980E-15 0.80287E-12 0.56899E-15 0.40595E-12
 -.41633E-16 0.64830E-13 0.41633E-16 0.97145E-16 -.97145E-16 0.22204E-14 0.31863E-13 0.14503E-11 0.30330E-13 0.56034E-11
 0.11102E-15 0.16306E-14 0.22204E-15 0.19429E-15 0.55511E-16 -.55511E-16 0.16653E-15 0.23592E-15 0.12143E-15 -.69389E-17
 0.27756E-16 0.41633E-16 0.47184E-15 0.11102E-15 0.48572E-15 0.73939E-10  0.0000     0.72164E-15 0.29837E-15 0.46910E-12
 -.48572E-16 0.92981E-15 0.91593E-15 0.32960E-14 0.38858E-15 0.66336E-14 0.19863E-15  0.0000     0.69389E-17 -.52042E-17
 0.13878E-15 0.76278E-12 0.57751E-11 0.19166E-09 -.69389E-16 0.26021E-16  0.0000     0.15786E-15 0.11935E-14 0.41519E-12
 -.69389E-17 0.45228E-13 0.38616E-12 0.11986E-10 0.13808E-14 0.16064E-14 0.11536E-15 0.52042E-16 0.52042E-15 0.20720E-11
 0.90206E-16 0.21788E-13 0.44267E-11 0.11235E-11 0.20817E-16 0.28649E-13 0.12768E-14 0.35338E-12 0.31015E-12 0.43038E-12
 -.41633E-16 0.65919E-15 0.30531E-15 0.79797E-15  0.0000     -.55511E-16 -.55511E-16 0.83267E-16 0.55511E-16 0.27756E-16
 -.41633E-16 0.78465E-13 0.64289E-13 0.36457E-12 0.13878E-16 0.37886E-14 0.62263E-13 0.48649E-11 0.35267E-11 0.23790E-11
 0.13878E-16 0.70544E-12 0.75634E-13 0.41148E-14 -.12490E-15 -.11102E-15 0.20817E-15 0.79445E-12 0.69389E-16 0.34490E-12
 -.34694E-16 0.81803E-13 -.13878E-16 -.27756E-16  0.0000     0.21372E-14 0.38608E-13 0.15115E-11 0.26340E-13 0.49526E-11
 -.27756E-16 0.15127E-14 0.15266E-15 -.27756E-16  0.0000     -.13878E-15 0.76328E-16 0.22204E-15 0.10755E-15 0.83267E-16
 -.12490E-15 -.83267E-16 0.23592E-15 0.11102E-15 0.44409E-15 0.28471E-10  0.0000     0.47531E-15 0.33307E-15 0.28872E-12
 -.41633E-16 0.74940E-15 0.76328E-15 0.24356E-14 0.36082E-15 0.54262E-14 0.12837E-15 0.11102E-15 -.17347E-16 0.20817E-16
 0.69389E-16 0.66247E-12 0.10100E-10 0.14010E-08 -.34694E-16 -.45103E-16 0.83267E-16 0.79797E-16 0.10131E-14 0.41300E-12
 -.41633E-16 0.38587E-13 0.39314E-12 0.12321E-10 0.18249E-14 0.13045E-14 0.38164E-16 0.69389E-16 0.35735E-15 0.10650E-11
 0.11102E-15 0.32016E-13 0.31531E-11 0.99026E-12 0.27756E-16 0.13978E-13 0.81879E-15 0.35292E-12 0.34364E-12 0.47168E-12
 -.13878E-16 0.76328E-15 0.48572E-15 0.74940E-15 -.27756E-16 -.27756E-16 0.27756E-16 0.97145E-16 0.11102E-15 0.83267E-16
 0.13878E-16 0.69555E-13 0.57385E-13 0.58703E-12 0.83267E-16 0.31086E-14 0.53957E-13 0.50032E-11 0.43346E-11 0.22002E-11
  0.0000     0.71661E-12 0.61950E-13 0.36360E-14 0.11102E-15 0.41633E-16 0.24980E-15 0.81021E-12 0.24980E-15 0.31557E-12
 0.13878E-16 0.13267E-12 0.55511E-16 0.55511E-16 0.83267E-16 0.19984E-14 0.34750E-13 0.17565E-11 0.26742E-13 0.41470E-11
 -.27756E-16 0.15474E-14 0.55511E-16 0.83267E-16 0.83267E-16 0.41633E-16 0.83267E-16 0.20817E-15 0.62450E-16 -.27756E-16
 0.27756E-16 0.55511E-16 0.31919E-15 -.41633E-16 0.63838E-15 0.10431E-10 -.13878E-16 0.38858E-15 0.18041E-15 0.35694E-12
 0.27756E-16 0.68695E-15 0.47184E-15 0.17208E-14 0.30531E-15 0.63838E-14 0.14919E-15 0.55511E-16 -.34694E-17 0.55511E-16
 0.16653E-15 0.56471E-12 0.14855E-10 0.12353E-09 -.97145E-16 0.20817E-16 -.69389E-16 0.10061E-15 0.12212E-14 0.45609E-12
 -.13878E-16 0.33348E-13 0.56502E-12 0.14351E-10 0.17972E-14 0.15404E-14 0.41633E-16 0.55511E-16 0.58981E-15 0.77938E-12
 0.55511E-16 0.22121E-13 0.28003E-11 0.85437E-12 -.55511E-16 0.12323E-13 0.74940E-15 0.37658E-12 0.37687E-12 0.53003E-12
 0.13878E-16 0.90206E-15 0.43021E-15 0.76328E-15 -.27756E-16 -.97145E-16 -.18041E-15 0.41633E-16 0.41633E-16 -.41633E-16
 -.69389E-16 0.60618E-13 0.51667E-13 0.64546E-12  0.0000     0.25535E-14 0.51847E-13 0.55134E-11 0.44290E-11 0.20684E-11
 -.55511E-16 0.79260E-12 0.77632E-13 0.35250E-14 -.11102E-15 -.13878E-15 0.23592E-15 0.80255E-12 -.27756E-16 0.24075E-12
  0.0000     0.16556E-12 -.27756E-16 -.19429E-15 -.55511E-16 0.20539E-14 0.36054E-13 0.17296E-11 0.18041E-13 0.37278E-11
 -.55511E-16 0.16237E-14 0.15266E-15 -.27756E-16 -.27756E-16 -.97145E-16 0.55511E-16 0.11102E-15 0.97145E-16 0.27756E-16
 -.27756E-16 -.55511E-16 0.18041E-15 -.97145E-16 0.44409E-15 0.87506E-11 0.41633E-16 0.34694E-15 0.13878E-15 0.31210E-12
 0.41633E-16 0.51348E-15 0.38858E-15 0.12629E-14 0.24980E-15 0.56483E-14 0.13878E-15 0.12490E-15  0.0000     -.27756E-16
 0.97145E-16 0.49724E-12 0.24240E-10 0.83562E-10  0.0000     -.13878E-16  0.0000     0.97145E-16 0.97145E-15 0.49535E-12
 -.27756E-16 0.26673E-13 0.50505E-12 0.14345E-10 0.17625E-14 0.11935E-14 0.97145E-16 0.13878E-15 0.70777E-15 0.48722E-12
 0.55511E-16 0.10533E-13 0.21067E-11 0.74619E-12 -.27756E-16 0.84030E-14 0.58287E-15 0.40695E-12 0.37373E-12 0.57674E-12
 -.13878E-16 0.91593E-15 0.56899E-15 0.90206E-15 -.41633E-16  0.0000     -.41633E-16 0.97145E-16 0.69389E-16 0.27756E-16
  0.0000     0.55081E-13 0.45880E-13 0.57995E-12  0.0000     0.23592E-14 0.53957E-13 0.61972E-11 0.54743E-11 0.15930E-11
 0.41633E-16 0.88970E-12 0.74357E-13 0.38997E-14  0.0000     -.27756E-16 0.18041E-15 0.78083E-12 0.15266E-15 0.20448E-12
 -.11102E-15 0.16399E-12 0.27756E-16 0.55511E-16 0.27756E-16 0.23037E-14 0.38677E-13 0.22615E-11 0.17569E-13 0.30749E-11
 -.41633E-16 0.16653E-14  0.0000     -.27756E-16 -.41633E-16 -.11102E-15 0.83267E-16 0.18041E-15 0.97145E-16 0.27756E-16
 -.41633E-16 0.27756E-16 0.18041E-15 0.83267E-16 0.61062E-15 0.34435E-11 -.27756E-16 0.27756E-15 0.69389E-16 0.35277E-12
 -.97145E-16 0.47184E-15 0.30531E-15 0.97145E-15 0.20817E-15 0.72720E-14 0.20817E-15 0.12490E-15 -.13878E-16 0.11102E-15
 0.16653E-15 0.43604E-12 0.70919E-10 0.90895E-11 0.41633E-16 -.55511E-16 0.41633E-16 0.22204E-15 0.11657E-14 0.53442E-12
 -.69389E-16 0.23440E-13 0.78454E-12 0.15281E-10 0.21788E-14 0.14849E-14 0.69389E-16 0.55511E-16 0.73552E-15 0.41807E-12
 0.12490E-15 0.10755E-13 0.21149E-11 0.65065E-12 -.13878E-16 0.74385E-14 0.47184E-15 0.43590E-12 0.42547E-12 0.60249E-12
 -.20817E-16 0.12490E-14 0.54123E-15 0.80491E-15  0.0000     -.41633E-16 -.83267E-16 0.27756E-16 0.41633E-16 -.27756E-16
  0.0000     0.49280E-13 0.41231E-13 0.13370E-11 0.12490E-15 0.19706E-14 0.48794E-13 0.60600E-11 0.61352E-11 0.12488E-11
 0.13878E-16 0.90969E-12 0.87597E-13 0.35250E-14 -.55511E-16 0.41633E-16 0.20817E-15 0.78954E-12 0.27756E-16 0.17823E-12
  0.0000     0.45274E-12 0.12490E-15 0.69389E-16 0.18041E-15 0.18041E-14 0.38108E-13 0.21407E-11 0.14211E-13 0.26479E-11
  0.0000     0.19013E-14 0.83267E-16 0.11102E-15 0.27756E-16 0.55511E-16 0.83267E-16 0.16653E-15 0.18041E-15  0.0000    
 -.13878E-16 -.55511E-16 0.27756E-16 0.13878E-15 0.61062E-15 0.37756E-11 -.41633E-16 0.26368E-15 0.11102E-15 0.32663E-12
 0.55511E-16 0.44409E-15 0.34694E-15 0.70777E-15 0.16653E-15 0.70360E-14 0.23592E-15 -.27756E-16 -.27756E-16 0.27756E-16
 0.13878E-15 0.36894E-12 0.14491E-09 0.10630E-10  0.0000     -.69389E-16 -.55511E-16 0.20817E-15 0.12629E-14 0.56558E-12
 0.27756E-16 0.21247E-13 0.78416E-12 0.15278E-10 0.24980E-14 0.14155E-14  0.0000     0.97145E-16 0.74940E-15 0.35086E-12
 0.12490E-15 0.64185E-14 0.19379E-11 0.56577E-12 -.27756E-16 0.54817E-14 0.38858E-15 0.46527E-12 0.44617E-12 0.70080E-12
 0.31225E-16 0.11761E-14 0.58287E-15 0.90206E-15 -.97145E-16  0.0000      0.0000     0.83267E-16 0.69389E-16 -.24286E-16
 -.20817E-16 0.45741E-13 0.36915E-13 0.69848E-12 0.27756E-16 0.18596E-14 0.51348E-13 0.68136E-11 0.65197E-11 0.98687E-12
 0.27756E-16 0.10070E-11 0.99101E-13 0.51625E-14 0.69389E-16 -.55511E-16 0.12490E-15 0.77058E-12 0.48572E-16 0.13909E-12
 -.27756E-16 0.28164E-12  0.0000     0.13878E-16 0.97145E-16 0.30947E-14 0.40953E-13 0.25028E-11 0.95618E-14 0.22905E-11
  0.0000     0.20955E-14 0.83267E-16 0.41633E-16 0.27756E-16 -.27756E-16 0.41633E-16 0.12490E-15 0.69389E-16 -.27756E-16
  0.0000     0.27756E-16 0.69389E-16 0.83267E-16 0.76328E-15 0.18315E-11 -.41633E-16 0.19429E-15 0.13878E-16 0.37051E-12
 -.13878E-16 0.37470E-15 0.27756E-15 0.58287E-15 0.83267E-16 0.82157E-14 0.15266E-15 0.27756E-16 0.41633E-16 0.27756E-16
 0.11102E-15 0.32722E-12 0.73210E-09 0.56382E-11  0.0000     -.83267E-16 -.83267E-16 0.13878E-15 0.15404E-14 0.62154E-12
 0.13878E-16 0.17542E-13 0.79623E-12 0.14812E-10 0.29143E-14 0.20817E-14 -.13878E-16 0.55511E-16 0.66613E-15 0.27102E-12
 0.14572E-15 0.59813E-14 0.20671E-11 0.49169E-12 -.97145E-16 0.51625E-14 0.38858E-15 0.50927E-12 0.45854E-12 0.73553E-12
 0.69389E-17 0.13149E-14 0.83267E-15 0.10686E-14 -.41633E-16 -.13878E-16 0.27756E-16 0.83267E-16 0.31225E-16 -.38164E-16
 -.15613E-16 0.42445E-13 0.32759E-13 0.26218E-12  0.0000     0.26229E-14 0.57621E-13 0.76470E-11 0.75045E-11 0.72807E-12
 0.52042E-16 0.11257E-11 0.11366E-12 0.44825E-14  0.0000     0.55511E-16 0.83267E-16 0.72063E-12 0.65919E-16 0.12576E-12
  0.0000     0.12894E-12 0.11102E-15 0.97145E-16 0.55511E-16 0.26645E-14 0.47920E-13 0.30403E-11 0.15418E-13 0.23773E-11
 0.13878E-16 0.26090E-14 0.11102E-15  0.0000      0.0000     -.83267E-16 0.97145E-16 0.12490E-15 0.13878E-15 0.27756E-16
 0.83267E-16  0.0000     0.55511E-16 0.13878E-15 0.98532E-15 0.51118E-11  0.0000     0.19429E-15 0.11102E-15 0.52380E-12
  0.0000     0.31919E-15 0.31919E-15 0.52736E-15 0.27756E-15 0.10228E-13 0.33307E-15 0.11102E-15 0.55511E-16 0.13878E-16
 0.15266E-15 0.28899E-12 0.22824E-09 0.22728E-11  0.0000     -.55511E-16 0.27756E-16 0.22204E-15 0.17764E-14 0.74295E-12
 0.13878E-16 0.17000E-13 0.11689E-11 0.18746E-10 0.37054E-14 0.19429E-14 0.13878E-16 0.12490E-15 0.52736E-15 0.30106E-12
 0.12490E-15 0.36238E-14 0.22492E-11 0.42382E-12  0.0000     0.54123E-14 0.41633E-15 0.59525E-12 0.56292E-12 0.90869E-12
 0.39031E-16 0.15336E-14 0.93605E-15 0.11790E-14 -.43368E-16 0.18052E-16 0.11493E-16 0.82616E-16 0.69362E-16 -.12170E-16
 -.18147E-16 0.40568E-13 0.29089E-13 0.16328E-12 0.76328E-16 0.29421E-14 0.74094E-13 0.84061E-11 0.82354E-11 0.65450E-12
 0.99909E-16 0.12764E-11 0.14156E-12 0.63036E-14 -.13878E-16 0.65052E-16 0.99313E-16 0.69883E-12 0.49575E-16 0.92961E-13
 -.14311E-16 0.11169E-12 -.38598E-16 0.11623E-15 0.17174E-15 0.38389E-14 0.65749E-13 0.35860E-11 0.13200E-13 0.25911E-11