PROCAR lm decomposed
# of k-points:   31         # of bands:   28         # of ions:    5

 k-point     1 :    0.00000000 0.00000000 0.00000000     weight = 0.01000000

band     1 # energy  -11.60852632 # occ.  2.00000000
 
ion      s     py     pz     px    dxy    dyz    dz2    dxz  x2-y2    tot
    1  0.007  0.000  0.001  0.000  0.000  0.000  0.000  0.000  0.000  0.008
    2  0.043  0.000  0.002  0.000  0.000  0.000  0.000  0.000  0.000  0.045
    3  0.134  0.000  0.003  0.000  0.000  0.000  0.000  0.000  0.000  0.137
    4  0.304  0.000  0.000  0.000  0.000  0.000  0.009  0.000  0.000  0.313
    5  0.088  0.000  0.001  0.000  0.000  0.000  0.000  0.000  0.000  0.089
tot    0.576  0.000  0.006  0.000  0.000  0.000  0.009  0.000  0.000  0.591
 
band     2 # energy  -10.59126275 # occ.  2.00000000
 
ion      s     py     pz     px    dxy    dyz    dz2    dxz  x2-y2    tot
    1  0.117  0.000  0.010  0.000  0.000  0.000  0.000  0.000  0.000  0.127
    2  0.263  0.000  0.000  0.000  0.000  0.000  0.002  0.000  0.000  0.266
    3  0.050  0.000  0.018  0.000  0.000  0.000  0.001  0.000  0.000  0.069
    4  0.067  0.000  0.008  0.000  0.000  0.000  0.011  0.000  0.000  0.087
    5  0.040  0.000  0.000  0.000  0.000  0.000  0.000  0.000  0.000  0.040
tot    0.537  0.000  0.037  0.000  0.000  0.000  0.015  0.000  0.000  0.588
 
band     3 # energy   -8.98441985 # occ.  2.00000000
 
ion      s     py     pz     px    dxy    dyz    dz2    dxz  x2-y2    tot
    1  0.190  0.000  0.002  0.000  0.000  0.000  0.020  0.000  0.000  0.212
    2  0.004  0.000  0.045  0.000  0.000  0.000  0.001  0.000  0.000  0.050
    3  0.203  0.000  0.000  0.000  0.000  0.000  0.040  0.000  0.000  0.243
    4  0.009  0.000  0.031  0.000  0.000  0.000  0.025  0.000  0.000  0.066
    5  0.032  0.000  0.000  0.000  0.000  0.000  0.000  0.000  0.000  0.032
tot    0.438  0.000  0.079  0.000  0.000  0.000  0.086  0.000  0.000  0.603
 
band     4 # energy   -7.52416086 # occ.  2.00000000
 
ion      s     py     pz     px    dxy    dyz    dz2    dxz  x2-y2    tot
    1  0.109  0.000  0.005  0.000  0.000  0.000  0.131  0.000  0.000  0.245
    2  0.101  0.000  0.003  0.000  0.000  0.000  0.226  0.000  0.000  0.330
    3  0.032  0.000  0.014  0.000  0.000  0.000  0.091  0.000  0.000  0.137
    4  0.000  0.000  0.011  0.000  0.000  0.000  0.014  0.000  0.000  0.026
    5  0.006  0.000  0.000  0.000  0.000  0.000  0.000  0.000  0.000  0.006
tot    0.247  0.000  0.034  0.000  0.000  0.000  0.462  0.000  0.000  0.743
 
band     5 # energy   -6.08743907 # occ.  2.00000000
 
ion      s     py     pz     px    dxy    dyz    dz2    dxz  x2-y2    tot
    1  0.000  0.000  0.000  0.000  0.000  0.000  0.004  0.000  0.000  0.004
    2  0.001  0.000  0.001  0.000  0.000  0.000  0.006  0.000  0.000  0.007
    3  0.002  0.000  0.002  0.000  0.000  0.000  0.083  0.000  0.000  0.087
    4  0.005  0.000  0.042  0.000  0.000  0.001  0.583  0.000  0.010  0.642
    5  0.049  0.000  0.001  0.000  0.000  0.000  0.000  0.000  0.000  0.050
tot    0.056  0.000  0.046  0.000  0.000  0.002  0.677  0.000  0.010  0.791
 
band     6 # energy   -5.57552138 # occ.  2.00000000
 
ion      s     py     pz     px    dxy    dyz    dz2    dxz  x2-y2    tot
    1  0.000  0.000  0.000  0.000  0.000  0.000  0.018  0.000  0.000  0.019
    2  0.001  0.000  0.000  0.000  0.000  0.000  0.003  0.000  0.004  0.008
    3  0.000  0.000  0.006  0.000  0.000  0.020  0.185  0.000  0.004  0.214
    4  0.003  0.000  0.006  0.000  0.000  0.003  0.118  0.000  0.579  0.709
    5  0.001  0.001  0.000  0.000  0.000  0.000  0.000  0.000  0.000  0.002
tot    0.005  0.001  0.012  0.000  0.000  0.023  0.323  0.000  0.587  0.952
 
band     7 # energy   -5.55518068 # occ.  2.00000000
 
ion      s     py     pz     px    dxy    dyz    dz2    dxz  x2-y2    tot
    1  0.000  0.000  0.000  0.000  0.000  0.000  0.000  0.000  0.000  0.000
    2  0.000  0.000  0.000  0.000  0.008  0.000  0.000  0.001  0.000  0.008
    3  0.000  0.000  0.000  0.000  0.003  0.000  0.000  0.035  0.000  0.039
    4  0.000  0.000  0.000  0.000  0.906  0.000  0.000  0.014  0.000  0.919
    5  0.000  0.000  0.000  0.001  0.000  0.000  0.000  0.000  0.000  0.001
tot    0.000  0.000  0.000  0.001  0.917  0.000  0.000  0.050  0.000  0.967
 
band     8 # energy   -5.52320082 # occ.  2.00000000
 
ion      s     py     pz     px    dxy    dyz    dz2    dxz  x2-y2    tot
    1  0.000  0.000  0.001  0.000  0.000  0.000  0.040  0.000  0.000  0.041
    2  0.001  0.000  0.003  0.000  0.000  0.000  0.003  0.000  0.003  0.010
    3  0.002  0.000  0.005  0.000  0.000  0.012  0.422  0.000  0.003  0.443
    4  0.001  0.000  0.015  0.000  0.000  0.001  0.103  0.000  0.318  0.438
    5  0.004  0.000  0.000  0.000  0.000  0.000  0.000  0.000  0.000  0.004
tot    0.008  0.001  0.023  0.000  0.000  0.013  0.567  0.000  0.324  0.936
 
band     9 # energy   -5.31465780 # occ.  2.00000000
 
ion      s     py     pz     px    dxy    dyz    dz2    dxz  x2-y2    tot
    1  0.001  0.000  0.005  0.000  0.000  0.000  0.250  0.000  0.000  0.256
    2  0.004  0.000  0.000  0.000  0.000  0.001  0.577  0.000  0.001  0.583
    3  0.001  0.000  0.013  0.000  0.000  0.000  0.051  0.000  0.012  0.077
    4  0.002  0.000  0.006  0.000  0.000  0.002  0.000  0.000  0.003  0.013
    5  0.003  0.000  0.000  0.000  0.000  0.000  0.000  0.000  0.000  0.003
tot    0.010  0.000  0.025  0.000  0.000  0.003  0.879  0.000  0.016  0.933
 
band    10 # energy   -5.29071237 # occ.  2.00000000
 
ion      s     py     pz     px    dxy    dyz    dz2    dxz  x2-y2    tot
    1  0.000  0.000  0.000  0.000  0.013  0.000  0.000  0.000  0.000  0.013
    2  0.000  0.000  0.000  0.000  0.026  0.000  0.000  0.048  0.000  0.074
    3  0.000  0.000  0.000  0.000  0.749  0.000  0.000  0.012  0.001  0.761
    4  0.000  0.000  0.000  0.000  0.000  0.000  0.000  0.117  0.000  0.117
    5  0.000  0.000  0.000  0.000  0.000  0.000  0.000  0.000  0.000  0.000
tot    0.000  0.000  0.000  0.000  0.788  0.000  0.000  0.177  0.001  0.966
 
band    11 # energy   -5.28511688 # occ.  2.00000000
 
ion      s     py     pz     px    dxy    dyz    dz2    dxz  x2-y2    tot
    1  0.000  0.000  0.000  0.000  0.000  0.000  0.006  0.000  0.014  0.021
    2  0.000  0.000  0.000  0.000  0.000  0.049  0.008  0.000  0.025  0.082
    3  0.000  0.000  0.000  0.000  0.001  0.014  0.000  0.000  0.743  0.757
    4  0.000  0.000  0.000  0.000  0.000  0.103  0.000  0.000  0.002  0.105
    5  0.000  0.000  0.000  0.000  0.000  0.000  0.000  0.000  0.000  0.000
tot    0.000  0.000  0.000  0.000  0.001  0.165  0.015  0.000  0.784  0.965
 
band    12 # energy   -5.22320119 # occ.  2.00000000
 
ion      s     py     pz     px    dxy    dyz    dz2    dxz  x2-y2    tot
    1  0.000  0.000  0.000  0.000  0.000  0.028  0.000  0.001  0.006  0.035
    2  0.000  0.000  0.000  0.000  0.029  0.012  0.000  0.000  0.800  0.842
    3  0.000  0.000  0.000  0.000  0.000  0.053  0.000  0.002  0.007  0.062
    4  0.000  0.000  0.000  0.000  0.001  0.010  0.000  0.000  0.016  0.028
    5  0.000  0.000  0.000  0.000  0.000  0.000  0.000  0.000  0.000  0.000
tot    0.000  0.000  0.000  0.000  0.030  0.103  0.000  0.004  0.829  0.967
 
band    13 # energy   -5.22230882 # occ.  2.00000000
 
ion      s     py     pz     px    dxy    dyz    dz2    dxz  x2-y2    tot
    1  0.000  0.000  0.000  0.000  0.006  0.001  0.000  0.028  0.000  0.035
    2  0.000  0.000  0.000  0.000  0.801  0.000  0.000  0.012  0.029  0.842
    3  0.000  0.000  0.000  0.000  0.007  0.002  0.000  0.051  0.000  0.060
    4  0.000  0.000  0.000  0.000  0.019  0.000  0.000  0.010  0.001  0.030
    5  0.000  0.000  0.000  0.000  0.000  0.000  0.000  0.000  0.000  0.000
tot    0.000  0.000  0.000  0.000  0.832  0.004  0.000  0.101  0.030  0.967
 
band    14 # energy   -4.96414958 # occ.  2.00000000
 
ion      s     py     pz     px    dxy    dyz    dz2    dxz  x2-y2    tot
    1  0.000  0.000  0.000  0.000  0.709  0.001  0.000  0.006  0.124  0.840
    2  0.000  0.000  0.000  0.000  0.001  0.013  0.000  0.074  0.000  0.088
    3  0.000  0.000  0.000  0.000  0.021  0.001  0.000  0.003  0.004  0.029
    4  0.000  0.000  0.000  0.000  0.000  0.001  0.000  0.010  0.000  0.012
    5  0.000  0.000  0.000  0.000  0.000  0.000  0.000  0.000  0.000  0.000
tot    0.000  0.000  0.000  0.000  0.731  0.016  0.000  0.093  0.128  0.968
 
band    15 # energy   -4.96368413 # occ.  2.00000000
 
ion      s     py     pz     px    dxy    dyz    dz2    dxz  x2-y2    tot
    1  0.000  0.000  0.000  0.000  0.124  0.006  0.000  0.001  0.709  0.840
    2  0.000  0.000  0.000  0.000  0.000  0.072  0.000  0.013  0.001  0.087
    3  0.000  0.000  0.000  0.000  0.004  0.003  0.000  0.001  0.024  0.031
    4  0.000  0.000  0.000  0.000  0.000  0.007  0.000  0.002  0.001  0.010
    5  0.000  0.000  0.000  0.000  0.000  0.000  0.000  0.000  0.000  0.000
tot    0.000  0.000  0.000  0.000  0.128  0.089  0.001  0.016  0.734  0.968
 
band    16 # energy   -4.87172130 # occ.  2.00000000
 
ion      s     py     pz     px    dxy    dyz    dz2    dxz  x2-y2    tot
    1  0.027  0.000  0.000  0.000  0.000  0.000  0.405  0.000  0.001  0.433
    2  0.013  0.000  0.045  0.000  0.000  0.000  0.051  0.000  0.000  0.110
    3  0.000  0.000  0.079  0.000  0.000  0.000  0.002  0.000  0.002  0.083
    4  0.014  0.000  0.042  0.000  0.000  0.005  0.025  0.000  0.004  0.090
    5  0.016  0.000  0.000  0.000  0.000  0.000  0.000  0.000  0.000  0.016
tot    0.070  0.000  0.167  0.000  0.000  0.005  0.483  0.000  0.007  0.733
 
band    17 # energy   -4.74930425 # occ.  2.00000000
 
ion      s     py     pz     px    dxy    dyz    dz2    dxz  x2-y2    tot
    1  0.000  0.000  0.000  0.000  0.002  0.000  0.000  0.003  0.000  0.006
    2  0.000  0.000  0.000  0.000  0.016  0.000  0.000  0.006  0.000  0.022
    3  0.000  0.000  0.000  0.000  0.141  0.000  0.000  0.068  0.000  0.209
    4  0.000  0.000  0.000  0.000  0.027  0.000  0.000  0.720  0.000  0.747
    5  0.000  0.000  0.000  0.001  0.000  0.000  0.000  0.000  0.000  0.001
tot    0.000  0.000  0.000  0.001  0.187  0.000  0.000  0.797  0.000  0.984
 
band    18 # energy   -4.72228546 # occ.  2.00000000
 
ion      s     py     pz     px    dxy    dyz    dz2    dxz  x2-y2    tot
    1  0.000  0.000  0.000  0.000  0.000  0.004  0.002  0.000  0.001  0.007
    2  0.000  0.000  0.000  0.000  0.000  0.004  0.001  0.000  0.019  0.024
    3  0.000  0.000  0.001  0.000  0.000  0.096  0.000  0.000  0.128  0.224
    4  0.000  0.000  0.001  0.000  0.000  0.707  0.000  0.000  0.017  0.725
    5  0.000  0.000  0.000  0.000  0.000  0.000  0.000  0.000  0.000  0.000
tot    0.001  0.000  0.002  0.000  0.000  0.810  0.003  0.000  0.165  0.981
 
band    19 # energy   -4.48080388 # occ.  2.00000000
 
ion      s     py     pz     px    dxy    dyz    dz2    dxz  x2-y2    tot
    1  0.000  0.000  0.000  0.000  0.094  0.000  0.000  0.039  0.000  0.133
    2  0.000  0.000  0.000  0.000  0.065  0.000  0.000  0.419  0.000  0.485
    3  0.000  0.000  0.000  0.000  0.026  0.000  0.000  0.291  0.000  0.317
    4  0.000  0.000  0.000  0.000  0.008  0.000  0.000  0.041  0.000  0.048
    5  0.000  0.000  0.000  0.000  0.000  0.000  0.000  0.000  0.000  0.000
tot    0.000  0.000  0.000  0.000  0.192  0.000  0.000  0.791  0.000  0.984
 
band    20 # energy   -4.47770388 # occ.  2.00000000
 
ion      s     py     pz     px    dxy    dyz    dz2    dxz  x2-y2    tot
    1  0.000  0.000  0.000  0.000  0.000  0.044  0.000  0.000  0.095  0.139
    2  0.000  0.000  0.000  0.000  0.000  0.433  0.000  0.000  0.062  0.496
    3  0.000  0.000  0.000  0.000  0.000  0.264  0.000  0.000  0.023  0.287
    4  0.000  0.000  0.000  0.000  0.000  0.055  0.000  0.000  0.007  0.063
    5  0.000  0.000  0.000  0.000  0.000  0.000  0.000  0.000  0.000  0.000
tot    0.000  0.000  0.000  0.000  0.000  0.795  0.000  0.000  0.188  0.984
 
band    21 # energy   -4.26271924 # occ.  2.00000000
 
ion      s     py     pz     px    dxy    dyz    dz2    dxz  x2-y2    tot
    1  0.000  0.000  0.000  0.000  0.014  0.000  0.000  0.317  0.000  0.331
    2  0.000  0.000  0.000  0.000  0.000  0.000  0.000  0.144  0.000  0.145
    3  0.000  0.000  0.000  0.000  0.011  0.000  0.000  0.431  0.000  0.442
    4  0.000  0.000  0.000  0.000  0.006  0.000  0.000  0.063  0.000  0.069
    5  0.000  0.000  0.000  0.000  0.000  0.000  0.000  0.000  0.000  0.000
tot    0.000  0.000  0.000  0.001  0.031  0.000  0.000  0.955  0.000  0.986
 
band    22 # energy   -4.25825933 # occ.  2.00000000
 
ion      s     py     pz     px    dxy    dyz    dz2    dxz  x2-y2    tot
    1  0.000  0.000  0.000  0.000  0.000  0.315  0.000  0.000  0.013  0.328
    2  0.000  0.000  0.000  0.000  0.000  0.133  0.000  0.000  0.000  0.133
    3  0.000  0.000  0.000  0.000  0.000  0.429  0.000  0.000  0.011  0.441
    4  0.000  0.000  0.000  0.000  0.000  0.078  0.000  0.000  0.007  0.084
    5  0.000  0.000  0.000  0.000  0.000  0.000  0.000  0.000  0.000  0.000
tot    0.000  0.000  0.000  0.000  0.000  0.955  0.000  0.000  0.030  0.986
 
band    23 # energy   -3.98236813 # occ.  2.00000000
 
ion      s     py     pz     px    dxy    dyz    dz2    dxz  x2-y2    tot
    1  0.000  0.000  0.000  0.000  0.007  0.007  0.000  0.582  0.000  0.596
    2  0.000  0.000  0.000  0.000  0.023  0.003  0.000  0.263  0.000  0.289
    3  0.000  0.000  0.000  0.000  0.006  0.001  0.000  0.089  0.000  0.096
    4  0.000  0.000  0.000  0.000  0.001  0.000  0.000  0.007  0.000  0.008
    5  0.000  0.000  0.000  0.000  0.000  0.000  0.000  0.000  0.000  0.000
tot    0.000  0.000  0.000  0.000  0.037  0.012  0.000  0.940  0.000  0.990
 
band    24 # energy   -3.98180771 # occ.  2.00000000
 
ion      s     py     pz     px    dxy    dyz    dz2    dxz  x2-y2    tot
    1  0.000  0.000  0.000  0.000  0.000  0.579  0.000  0.007  0.007  0.594
    2  0.000  0.000  0.000  0.000  0.000  0.262  0.000  0.003  0.023  0.289
    3  0.000  0.000  0.000  0.000  0.000  0.090  0.000  0.001  0.006  0.098
    4  0.000  0.000  0.000  0.000  0.000  0.008  0.000  0.000  0.001  0.009
    5  0.000  0.000  0.000  0.000  0.000  0.000  0.000  0.000  0.000  0.000
tot    0.000  0.000  0.000  0.000  0.000  0.940  0.000  0.012  0.037  0.990
 
band    25 # energy   -2.91357436 # occ.  2.00000000
 
ion      s     py     pz     px    dxy    dyz    dz2    dxz  x2-y2    tot
    1  0.020  0.000  0.152  0.000  0.000  0.000  0.031  0.000  0.000  0.203
    2  0.015  0.000  0.079  0.000  0.000  0.000  0.023  0.000  0.000  0.117
    3  0.012  0.000  0.036  0.000  0.000  0.000  0.018  0.000  0.000  0.066
    4  0.009  0.000  0.012  0.000  0.000  0.000  0.008  0.000  0.000  0.030
    5  0.004  0.000  0.000  0.000  0.000  0.000  0.000  0.000  0.000  0.004
tot    0.060  0.000  0.279  0.000  0.000  0.000  0.081  0.000  0.000  0.421
 
band    26 # energy    1.60344277 # occ.  0.00000000
 
ion      s     py     pz     px    dxy    dyz    dz2    dxz  x2-y2    tot
    1  0.017  0.000  0.002  0.000  0.000  0.000  0.017  0.000  0.000  0.036
    2  0.025  0.000  0.001  0.000  0.000  0.000  0.022  0.000  0.000  0.049
    3  0.032  0.000  0.001  0.000  0.000  0.000  0.029  0.000  0.000  0.062
    4  0.035  0.000  0.000  0.000  0.000  0.000  0.037  0.000  0.000  0.072
    5  0.000  0.000  0.003  0.000  0.000  0.000  0.000  0.000  0.000  0.003
tot    0.109  0.000  0.007  0.000  0.000  0.000  0.105  0.000  0.000  0.221
 
band    27 # energy    1.91727174 # occ.  0.00000000
 
ion      s     py     pz     px    dxy    dyz    dz2    dxz  x2-y2    tot
    1  0.006  0.000  0.003  0.000  0.000  0.000  0.006  0.000  0.000  0.014
    2  0.001  0.000  0.004  0.000  0.000  0.000  0.001  0.000  0.000  0.006
    3  0.000  0.000  0.004  0.000  0.000  0.000  0.000  0.000  0.000  0.004
    4  0.002  0.000  0.003  0.000  0.000  0.000  0.004  0.000  0.000  0.010
    5  0.001  0.000  0.001  0.000  0.000  0.000  0.000  0.000  0.000  0.002
tot    0.010  0.000  0.015  0.000  0.000  0.000  0.011  0.000  0.000  0.036
 
band    28 # energy    2.34935498 # occ.  0.00000000
 
ion      s     py     pz     px    dxy    dyz    dz2    dxz  x2-y2    tot
    1  0.005  0.000  0.002  0.000  0.000  0.000  0.005  0.000  0.000  0.012
    2  0.001  0.000  0.003  0.000  0.000  0.000  0.001  0.000  0.000  0.005
    3  0.000  0.000  0.003  0.000  0.000  0.000  0.000  0.000  0.000  0.004
    4  0.002  0.000  0.002  0.000  0.000  0.000  0.003  0.000  0.000  0.007
    5  0.001  0.000  0.000  0.000  0.000  0.000  0.000  0.000  0.000  0.001
tot    0.009  0.000  0.011  0.000  0.000  0.000  0.009  0.000  0.000  0.029
 

 k-point     2 :    0.10000000 0.00000000 0.00000000     weight = 0.04000000

band     1 # energy  -11.30357956 # occ.  2.00000000
 
ion      s     py     pz     px    dxy    dyz    dz2    dxz  x2-y2    tot
    1  0.006  0.000  0.001  0.000  0.000  0.000  0.000  0.000  0.000  0.007
    2  0.040  0.000  0.002  0.001  0.000  0.000  0.000  0.000  0.000  0.043
    3  0.127  0.001  0.003  0.003  0.000  0.000  0.000  0.000  0.000  0.134
    4  0.296  0.002  0.000  0.008  0.000  0.000  0.008  0.000  0.000  0.315
    5  0.091  0.000  0.001  0.000  0.000  0.000  0.000  0.000  0.000  0.092
tot    0.561  0.004  0.006  0.012  0.001  0.000  0.008  0.001  0.000  0.592
 
band     2 # energy  -10.29381371 # occ.  2.00000000
 
ion      s     py     pz     px    dxy    dyz    dz2    dxz  x2-y2    tot
    1  0.111  0.001  0.010  0.002  0.000  0.000  0.000  0.001  0.000  0.126
    2  0.256  0.002  0.000  0.006  0.000  0.000  0.002  0.000  0.000  0.266
    3  0.053  0.000  0.017  0.001  0.000  0.000  0.000  0.001  0.000  0.073
    4  0.061  0.001  0.008  0.002  0.000  0.000  0.011  0.001  0.000  0.085
    5  0.040  0.000  0.000  0.000  0.000  0.000  0.000  0.000  0.000  0.040
tot    0.520  0.004  0.036  0.011  0.001  0.001  0.013  0.003  0.000  0.589
 
band     3 # energy   -8.72054534 # occ.  2.00000000
 
ion      s     py     pz     px    dxy    dyz    dz2    dxz  x2-y2    tot
    1  0.180  0.001  0.003  0.004  0.000  0.000  0.017  0.000  0.000  0.206
    2  0.005  0.000  0.045  0.000  0.000  0.002  0.001  0.005  0.000  0.057
    3  0.194  0.002  0.000  0.005  0.000  0.000  0.037  0.000  0.000  0.238
    4  0.006  0.000  0.032  0.000  0.000  0.002  0.026  0.006  0.000  0.073
    5  0.033  0.000  0.000  0.000  0.000  0.000  0.000  0.000  0.000  0.033
tot    0.418  0.003  0.079  0.010  0.001  0.003  0.081  0.011  0.000  0.607
 
band     4 # energy   -7.30102046 # occ.  2.00000000
 
ion      s     py     pz     px    dxy    dyz    dz2    dxz  x2-y2    tot
    1  0.105  0.001  0.004  0.004  0.001  0.000  0.133  0.000  0.000  0.249
    2  0.090  0.001  0.004  0.004  0.001  0.000  0.230  0.001  0.000  0.331
    3  0.026  0.000  0.015  0.001  0.000  0.001  0.088  0.003  0.000  0.134
    4  0.000  0.000  0.011  0.000  0.000  0.001  0.015  0.004  0.000  0.030
    5  0.005  0.000  0.000  0.000  0.000  0.000  0.000  0.000  0.000  0.005
tot    0.226  0.003  0.033  0.009  0.002  0.002  0.466  0.007  0.001  0.750
 
band     5 # energy   -6.13851560 # occ.  2.00000000
 
ion      s     py     pz     px    dxy    dyz    dz2    dxz  x2-y2    tot
    1  0.000  0.000  0.000  0.000  0.000  0.000  0.005  0.000  0.000  0.006
    2  0.001  0.000  0.000  0.000  0.001  0.000  0.001  0.000  0.000  0.005
    3  0.001  0.000  0.006  0.000  0.008  0.000  0.142  0.000  0.002  0.159
    4  0.008  0.000  0.037  0.001  0.045  0.024  0.382  0.087  0.024  0.608
    5  0.043  0.000  0.000  0.000  0.000  0.000  0.000  0.000  0.000  0.043
tot    0.053  0.000  0.044  0.001  0.054  0.024  0.531  0.087  0.026  0.820
 
band     6 # energy   -5.67266660 # occ.  2.00000000
 
ion      s     py     pz     px    dxy    dyz    dz2    dxz  x2-y2    tot
    1  0.001  0.000  0.001  0.000  0.000  0.000  0.026  0.000  0.000  0.027
    2  0.002  0.000  0.000  0.000  0.011  0.001  0.025  0.004  0.004  0.047
    3  0.000  0.000  0.011  0.000  0.024  0.004  0.194  0.009  0.009  0.250
    4  0.004  0.000  0.004  0.000  0.195  0.002  0.333  0.013  0.062  0.613
    5  0.000  0.000  0.000  0.000  0.000  0.000  0.000  0.000  0.000  0.001
tot    0.006  0.000  0.016  0.001  0.230  0.007  0.577  0.027  0.074  0.939
 
band     7 # energy   -5.58667739 # occ.  2.00000000
 
ion      s     py     pz     px    dxy    dyz    dz2    dxz  x2-y2    tot
    1  0.000  0.000  0.001  0.000  0.002  0.000  0.018  0.000  0.001  0.022
    2  0.001  0.000  0.000  0.000  0.045  0.001  0.047  0.003  0.016  0.114
    3  0.000  0.000  0.008  0.000  0.005  0.028  0.071  0.076  0.002  0.190
    4  0.001  0.000  0.011  0.000  0.366  0.006  0.026  0.021  0.170  0.603
    5  0.003  0.000  0.000  0.000  0.000  0.000  0.000  0.000  0.000  0.004
tot    0.006  0.000  0.021  0.001  0.419  0.035  0.162  0.100  0.189  0.932
 
band     8 # energy   -5.45257258 # occ.  2.00000000
 
ion      s     py     pz     px    dxy    dyz    dz2    dxz  x2-y2    tot
    1  0.000  0.000  0.000  0.000  0.000  0.000  0.002  0.001  0.000  0.003
    2  0.000  0.000  0.000  0.000  0.013  0.000  0.004  0.003  0.006  0.026
    3  0.000  0.000  0.000  0.000  0.004  0.030  0.014  0.013  0.002  0.064
    4  0.000  0.001  0.000  0.000  0.258  0.008  0.000  0.007  0.599  0.873
    5  0.000  0.001  0.000  0.000  0.000  0.000  0.000  0.000  0.000  0.001
tot    0.000  0.002  0.001  0.001  0.275  0.038  0.020  0.023  0.606  0.967
 
band     9 # energy   -5.38245638 # occ.  2.00000000
 
ion      s     py     pz     px    dxy    dyz    dz2    dxz  x2-y2    tot
    1  0.004  0.000  0.001  0.000  0.032  0.004  0.032  0.013  0.011  0.097
    2  0.002  0.000  0.009  0.000  0.018  0.022  0.238  0.069  0.007  0.365
    3  0.000  0.000  0.017  0.000  0.169  0.006  0.106  0.016  0.061  0.374
    4  0.002  0.000  0.003  0.000  0.010  0.008  0.020  0.033  0.009  0.086
    5  0.002  0.000  0.000  0.000  0.000  0.000  0.000  0.000  0.000  0.002
tot    0.009  0.000  0.030  0.000  0.229  0.041  0.396  0.130  0.089  0.924
 
band    10 # energy   -5.34784678 # occ.  2.00000000
 
ion      s     py     pz     px    dxy    dyz    dz2    dxz  x2-y2    tot
    1  0.002  0.000  0.001  0.000  0.012  0.002  0.076  0.004  0.004  0.101
    2  0.001  0.000  0.006  0.000  0.015  0.021  0.165  0.062  0.008  0.279
    3  0.001  0.000  0.011  0.001  0.243  0.006  0.076  0.013  0.072  0.422
    4  0.001  0.000  0.003  0.000  0.002  0.011  0.044  0.043  0.025  0.128
    5  0.002  0.000  0.000  0.000  0.000  0.000  0.000  0.000  0.000  0.002
tot    0.008  0.000  0.021  0.001  0.271  0.040  0.361  0.122  0.108  0.933
 
band    11 # energy   -5.27574541 # occ.  2.00000000
 
ion      s     py     pz     px    dxy    dyz    dz2    dxz  x2-y2    tot
    1  0.001  0.000  0.000  0.000  0.017  0.006  0.021  0.017  0.006  0.069
    2  0.001  0.000  0.000  0.001  0.500  0.000  0.017  0.000  0.170  0.689
    3  0.000  0.000  0.002  0.000  0.017  0.002  0.068  0.006  0.006  0.102
    4  0.001  0.000  0.002  0.000  0.038  0.006  0.019  0.019  0.012  0.096
    5  0.000  0.000  0.000  0.000  0.000  0.000  0.000  0.000  0.000  0.001
tot    0.003  0.000  0.005  0.001  0.572  0.014  0.125  0.043  0.193  0.956
 
band    12 # energy   -5.20394395 # occ.  2.00000000
 
ion      s     py     pz     px    dxy    dyz    dz2    dxz  x2-y2    tot
    1  0.000  0.000  0.000  0.000  0.002  0.003  0.001  0.000  0.010  0.016
    2  0.000  0.000  0.000  0.000  0.001  0.054  0.001  0.016  0.003  0.074
    3  0.000  0.000  0.000  0.000  0.158  0.026  0.000  0.008  0.518  0.710
    4  0.000  0.000  0.000  0.000  0.001  0.126  0.000  0.037  0.002  0.167
    5  0.000  0.000  0.000  0.000  0.000  0.000  0.000  0.000  0.000  0.000
tot    0.000  0.001  0.000  0.000  0.163  0.209  0.002  0.061  0.532  0.968
 
band    13 # energy   -5.12566278 # occ.  2.00000000
 
ion      s     py     pz     px    dxy    dyz    dz2    dxz  x2-y2    tot
    1  0.000  0.000  0.000  0.000  0.002  0.023  0.006  0.008  0.004  0.043
    2  0.000  0.001  0.000  0.000  0.213  0.007  0.001  0.002  0.595  0.820
    3  0.000  0.000  0.000  0.000  0.009  0.041  0.000  0.016  0.011  0.077
    4  0.000  0.000  0.000  0.000  0.007  0.001  0.000  0.001  0.017  0.027
    5  0.000  0.000  0.000  0.000  0.000  0.000  0.000  0.000  0.000  0.000
tot    0.000  0.001  0.001  0.000  0.232  0.073  0.008  0.027  0.627  0.967
 
band    14 # energy   -5.11165414 # occ.  2.00000000
 
ion      s     py     pz     px    dxy    dyz    dz2    dxz  x2-y2    tot
    1  0.003  0.000  0.003  0.000  0.015  0.003  0.382  0.009  0.007  0.422
    2  0.000  0.000  0.020  0.000  0.021  0.011  0.077  0.028  0.025  0.182
    3  0.000  0.000  0.010  0.000  0.171  0.015  0.002  0.045  0.050  0.294
    4  0.002  0.000  0.007  0.000  0.001  0.001  0.001  0.001  0.006  0.018
    5  0.003  0.000  0.000  0.000  0.000  0.000  0.000  0.000  0.000  0.003
tot    0.009  0.000  0.040  0.000  0.209  0.029  0.461  0.084  0.088  0.919
 
band    15 # energy   -4.99108774 # occ.  2.00000000
 
ion      s     py     pz     px    dxy    dyz    dz2    dxz  x2-y2    tot
    1  0.001  0.000  0.000  0.001  0.567  0.001  0.032  0.004  0.184  0.792
    2  0.000  0.000  0.006  0.000  0.004  0.004  0.014  0.015  0.001  0.044
    3  0.001  0.000  0.003  0.000  0.010  0.014  0.028  0.042  0.005  0.102
    4  0.000  0.000  0.000  0.000  0.005  0.001  0.000  0.007  0.003  0.018
    5  0.000  0.000  0.000  0.000  0.000  0.000  0.000  0.000  0.000  0.000
tot    0.003  0.000  0.010  0.001  0.587  0.020  0.074  0.068  0.193  0.956
 
band    16 # energy   -4.88091415 # occ.  2.00000000
 
ion      s     py     pz     px    dxy    dyz    dz2    dxz  x2-y2    tot
    1  0.000  0.001  0.000  0.000  0.171  0.011  0.000  0.004  0.530  0.716
    2  0.000  0.000  0.000  0.000  0.001  0.105  0.000  0.037  0.002  0.145
    3  0.000  0.000  0.000  0.000  0.006  0.013  0.000  0.004  0.022  0.045
    4  0.000  0.000  0.000  0.000  0.001  0.047  0.000  0.015  0.002  0.064
    5  0.000  0.000  0.000  0.000  0.000  0.000  0.000  0.000  0.000  0.000
tot    0.000  0.001  0.000  0.000  0.178  0.177  0.000  0.059  0.556  0.970
 
band    17 # energy   -4.74840788 # occ.  2.00000000
 
ion      s     py     pz     px    dxy    dyz    dz2    dxz  x2-y2    tot
    1  0.000  0.000  0.000  0.000  0.022  0.004  0.000  0.002  0.063  0.093
    2  0.000  0.000  0.000  0.000  0.005  0.006  0.000  0.005  0.027  0.043
    3  0.000  0.000  0.000  0.000  0.045  0.073  0.001  0.017  0.130  0.266
    4  0.000  0.000  0.000  0.000  0.006  0.400  0.000  0.155  0.017  0.579
    5  0.000  0.000  0.000  0.000  0.000  0.000  0.000  0.000  0.000  0.000
tot    0.000  0.000  0.000  0.000  0.079  0.484  0.001  0.179  0.238  0.981
 
band    18 # energy   -4.69785631 # occ.  2.00000000
 
ion      s     py     pz     px    dxy    dyz    dz2    dxz  x2-y2    tot
    1  0.000  0.000  0.000  0.000  0.033  0.007  0.003  0.017  0.008  0.069
    2  0.000  0.000  0.000  0.000  0.039  0.012  0.005  0.032  0.008  0.097
    3  0.002  0.000  0.000  0.000  0.061  0.059  0.020  0.230  0.020  0.392
    4  0.000  0.000  0.005  0.000  0.015  0.115  0.005  0.261  0.003  0.404
    5  0.004  0.000  0.000  0.000  0.000  0.000  0.000  0.000  0.000  0.004
tot    0.006  0.000  0.006  0.000  0.147  0.192  0.034  0.540  0.038  0.966
 
band    19 # energy   -4.48701457 # occ.  2.00000000
 
ion      s     py     pz     px    dxy    dyz    dz2    dxz  x2-y2    tot
    1  0.000  0.000  0.000  0.000  0.029  0.050  0.000  0.012  0.112  0.203
    2  0.000  0.000  0.000  0.000  0.012  0.286  0.000  0.065  0.053  0.415
    3  0.000  0.000  0.000  0.000  0.012  0.165  0.000  0.039  0.042  0.258
    4  0.000  0.000  0.000  0.000  0.001  0.071  0.000  0.028  0.006  0.108
    5  0.000  0.000  0.000  0.000  0.000  0.000  0.000  0.000  0.000  0.000
tot    0.000  0.000  0.000  0.000  0.054  0.573  0.000  0.144  0.213  0.984
 
band    20 # energy   -4.45061645 # occ.  2.00000000
 
ion      s     py     pz     px    dxy    dyz    dz2    dxz  x2-y2    tot
    1  0.000  0.000  0.004  0.000  0.039  0.087  0.002  0.300  0.007  0.439
    2  0.000  0.000  0.004  0.000  0.042  0.039  0.000  0.195  0.010  0.291
    3  0.003  0.000  0.001  0.000  0.009  0.012  0.025  0.054  0.002  0.107
    4  0.000  0.000  0.003  0.000  0.002  0.035  0.000  0.080  0.000  0.120
    5  0.002  0.000  0.000  0.000  0.000  0.000  0.000  0.000  0.000  0.002
tot    0.006  0.000  0.012  0.000  0.092  0.173  0.027  0.630  0.019  0.959
 
band    21 # energy   -4.28379012 # occ.  2.00000000
 
ion      s     py     pz     px    dxy    dyz    dz2    dxz  x2-y2    tot
    1  0.011  0.000  0.014  0.000  0.015  0.121  0.084  0.218  0.003  0.467
    2  0.001  0.000  0.001  0.000  0.010  0.057  0.002  0.263  0.003  0.339
    3  0.001  0.000  0.003  0.000  0.005  0.006  0.008  0.007  0.001  0.032
    4  0.000  0.000  0.005  0.000  0.000  0.012  0.000  0.044  0.000  0.062
    5  0.002  0.000  0.000  0.000  0.000  0.000  0.000  0.000  0.000  0.002
tot    0.016  0.000  0.023  0.001  0.031  0.197  0.095  0.533  0.007  0.903
 
band    22 # energy   -4.25556626 # occ.  2.00000000
 
ion      s     py     pz     px    dxy    dyz    dz2    dxz  x2-y2    tot
    1  0.000  0.000  0.000  0.000  0.002  0.204  0.001  0.107  0.013  0.328
    2  0.000  0.000  0.000  0.000  0.004  0.103  0.000  0.010  0.013  0.130
    3  0.000  0.000  0.000  0.000  0.001  0.327  0.000  0.108  0.006  0.442
    4  0.000  0.000  0.000  0.000  0.002  0.062  0.000  0.015  0.006  0.085
    5  0.000  0.000  0.000  0.000  0.000  0.000  0.000  0.000  0.000  0.000
tot    0.000  0.000  0.000  0.000  0.009  0.695  0.002  0.240  0.038  0.985
 
band    23 # energy   -3.97787612 # occ.  2.00000000
 
ion      s     py     pz     px    dxy    dyz    dz2    dxz  x2-y2    tot
    1  0.000  0.000  0.000  0.000  0.002  0.415  0.000  0.139  0.007  0.563
    2  0.000  0.000  0.000  0.000  0.005  0.220  0.000  0.071  0.016  0.313
    3  0.000  0.000  0.000  0.000  0.002  0.073  0.000  0.024  0.006  0.104