<?xml version="1.0" encoding="ISO-8859-1"?>
<modeling>
 <generator>
  <i name="program" type="string">vasp </i>
  <i name="version" type="string">5.4.4.18Apr17-6-g9f103f2a35  </i>
  <i name="subversion" type="string">(build Jun 30 2017 11:15:00) complex            parallel </i>
  <i name="platform" type="string">STALLO_VASP_5.4.4 </i>
  <i name="date" type="string">2019 10 11 </i>
  <i name="time" type="string">10:25:29 </i>
 </generator>
 <incar>
  <i type="string" name="PREC">normal    ! low/normal/accurate</i>
  <i type="string" name="ALGO"> Fast      ! Algorithm for electronic re</i>
  <i type="int" name="ISPIN">     1</i>
  <i type="int" name="NELMIN">     4</i>
  <i name="EDIFF">      0.00000100</i>
  <i type="int" name="NSW">     0</i>
  <i name="ENCUT">    250.00000000</i>
  <i type="int" name="NEDOS">  2401</i>
  <i type="string" name="LREAL"> Auto      ! Projection in reciprocal sp</i>
  <i name="EMIN">    -17.00000000</i>
  <i name="EMAX">      7.00000000</i>
  <i type="int" name="ISMEAR">     0</i>
  <i name="SIGMA">      0.10000000</i>
  <i type="logical" name="LWAVE"> F  </i>
  <i type="int" name="LORBIT">    11</i>
  <i type="logical" name="LELF"> T  </i>
  <v type="int" name="KPOINT_BSE">    -1     0     0     0</v>
 </incar>
 <structure name="primitive_cell" >
  <crystal>
   <varray name="basis" >
    <v>       2.57386868       0.00000000       0.00000000 </v>
    <v>       1.28693434       2.22903567       0.00000000 </v>
    <v>       0.00000000       0.00000000      30.30466494 </v>
   </varray>
   <i name="volume">    173.86529028 </i>
   <varray name="rec_basis" >
    <v>       0.38852021      -0.22431225       0.00000000 </v>
    <v>       0.00000000       0.44862450       0.00000000 </v>
    <v>       0.00000000       0.00000000       0.03299822 </v>
   </varray>
  </crystal>
  <varray name="positions" >
   <v>       0.00000000       0.00000000       0.39597864 </v>
   <v>       0.33333333       0.33333333       0.46532621 </v>
   <v>      -0.33333334      -0.33333333      -0.46532621 </v>
   <v>       0.00000000       0.00000000      -0.39597864 </v>
   <v>       0.35576456       0.28847088      -0.36298042 </v>
  </varray>
 </structure>
 <varray name="primitive_index" >
  <v type="int" >        1 </v>
  <v type="int" >        2 </v>
  <v type="int" >        3 </v>
  <v type="int" >        4 </v>
  <v type="int" >        5 </v>
 </varray>
 <kpoints>
  <generation param="Gamma">
   <v type="int" name="divisions">      10       10        1 </v>
   <v name="usershift">      0.00000000       0.00000000       0.00000000 </v>
   <v name="genvec1">      0.10000000       0.00000000       0.00000000 </v>
   <v name="genvec2">      0.00000000       0.10000000       0.00000000 </v>
   <v name="genvec3">      0.00000000       0.00000000       1.00000000 </v>
   <v name="shift">      0.00000000       0.00000000       0.00000000 </v>
  </generation>
  <varray name="kpointlist" >
   <v>       0.00000000       0.00000000       0.00000000 </v>
   <v>       0.10000000       0.00000000       0.00000000 </v>
   <v>       0.20000000      -0.00000000       0.00000000 </v>
   <v>       0.30000000      -0.00000000       0.00000000 </v>
   <v>       0.40000000      -0.00000000       0.00000000 </v>
   <v>       0.50000000      -0.00000000       0.00000000 </v>
   <v>       0.00000000       0.10000000       0.00000000 </v>
   <v>       0.20000000       0.10000000       0.00000000 </v>
   <v>       0.30000000       0.10000000       0.00000000 </v>
   <v>       0.40000000       0.10000000       0.00000000 </v>
   <v>       0.50000000       0.10000000       0.00000000 </v>
   <v>      -0.40000000       0.10000000       0.00000000 </v>
   <v>      -0.30000000       0.10000000       0.00000000 </v>
   <v>      -0.20000000       0.10000000       0.00000000 </v>
   <v>      -0.10000000       0.10000000       0.00000000 </v>
   <v>       0.00000000       0.20000000       0.00000000 </v>
   <v>       0.40000000       0.20000000       0.00000000 </v>
   <v>       0.50000000       0.20000000       0.00000000 </v>
   <v>      -0.40000000       0.20000000       0.00000000 </v>
   <v>      -0.30000000       0.20000000       0.00000000 </v>
   <v>      -0.20000000       0.20000000       0.00000000 </v>
   <v>      -0.10000000       0.20000000       0.00000000 </v>
   <v>       0.00000000       0.30000000       0.00000000 </v>
   <v>      -0.40000000       0.30000000       0.00000000 </v>
   <v>      -0.30000000       0.30000000       0.00000000 </v>
   <v>      -0.20000000       0.30000000       0.00000000 </v>
   <v>      -0.10000000       0.30000000       0.00000000 </v>
   <v>       0.00000000       0.40000000       0.00000000 </v>
   <v>      -0.20000000       0.40000000       0.00000000 </v>
   <v>      -0.10000000       0.40000000       0.00000000 </v>
   <v>       0.00000000       0.50000000       0.00000000 </v>
  </varray>
  <varray name="weights" >
   <v>       0.01000000 </v>
   <v>       0.04000000 </v>
   <v>       0.04000000 </v>
   <v>       0.04000000 </v>
   <v>       0.04000000 </v>
   <v>       0.02000000 </v>
   <v>       0.02000000 </v>
   <v>       0.02000000 </v>
   <v>       0.04000000 </v>
   <v>       0.04000000 </v>
   <v>       0.04000000 </v>
   <v>       0.04000000 </v>
   <v>       0.04000000 </v>
   <v>       0.04000000 </v>
   <v>       0.04000000 </v>
   <v>       0.02000000 </v>
   <v>       0.02000000 </v>
   <v>       0.04000000 </v>
   <v>       0.04000000 </v>
   <v>       0.04000000 </v>
   <v>       0.04000000 </v>
   <v>       0.04000000 </v>
   <v>       0.02000000 </v>
   <v>       0.02000000 </v>
   <v>       0.04000000 </v>
   <v>       0.04000000 </v>
   <v>       0.04000000 </v>
   <v>       0.02000000 </v>
   <v>       0.02000000 </v>
   <v>       0.04000000 </v>
   <v>       0.01000000 </v>
  </varray>
 </kpoints>
 <parameters>
  <separator name="general" >
   <i type="string" name="SYSTEM">unknown system</i>
   <i type="logical" name="LCOMPAT"> F  </i>
  </separator>
  <separator name="electronic" >
   <i type="string" name="PREC">normal</i>
   <i name="ENMAX">    250.00000000</i>
   <i name="ENAUG">    516.45600000</i>
   <i name="EDIFF">      0.00000100</i>
   <i type="int" name="IALGO">    68</i>
   <i type="int" name="IWAVPR">    10</i>
   <i type="int" name="NBANDS">    28</i>
   <i name="NELECT">     45.00000000</i>
   <i type="int" name="TURBO">     0</i>
   <i type="int" name="IRESTART">     0</i>
   <i type="int" name="NREBOOT">     0</i>
   <i type="int" name="NMIN">     0</i>
   <i name="EREF">      0.00000000</i>
   <separator name="electronic smearing" >
    <i type="int" name="ISMEAR">     0</i>
    <i name="SIGMA">      0.10000000</i>
    <i name="KSPACING">      0.50000000</i>
    <i type="logical" name="KGAMMA"> T  </i>
   </separator>
   <separator name="electronic projectors" >
    <i type="logical" name="LREAL"> T  </i>
    <v name="ROPT">     -0.00050000     -0.00050000</v>
    <i type="int" name="LMAXPAW">  -100</i>
    <i type="int" name="LMAXMIX">     2</i>
    <i type="logical" name="NLSPLINE"> F  </i>
   </separator>
   <separator name="electronic startup" >
    <i type="int" name="ISTART">     0</i>
    <i type="int" name="ICHARG">     2</i>
    <i type="int" name="INIWAV">     1</i>
   </separator>
   <separator name="electronic spin" >
    <i type="int" name="ISPIN">     1</i>
    <i type="logical" name="LNONCOLLINEAR"> F  </i>
    <v name="MAGMOM">      1.00000000      1.00000000      1.00000000      1.00000000      1.00000000</v>
    <i name="NUPDOWN">     -1.00000000</i>
    <i type="logical" name="LSORBIT"> F  </i>
    <v name="SAXIS">      0.00000000      0.00000000      1.00000000</v>
    <i type="logical" name="LSPIRAL"> F  </i>
    <v name="QSPIRAL">      0.00000000      0.00000000      0.00000000</v>
    <i type="logical" name="LZEROZ"> F  </i>
   </separator>
   <separator name="electronic exchange-correlation" >
    <i type="logical" name="LASPH"> F  </i>
    <i type="logical" name="LMETAGGA"> F  </i>
   </separator>
   <separator name="electronic convergence" >
    <i type="int" name="NELM">    60</i>
    <i type="int" name="NELMDL">    -5</i>
    <i type="int" name="NELMIN">     4</i>
    <i name="ENINI">    250.00000000</i>
    <separator name="electronic convergence detail" >
     <i type="logical" name="LDIAG"> T  </i>
     <i type="logical" name="LSUBROT"> F  </i>
     <i name="WEIMIN">      0.00000000</i>
     <i name="EBREAK">      0.00000001</i>
     <i name="DEPER">      0.30000000</i>
     <i type="int" name="NRMM">     4</i>
     <i name="TIME">      0.40000000</i>
    </separator>
   </separator>
   <separator name="electronic mixer" >
    <i name="AMIX">      0.40000000</i>
    <i name="BMIX">      1.00000000</i>
    <i name="AMIN">      0.10000000</i>
    <i name="AMIX_MAG">      1.60000000</i>
    <i name="BMIX_MAG">      1.00000000</i>
    <separator name="electronic mixer details" >
     <i type="int" name="IMIX">     4</i>
     <i type="logical" name="MIXFIRST"> F  </i>
     <i type="int" name="MAXMIX">   -45</i>
     <i name="WC">    100.00000000</i>
     <i type="int" name="INIMIX">     1</i>
     <i type="int" name="MIXPRE">     1</i>
     <i type="int" name="MREMOVE">     5</i>
    </separator>
   </separator>
   <separator name="electronic dipolcorrection" >
    <i type="logical" name="LDIPOL"> F  </i>
    <i type="logical" name="LMONO"> F  </i>
    <i type="int" name="IDIPOL">     0</i>
    <i name="EPSILON">      1.00000000</i>
    <v name="DIPOL">   -100.00000000   -100.00000000   -100.00000000</v>
    <i name="EFIELD">      0.00000000</i>
   </separator>
  </separator>
  <separator name="grids" >
   <i type="int" name="NGX">    10</i>
   <i type="int" name="NGY">    10</i>
   <i type="int" name="NGZ">   120</i>
   <i type="int" name="NGXF">    20</i>
   <i type="int" name="NGYF">    20</i>
   <i type="int" name="NGZF">   240</i>
   <i type="logical" name="ADDGRID"> F  </i>
  </separator>
  <separator name="ionic" >
   <i type="int" name="NSW">     0</i>
   <i type="int" name="IBRION">    -1</i>
   <i type="int" name="MDALGO">     0</i>
   <i type="int" name="ISIF">     2</i>
   <i name="PSTRESS">      0.00000000</i>
   <i name="EDIFFG">      0.00001000</i>
   <i type="int" name="NFREE">     0</i>
   <i name="POTIM">      0.50000000</i>
   <i name="SMASS">     -3.00000000</i>
   <i name="SCALEE">      1.00000000</i>
  </separator>
  <separator name="ionic md" >
   <i name="TEBEG">      0.00010000</i>
   <i name="TEEND">      0.00010000</i>
   <i type="int" name="NBLOCK">     1</i>
   <i type="int" name="KBLOCK">     1</i>
   <i type="int" name="NPACO">   256</i>
   <i name="APACO">     16.00000000</i>
  </separator>
  <separator name="symmetry" >
   <i type="int" name="ISYM">     2</i>
   <i name="SYMPREC">      0.00001000</i>
  </separator>
  <separator name="dos" >
   <i type="int" name="LORBIT">    11</i>
   <v name="RWIGS">     -1.00000000     -1.00000000</v>
   <i type="int" name="NEDOS">  2401</i>
   <i name="EMIN">    -17.00000000</i>
   <i name="EMAX">      7.00000000</i>
   <i name="EFERMI">      0.00000000</i>
  </separator>
  <separator name="writing" >
   <i type="int" name="NWRITE">     2</i>
   <i type="logical" name="LWAVE"> F  </i>
   <i type="logical" name="LDOWNSAMPLE"> F  </i>
   <i type="logical" name="LCHARG"> T  </i>
   <i type="logical" name="LPARD"> F  </i>
   <i type="logical" name="LVTOT"> F  </i>
   <i type="logical" name="LVHAR"> F  </i>
   <i type="logical" name="LELF"> T  </i>
   <i type="logical" name="LOPTICS"> F  </i>
   <v name="STM">      0.00000000      0.00000000      0.00000000      0.00000000      0.00000000      0.00000000      0.00000000</v>
  </separator>
  <separator name="performance" >
   <i type="int" name="NPAR">     2</i>
   <i type="int" name="NSIM">     4</i>
   <i type="int" name="NBLK">    -1</i>
   <i type="logical" name="LPLANE"> T  </i>
   <i type="logical" name="LSCALAPACK"> T  </i>
   <i type="logical" name="LSCAAWARE"> F  </i>
   <i type="logical" name="LSCALU"> F  </i>
   <i type="logical" name="LASYNC"> F  </i>
   <i type="logical" name="LORBITALREAL"> F  </i>
  </separator>
  <separator name="miscellaneous" >
   <i type="int" name="IDIOT">     3</i>
   <i type="int" name="ISPECIAL">     0</i>
   <i type="logical" name="LMUSIC"> F  </i>
   <v name="POMASS">     63.54600000      1.00000000</v>
   <v name="DARWINR">      0.00000000      0.00000000</v>
   <v name="DARWINV">      1.00000000      1.00000000</v>
   <i type="logical" name="LCORR"> T  </i>
  </separator>
  <i type="logical" name="GGA_COMPAT"> T  </i>
  <i type="logical" name="LBERRY"> F  </i>
  <i type="int" name="ICORELEVEL">     0</i>
  <i type="logical" name="LDAU"> F  </i>
  <i type="int" name="I_CONSTRAINED_M">     0</i>
  <separator name="electronic exchange-correlation" >
   <i type="string" name="GGA">--</i>
   <i type="int" name="VOSKOWN">     0</i>
   <i type="logical" name="LHFCALC"> F  </i>
   <i type="string" name="PRECFOCK"></i>
   <i type="logical" name="LSYMGRAD"> F  </i>
   <i type="logical" name="LHFONE"> F  </i>
   <i type="logical" name="LRHFCALC"> F  </i>
   <i type="logical" name="LTHOMAS"> F  </i>
   <i type="logical" name="LMODELHF"> F  </i>
   <i name="ENCUT4O">     -1.00000000</i>
   <i type="int" name="EXXOEP">     0</i>
   <i type="int" name="FOURORBIT">     0</i>
   <i name="AEXX">      0.00000000</i>
   <i name="HFALPHA">      0.00000000</i>
   <i name="MCALPHA">      0.00000000</i>
   <i name="ALDAX">      1.00000000</i>
   <i name="AGGAX">      1.00000000</i>
   <i name="ALDAC">      1.00000000</i>
   <i name="AGGAC">      1.00000000</i>
   <i type="int" name="NKREDX">     1</i>
   <i type="int" name="NKREDY">     1</i>
   <i type="int" name="NKREDZ">     1</i>
   <i type="logical" name="SHIFTRED"> F  </i>
   <i type="logical" name="ODDONLY"> F  </i>
   <i type="logical" name="EVENONLY"> F  </i>
   <i type="int" name="LMAXFOCK">     0</i>
   <i type="int" name="NMAXFOCKAE">     0</i>
   <i type="logical" name="LFOCKAEDFT"> F  </i>
   <i name="HFSCREEN">      0.00000000</i>
   <i name="HFSCREENC">      0.00000000</i>
   <i type="int" name="NBANDSGWLOW">     0</i>
  </separator>
  <separator name="vdW DFT" >
   <i type="logical" name="LUSE_VDW"> F  </i>
   <i name="Zab_VDW">     -0.84910000</i>
   <i name="PARAM1">      0.12340000</i>
   <i name="PARAM2">      1.00000000</i>
   <i name="PARAM3">      0.00000000</i>
  </separator>
  <separator name="model GW" >
   <i type="int" name="MODEL_GW">     0</i>
   <i name="MODEL_EPS0">     20.86383483</i>
   <i name="MODEL_ALPHA">      1.00000000</i>
  </separator>
  <separator name="linear response parameters" >
   <i type="logical" name="LEPSILON"> F  </i>
   <i type="logical" name="LRPA"> F  </i>
   <i type="logical" name="LNABLA"> F  </i>
   <i type="logical" name="LVEL"> F  </i>
   <i type="int" name="KINTER">     0</i>
   <i name="CSHIFT">      0.10000000</i>
   <i name="OMEGAMAX">     -1.00000000</i>
   <i name="DEG_THRESHOLD">      0.00200000</i>
   <i name="RTIME">     -0.10000000</i>
   <i name="WPLASMAI">      0.00000000</i>
   <v name="DFIELD">      0.00000000      0.00000000      0.00000000</v>
   <v name="WPLASMA">      0.00000000      0.00000000      0.00000000      0.00000000      0.00000000      0.00000000      0.00000000      0.00000000      0.00000000</v>
  </separator>
  <separator name="orbital magnetization" >
   <i type="logical" name="NUCIND"> F  </i>
   <v name="MAGPOS">      0.00000000      0.00000000      0.00000000</v>
   <i type="logical" name="LNICSALL"> T  </i>
   <i type="logical" name="ORBITALMAG"> F  </i>
   <i type="logical" name="LMAGBLOCH"> F  </i>
   <i type="logical" name="LCHIMAG"> F  </i>
   <i type="logical" name="LGAUGE"> T  </i>
   <i type="int" name="MAGATOM">     0</i>
   <v name="MAGDIPOL">      0.00000000      0.00000000      0.00000000</v>
   <v name="AVECCONST">      0.00000000      0.00000000      0.00000000</v>
  </separator>
  <separator name="response functions" >
   <i type="logical" name="LADDER"> F  </i>
   <i type="logical" name="LRPAFORCE"> F  </i>
   <i type="logical" name="LFXC"> F  </i>
   <i type="logical" name="LHARTREE"> T  </i>
   <i type="int" name="IBSE">     0</i>
   <v type="int" name="KPOINT">    -1     0     0     0</v>
   <i type="logical" name="LTCTE"> F  </i>
   <i type="logical" name="LTETE"> F  </i>
   <i type="logical" name="LTRIPLET"> F  </i>
   <i type="logical" name="LFXCEPS"> F  </i>
   <i type="logical" name="LFXHEG"> F  </i>
   <i type="int" name="NATURALO">     2</i>
   <i type="logical" name="L2ORDER"> F  </i>
   <i type="logical" name="LMP2LT"> F  </i>
   <i type="logical" name="LUSEW"> F  </i>
   <i name="ENCUTGW">     -2.00000000</i>
   <i name="ENCUTGWSOFT">     -2.00000000</i>
   <i name="ENCUTLF">     -1.00000000</i>
   <i type="int" name="LMAXMP2">    -1</i>
   <i name="SCISSOR">      0.00000000</i>
   <i type="int" name="NOMEGA">     0</i>
   <i type="int" name="NOMEGAR">     0</i>
   <i type="int" name="NBANDSGW">    -1</i>
   <i type="int" name="NBANDSO">    -1</i>
   <i type="int" name="NBANDSV">    -1</i>
   <i type="int" name="NELM">     1</i>
   <i type="int" name="NELMHF">     1</i>
   <i type="int" name="DIM">     3</i>
   <i type="int" name="ANTIRES">     0</i>
   <i name="OMEGAMAX">    -30.00000000</i>
   <i name="OMEGAMIN">    -30.00000000</i>
   <i name="OMEGATL">   -200.00000000</i>
   <i type="int" name="OMEGAGRID">   140</i>
   <i name="CSHIFT">     -0.10000000</i>
   <i type="logical" name="SELFENERGY"> F  </i>
   <i type="logical" name="LSPECTRAL"> F  </i>
   <i type="logical" name="LSPECTRALGW"> F  </i>
   <i type="logical" name="LSINGLES"> F  </i>
   <i type="logical" name="LFERMIGW"> F  </i>
   <i type="logical" name="ODDONLYGW"> F  </i>
   <i type="logical" name="EVENONLYGW"> F  </i>
   <i type="int" name="NKREDLFX">     1</i>
   <i type="int" name="NKREDLFY">     1</i>
   <i type="int" name="NKREDLFZ">     1</i>
   <i type="int" name="MAXMEM">  2800</i>
   <i type="int" name="TELESCOPE">     0</i>
   <i type="int" name="TAUPAR">     1</i>
   <i type="int" name="OMEGAPAR">    -1</i>
   <i name="LAMBDA">      1.00000000</i>
  </separator>
  <separator name="External order field" >
   <i name="OFIELD_KAPPA">      0.00000000</i>
   <v name="OFIELD_K">      0.00000000      0.00000000      0.00000000</v>
   <i name="OFIELD_Q6_NEAR">      0.00000000</i>
   <i name="OFIELD_Q6_FAR">      0.00000000</i>
   <i name="OFIELD_A">      0.00000000</i>
  </separator>
 </parameters>
 <atominfo>
  <atoms>       5 </atoms>
  <types>       2 </types>
  <array name="atoms" >
   <dimension dim="1">ion</dimension>
   <field type="string">element</field>
   <field type="int">atomtype</field>
   <set>
    <rc><c>Cu</c><c>   1</c></rc>
    <rc><c>Cu</c><c>   1</c></rc>
    <rc><c>Cu</c><c>   1</c></rc>
    <rc><c>Cu</c><c>   1</c></rc>
    <rc><c>H </c><c>   2</c></rc>
   </set>
  </array>
  <array name="atomtypes" >
   <dimension dim="1">type</dimension>
   <field type="int">atomspertype</field>
   <field type="string">element</field>
   <field>mass</field>
   <field>valence</field>
   <field type="string">pseudopotential</field>
   <set>
    <rc><c>   4</c><c>Cu</c><c>     63.54600000</c><c>     11.00000000</c><c> PAW_PBE Cu 05Jan2001                   </c></rc>
    <rc><c>   1</c><c>H </c><c>      1.00000000</c><c>      1.00000000</c><c> PAW_PBE H 15Jun2001                    </c></rc>
   </set>
  </array>
 </atominfo>
 <structure name="initialpos" >
  <crystal>
   <varray name="basis" >
    <v>       2.57386868       0.00000000       0.00000000 </v>
    <v>       1.28693434       2.22903567       0.00000000 </v>
    <v>       0.00000000       0.00000000      30.30466494 </v>
   </varray>
   <i name="volume">    173.86529028 </i>
   <varray name="rec_basis" >
    <v>       0.38852021      -0.22431225       0.00000000 </v>
    <v>       0.00000000       0.44862450       0.00000000 </v>
    <v>       0.00000000       0.00000000       0.03299822 </v>
   </varray>
  </crystal>
  <varray name="positions" >
   <v>       0.00000000       0.00000000       0.39597864 </v>
   <v>       0.33333333       0.33333333       0.46532621 </v>
   <v>       0.66666666       0.66666667       0.53467379 </v>
   <v>       0.00000000       0.00000000       0.60402136 </v>
   <v>       0.35576456       0.28847088       0.63701958 </v>
  </varray>
 </structure>
 <calculation>
  <scstep>
   <time name="dav">    0.64    0.64</time>
   <time name="total">    0.67    1.36</time>
   <energy>
    <i name="alphaZ">    120.87645803 </i>
    <i name="ewald">  38004.96181781 </i>
    <i name="hartreedc"> -43126.68981373 </i>
    <i name="XCdc">    177.39015515 </i>
    <i name="pawpsdc">   4328.99049516 </i>
    <i name="pawaedc">  -4905.09836044 </i>
    <i name="eentropy">     -0.01222876 </i>
    <i name="bandstr">     19.61546589 </i>
    <i name="atom">   5575.94961827 </i>
    <i name="e_fr_energy">    195.98360738 </i>
    <i name="e_wo_entrp">    195.99583614 </i>
    <i name="e_0_energy">    195.98972176 </i>
   </energy>
  </scstep>
  <scstep>
   <time name="dav">    0.64    0.64</time>
   <time name="total">    0.64    0.65</time>
   <energy>
    <i name="e_fr_energy">    -10.89263398 </i>
    <i name="e_wo_entrp">    -10.87454436 </i>
    <i name="e_0_energy">    -10.88358917 </i>
   </energy>
  </scstep>
  <scstep>
   <time name="dav">    0.66    0.67</time>
   <time name="total">    0.67    0.67</time>
   <energy>
    <i name="e_fr_energy">    -20.97920910 </i>
    <i name="e_wo_entrp">    -20.96758625 </i>
    <i name="e_0_energy">    -20.97339768 </i>
   </energy>
  </scstep>
  <scstep>
   <time name="dav">    0.66    0.66</time>
   <time name="total">    0.67    0.67</time>
   <energy>
    <i name="e_fr_energy">    -21.10062984 </i>
    <i name="e_wo_entrp">    -21.08923841 </i>
    <i name="e_0_energy">    -21.09493412 </i>
   </energy>
  </scstep>
  <scstep>
   <time name="dav">    0.69    0.69</time>
   <time name="total">    0.74    0.74</time>
   <energy>
    <i name="e_fr_energy">    -21.10192451 </i>
    <i name="e_wo_entrp">    -21.09053267 </i>
    <i name="e_0_energy">    -21.09622859 </i>
   </energy>
  </scstep>
  <scstep>
   <time name="diag">    0.12    0.12</time>
   <time name="diis">    0.37    0.37</time>
   <time name="orth">    0.01    0.02</time>
   <time name="total">    0.57    0.57</time>
   <energy>
    <i name="e_fr_energy">    -19.05328235 </i>
    <i name="e_wo_entrp">    -19.04093995 </i>
    <i name="e_0_energy">    -19.04711115 </i>
   </energy>
  </scstep>
  <scstep>
   <time name="diag">    0.12    0.12</time>
   <time name="diis">    0.38    0.38</time>
   <time name="orth">    0.01    0.01</time>
   <time name="total">    0.57    0.58</time>
   <energy>
    <i name="e_fr_energy">    -17.31623733 </i>
    <i name="e_wo_entrp">    -17.30432005 </i>
    <i name="e_0_energy">    -17.31027869 </i>
   </energy>
  </scstep>
  <scstep>
   <time name="diag">    0.12    0.12</time>
   <time name="diis">    0.38    0.38</time>
   <time name="orth">    0.01    0.02</time>
   <time name="total">    0.58    0.58</time>
   <energy>
    <i name="e_fr_energy">    -17.28956024 </i>
    <i name="e_wo_entrp">    -17.27022403 </i>
    <i name="e_0_energy">    -17.27989214 </i>
   </energy>
  </scstep>
  <scstep>
   <time name="diag">    0.12    0.12</time>
   <time name="diis">    0.38    0.38</time>
   <time name="orth">    0.01    0.02</time>
   <time name="total">    0.57    0.58</time>
   <energy>
    <i name="e_fr_energy">    -17.19765367 </i>
    <i name="e_wo_entrp">    -17.17982239 </i>
    <i name="e_0_energy">    -17.18873803 </i>
   </energy>
  </scstep>
  <scstep>
   <time name="diag">    0.12    0.12</time>
   <time name="diis">    0.38    0.38</time>
   <time name="orth">    0.01    0.01</time>
   <time name="total">    0.57    0.57</time>
   <energy>
    <i name="e_fr_energy">    -17.18802677 </i>
    <i name="e_wo_entrp">    -17.16831672 </i>
    <i name="e_0_energy">    -17.17817174 </i>
   </energy>
  </scstep>
  <scstep>
   <time name="diag">    0.12    0.12</time>
   <time name="diis">    0.37    0.37</time>
   <time name="orth">    0.01    0.02</time>
   <time name="total">    0.57    0.57</time>
   <energy>
    <i name="e_fr_energy">    -17.18281577 </i>
    <i name="e_wo_entrp">    -17.16418660 </i>
    <i name="e_0_energy">    -17.17350119 </i>
   </energy>
  </scstep>
  <scstep>
   <time name="diag">    0.13    0.13</time>
   <time name="diis">    0.37    0.37</time>
   <time name="orth">    0.02    0.02</time>
   <time name="total">    0.57    0.57</time>
   <energy>
    <i name="e_fr_energy">    -17.18187505 </i>
    <i name="e_wo_entrp">    -17.16353692 </i>
    <i name="e_0_energy">    -17.17270598 </i>
   </energy>
  </scstep>
  <scstep>
   <time name="diag">    0.11    0.11</time>
   <time name="diis">    0.34    0.34</time>
   <time name="orth">    0.01    0.01</time>
   <time name="total">    0.53    0.53</time>
   <energy>
    <i name="e_fr_energy">    -17.18146772 </i>
    <i name="e_wo_entrp">    -17.16296648 </i>
    <i name="e_0_energy">    -17.17221710 </i>
   </energy>
  </scstep>
  <scstep>
   <time name="diag">    0.12    0.12</time>
   <time name="diis">    0.34    0.34</time>
   <time name="orth">    0.01    0.01</time>
   <time name="total">    0.52    0.52</time>
   <energy>
    <i name="e_fr_energy">    -17.18145591 </i>
    <i name="e_wo_entrp">    -17.16244883 </i>
    <i name="e_0_energy">    -17.17195237 </i>
   </energy>
  </scstep>
  <scstep>
   <time name="diag">    0.11    0.11</time>
   <time name="diis">    0.33    0.33</time>
   <time name="orth">    0.01    0.01</time>
   <time name="total">    0.51    0.52</time>
   <energy>
    <i name="e_fr_energy">    -17.18154753 </i>
    <i name="e_wo_entrp">    -17.16265747 </i>
    <i name="e_0_energy">    -17.17210250 </i>
   </energy>
  </scstep>
  <scstep>
   <time name="diag">    0.11    0.12</time>
   <time name="diis">    0.33    0.33</time>
   <time name="orth">    0.01    0.01</time>
   <time name="total">    0.51    0.51</time>
   <energy>
    <i name="e_fr_energy">    -17.18174706 </i>
    <i name="e_wo_entrp">    -17.16286728 </i>
    <i name="e_0_energy">    -17.17230717 </i>
   </energy>
  </scstep>
  <scstep>
   <time name="diag">    0.11    0.11</time>
   <time name="diis">    0.31    0.31</time>
   <time name="orth">    0.01    0.01</time>
   <time name="total">    0.49    0.49</time>
   <energy>
    <i name="e_fr_energy">    -17.18195973 </i>
    <i name="e_wo_entrp">    -17.16300405 </i>
    <i name="e_0_energy">    -17.17248189 </i>
   </energy>
  </scstep>
  <scstep>
   <time name="diag">    0.11    0.11</time>
   <time name="diis">    0.26    0.26</time>
   <time name="orth">    0.01    0.01</time>
   <time name="total">    0.44    0.44</time>
   <energy>
    <i name="e_fr_energy">    -17.18203229 </i>
    <i name="e_wo_entrp">    -17.16307723 </i>
    <i name="e_0_energy">    -17.17255476 </i>
   </energy>
  </scstep>
  <scstep>
   <time name="diag">    0.11    0.11</time>
   <time name="diis">    0.23    0.23</time>
   <time name="orth">    0.01    0.01</time>
   <time name="total">    0.41    0.41</time>
   <energy>
    <i name="e_fr_energy">    -17.18207542 </i>
    <i name="e_wo_entrp">    -17.16312625 </i>
    <i name="e_0_energy">    -17.17260084 </i>
   </energy>
  </scstep>
  <scstep>
   <time name="diag">    0.11    0.11</time>
   <time name="diis">    0.23    0.23</time>
   <time name="orth">    0.01    0.01</time>
   <time name="total">    0.41    0.41</time>
   <energy>
    <i name="e_fr_energy">    -17.18210608 </i>
    <i name="e_wo_entrp">    -17.16313706 </i>
    <i name="e_0_energy">    -17.17262157 </i>
   </energy>
  </scstep>
  <scstep>
   <time name="diag">    0.11    0.11</time>
   <time name="diis">    0.22    0.22</time>
   <time name="orth">    0.01    0.01</time>
   <time name="total">    0.40    0.41</time>
   <energy>
    <i name="e_fr_energy">    -17.18212107 </i>
    <i name="e_wo_entrp">    -17.16316031 </i>
    <i name="e_0_energy">    -17.17264069 </i>
   </energy>
  </scstep>
  <scstep>
   <time name="diag">    0.11    0.11</time>
   <time name="diis">    0.21    0.21</time>
   <time name="orth">    0.01    0.01</time>
   <time name="total">    0.39    0.39</time>
   <energy>
    <i name="e_fr_energy">    -17.18212757 </i>
    <i name="e_wo_entrp">    -17.16316390 </i>
    <i name="e_0_energy">    -17.17264573 </i>
   </energy>
  </scstep>
  <scstep>
   <time name="diag">    0.11    0.11</time>
   <time name="diis">    0.20    0.20</time>
   <time name="orth">    0.01    0.01</time>
   <time name="total">    0.38    0.38</time>
   <energy>
    <i name="e_fr_energy">    -17.18212900 </i>
    <i name="e_wo_entrp">    -17.16316697 </i>
    <i name="e_0_energy">    -17.17264798 </i>
   </energy>
  </scstep>
  <scstep>
   <time name="diag">    0.12    0.12</time>
   <time name="diis">    0.16    0.16</time>
   <time name="orth">    0.01    0.01</time>
   <time name="total">    0.31    0.31</time>
   <energy>
    <i name="alphaZ">    120.87645803 </i>
    <i name="ewald">  38004.96181781 </i>
    <i name="hartreedc"> -43075.47853004 </i>
    <i name="XCdc">    173.35168535 </i>
    <i name="pawpsdc">   4390.21133356 </i>
    <i name="pawaedc">  -4965.94746571 </i>
    <i name="eentropy">     -0.01896225 </i>
    <i name="bandstr">   -241.08808399 </i>
    <i name="atom">   5575.94961827 </i>
    <i name="e_fr_energy">    -17.18212897 </i>
    <i name="e_wo_entrp">    -17.16316672 </i>
    <i name="e_0_energy">    -17.17264784 </i>
   </energy>
  </scstep>
  <structure>
   <crystal>
    <varray name="basis" >
     <v>       2.57386868       0.00000000       0.00000000 </v>
     <v>       1.28693434       2.22903567       0.00000000 </v>
     <v>       0.00000000       0.00000000      30.30466494 </v>
    </varray>
    <i name="volume">    173.86529028 </i>
    <varray name="rec_basis" >
     <v>       0.38852021      -0.22431225       0.00000000 </v>
     <v>       0.00000000       0.44862450       0.00000000 </v>
     <v>       0.00000000       0.00000000       0.03299822 </v>
    </varray>
   </crystal>
   <varray name="positions" >
    <v>       0.00000000       0.00000000       0.39597864 </v>
    <v>       0.33333333       0.33333333       0.46532621 </v>
    <v>       0.66666666       0.66666667       0.53467379 </v>
    <v>       0.00000000       0.00000000       0.60402136 </v>
    <v>       0.35576456       0.28847088       0.63701958 </v>
   </varray>
  </structure>
  <varray name="forces" >
   <v>      -0.00000000       0.00145129       0.15260628 </v>
   <v>      -0.00000000      -0.00097348      -0.02683518 </v>
   <v>      -0.00000000       0.00142584      -0.28794928 </v>
   <v>      -0.00000000      -0.16989101       0.76615067 </v>
   <v>       0.00000000       0.16798736      -0.60397249 </v>
  </varray>
  <varray name="stress" >
   <v>     -48.03371878       0.00000000       0.00000000 </v>
   <v>       0.00000000     -49.09773256       1.51083958 </v>
   <v>       0.00000000       1.50946701     -51.72729555 </v>
  </varray>
  <energy>
   <i name="e_fr_energy">    -17.18212897 </i>
   <i name="e_wo_entrp">    -17.17264784 </i>
   <i name="e_0_energy">     -0.01896225 </i>
  </energy>
  <time name="totalsc">   13.57   14.59</time>
  <eigenvalues>
   <array>
    <dimension dim="1">band</dimension>
    <dimension dim="2">kpoint</dimension>
    <dimension dim="3">spin</dimension>
    <field>eigene</field>
    <field>occ</field>
    <set>
     <set comment="spin 1">
      <set comment="kpoint 1">
       <r>  -11.6085    1.0000 </r>
       <r>  -10.5913    1.0000 </r>
       <r>   -8.9844    1.0000 </r>
       <r>   -7.5242    1.0000 </r>
       <r>   -6.0874    1.0000 </r>
       <r>   -5.5755    1.0000 </r>
       <r>   -5.5552    1.0000 </r>
       <r>   -5.5232    1.0000 </r>
       <r>   -5.3147    1.0000 </r>
       <r>   -5.2907    1.0000 </r>
       <r>   -5.2851    1.0000 </r>
       <r>   -5.2232    1.0000 </r>
       <r>   -5.2223    1.0000 </r>
       <r>   -4.9641    1.0000 </r>
       <r>   -4.9637    1.0000 </r>
       <r>   -4.8717    1.0000 </r>
       <r>   -4.7493    1.0000 </r>
       <r>   -4.7223    1.0000 </r>
       <r>   -4.4808    1.0000 </r>
       <r>   -4.4777    1.0000 </r>
       <r>   -4.2627    1.0000 </r>
       <r>   -4.2583    1.0000 </r>
       <r>   -3.9824    1.0000 </r>
       <r>   -3.9818    1.0000 </r>
       <r>   -2.9136    1.0000 </r>
       <r>    1.6034    0.0000 </r>
       <r>    1.9173    0.0000 </r>
       <r>    2.3494    0.0000 </r>
      </set>
      <set comment="kpoint 2">
       <r>  -11.3036    1.0000 </r>
       <r>  -10.2938    1.0000 </r>
       <r>   -8.7205    1.0000 </r>
       <r>   -7.3010    1.0000 </r>
       <r>   -6.1385    1.0000 </r>
       <r>   -5.6727    1.0000 </r>
       <r>   -5.5867    1.0000 </r>
       <r>   -5.4526    1.0000 </r>
       <r>   -5.3825    1.0000 </r>
       <r>   -5.3478    1.0000 </r>
       <r>   -5.2757    1.0000 </r>
       <r>   -5.2039    1.0000 </r>
       <r>   -5.1257    1.0000 </r>
       <r>   -5.1117    1.0000 </r>
       <r>   -4.9911    1.0000 </r>
       <r>   -4.8809    1.0000 </r>
       <r>   -4.7484    1.0000 </r>
       <r>   -4.6979    1.0000 </r>
       <r>   -4.4870    1.0000 </r>
       <r>   -4.4506    1.0000 </r>
       <r>   -4.2838    1.0000 </r>
       <r>   -4.2556    1.0000 </r>
       <r>   -3.9779    1.0000 </r>
       <r>   -3.7609    1.0000 </r>
       <r>   -2.2276    0.1012 </r>
       <r>    1.8490    0.0000 </r>
       <r>    2.2211    0.0000 </r>
       <r>    2.6523    0.0000 </r>
      </set>
      <set comment="kpoint 3">
       <r>  -10.4300    1.0000 </r>
       <r>   -9.4528    1.0000 </r>
       <r>   -8.0338    1.0000 </r>
       <r>   -6.7718    1.0000 </r>
       <r>   -6.3093    1.0000 </r>
       <r>   -5.8852    1.0000 </r>
       <r>   -5.7626    1.0000 </r>
       <r>   -5.6379    1.0000 </r>
       <r>   -5.4630    1.0000 </r>
       <r>   -5.2676    1.0000 </r>
       <r>   -5.2112    1.0000 </r>
       <r>   -5.1953    1.0000 </r>
       <r>   -5.0484    1.0000 </r>
       <r>   -4.9997    1.0000 </r>
       <r>   -4.8820    1.0000 </r>
       <r>   -4.8122    1.0000 </r>
       <r>   -4.7836    1.0000 </r>
       <r>   -4.5972    1.0000 </r>
       <r>   -4.5656    1.0000 </r>
       <r>   -4.4302    1.0000 </r>
       <r>   -4.2562    1.0000 </r>
       <r>   -4.0744    1.0000 </r>
       <r>   -3.9736    1.0000 </r>
       <r>   -2.9000    1.0000 </r>
       <r>   -0.9051    0.0000 </r>
       <r>    2.5772    0.0000 </r>
       <r>    3.1308    0.0000 </r>
       <r>    3.5599    0.0000 </r>
      </set>
      <set comment="kpoint 4">
       <r>   -9.1722    1.0000 </r>
       <r>   -8.2980    1.0000 </r>
       <r>   -7.3511    1.0000 </r>
       <r>   -6.5690    1.0000 </r>
       <r>   -6.3762    1.0000 </r>
       <r>   -6.1313    1.0000 </r>
       <r>   -5.8505    1.0000 </r>
       <r>   -5.6497    1.0000 </r>
       <r>   -5.5149    1.0000 </r>
       <r>   -5.2761    1.0000 </r>
       <r>   -5.1831    1.0000 </r>
       <r>   -5.0421    1.0000 </r>
       <r>   -4.8696    1.0000 </r>
       <r>   -4.8153    1.0000 </r>
       <r>   -4.7392    1.0000 </r>
       <r>   -4.6305    1.0000 </r>
       <r>   -4.5089    1.0000 </r>
       <r>   -4.3710    1.0000 </r>
       <r>   -4.3337    1.0000 </r>
       <r>   -4.2445    1.0000 </r>
       <r>   -4.1201    1.0000 </r>
       <r>   -3.9609    1.0000 </r>
       <r>   -3.5932    1.0000 </r>
       <r>   -1.7451    0.0000 </r>
       <r>    0.7437    0.0000 </r>
       <r>    3.7416    0.0000 </r>
       <r>    4.6004    0.0000 </r>
       <r>    4.9699    0.0000 </r>
      </set>
      <set comment="kpoint 5">
       <r>   -8.1911    1.0000 </r>
       <r>   -7.3393    1.0000 </r>
       <r>   -7.0463    1.0000 </r>
       <r>   -6.6481    1.0000 </r>
       <r>   -6.4845    1.0000 </r>
       <r>   -6.2691    1.0000 </r>
       <r>   -5.9260    1.0000 </r>
       <r>   -5.4694    1.0000 </r>
       <r>   -5.3355    1.0000 </r>
       <r>   -5.2649    1.0000 </r>
       <r>   -5.2539    1.0000 </r>
       <r>   -4.9138    1.0000 </r>
       <r>   -4.7312    1.0000 </r>
       <r>   -4.4663    1.0000 </r>
       <r>   -4.3720    1.0000 </r>
       <r>   -4.3521    1.0000 </r>
       <r>   -4.1005    1.0000 </r>
       <r>   -4.0753    1.0000 </r>
       <r>   -4.0483    1.0000 </r>
       <r>   -3.9645    1.0000 </r>
       <r>   -3.8026    1.0000 </r>
       <r>   -3.5502    1.0000 </r>
       <r>   -2.5325    0.9988 </r>
       <r>   -0.3658    0.0000 </r>
       <r>    1.6435    0.0000 </r>
       <r>    2.8389    0.0000 </r>
       <r>    3.6419    0.0000 </r>
       <r>    4.5883    0.0000 </r>
      </set>
      <set comment="kpoint 6">
       <r>   -7.9742    1.0000 </r>
       <r>   -7.0243    1.0000 </r>
       <r>   -6.9845    1.0000 </r>
       <r>   -6.6275    1.0000 </r>
       <r>   -6.5400    1.0000 </r>
       <r>   -6.3247    1.0000 </r>
       <r>   -5.9162    1.0000 </r>
       <r>   -5.4054    1.0000 </r>
       <r>   -5.3127    1.0000 </r>
       <r>   -5.2485    1.0000 </r>
       <r>   -5.1661    1.0000 </r>
       <r>   -4.9323    1.0000 </r>
       <r>   -4.4526    1.0000 </r>
       <r>   -4.4275    1.0000 </r>
       <r>   -4.2728    1.0000 </r>
       <r>   -4.2327    1.0000 </r>
       <r>   -4.0413    1.0000 </r>
       <r>   -3.9516    1.0000 </r>
       <r>   -3.8913    1.0000 </r>
       <r>   -3.6854    1.0000 </r>
       <r>   -3.5667    1.0000 </r>
       <r>   -2.2240    0.0924 </r>
       <r>   -1.3544    0.0000 </r>
       <r>   -0.8052    0.0000 </r>
       <r>    0.5140    0.0000 </r>
       <r>    2.1372    0.0000 </r>
       <r>    3.3190    0.0000 </r>
       <r>    3.9551    0.0000 </r>
      </set>
      <set comment="kpoint 7">
       <r>  -11.3060    1.0000 </r>
       <r>  -10.2938    1.0000 </r>
       <r>   -8.7184    1.0000 </r>
       <r>   -7.3000    1.0000 </r>
       <r>   -6.1144    1.0000 </r>
       <r>   -5.6783    1.0000 </r>
       <r>   -5.5776    1.0000 </r>
       <r>   -5.4535    1.0000 </r>
       <r>   -5.3744    1.0000 </r>
       <r>   -5.3563    1.0000 </r>
       <r>   -5.2763    1.0000 </r>
       <r>   -5.2083    1.0000 </r>
       <r>   -5.1250    1.0000 </r>
       <r>   -5.1127    1.0000 </r>
       <r>   -4.9919    1.0000 </r>
       <r>   -4.8831    1.0000 </r>
       <r>   -4.7616    1.0000 </r>
       <r>   -4.6968    1.0000 </r>
       <r>   -4.4903    1.0000 </r>
       <r>   -4.4464    1.0000 </r>
       <r>   -4.2848    1.0000 </r>
       <r>   -4.2593    1.0000 </r>
       <r>   -3.9783    1.0000 </r>
       <r>   -3.7661    1.0000 </r>
       <r>   -2.2298    0.1069 </r>
       <r>    1.8492    0.0000 </r>
       <r>    2.2209    0.0000 </r>
       <r>    2.6519    0.0000 </r>
      </set>
      <set comment="kpoint 8">
       <r>  -10.7109    1.0000 </r>
       <r>   -9.7228    1.0000 </r>
       <r>   -8.2423    1.0000 </r>
       <r>   -6.9132    1.0000 </r>
       <r>   -6.2552    1.0000 </r>
       <r>   -5.7965    1.0000 </r>
       <r>   -5.7428    1.0000 </r>
       <r>   -5.5852    1.0000 </r>
       <r>   -5.4442    1.0000 </r>
       <r>   -5.3313    1.0000 </r>
       <r>   -5.2578    1.0000 </r>
       <r>   -5.1628    1.0000 </r>
       <r>   -5.0862    1.0000 </r>
       <r>   -5.0801    1.0000 </r>
       <r>   -4.9244    1.0000 </r>
       <r>   -4.8340    1.0000 </r>
       <r>   -4.6991    1.0000 </r>
       <r>   -4.6058    1.0000 </r>
       <r>   -4.5848    1.0000 </r>
       <r>   -4.4423    1.0000 </r>
       <r>   -4.3406    1.0000 </r>
       <r>   -4.0791    1.0000 </r>
       <r>   -4.0139    1.0000 </r>
       <r>   -3.1401    1.0000 </r>
       <r>   -1.2901    0.0000 </r>
       <r>    2.3365    0.0000 </r>
       <r>    2.8284    0.0000 </r>
       <r>    3.2573    0.0000 </r>
      </set>
      <set comment="kpoint 9">
       <r>   -9.6275    1.0000 </r>
       <r>   -8.7043    1.0000 </r>
       <r>   -7.5302    1.0000 </r>
       <r>   -6.5004    1.0000 </r>
       <r>   -6.3090    1.0000 </r>
       <r>   -6.0129    1.0000 </r>
       <r>   -5.8817    1.0000 </r>
       <r>   -5.7426    1.0000 </r>
       <r>   -5.5736    1.0000 </r>
       <r>   -5.2931    1.0000 </r>
       <r>   -5.2563    1.0000 </r>
       <r>   -5.1695    1.0000 </r>
       <r>   -5.0476    1.0000 </r>
       <r>   -4.9228    1.0000 </r>
       <r>   -4.8264    1.0000 </r>
       <r>   -4.7460    1.0000 </r>
       <r>   -4.5854    1.0000 </r>
       <r>   -4.4779    1.0000 </r>
       <r>   -4.3530    1.0000 </r>
       <r>   -4.2921    1.0000 </r>
       <r>   -4.1337    1.0000 </r>
       <r>   -4.0392    1.0000 </r>
       <r>   -3.7059    1.0000 </r>
       <r>   -2.1555    0.0109 </r>
       <r>    0.1509    0.0000 </r>
       <r>    3.3116    0.0000 </r>
       <r>    4.0353    0.0000 </r>
       <r>    4.4748    0.0000 </r>
      </set>
      <set comment="kpoint 10">
       <r>   -8.4399    1.0000 </r>
       <r>   -7.6164    1.0000 </r>
       <r>   -7.0533    1.0000 </r>
       <r>   -6.5515    1.0000 </r>
       <r>   -6.3487    1.0000 </r>
       <r>   -6.1428    1.0000 </r>
       <r>   -5.9070    1.0000 </r>
       <r>   -5.6283    1.0000 </r>
       <r>   -5.5502    1.0000 </r>
       <r>   -5.3151    1.0000 </r>
       <r>   -5.2182    1.0000 </r>
       <r>   -5.0791    1.0000 </r>
       <r>   -4.8985    1.0000 </r>
       <r>   -4.7301    1.0000 </r>
       <r>   -4.6251    1.0000 </r>
       <r>   -4.4928    1.0000 </r>
       <r>   -4.3736    1.0000 </r>
       <r>   -4.2505    1.0000 </r>
       <r>   -4.1640    1.0000 </r>
       <r>   -3.9809    1.0000 </r>
       <r>   -3.9335    1.0000 </r>
       <r>   -3.6168    1.0000 </r>
       <r>   -2.8232    1.0000 </r>
       <r>   -0.7728    0.0000 </r>
       <r>    1.8294    0.0000 </r>
       <r>    3.8504    0.0000 </r>
       <r>    4.7311    0.0000 </r>
       <r>    5.1762    0.0000 </r>
      </set>
      <set comment="kpoint 11">
       <r>   -7.9257    1.0000 </r>
       <r>   -6.9628    1.0000 </r>
       <r>   -6.8907    1.0000 </r>
       <r>   -6.5490    1.0000 </r>
       <r>   -6.4507    1.0000 </r>
       <r>   -6.2235    1.0000 </r>
       <r>   -5.9167    1.0000 </r>
       <r>   -5.5300    1.0000 </r>
       <r>   -5.4160    1.0000 </r>
       <r>   -5.3219    1.0000 </r>
       <r>   -5.2069    1.0000 </r>
       <r>   -4.9392    1.0000 </r>
       <r>   -4.7940    1.0000 </r>
       <r>   -4.5101    1.0000 </r>
       <r>   -4.3774    1.0000 </r>
       <r>   -4.2410    1.0000 </r>
       <r>   -4.1315    1.0000 </r>
       <r>   -4.0956    1.0000 </r>
       <r>   -4.0183    1.0000 </r>
       <r>   -3.8589    1.0000 </r>
       <r>   -3.3782    1.0000 </r>
       <r>   -2.3302    0.5697 </r>
       <r>   -1.3329    0.0000 </r>
       <r>    0.1166    0.0000 </r>
       <r>    0.9439    0.0000 </r>
       <r>    2.4675    0.0000 </r>
       <r>    3.5293    0.0000 </r>
       <r>    4.4449    0.0000 </r>
      </set>
      <set comment="kpoint 12">
       <r>   -7.9132    1.0000 </r>
       <r>   -6.9600    1.0000 </r>
       <r>   -6.8897    1.0000 </r>
       <r>   -6.5483    1.0000 </r>
       <r>   -6.4495    1.0000 </r>
       <r>   -6.2269    1.0000 </r>
       <r>   -5.9201    1.0000 </r>
       <r>   -5.5547    1.0000 </r>
       <r>   -5.4094    1.0000 </r>
       <r>   -5.3243    1.0000 </r>
       <r>   -5.2154    1.0000 </r>
       <r>   -4.9378    1.0000 </r>
       <r>   -4.7983    1.0000 </r>
       <r>   -4.5101    1.0000 </r>
       <r>   -4.3762    1.0000 </r>
       <r>   -4.2393    1.0000 </r>
       <r>   -4.1352    1.0000 </r>
       <r>   -4.0877    1.0000 </r>
       <r>   -4.0190    1.0000 </r>
       <r>   -3.8581    1.0000 </r>
       <r>   -3.3580    1.0000 </r>
       <r>   -2.3294    0.5657 </r>
       <r>   -1.3393    0.0000 </r>
       <r>    0.1111    0.0000 </r>
       <r>    0.9349    0.0000 </r>
       <r>    2.4662    0.0000 </r>
       <r>    3.5344    0.0000 </r>
       <r>    4.4405    0.0000 </r>
      </set>
      <set comment="kpoint 13">
       <r>   -8.4318    1.0000 </r>
       <r>   -7.6072    1.0000 </r>
       <r>   -7.0432    1.0000 </r>
       <r>   -6.5504    1.0000 </r>
       <r>   -6.3492    1.0000 </r>
       <r>   -6.1496    1.0000 </r>
       <r>   -5.9196    1.0000 </r>
       <r>   -5.6397    1.0000 </r>
       <r>   -5.5529    1.0000 </r>
       <r>   -5.3280    1.0000 </r>
       <r>   -5.2230    1.0000 </r>
       <r>   -5.0881    1.0000 </r>
       <r>   -4.8896    1.0000 </r>
       <r>   -4.7273    1.0000 </r>
       <r>   -4.6267    1.0000 </r>
       <r>   -4.4854    1.0000 </r>
       <r>   -4.3729    1.0000 </r>
       <r>   -4.2350    1.0000 </r>
       <r>   -4.1571    1.0000 </r>
       <r>   -3.9773    1.0000 </r>
       <r>   -3.9307    1.0000 </r>
       <r>   -3.6146    1.0000 </r>
       <r>   -2.8332    1.0000 </r>
       <r>   -0.7984    0.0000 </r>
       <r>    1.8105    0.0000 </r>
       <r>    3.8570    0.0000 </r>
       <r>    4.7399    0.0000 </r>
       <r>    5.1791    0.0000 </r>
      </set>
      <set comment="kpoint 14">
       <r>   -9.6353    1.0000 </r>
       <r>   -8.6981    1.0000 </r>
       <r>   -7.5112    1.0000 </r>
       <r>   -6.4877    1.0000 </r>
       <r>   -6.3076    1.0000 </r>
       <r>   -6.0173    1.0000 </r>
       <r>   -5.8880    1.0000 </r>
       <r>   -5.7440    1.0000 </r>
       <r>   -5.5712    1.0000 </r>
       <r>   -5.2952    1.0000 </r>
       <r>   -5.2579    1.0000 </r>
       <r>   -5.1802    1.0000 </r>
       <r>   -5.0406    1.0000 </r>
       <r>   -4.9274    1.0000 </r>
       <r>   -4.8098    1.0000 </r>
       <r>   -4.7468    1.0000 </r>
       <r>   -4.5824    1.0000 </r>
       <r>   -4.4890    1.0000 </r>
       <r>   -4.3512    1.0000 </r>
       <r>   -4.2908    1.0000 </r>
       <r>   -4.1332    1.0000 </r>
       <r>   -4.0414    1.0000 </r>
       <r>   -3.7118    1.0000 </r>
       <r>   -2.1817    0.0272 </r>
       <r>    0.1382    0.0000 </r>
       <r>    3.3113    0.0000 </r>
       <r>    4.0344    0.0000 </r>
       <r>    4.4666    0.0000 </r>
      </set>
      <set comment="kpoint 15">
       <r>  -10.7178    1.0000 </r>
       <r>   -9.7216    1.0000 </r>
       <r>   -8.2338    1.0000 </r>
       <r>   -6.9095    1.0000 </r>
       <r>   -6.2176    1.0000 </r>
       <r>   -5.7975    1.0000 </r>
       <r>   -5.7460    1.0000 </r>
       <r>   -5.5836    1.0000 </r>
       <r>   -5.4418    1.0000 </r>
       <r>   -5.3244    1.0000 </r>
       <r>   -5.2552    1.0000 </r>
       <r>   -5.1701    1.0000 </r>
       <r>   -5.0904    1.0000 </r>
       <r>   -5.0782    1.0000 </r>
       <r>   -4.9286    1.0000 </r>
       <r>   -4.8478    1.0000 </r>
       <r>   -4.6993    1.0000 </r>
       <r>   -4.6025    1.0000 </r>
       <r>   -4.5873    1.0000 </r>
       <r>   -4.4562    1.0000 </r>
       <r>   -4.3422    1.0000 </r>
       <r>   -4.0746    1.0000 </r>
       <r>   -4.0176    1.0000 </r>
       <r>   -3.1594    1.0000 </r>
       <r>   -1.2970    0.0000 </r>
       <r>    2.3371    0.0000 </r>
       <r>    2.8278    0.0000 </r>
       <r>    3.2566    0.0000 </r>
      </set>
      <set comment="kpoint 16">
       <r>  -10.4426    1.0000 </r>
       <r>   -9.4517    1.0000 </r>
       <r>   -8.0213    1.0000 </r>
       <r>   -6.7657    1.0000 </r>
       <r>   -6.2495    1.0000 </r>
       <r>   -5.8775    1.0000 </r>
       <r>   -5.7602    1.0000 </r>
       <r>   -5.6364    1.0000 </r>
       <r>   -5.4677    1.0000 </r>
       <r>   -5.2705    1.0000 </r>
       <r>   -5.2263    1.0000 </r>
       <r>   -5.1962    1.0000 </r>
       <r>   -5.0439    1.0000 </r>
       <r>   -5.0046    1.0000 </r>
       <r>   -4.8876    1.0000 </r>
       <r>   -4.8142    1.0000 </r>
       <r>   -4.7899    1.0000 </r>
       <r>   -4.5994    1.0000 </r>
       <r>   -4.5693    1.0000 </r>
       <r>   -4.4332    1.0000 </r>
       <r>   -4.2590    1.0000 </r>
       <r>   -4.0854    1.0000 </r>
       <r>   -3.9742    1.0000 </r>
       <r>   -2.9275    1.0000 </r>
       <r>   -0.9165    0.0000 </r>
       <r>    2.5772    0.0000 </r>
       <r>    3.1299    0.0000 </r>
       <r>    3.5591    0.0000 </r>
      </set>
      <set comment="kpoint 17">
       <r>   -8.5467    1.0000 </r>
       <r>   -7.7097    1.0000 </r>
       <r>   -7.0152    1.0000 </r>
       <r>   -6.4285    1.0000 </r>
       <r>   -6.1718    1.0000 </r>
       <r>   -6.0732    1.0000 </r>
       <r>   -5.9105    1.0000 </r>
       <r>   -5.8342    1.0000 </r>
       <r>   -5.5575    1.0000 </r>
       <r>   -5.4095    1.0000 </r>
       <r>   -5.3163    1.0000 </r>
       <r>   -5.2778    1.0000 </r>
       <r>   -4.9873    1.0000 </r>
       <r>   -4.9154    1.0000 </r>
       <r>   -4.7392    1.0000 </r>
       <r>   -4.6377    1.0000 </r>
       <r>   -4.4110    1.0000 </r>
       <r>   -4.2643    1.0000 </r>
       <r>   -4.2035    1.0000 </r>
       <r>   -3.9808    1.0000 </r>
       <r>   -3.9230    1.0000 </r>
       <r>   -3.5615    1.0000 </r>
       <r>   -2.8224    1.0000 </r>
       <r>   -0.8994    0.0000 </r>
       <r>    1.6786    0.0000 </r>
       <r>    4.5224    0.0000 </r>
       <r>    5.2992    0.0000 </r>
       <r>    5.6727    0.0000 </r>
      </set>
      <set comment="kpoint 18">
       <r>   -7.8345    1.0000 </r>
       <r>   -6.8692    1.0000 </r>
       <r>   -6.6662    1.0000 </r>
       <r>   -6.4116    1.0000 </r>
       <r>   -6.2432    1.0000 </r>
       <r>   -6.0835    1.0000 </r>
       <r>   -5.9049    1.0000 </r>
       <r>   -5.7693    1.0000 </r>
       <r>   -5.5451    1.0000 </r>
       <r>   -5.4865    1.0000 </r>
       <r>   -5.3762    1.0000 </r>
       <r>   -5.0517    1.0000 </r>
       <r>   -4.9480    1.0000 </r>
       <r>   -4.8096    1.0000 </r>
       <r>   -4.6291    1.0000 </r>
       <r>   -4.5303    1.0000 </r>
       <r>   -4.3693    1.0000 </r>
       <r>   -4.1903    1.0000 </r>
       <r>   -4.0383    1.0000 </r>
       <r>   -3.8812    1.0000 </r>
       <r>   -3.2111    1.0000 </r>
       <r>   -2.3402    0.6248 </r>
       <r>   -1.2115    0.0000 </r>
       <r>    0.7455    0.0000 </r>
       <r>    2.4466    0.0000 </r>
       <r>    3.5563    0.0000 </r>
       <r>    4.3441    0.0000 </r>
       <r>    4.9565    0.0000 </r>
      </set>
      <set comment="kpoint 19">
       <r>   -7.6649    1.0000 </r>
       <r>   -6.6414    1.0000 </r>
       <r>   -6.5762    1.0000 </r>
       <r>   -6.3175    1.0000 </r>
       <r>   -6.2879    1.0000 </r>
       <r>   -6.0491    1.0000 </r>
       <r>   -5.9141    1.0000 </r>
       <r>   -5.8092    1.0000 </r>
       <r>   -5.5656    1.0000 </r>
       <r>   -5.4423    1.0000 </r>
       <r>   -5.3189    1.0000 </r>
       <r>   -5.0854    1.0000 </r>
       <r>   -4.8771    1.0000 </r>
       <r>   -4.6858    1.0000 </r>
       <r>   -4.5553    1.0000 </r>
       <r>   -4.4347    1.0000 </r>
       <r>   -4.2746    1.0000 </r>
       <r>   -4.1214    1.0000 </r>
       <r>   -4.0525    1.0000 </r>
       <r>   -3.9520    1.0000 </r>
       <r>   -2.3882    0.8406 </r>
       <r>   -0.6701    0.0000 </r>
       <r>   -0.0809    0.0000 </r>
       <r>    0.6810    0.0000 </r>
       <r>    0.9988    0.0000 </r>
       <r>    2.7384    0.0000 </r>
       <r>    4.0884    0.0000 </r>
       <r>    4.2939    0.0000 </r>
      </set>
      <set comment="kpoint 20">
       <r>   -7.8040    1.0000 </r>
       <r>   -6.8667    1.0000 </r>
       <r>   -6.6627    1.0000 </r>
       <r>   -6.4114    1.0000 </r>
       <r>   -6.2422    1.0000 </r>
       <r>   -6.0965    1.0000 </r>
       <r>   -5.9121    1.0000 </r>
       <r>   -5.7786    1.0000 </r>
       <r>   -5.5468    1.0000 </r>
       <r>   -5.4998    1.0000 </r>
       <r>   -5.3880    1.0000 </r>
       <r>   -5.0542    1.0000 </r>
       <r>   -4.9478    1.0000 </r>
       <r>   -4.8087    1.0000 </r>
       <r>   -4.6362    1.0000 </r>
       <r>   -4.5235    1.0000 </r>
       <r>   -4.3697    1.0000 </r>
       <r>   -4.1888    1.0000 </r>
       <r>   -4.0322    1.0000 </r>
       <r>   -3.8815    1.0000 </r>
       <r>   -3.1715    1.0000 </r>
       <r>   -2.3407    0.6270 </r>
       <r>   -1.2339    0.0000 </r>
       <r>    0.6955    0.0000 </r>
       <r>    2.4273    0.0000 </r>
       <r>    3.5480    0.0000 </r>
       <r>    4.3529    0.0000 </r>
       <r>    4.9447    0.0000 </r>
      </set>
      <set comment="kpoint 21">
       <r>   -8.5597    1.0000 </r>
       <r>   -7.6869    1.0000 </r>
       <r>   -6.9827    1.0000 </r>
       <r>   -6.4184    1.0000 </r>
       <r>   -6.1799    1.0000 </r>
       <r>   -6.0743    1.0000 </r>
       <r>   -5.9128    1.0000 </r>
       <r>   -5.8347    1.0000 </r>
       <r>   -5.5575    1.0000 </r>
       <r>   -5.4097    1.0000 </r>
       <r>   -5.3388    1.0000 </r>
       <r>   -5.2855    1.0000 </r>
       <r>   -4.9916    1.0000 </r>
       <r>   -4.9231    1.0000 </r>
       <r>   -4.7367    1.0000 </r>
       <r>   -4.6274    1.0000 </r>
       <r>   -4.4163    1.0000 </r>
       <r>   -4.2572    1.0000 </r>
       <r>   -4.1819    1.0000 </r>
       <r>   -3.9830    1.0000 </r>
       <r>   -3.9133    1.0000 </r>
       <r>   -3.5612    1.0000 </r>
       <r>   -2.8438    1.0000 </r>
       <r>   -0.9551    0.0000 </r>
       <r>    1.6335    0.0000 </r>
       <r>    4.4957    0.0000 </r>
       <r>    5.3097    0.0000 </r>
       <r>    5.6608    0.0000 </r>
      </set>
      <set comment="kpoint 22">
       <r>   -9.6503    1.0000 </r>
       <r>   -8.6965    1.0000 </r>
       <r>   -7.4977    1.0000 </r>
       <r>   -6.4683    1.0000 </r>
       <r>   -6.2879    1.0000 </r>
       <r>   -6.0070    1.0000 </r>
       <r>   -5.8808    1.0000 </r>
       <r>   -5.7421    1.0000 </r>
       <r>   -5.5751    1.0000 </r>
       <r>   -5.2933    1.0000 </r>
       <r>   -5.2577    1.0000 </r>
       <r>   -5.1887    1.0000 </r>
       <r>   -5.0519    1.0000 </r>
       <r>   -4.9305    1.0000 </r>
       <r>   -4.8082    1.0000 </r>
       <r>   -4.7485    1.0000 </r>
       <r>   -4.5838    1.0000 </r>
       <r>   -4.4896    1.0000 </r>
       <r>   -4.3581    1.0000 </r>
       <r>   -4.2918    1.0000 </r>
       <r>   -4.1332    1.0000 </r>
       <r>   -4.0411    1.0000 </r>
       <r>   -3.7225    1.0000 </r>
       <r>   -2.2035    0.0531 </r>
       <r>    0.1257    0.0000 </r>
       <r>    3.3085    0.0000 </r>
       <r>    4.0335    0.0000 </r>
       <r>    4.4766    0.0000 </r>
      </set>
      <set comment="kpoint 23">
       <r>   -9.2161    1.0000 </r>
       <r>   -8.2881    1.0000 </r>
       <r>   -7.3129    1.0000 </r>
       <r>   -6.5190    1.0000 </r>
       <r>   -6.3640    1.0000 </r>
       <r>   -6.1051    1.0000 </r>
       <r>   -5.8281    1.0000 </r>
       <r>   -5.6494    1.0000 </r>
       <r>   -5.5092    1.0000 </r>
       <r>   -5.2769    1.0000 </r>
       <r>   -5.2035    1.0000 </r>
       <r>   -5.0440    1.0000 </r>
       <r>   -4.8790    1.0000 </r>
       <r>   -4.8159    1.0000 </r>
       <r>   -4.7322    1.0000 </r>
       <r>   -4.6474    1.0000 </r>
       <r>   -4.5105    1.0000 </r>
       <r>   -4.3741    1.0000 </r>
       <r>   -4.3360    1.0000 </r>
       <r>   -4.2464    1.0000 </r>
       <r>   -4.1201    1.0000 </r>
       <r>   -3.9614    1.0000 </r>
       <r>   -3.6248    1.0000 </r>
       <r>   -1.8070    0.0000 </r>
       <r>    0.6992    0.0000 </r>
       <r>    3.7170    0.0000 </r>
       <r>    4.5969    0.0000 </r>
       <r>    4.9290    0.0000 </r>
      </set>
      <set comment="kpoint 24">
       <r>   -7.5467    1.0000 </r>
       <r>   -6.4366    1.0000 </r>
       <r>   -6.3680    1.0000 </r>
       <r>   -6.2279    1.0000 </r>
       <r>   -6.1542    1.0000 </r>
       <r>   -6.0451    1.0000 </r>
       <r>   -5.9465    1.0000 </r>
       <r>   -5.8637    1.0000 </r>
       <r>   -5.6506    1.0000 </r>
       <r>   -5.5712    1.0000 </r>
       <r>   -5.4279    1.0000 </r>
       <r>   -5.0304    1.0000 </r>
       <r>   -4.9785    1.0000 </r>
       <r>   -4.7975    1.0000 </r>
       <r>   -4.6515    1.0000 </r>
       <r>   -4.4925    1.0000 </r>
       <r>   -4.4420    1.0000 </r>
       <r>   -4.1521    1.0000 </r>
       <r>   -4.0680    1.0000 </r>
       <r>   -3.9761    1.0000 </r>
       <r>   -1.9713    0.0000 </r>
       <r>   -0.3466    0.0000 </r>
       <r>    0.8085    0.0000 </r>
       <r>    1.8462    0.0000 </r>
       <r>    2.3667    0.0000 </r>
       <r>    2.3992    0.0000 </r>
       <r>    3.2742    0.0000 </r>
       <r>    4.0799    0.0000 </r>
      </set>
      <set comment="kpoint 25">
       <r>   -7.5280    1.0000 </r>
       <r>   -6.4416    1.0000 </r>
       <r>   -6.3694    1.0000 </r>
       <r>   -6.2287    1.0000 </r>
       <r>   -6.1583    1.0000 </r>
       <r>   -6.0429    1.0000 </r>
       <r>   -5.9470    1.0000 </r>
       <r>   -5.8643    1.0000 </r>
       <r>   -5.6448    1.0000 </r>
       <r>   -5.5839    1.0000 </r>
       <r>   -5.4280    1.0000 </r>
       <r>   -5.0307    1.0000 </r>
       <r>   -4.9783    1.0000 </r>
       <r>   -4.8052    1.0000 </r>
       <r>   -4.6484    1.0000 </r>
       <r>   -4.4935    1.0000 </r>
       <r>   -4.4409    1.0000 </r>
       <r>   -4.1494    1.0000 </r>
       <r>   -4.0678    1.0000 </r>
       <r>   -3.9767    1.0000 </r>
       <r>   -1.9312    0.0000 </r>
       <r>   -0.3505    0.0000 </r>
       <r>    0.7650    0.0000 </r>
       <r>    1.7450    0.0000 </r>
       <r>    2.3576    0.0000 </r>
       <r>    2.3988    0.0000 </r>
       <r>    3.2659    0.0000 </r>
       <r>    4.0331    0.0000 </r>
      </set>
      <set comment="kpoint 26">
       <r>   -7.8346    1.0000 </r>
       <r>   -6.8559    1.0000 </r>
       <r>   -6.6544    1.0000 </r>
       <r>   -6.3983    1.0000 </r>
       <r>   -6.2446    1.0000 </r>
       <r>   -6.0703    1.0000 </r>
       <r>   -5.9052    1.0000 </r>
       <r>   -5.7721    1.0000 </r>
       <r>   -5.5484    1.0000 </r>
       <r>   -5.4925    1.0000 </r>
       <r>   -5.3892    1.0000 </r>
       <r>   -5.0547    1.0000 </r>
       <r>   -4.9522    1.0000 </r>
       <r>   -4.8162    1.0000 </r>
       <r>   -4.6270    1.0000 </r>
       <r>   -4.5327    1.0000 </r>
       <r>   -4.3691    1.0000 </r>
       <r>   -4.1907    1.0000 </r>
       <r>   -4.0317    1.0000 </r>
       <r>   -3.8815    1.0000 </r>
       <r>   -3.1574    1.0000 </r>
       <r>   -2.3426    0.6374 </r>
       <r>   -1.2488    0.0000 </r>
       <r>    0.6311    0.0000 </r>
       <r>    2.2898    0.0000 </r>
       <r>    3.4895    0.0000 </r>
       <r>    4.4536    0.0000 </r>
       <r>    5.1273    0.0000 </r>
      </set>
      <set comment="kpoint 27">
       <r>   -8.4922    1.0000 </r>
       <r>   -7.5897    1.0000 </r>
       <r>   -7.0102    1.0000 </r>
       <r>   -6.5109    1.0000 </r>
       <r>   -6.3464    1.0000 </r>
       <r>   -6.1198    1.0000 </r>
       <r>   -5.8922    1.0000 </r>
       <r>   -5.6270    1.0000 </r>
       <r>   -5.5521    1.0000 </r>
       <r>   -5.3342    1.0000 </r>
       <r>   -5.2177    1.0000 </r>
       <r>   -5.0899    1.0000 </r>
       <r>   -4.9022    1.0000 </r>
       <r>   -4.7312    1.0000 </r>
       <r>   -4.6276    1.0000 </r>
       <r>   -4.4908    1.0000 </r>
       <r>   -4.3751    1.0000 </r>
       <r>   -4.2344    1.0000 </r>
       <r>   -4.1640    1.0000 </r>
       <r>   -3.9786    1.0000 </r>
       <r>   -3.9306    1.0000 </r>
       <r>   -3.6185    1.0000 </r>
       <r>   -2.8598    1.0000 </r>
       <r>   -0.8621    0.0000 </r>
       <r>    1.7166    0.0000 </r>
       <r>    3.7735    0.0000 </r>
       <r>    4.7399    0.0000 </r>
       <r>    5.2542    0.0000 </r>
      </set>
      <set comment="kpoint 28">
       <r>   -8.2700    1.0000 </r>
       <r>   -7.3250    1.0000 </r>
       <r>   -7.0160    1.0000 </r>
       <r>   -6.5933    1.0000 </r>
       <r>   -6.4812    1.0000 </r>
       <r>   -6.2311    1.0000 </r>
       <r>   -5.8881    1.0000 </r>
       <r>   -5.4554    1.0000 </r>
       <r>   -5.3188    1.0000 </r>
       <r>   -5.2796    1.0000 </r>
       <r>   -5.2596    1.0000 </r>
       <r>   -4.9256    1.0000 </r>
       <r>   -4.6947    1.0000 </r>
       <r>   -4.4669    1.0000 </r>
       <r>   -4.3715    1.0000 </r>
       <r>   -4.3707    1.0000 </r>
       <r>   -4.1010    1.0000 </r>
       <r>   -4.0631    1.0000 </r>
       <r>   -4.0483    1.0000 </r>
       <r>   -3.9650    1.0000 </r>
       <r>   -3.8026    1.0000 </r>
       <r>   -3.5576    1.0000 </r>
       <r>   -2.5775    0.9999 </r>
       <r>   -0.4806    0.0000 </r>
       <r>    1.3989    0.0000 </r>
       <r>    2.7916    0.0000 </r>
       <r>    3.6796    0.0000 </r>
       <r>    4.7932    0.0000 </r>
      </set>
      <set comment="kpoint 29">
       <r>   -7.6783    1.0000 </r>
       <r>   -6.6441    1.0000 </r>
       <r>   -6.5674    1.0000 </r>
       <r>   -6.2967    1.0000 </r>
       <r>   -6.2884    1.0000 </r>
       <r>   -6.0305    1.0000 </r>
       <r>   -5.9155    1.0000 </r>
       <r>   -5.8206    1.0000 </r>
       <r>   -5.5434    1.0000 </r>
       <r>   -5.4430    1.0000 </r>
       <r>   -5.3211    1.0000 </r>
       <r>   -5.0841    1.0000 </r>
       <r>   -4.8841    1.0000 </r>
       <r>   -4.6861    1.0000 </r>
       <r>   -4.5601    1.0000 </r>
       <r>   -4.4347    1.0000 </r>
       <r>   -4.2753    1.0000 </r>
       <r>   -4.1201    1.0000 </r>
       <r>   -4.0522    1.0000 </r>
       <r>   -3.9526    1.0000 </r>
       <r>   -2.3035    0.4203 </r>
       <r>   -0.6581    0.0000 </r>
       <r>   -0.0639    0.0000 </r>
       <r>    0.5937    0.0000 </r>
       <r>    0.6979    0.0000 </r>
       <r>    2.6685    0.0000 </r>
       <r>    4.0236    0.0000 </r>
       <r>    4.7212    0.0000 </r>
      </set>
      <set comment="kpoint 30">
       <r>   -7.9749    1.0000 </r>
       <r>   -6.9660    1.0000 </r>
       <r>   -6.8693    1.0000 </r>
       <r>   -6.5114    1.0000 </r>
       <r>   -6.4419    1.0000 </r>
       <r>   -6.1925    1.0000 </r>
       <r>   -5.8828    1.0000 </r>
       <r>   -5.5523    1.0000 </r>
       <r>   -5.3990    1.0000 </r>
       <r>   -5.3276    1.0000 </r>
       <r>   -5.2169    1.0000 </r>
       <r>   -4.9167    1.0000 </r>
       <r>   -4.8017    1.0000 </r>
       <r>   -4.5174    1.0000 </r>
       <r>   -4.3756    1.0000 </r>
       <r>   -4.2417    1.0000 </r>
       <r>   -4.1339    1.0000 </r>
       <r>   -4.0911    1.0000 </r>
       <r>   -4.0178    1.0000 </r>
       <r>   -3.8585    1.0000 </r>
       <r>   -3.3068    1.0000 </r>
       <r>   -2.3359    0.6014 </r>
       <r>   -1.3611    0.0000 </r>
       <r>    0.0600    0.0000 </r>
       <r>    0.5867    0.0000 </r>
       <r>    2.4040    0.0000 </r>
       <r>    3.5471    0.0000 </r>
       <r>    4.7875    0.0000 </r>
      </set>
      <set comment="kpoint 31">
       <r>   -8.0417    1.0000 </r>
       <r>   -7.0371    1.0000 </r>
       <r>   -6.9632    1.0000 </r>
       <r>   -6.5920    1.0000 </r>
       <r>   -6.5274    1.0000 </r>
       <r>   -6.2847    1.0000 </r>
       <r>   -5.8730    1.0000 </r>
       <r>   -5.4053    1.0000 </r>
       <r>   -5.3119    1.0000 </r>
       <r>   -5.2212    1.0000 </r>
       <r>   -5.1786    1.0000 </r>
       <r>   -4.9461    1.0000 </r>
       <r>   -4.4368    1.0000 </r>
       <r>   -4.3978    1.0000 </r>
       <r>   -4.2717    1.0000 </r>
       <r>   -4.2456    1.0000 </r>
       <r>   -4.0420    1.0000 </r>
       <r>   -3.9516    1.0000 </r>
       <r>   -3.8914    1.0000 </r>
       <r>   -3.6853    1.0000 </r>
       <r>   -3.4878    1.0000 </r>
       <r>   -2.2383    0.1306 </r>
       <r>   -1.3557    0.0000 </r>
       <r>   -0.8045    0.0000 </r>
       <r>    0.0096    0.0000 </r>
       <r>    2.0805    0.0000 </r>
       <r>    3.2725    0.0000 </r>
       <r>    4.3055    0.0000 </r>
      </set>
     </set>
    </set>
   </array>
  </eigenvalues>
  <separator name="orbital magnetization" >
   <v name="MAGDIPOLOUT">      0.00000000      0.00000000      0.00000000</v>
  </separator>
  <dos>
   <i name="efermi">     -2.31775415 </i>
   <total>
    <array>
     <dimension dim="1">gridpoints</dimension>
     <dimension dim="2">spin</dimension>
     <field>energy</field>
     <field>total</field>
     <field>integrated</field>
     <set>
      <set comment="spin 1">
       <r>   -17.0000     0.0000     0.0000 </r>
       <r>   -16.9900     0.0000     0.0000 </r>
       <r>   -16.9800     0.0000     0.0000 </r>
       <r>   -16.9700     0.0000     0.0000 </r>
       <r>   -16.9600     0.0000     0.0000 </r>
       <r>   -16.9500     0.0000     0.0000 </r>
       <r>   -16.9400     0.0000     0.0000 </r>
       <r>   -16.9300     0.0000     0.0000 </r>
       <r>   -16.9200     0.0000     0.0000 </r>
       <r>   -16.9100     0.0000     0.0000 </r>
       <r>   -16.9000     0.0000     0.0000 </r>
       <r>   -16.8900     0.0000     0.0000 </r>
       <r>   -16.8800     0.0000     0.0000 </r>
       <r>   -16.8700     0.0000     0.0000 </r>
       <r>   -16.8600     0.0000     0.0000 </r>
       <r>   -16.8500     0.0000     0.0000 </r>
       <r>   -16.8400     0.0000     0.0000 </r>
       <r>   -16.8300     0.0000     0.0000 </r>
       <r>   -16.8200     0.0000     0.0000 </r>
       <r>   -16.8100     0.0000     0.0000 </r>
       <r>   -16.8000     0.0000     0.0000 </r>
       <r>   -16.7900     0.0000     0.0000 </r>
       <r>   -16.7800     0.0000     0.0000 </r>
       <r>   -16.7700     0.0000     0.0000 </r>
       <r>   -16.7600     0.0000     0.0000 </r>
       <r>   -16.7500     0.0000     0.0000 </r>
       <r>   -16.7400     0.0000     0.0000 </r>
       <r>   -16.7300     0.0000     0.0000 </r>
       <r>   -16.7200     0.0000     0.0000 </r>
       <r>   -16.7100     0.0000     0.0000 </r>
       <r>   -16.7000     0.0000     0.0000 </r>
       <r>   -16.6900     0.0000     0.0000 </r>
       <r>   -16.6800     0.0000     0.0000 </r>
       <r>   -16.6700     0.0000     0.0000 </r>
       <r>   -16.6600     0.0000     0.0000 </r>
       <r>   -16.6500     0.0000     0.0000 </r>
       <r>   -16.6400     0.0000     0.0000 </r>
       <r>   -16.6300     0.0000     0.0000 </r>
       <r>   -16.6200     0.0000     0.0000 </r>
       <r>   -16.6100     0.0000     0.0000 </r>
       <r>   -16.6000     0.0000     0.0000 </r>
       <r>   -16.5900     0.0000     0.0000 </r>
       <r>   -16.5800     0.0000     0.0000 </r>
       <r>   -16.5700     0.0000     0.0000 </r>
       <r>   -16.5600     0.0000     0.0000 </r>
       <r>   -16.5500     0.0000     0.0000 </r>
       <r>   -16.5400     0.0000     0.0000 </r>
       <r>   -16.5300     0.0000     0.0000 </r>
       <r>   -16.5200     0.0000     0.0000 </r>
       <r>   -16.5100     0.0000     0.0000 </r>
       <r>   -16.5000     0.0000     0.0000 </r>
       <r>   -16.4900     0.0000     0.0000 </r>
       <r>   -16.4800     0.0000     0.0000 </r>
       <r>   -16.4700     0.0000     0.0000 </r>
       <r>   -16.4600     0.0000     0.0000 </r>
       <r>   -16.4500     0.0000     0.0000 </r>
       <r>   -16.4400     0.0000     0.0000 </r>
       <r>   -16.4300     0.0000     0.0000 </r>
       <r>   -16.4200     0.0000     0.0000 </r>
       <r>   -16.4100     0.0000     0.0000 </r>
       <r>   -16.4000     0.0000     0.0000 </r>
       <r>   -16.3900     0.0000     0.0000 </r>
       <r>   -16.3800     0.0000     0.0000 </r>
       <r>   -16.3700     0.0000     0.0000 </r>
       <r>   -16.3600     0.0000     0.0000 </r>
       <r>   -16.3500     0.0000     0.0000 </r>
       <r>   -16.3400     0.0000     0.0000 </r>
       <r>   -16.3300     0.0000     0.0000 </r>
       <r>   -16.3200     0.0000     0.0000 </r>
       <r>   -16.3100     0.0000     0.0000 </r>
       <r>   -16.3000     0.0000     0.0000 </r>
       <r>   -16.2900     0.0000     0.0000 </r>
       <r>   -16.2800     0.0000     0.0000 </r>
       <r>   -16.2700     0.0000     0.0000 </r>
       <r>   -16.2600     0.0000     0.0000 </r>
       <r>   -16.2500     0.0000     0.0000 </r>
       <r>   -16.2400     0.0000     0.0000 </r>
       <r>   -16.2300     0.0000     0.0000 </r>
       <r>   -16.2200     0.0000     0.0000 </r>
       <r>   -16.2100     0.0000     0.0000 </r>
       <r>   -16.2000     0.0000     0.0000 </r>
       <r>   -16.1900     0.0000     0.0000 </r>
       <r>   -16.1800     0.0000     0.0000 </r>
       <r>   -16.1700     0.0000     0.0000 </r>
       <r>   -16.1600     0.0000     0.0000 </r>
       <r>   -16.1500     0.0000     0.0000 </r>
       <r>   -16.1400     0.0000     0.0000 </r>
       <r>   -16.1300     0.0000     0.0000 </r>
       <r>   -16.1200     0.0000     0.0000 </r>
       <r>   -16.1100     0.0000     0.0000 </r>
       <r>   -16.1000     0.0000     0.0000 </r>
       <r>   -16.0900     0.0000     0.0000 </r>
       <r>   -16.0800     0.0000     0.0000 </r>
       <r>   -16.0700     0.0000     0.0000 </r>
       <r>   -16.0600     0.0000     0.0000 </r>
       <r>   -16.0500     0.0000     0.0000 </r>
       <r>   -16.0400     0.0000     0.0000 </r>
       <r>   -16.0300     0.0000     0.0000 </r>
       <r>   -16.0200     0.0000     0.0000 </r>
       <r>   -16.0100     0.0000     0.0000 </r>
       <r>   -16.0000     0.0000     0.0000 </r>
       <r>   -15.9900     0.0000     0.0000 </r>
       <r>   -15.9800     0.0000     0.0000 </r>
       <r>   -15.9700     0.0000     0.0000 </r>
       <r>   -15.9600     0.0000     0.0000 </r>
       <r>   -15.9500     0.0000     0.0000 </r>
       <r>   -15.9400     0.0000     0.0000 </r>
       <r>   -15.9300     0.0000     0.0000 </r>
       <r>   -15.9200     0.0000     0.0000 </r>
       <r>   -15.9100     0.0000     0.0000 </r>
       <r>   -15.9000     0.0000     0.0000 </r>
       <r>   -15.8900     0.0000     0.0000 </r>
       <r>   -15.8800     0.0000     0.0000 </r>
       <r>   -15.8700     0.0000     0.0000 </r>
       <r>   -15.8600     0.0000     0.0000 </r>
       <r>   -15.8500     0.0000     0.0000 </r>
       <r>   -15.8400     0.0000     0.0000 </r>
       <r>   -15.8300     0.0000     0.0000 </r>
       <r>   -15.8200     0.0000     0.0000 </r>
       <r>   -15.8100     0.0000     0.0000 </r>
       <r>   -15.8000     0.0000     0.0000 </r>
       <r>   -15.7900     0.0000     0.0000 </r>
       <r>   -15.7800     0.0000     0.0000 </r>
       <r>   -15.7700     0.0000     0.0000 </r>
       <r>   -15.7600     0.0000     0.0000 </r>
       <r>   -15.7500     0.0000     0.0000 </r>
       <r>   -15.7400     0.0000     0.0000 </r>
       <r>   -15.7300     0.0000     0.0000 </r>
       <r>   -15.7200     0.0000     0.0000 </r>
       <r>   -15.7100     0.0000     0.0000 </r>
       <r>   -15.7000     0.0000     0.0000 </r>
       <r>   -15.6900     0.0000     0.0000 </r>
       <r>   -15.6800     0.0000     0.0000 </r>
       <r>   -15.6700     0.0000     0.0000 </r>
       <r>   -15.6600     0.0000     0.0000 </r>
       <r>   -15.6500     0.0000     0.0000 </r>
       <r>   -15.6400     0.0000     0.0000 </r>
       <r>   -15.6300     0.0000     0.0000 </r>
       <r>   -15.6200     0.0000     0.0000 </r>
       <r>   -15.6100     0.0000     0.0000 </r>
       <r>   -15.6000     0.0000     0.0000 </r>
       <r>   -15.5900     0.0000     0.0000 </r>
       <r>   -15.5800     0.0000     0.0000 </r>
       <r>   -15.5700     0.0000     0.0000 </r>
       <r>   -15.5600     0.0000     0.0000 </r>
       <r>   -15.5500     0.0000     0.0000 </r>
       <r>   -15.5400     0.0000     0.0000 </r>
       <r>   -15.5300     0.0000     0.0000 </r>
       <r>   -15.5200     0.0000     0.0000 </r>
       <r>   -15.5100     0.0000     0.0000 </r>
       <r>   -15.5000     0.0000     0.0000 </r>
       <r>   -15.4900     0.0000     0.0000 </r>
       <r>   -15.4800     0.0000     0.0000 </r>
       <r>   -15.4700     0.0000     0.0000 </r>
       <r>   -15.4600     0.0000     0.0000 </r>
       <r>   -15.4500     0.0000     0.0000 </r>
       <r>   -15.4400     0.0000     0.0000 </r>
       <r>   -15.4300     0.0000     0.0000 </r>
       <r>   -15.4200     0.0000     0.0000 </r>
       <r>   -15.4100     0.0000     0.0000 </r>
       <r>   -15.4000     0.0000     0.0000 </r>
       <r>   -15.3900     0.0000     0.0000 </r>
       <r>   -15.3800     0.0000     0.0000 </r>
       <r>   -15.3700     0.0000     0.0000 </r>
       <r>   -15.3600     0.0000     0.0000 </r>
       <r>   -15.3500     0.0000     0.0000 </r>
       <r>   -15.3400     0.0000     0.0000 </r>
       <r>   -15.3300     0.0000     0.0000 </r>
       <r>   -15.3200     0.0000     0.0000 </r>
       <r>   -15.3100     0.0000     0.0000 </r>
       <r>   -15.3000     0.0000     0.0000 </r>
       <r>   -15.2900     0.0000     0.0000 </r>
       <r>   -15.2800     0.0000     0.0000 </r>
       <r>   -15.2700     0.0000     0.0000 </r>
       <r>   -15.2600     0.0000     0.0000 </r>
       <r>   -15.2500     0.0000     0.0000 </r>
       <r>   -15.2400     0.0000     0.0000 </r>
       <r>   -15.2300     0.0000     0.0000 </r>
       <r>   -15.2200     0.0000     0.0000 </r>
       <r>   -15.2100     0.0000     0.0000 </r>
       <r>   -15.2000     0.0000     0.0000 </r>
       <r>   -15.1900     0.0000     0.0000 </r>
       <r>   -15.1800     0.0000     0.0000 </r>
       <r>   -15.1700     0.0000     0.0000 </r>
       <r>   -15.1600     0.0000     0.0000 </r>
       <r>   -15.1500     0.0000     0.0000 </r>
       <r>   -15.1400     0.0000     0.0000 </r>
       <r>   -15.1300     0.0000     0.0000 </r>
       <r>   -15.1200     0.0000     0.0000 </r>
       <r>   -15.1100     0.0000     0.0000 </r>
       <r>   -15.1000     0.0000     0.0000 </r>
       <r>   -15.0900     0.0000     0.0000 </r>
       <r>   -15.0800     0.0000     0.0000 </r>
       <r>   -15.0700     0.0000     0.0000 </r>
       <r>   -15.0600     0.0000     0.0000 </r>
       <r>   -15.0500     0.0000     0.0000 </r>
       <r>   -15.0400     0.0000     0.0000 </r>
       <r>   -15.0300     0.0000     0.0000 </r>
       <r>   -15.0200     0.0000     0.0000 </r>
       <r>   -15.0100     0.0000     0.0000 </r>
       <r>   -15.0000     0.0000     0.0000 </r>
       <r>   -14.9900     0.0000     0.0000 </r>
       <r>   -14.9800     0.0000     0.0000 </r>
       <r>   -14.9700     0.0000     0.0000 </r>
       <r>   -14.9600     0.0000     0.0000 </r>
       <r>   -14.9500     0.0000     0.0000 </r>
       <r>   -14.9400     0.0000     0.0000 </r>
       <r>   -14.9300     0.0000     0.0000 </r>
       <r>   -14.9200     0.0000     0.0000 </r>
       <r>   -14.9100     0.0000     0.0000 </r>
       <r>   -14.9000     0.0000     0.0000 </r>
       <r>   -14.8900     0.0000     0.0000 </r>
       <r>   -14.8800     0.0000     0.0000 </r>
       <r>   -14.8700     0.0000     0.0000 </r>
       <r>   -14.8600     0.0000     0.0000 </r>
       <r>   -14.8500     0.0000     0.0000 </r>
       <r>   -14.8400     0.0000     0.0000 </r>
       <r>   -14.8300     0.0000     0.0000 </r>
       <r>   -14.8200     0.0000     0.0000 </r>
       <r>   -14.8100     0.0000     0.0000 </r>
       <r>   -14.8000     0.0000     0.0000 </r>
       <r>   -14.7900     0.0000     0.0000 </r>
       <r>   -14.7800     0.0000     0.0000 </r>
       <r>   -14.7700     0.0000     0.0000 </r>
       <r>   -14.7600     0.0000     0.0000 </r>
       <r>   -14.7500     0.0000     0.0000 </r>
       <r>   -14.7400     0.0000     0.0000 </r>
       <r>   -14.7300     0.0000     0.0000 </r>
       <r>   -14.7200     0.0000     0.0000 </r>
       <r>   -14.7100     0.0000     0.0000 </r>
       <r>   -14.7000     0.0000     0.0000 </r>
       <r>   -14.6900     0.0000     0.0000 </r>
       <r>   -14.6800     0.0000     0.0000 </r>
       <r>   -14.6700     0.0000     0.0000 </r>
       <r>   -14.6600     0.0000     0.0000 </r>
       <r>   -14.6500     0.0000     0.0000 </r>
       <r>   -14.6400     0.0000     0.0000 </r>
       <r>   -14.6300     0.0000     0.0000 </r>
       <r>   -14.6200     0.0000     0.0000 </r>
       <r>   -14.6100     0.0000     0.0000 </r>
       <r>   -14.6000     0.0000     0.0000 </r>
       <r>   -14.5900     0.0000     0.0000 </r>
       <r>   -14.5800     0.0000     0.0000 </r>
       <r>   -14.5700     0.0000     0.0000 </r>
       <r>   -14.5600     0.0000     0.0000 </r>
       <r>   -14.5500     0.0000     0.0000 </r>
       <r>   -14.5400     0.0000     0.0000 </r>
       <r>   -14.5300     0.0000     0.0000 </r>
       <r>   -14.5200     0.0000     0.0000 </r>
       <r>   -14.5100     0.0000     0.0000 </r>
       <r>   -14.5000     0.0000     0.0000 </r>
       <r>   -14.4900     0.0000     0.0000 </r>
       <r>   -14.4800     0.0000     0.0000 </r>
       <r>   -14.4700     0.0000     0.0000 </r>
       <r>   -14.4600     0.0000     0.0000 </r>
       <r>   -14.4500     0.0000     0.0000 </r>
       <r>   -14.4400     0.0000     0.0000 </r>
       <r>   -14.4300     0.0000     0.0000 </r>
       <r>   -14.4200     0.0000     0.0000 </r>
       <r>   -14.4100     0.0000     0.0000 </r>
       <r>   -14.4000     0.0000     0.0000 </r>
       <r>   -14.3900     0.0000     0.0000 </r>
       <r>   -14.3800     0.0000     0.0000 </r>
       <r>   -14.3700     0.0000     0.0000 </r>
       <r>   -14.3600     0.0000     0.0000 </r>
       <r>   -14.3500     0.0000     0.0000 </r>
       <r>   -14.3400     0.0000     0.0000 </r>
       <r>   -14.3300     0.0000     0.0000 </r>
       <r>   -14.3200     0.0000     0.0000 </r>
       <r>   -14.3100     0.0000     0.0000 </r>
       <r>   -14.3000     0.0000     0.0000 </r>
       <r>   -14.2900     0.0000     0.0000 </r>
       <r>   -14.2800     0.0000     0.0000 </r>
       <r>   -14.2700     0.0000     0.0000 </r>
       <r>   -14.2600     0.0000     0.0000 </r>
       <r>   -14.2500     0.0000     0.0000 </r>
       <r>   -14.2400     0.0000     0.0000 </r>
       <r>   -14.2300     0.0000     0.0000 </r>
       <r>   -14.2200     0.0000     0.0000 </r>
       <r>   -14.2100     0.0000     0.0000 </r>
       <r>   -14.2000     0.0000     0.0000 </r>
       <r>   -14.1900     0.0000     0.0000 </r>
       <r>   -14.1800     0.0000     0.0000 </r>
       <r>   -14.1700     0.0000     0.0000 </r>
       <r>   -14.1600     0.0000     0.0000 </r>
       <r>   -14.1500     0.0000     0.0000 </r>
       <r>   -14.1400     0.0000     0.0000 </r>
       <r>   -14.1300     0.0000     0.0000 </r>
       <r>   -14.1200     0.0000     0.0000 </r>
       <r>   -14.1100     0.0000     0.0000 </r>
       <r>   -14.1000     0.0000     0.0000 </r>
       <r>   -14.0900     0.0000     0.0000 </r>
       <r>   -14.0800     0.0000     0.0000 </r>
       <r>   -14.0700     0.0000     0.0000 </r>
       <r>   -14.0600     0.0000     0.0000 </r>
       <r>   -14.0500     0.0000     0.0000 </r>
       <r>   -14.0400     0.0000     0.0000 </r>
       <r>   -14.0300     0.0000     0.0000 </r>
       <r>   -14.0200     0.0000     0.0000 </r>
       <r>   -14.0100     0.0000     0.0000 </r>
       <r>   -14.0000     0.0000     0.0000 </r>
       <r>   -13.9900     0.0000     0.0000 </r>
       <r>   -13.9800     0.0000     0.0000 </r>
       <r>   -13.9700     0.0000     0.0000 </r>
       <r>   -13.9600     0.0000     0.0000 </r>
       <r>   -13.9500     0.0000     0.0000 </r>
       <r>   -13.9400     0.0000     0.0000 </r>
       <r>   -13.9300     0.0000     0.0000 </r>
       <r>   -13.9200     0.0000     0.0000 </r>
       <r>   -13.9100     0.0000     0.0000 </r>
       <r>   -13.9000     0.0000     0.0000 </r>
[...]
        <r>  0.0004  0.0004  0.0010  0.0002  0.0918  0.0023  0.0540  0.0443  0.0086 </r>
        <r>  0.0001  0.0028  0.0006  0.0002  0.0875  0.0001  0.0046  0.0061  0.0031 </r>
        <r>  0.0025  0.0000  0.0000  0.0001  0.0000  0.0000  0.0000  0.0000  0.0000 </r>
       </set>
       <set comment="band 19">
        <r>  0.0009  0.0037  0.0010  0.0001  0.1170  0.0056  0.2532  0.0035  0.0300 </r>
        <r>  0.0002  0.0006  0.0001  0.0001  0.1935  0.0526  0.0648  0.0031  0.0156 </r>
        <r>  0.0002  0.0004  0.0002  0.0000  0.1553  0.0066  0.0186  0.0193  0.0038 </r>
        <r>  0.0001  0.0009  0.0000  0.0000  0.0211  0.0004  0.0008  0.0061  0.0002 </r>
        <r>  0.0004  0.0000  0.0000  0.0000  0.0000  0.0000  0.0000  0.0000  0.0000 </r>
       </set>
       <set comment="band 20">
        <r>  0.0018  0.0040  0.0002  0.0000  0.4692  0.0137  0.0486  0.0066  0.0069 </r>
        <r>  0.0000  0.0001  0.0004  0.0000  0.1285  0.0076  0.1406  0.0133  0.0306 </r>
        <r>  0.0000  0.0004  0.0001  0.0000  0.0593  0.0155  0.0062  0.0135  0.0049 </r>
        <r>  0.0001  0.0001  0.0002  0.0000  0.0028  0.0001  0.0048  0.0033  0.0019 </r>
        <r>  0.0000  0.0000  0.0000  0.0000  0.0000  0.0000  0.0000  0.0000  0.0000 </r>
       </set>
       <set comment="band 21">
        <r>  0.0003  0.0012  0.0003  0.0000  0.0121  0.0038  0.0097  0.0013  0.0026 </r>
        <r>  0.0004  0.0038  0.0004  0.0000  0.0188  0.0130  0.0060  0.0018  0.0001 </r>
        <r>  0.0059  0.0087  0.0064  0.0001  0.0338  0.0114  0.1201  0.0159  0.0433 </r>
        <r>  0.0192  0.0820  0.0017  0.0007  0.1819  0.0647  0.0233  0.0102  0.0962 </r>
        <r>  0.0594  0.0004  0.0000  0.0002  0.0000  0.0000  0.0000  0.0000  0.0000 </r>
       </set>
       <set comment="band 22">
        <r>  0.0193  0.0423  0.0051  0.0004  0.0443  0.0129  0.0396  0.0020  0.0309 </r>
        <r>  0.0422  0.1015  0.0013  0.0011  0.0775  0.0002  0.0323  0.0004  0.0515 </r>
        <r>  0.0243  0.0494  0.0055  0.0006  0.0380  0.0121  0.0363  0.0015  0.0330 </r>
        <r>  0.0004  0.0036  0.0078  0.0000  0.0022  0.0213  0.0077  0.0039  0.0001 </r>
        <r>  0.0105  0.0001  0.0000  0.0000  0.0000  0.0000  0.0000  0.0000  0.0000 </r>
       </set>
       <set comment="band 23">
        <r>  0.0354  0.1272  0.0004  0.0012  0.0462  0.0027  0.0019  0.0006  0.0199 </r>
        <r>  0.0128  0.0033  0.0327  0.0003  0.0012  0.0323  0.0163  0.0064  0.0135 </r>
        <r>  0.0194  0.1256  0.0034  0.0007  0.0374  0.0011  0.0014  0.0022  0.0055 </r>
        <r>  0.0055  0.0010  0.0219  0.0001  0.0005  0.0355  0.0121  0.0062  0.0095 </r>
        <r>  0.0223  0.0001  0.0000  0.0000  0.0000  0.0000  0.0000  0.0000  0.0000 </r>
       </set>
       <set comment="band 24">
        <r>  0.0129  0.1121  0.0170  0.0004  0.0157  0.0027  0.0174  0.0020  0.0106 </r>
        <r>  0.0024  0.1406  0.0128  0.0000  0.0175  0.0026  0.0291  0.0020  0.0114 </r>
        <r>  0.0021  0.0304  0.0317  0.0000  0.0039  0.0112  0.0053  0.0031  0.0021 </r>
        <r>  0.0263  0.0114  0.0150  0.0012  0.0013  0.0205  0.0037  0.0025  0.0255 </r>
        <r>  0.0243  0.0009  0.0001  0.0000  0.0000  0.0000  0.0000  0.0000  0.0000 </r>
       </set>
       <set comment="band 25">
        <r>  0.0036  0.0040  0.0017  0.0001  0.0004  0.0004  0.0018  0.0002  0.0027 </r>
        <r>  0.0150  0.0172  0.0062  0.0003  0.0015  0.0000  0.0095  0.0005  0.0130 </r>
        <r>  0.0508  0.0503  0.0092  0.0010  0.0043  0.0012  0.0298  0.0004  0.0431 </r>
        <r>  0.1309  0.0838  0.0054  0.0050  0.0064  0.0153  0.0219  0.0013  0.1106 </r>
        <r>  0.0325  0.0068  0.0003  0.0000  0.0000  0.0000  0.0000  0.0000  0.0000 </r>
       </set>
       <set comment="band 26">
        <r>  0.1142  0.0308  0.0113  0.0029  0.0017  0.0150  0.0102  0.0004  0.0516 </r>
        <r>  0.1506  0.0019  0.0001  0.0049  0.0001  0.0363  0.0050  0.0000  0.0652 </r>
        <r>  0.0506  0.0138  0.0091  0.0018  0.0008  0.0301  0.0031  0.0002  0.0244 </r>
        <r>  0.0040  0.0189  0.0239  0.0001  0.0009  0.0002  0.0016  0.0011  0.0035 </r>
        <r>  0.0033  0.0017  0.0002  0.0000  0.0000  0.0000  0.0000  0.0000  0.0000 </r>
       </set>
       <set comment="band 27">
        <r>  0.1494  0.0208  0.0352  0.0043  0.0009  0.0086  0.0049  0.0009  0.0560 </r>
        <r>  0.0114  0.0127  0.0248  0.0006  0.0006  0.0139  0.0005  0.0007  0.0035 </r>
        <r>  0.0956  0.0047  0.0005  0.0039  0.0002  0.0159  0.0009  0.0000  0.0373 </r>
        <r>  0.0040  0.0152  0.0283  0.0002  0.0007  0.0144  0.0005  0.0008  0.0030 </r>
        <r>  0.0011  0.0036  0.0001  0.0000  0.0000  0.0000  0.0000  0.0000  0.0000 </r>
       </set>
       <set comment="band 28">
        <r>  0.0022  0.0014  0.0509  0.0000  0.0000  0.0067  0.0001  0.0012  0.0005 </r>
        <r>  0.0020  0.0039  0.0234  0.0003  0.0002  0.0302  0.0001  0.0006  0.0016 </r>
        <r>  0.0335  0.0198  0.0342  0.0005  0.0007  0.0332  0.0010  0.0006  0.0097 </r>
        <r>  0.0787  0.0103  0.0142  0.0014  0.0001  0.0869  0.0023  0.0001  0.0123 </r>
        <r>  0.0247  0.0069  0.0022  0.0002  0.0000  0.0000  0.0000  0.0000  0.0000 </r>
       </set>
      </set>
      <set comment="kpoint 31">
       <set comment="band 1">
        <r>  0.0000  0.0000  0.0000  0.0000  0.0000  0.0001  0.0000  0.0000  0.0000 </r>
        <r>  0.0005  0.0001  0.0001  0.0000  0.0000  0.0007  0.0002  0.0000  0.0011 </r>
        <r>  0.0057  0.0014  0.0014  0.0000  0.0000  0.0119  0.0092  0.0000  0.0029 </r>
        <r>  0.0667  0.0222  0.0010  0.0000  0.0000  0.1370  0.0013  0.0000  0.4048 </r>
        <r>  0.1395  0.0001  0.0020  0.0000  0.0000  0.0000  0.0000  0.0000  0.0000 </r>
       </set>
       <set comment="band 2">
        <r>  0.0072  0.0002  0.0013  0.0000  0.0000  0.0014  0.0030  0.0000  0.0224 </r>
        <r>  0.0133  0.0027  0.0003  0.0000  0.0000  0.1293  0.0126  0.0000  0.0357 </r>
        <r>  0.0667  0.0014  0.0003  0.0000  0.0000  0.0085  0.0060  0.0000  0.3574 </r>
        <r>  0.0007  0.0098  0.0009  0.0000  0.0000  0.0955  0.0177  0.0000  0.0470 </r>
        <r>  0.0010  0.0001  0.0001  0.0000  0.0000  0.0000  0.0000  0.0000  0.0000 </r>
       </set>
       <set comment="band 3">
        <r>  0.0021  0.0063  0.0008  0.0000  0.0000  0.0641  0.0053  0.0000  0.0018 </r>
        <r>  0.0672  0.0005  0.0001  0.0000  0.0000  0.0205  0.0075  0.0000  0.3538 </r>
        <r>  0.0000  0.0024  0.0013  0.0000  0.0000  0.2280  0.0021  0.0000  0.0003 </r>
        <r>  0.0021  0.0000  0.0015  0.0000  0.0000  0.0675  0.0045  0.0000  0.0023 </r>
        <r>  0.0031  0.0001  0.0000  0.0000  0.0000  0.0000  0.0000  0.0000  0.0000 </r>
       </set>
       <set comment="band 4">
        <r>  0.0000  0.0001  0.0005  0.0000  0.0000  0.0029  0.0122  0.0000  0.0129 </r>
        <r>  0.0039  0.0002  0.0016  0.0000  0.0000  0.0064  0.0574  0.0000  0.2105 </r>
        <r>  0.0020  0.0056  0.0001  0.0000  0.0000  0.1493  0.0608  0.0000  0.1763 </r>
        <r>  0.0118  0.0000  0.0036  0.0000  0.0000  0.1216  0.0368  0.0000  0.0169 </r>
        <r>  0.0016  0.0003  0.0000  0.0000  0.0000  0.0000  0.0000  0.0000  0.0000 </r>
       </set>
       <set comment="band 5">
        <r>  0.0410  0.0019  0.0031  0.0000  0.0000  0.0339  0.0016  0.0000  0.2741 </r>
        <r>  0.0000  0.0060  0.0009  0.0000  0.0000  0.2769  0.0004  0.0000  0.0009 </r>
        <r>  0.0009  0.0037  0.0024  0.0000  0.0000  0.0018  0.0142  0.0000  0.0511 </r>
        <r>  0.0007  0.0001  0.0000  0.0000  0.0000  0.0986  0.0102  0.0000  0.0373 </r>
        <r>  0.0021  0.0002  0.0000  0.0000  0.0000  0.0000  0.0000  0.0000  0.0000 </r>
       </set>
       <set comment="band 6">
        <r>  0.0143  0.0031  0.0001  0.0000  0.0000  0.0660  0.0394  0.0000  0.3535 </r>
        <r>  0.0028  0.0028  0.0028  0.0000  0.0000  0.0869  0.0796  0.0000  0.0205 </r>
        <r>  0.0063  0.0092  0.0013  0.0000  0.0000  0.0003  0.0075  0.0000  0.0280 </r>
        <r>  0.0039  0.0043  0.0011  0.0000  0.0000  0.1041  0.0007  0.0000  0.0381 </r>
        <r>  0.0059  0.0004  0.0000  0.0000  0.0000  0.0000  0.0000  0.0000  0.0000 </r>
       </set>
       <set comment="band 7">
        <r>  0.0009  0.0036  0.0004  0.0000  0.0000  0.2256  0.0100  0.0000  0.0001 </r>
        <r>  0.0011  0.0167  0.0043  0.0000  0.0000  0.0095  0.0226  0.0000  0.0014 </r>
        <r>  0.0038  0.0006  0.0001  0.0000  0.0000  0.1837  0.0035  0.0000  0.0308 </r>
        <r>  0.0002  0.0209  0.0002  0.0000  0.0000  0.0731  0.1400  0.0000  0.1140 </r>
        <r>  0.0123  0.0003  0.0000  0.0000  0.0000  0.0000  0.0000  0.0000  0.0000 </r>
       </set>
       <set comment="band 8">
        <r>  0.0012  0.0001  0.0001  0.0000  0.0000  0.1326  0.0067  0.0000  0.0556 </r>
        <r>  0.0000  0.0065  0.0001  0.0000  0.0000  0.0970  0.1144  0.0000  0.1063 </r>
        <r>  0.0014  0.0013  0.0003  0.0000  0.0000  0.0436  0.2223  0.0000  0.0929 </r>
        <r>  0.0003  0.0022  0.0008  0.0000  0.0000  0.0051  0.0416  0.0000  0.0093 </r>
        <r>  0.0012  0.0000  0.0000  0.0000  0.0000  0.0000  0.0000  0.0000  0.0000 </r>
       </set>
       <set comment="band 9">
        <r>  0.0000  0.0000  0.0000  0.0001  0.0001  0.0000  0.0000  0.0158  0.0000 </r>
        <r>  0.0000  0.0000  0.0000  0.0002  0.0008  0.0000  0.0000  0.1282  0.0000 </r>
        <r>  0.0000  0.0000  0.0000  0.0001  0.0020  0.0000  0.0000  0.3352  0.0000 </r>
        <r>  0.0000  0.0000  0.0000  0.0002  0.0046  0.0000  0.0000  0.4777  0.0000 </r>
        <r>  0.0000  0.0000  0.0000  0.0009  0.0000  0.0000  0.0000  0.0000  0.0000 </r>
       </set>
       <set comment="band 10">
        <r>  0.0022  0.0002  0.0011  0.0000  0.0000  0.1977  0.0689  0.0000  0.0044 </r>
        <r>  0.0001  0.0017  0.0086  0.0000  0.0000  0.0603  0.0055  0.0000  0.0006 </r>
        <r>  0.0097  0.0141  0.0032  0.0000  0.0000  0.0407  0.2542  0.0000  0.0004 </r>
        <r>  0.0008  0.0603  0.0025  0.0000  0.0000  0.0120  0.0709  0.0000  0.0070 </r>
        <r>  0.0320  0.0000  0.0001  0.0000  0.0000  0.0000  0.0000  0.0000  0.0000 </r>
       </set>
       <set comment="band 11">
        <r>  0.0016  0.0001  0.0019  0.0000  0.0000  0.0134  0.1397  0.0000  0.0405 </r>
        <r>  0.0037  0.0203  0.0017  0.0000  0.0000  0.0251  0.1623  0.0000  0.0058 </r>
        <r>  0.0018  0.0307  0.0004  0.0000  0.0000  0.0272  0.0665  0.0000  0.0002 </r>
        <r>  0.0080  0.0028  0.0004  0.0000  0.0000  0.0077  0.3443  0.0000  0.0010 </r>
        <r>  0.0002  0.0003  0.0001  0.0000  0.0000  0.0000  0.0000  0.0000  0.0000 </r>
       </set>
       <set comment="band 12">
        <r>  0.0000  0.0000  0.0000  0.0006  0.0008  0.0000  0.0000  0.1673  0.0000 </r>
        <r>  0.0000  0.0000  0.0000  0.0001  0.0014  0.0000  0.0000  0.4625  0.0000 </r>
        <r>  0.0000  0.0000  0.0000  0.0015  0.0001  0.0000  0.0000  0.0235  0.0000 </r>
        <r>  0.0000  0.0000  0.0000  0.0000  0.0019  0.0000  0.0000  0.3100  0.0000 </r>
        <r>  0.0000  0.0000  0.0000  0.0007  0.0000  0.0000  0.0000  0.0000  0.0000 </r>
       </set>
       <set comment="band 13">
        <r>  0.0000  0.0000  0.0000  0.0001  0.0002  0.0000  0.0000  0.3634  0.0000 </r>
        <r>  0.0000  0.0000  0.0000  0.0018  0.0000  0.0000  0.0000  0.0112  0.0000 </r>
        <r>  0.0000  0.0000  0.0000  0.0001  0.0003  0.0000  0.0000  0.4432  0.0000 </r>
        <r>  0.0000  0.0000  0.0000  0.0006  0.0004  0.0000  0.0000  0.1579  0.0000 </r>
        <r>  0.0000  0.0000  0.0000  0.0004  0.0000  0.0000  0.0000  0.0000  0.0000 </r>
       </set>
       <set comment="band 14">
        <r>  0.0060  0.0026  0.0000  0.0000  0.0000  0.0266  0.3734  0.0000  0.0056 </r>
        <r>  0.0001  0.0160  0.0013  0.0000  0.0000  0.0928  0.0550  0.0000  0.0003 </r>
        <r>  0.0000  0.0024  0.0084  0.0000  0.0000  0.0777  0.0058  0.0000  0.0016 </r>
        <r>  0.0005  0.0301  0.0003  0.0000  0.0000  0.0001  0.1630  0.0000  0.0392 </r>
        <r>  0.0066  0.0005  0.0001  0.0000  0.0000  0.0000  0.0000  0.0000  0.0000 </r>
       </set>
       <set comment="band 15">
        <r>  0.0000  0.0000  0.0000  0.0000  0.0000  0.0000  0.0000  0.0017  0.0000 </r>
        <r>  0.0000  0.0000  0.0000  0.0000  0.0000  0.0000  0.0000  0.0002  0.0000 </r>
        <r>  0.0000  0.0000  0.0000  0.0000  0.0028  0.0000  0.0000  0.0013  0.0000 </r>
        <r>  0.0000  0.0000  0.0000  0.0000  0.9830  0.0000  0.0000  0.0050  0.0000 </r>
        <r>  0.0000  0.0000  0.0000  0.0003  0.0000  0.0000  0.0000  0.0000  0.0000 </r>
       </set>
       <set comment="band 16">
        <r>  0.0029  0.0151  0.0001  0.0000  0.0000  0.1029  0.1445  0.0000  0.0247 </r>
        <r>  0.0021  0.0100  0.0000  0.0000  0.0000  0.0058  0.3462  0.0000  0.0549 </r>
        <r>  0.0002  0.0012  0.0073  0.0000  0.0000  0.0797  0.0062  0.0000  0.0113 </r>
        <r>  0.0000  0.0177  0.0046  0.0000  0.0000  0.0243  0.0451  0.0000  0.0000 </r>
        <r>  0.0136  0.0000  0.0000  0.0000  0.0000  0.0000  0.0000  0.0000  0.0000 </r>
       </set>
       <set comment="band 17">
        <r>  0.0000  0.0000  0.0000  0.0003  0.0019  0.0000  0.0000  0.3832  0.0000 </r>
        <r>  0.0000  0.0000  0.0000  0.0001  0.0592  0.0000  0.0000  0.3352  0.0000 </r>
        <r>  0.0000  0.0000  0.0000  0.0002  0.0398  0.0000  0.0000  0.1505  0.0000 </r>
        <r>  0.0000  0.0000  0.0000  0.0002  0.0004  0.0000  0.0000  0.0178  0.0000 </r>
        <r>  0.0000  0.0000  0.0000  0.0001  0.0000  0.0000  0.0000  0.0000  0.0000 </r>
       </set>
       <set comment="band 18">
        <r>  0.0000  0.0000  0.0000  0.0000  0.0012  0.0000  0.0000  0.0000  0.0000 </r>
        <r>  0.0000  0.0000  0.0000  0.0000  0.2828  0.0000  0.0000  0.0043  0.0000 </r>
        <r>  0.0000  0.0000  0.0000  0.0000  0.7020  0.0000  0.0000  0.0001  0.0000 </r>
        <r>  0.0000  0.0000  0.0000  0.0000  0.0026  0.0000  0.0000  0.0009  0.0000 </r>
        <r>  0.0000  0.0000  0.0000  0.0000  0.0000  0.0000  0.0000  0.0000  0.0000 </r>
       </set>
       <set comment="band 19">
        <r>  0.0000  0.0000  0.0000  0.0000  0.0136  0.0000  0.0000  0.0432  0.0000 </r>
        <r>  0.0000  0.0000  0.0000  0.0000  0.6391  0.0000  0.0000  0.0276  0.0000 </r>
        <r>  0.0000  0.0000  0.0000  0.0000  0.2468  0.0000  0.0000  0.0188  0.0000 </r>
        <r>  0.0000  0.0000  0.0000  0.0000  0.0011  0.0000  0.0000  0.0039  0.0000 </r>
        <r>  0.0000  0.0000  0.0000  0.0000  0.0000  0.0000  0.0000  0.0000  0.0000 </r>
       </set>
       <set comment="band 20">
        <r>  0.0000  0.0000  0.0000  0.0000  0.9765  0.0000  0.0000  0.0008  0.0000 </r>
        <r>  0.0000  0.0000  0.0000  0.0000  0.0109  0.0000  0.0000  0.0047  0.0000 </r>
        <r>  0.0000  0.0000  0.0000  0.0000  0.0004  0.0000  0.0000  0.0011  0.0000 </r>
        <r>  0.0000  0.0000  0.0000  0.0000  0.0000  0.0000  0.0000  0.0001  0.0000 </r>
        <r>  0.0000  0.0000  0.0000  0.0000  0.0000  0.0000  0.0000  0.0000  0.0000 </r>
       </set>
       <set comment="band 21">
        <r>  0.0001  0.0042  0.0020  0.0000  0.0000  0.0081  0.0856  0.0000  0.0155 </r>
        <r>  0.0000  0.0171  0.0003  0.0000  0.0000  0.0461  0.0000  0.0000  0.0032 </r>
        <r>  0.0018  0.0102  0.0103  0.0000  0.0000  0.0055  0.2116  0.0000  0.0555 </r>
        <r>  0.0018  0.1011  0.0009  0.0000  0.0000  0.0754  0.0380  0.0000  0.0889 </r>
        <r>  0.0555  0.0003  0.0001  0.0000  0.0000  0.0000  0.0000  0.0000  0.0000 </r>
       </set>
       <set comment="band 22">
        <r>  0.0047  0.0826  0.0055  0.0000  0.0000  0.0174  0.0385  0.0000  0.0158 </r>
        <r>  0.0002  0.1324  0.0129  0.0000  0.0000  0.0001  0.0010  0.0000  0.0007 </r>
        <r>  0.0147  0.1101  0.0009  0.0000  0.0000  0.0129  0.0717  0.0000  0.0388 </r>
        <r>  0.0022  0.0046  0.0150  0.0000  0.0000  0.0361  0.0159  0.0000  0.0002 </r>
        <r>  0.0163  0.0000  0.0000  0.0000  0.0000  0.0000  0.0000  0.0000  0.0000 </r>
       </set>
       <set comment="band 23">
        <r>  0.0010  0.0993  0.0007  0.0000  0.0000  0.0027  0.0023  0.0000  0.0017 </r>
        <r>  0.0668  0.0295  0.0021  0.0000  0.0000  0.0156  0.1040  0.0000  0.0956 </r>
        <r>  0.0025  0.1617  0.0109  0.0000  0.0000  0.0019  0.0041  0.0000  0.0033 </r>
        <r>  0.0143  0.0004  0.0179  0.0000  0.0000  0.0110  0.0205  0.0000  0.0120 </r>
        <r>  0.0049  0.0000  0.0000  0.0000  0.0000  0.0000  0.0000  0.0000  0.0000 </r>
       </set>
       <set comment="band 24">
        <r>  0.0347  0.1815  0.0160  0.0000  0.0000  0.0000  0.0368  0.0000  0.0444 </r>
        <r>  0.0110  0.1168  0.0473  0.0000  0.0000  0.0018  0.0097  0.0000  0.0113 </r>
        <r>  0.0199  0.0300  0.0152  0.0000  0.0000  0.0027  0.0165  0.0000  0.0214 </r>
        <r>  0.0038  0.0001  0.0033  0.0000  0.0000  0.0018  0.0030  0.0000  0.0027 </r>
        <r>  0.0007  0.0000  0.0000  0.0000  0.0000  0.0000  0.0000  0.0000  0.0000 </r>
       </set>
       <set comment="band 25">
        <r>  0.0003  0.0000  0.0001  0.0000  0.0000  0.0000  0.0002  0.0000  0.0003 </r>
        <r>  0.0015  0.0008  0.0002  0.0000  0.0000  0.0003  0.0006  0.0000  0.0011 </r>
        <r>  0.0457  0.0013  0.0135  0.0000  0.0000  0.0018  0.0167  0.0000  0.0362 </r>
        <r>  0.1839  0.0766  0.0151  0.0000  0.0000  0.0361  0.0246  0.0000  0.1679 </r>
        <r>  0.0552  0.0088  0.0005  0.0000  0.0000  0.0000  0.0000  0.0000  0.0000 </r>
       </set>
       <set comment="band 26">
        <r>  0.1460  0.0261  0.0003  0.0000  0.0000  0.0086  0.0096  0.0000  0.0657 </r>
        <r>  0.1073  0.0003  0.0015  0.0000  0.0000  0.0670  0.0042  0.0000  0.0511 </r>
        <r>  0.1007  0.0066  0.0100  0.0000  0.0000  0.0228  0.0044  0.0000  0.0457 </r>
        <r>  0.0002  0.0143  0.0223  0.0000  0.0000  0.0010  0.0001  0.0000  0.0003 </r>
        <r>  0.0026  0.0016  0.0001  0.0000  0.0000  0.0000  0.0000  0.0000  0.0000 </r>
       </set>
       <set comment="band 27">
        <r>  0.1923  0.0001  0.0493  0.0000  0.0000  0.0001  0.0028  0.0000  0.0674 </r>
        <r>  0.0328  0.0378  0.0082  0.0000  0.0000  0.0002  0.0003  0.0000  0.0116 </r>
        <r>  0.0474  0.0015  0.0016  0.0000  0.0000  0.0411  0.0001  0.0000  0.0191 </r>
        <r>  0.0030  0.0119  0.0375  0.0000  0.0000  0.0034  0.0002  0.0000  0.0007 </r>
        <r>  0.0021  0.0019  0.0002  0.0000  0.0000  0.0000  0.0000  0.0000  0.0000 </r>
       </set>
       <set comment="band 28">
        <r>  0.0034  0.0171  0.0094  0.0000  0.0000  0.0228  0.0000  0.0000  0.0007 </r>
        <r>  0.1049  0.0068  0.0002  0.0000  0.0000  0.0000  0.0000  0.0000  0.0335 </r>
        <r>  0.0928  0.0038  0.0347  0.0000  0.0000  0.0149  0.0000  0.0000  0.0281 </r>
        <r>  0.0371  0.0001  0.0216  0.0000  0.0000  0.1151  0.0006  0.0000  0.0041 </r>
        <r>  0.0166  0.0083  0.0007  0.0000  0.0000  0.0000  0.0000  0.0000  0.0000 </r>
       </set>
      </set>
     </set>
    </set>
   </array>
  </projected>
 </calculation>
 <structure name="finalpos" >
  <crystal>
   <varray name="basis" >
    <v>       2.57386868       0.00000000       0.00000000 </v>
    <v>       1.28693434       2.22903567       0.00000000 </v>
    <v>       0.00000000       0.00000000      30.30466494 </v>
   </varray>
   <i name="volume">    173.86529028 </i>
   <varray name="rec_basis" >
    <v>       0.38852021      -0.22431225       0.00000000 </v>
    <v>       0.00000000       0.44862450       0.00000000 </v>
    <v>       0.00000000       0.00000000       0.03299822 </v>
   </varray>
  </crystal>
  <varray name="positions" >
   <v>       0.00000000       0.00000000       0.39597864 </v>
   <v>       0.33333333       0.33333333       0.46532621 </v>
   <v>       0.66666666       0.66666667       0.53467379 </v>
   <v>       0.00000000       0.00000000       0.60402136 </v>
   <v>       0.35576456       0.28847088       0.63701958 </v>
  </varray>
 </structure>
</modeling>
