unknown system                          
   3.90000000000000     
     1.000000    0.000000    0.000000
     0.000000    1.000000    0.000000
     0.000000    0.000000    1.000000
   Pt
     4
Direct
  0.000000  0.000000  0.000000
  0.000000  0.500000  0.500000
  0.500000  0.000000  0.500000
  0.500000  0.500000  0.000000
 
   48   48   48
  226.43      222.38      211.21      195.45      178.00      160.96      144.96      129.36      113.10      95.650    
  77.571      60.297      45.437      34.007      26.023      20.619      16.770      14.059      12.160      10.816    
  9.8588      9.1883      8.7463      8.4961      8.4153      8.4961      8.7463      9.1883      9.8588      10.816    
  12.160      14.059      16.770      20.619      26.023      34.007      45.437      60.297      77.571      95.650    
  113.10      129.36      144.96      160.96      178.00      195.45      211.21      222.38      222.38      218.45    
  207.64      192.37      175.41      158.79      143.09      127.70      111.59      94.319      76.463      59.451    
  44.857      33.654      25.835      20.525      16.735      14.065      12.192      10.866      9.9210      9.2589    
  8.8226      8.5758      8.4961      8.5758      8.8226      9.2589      9.9210      10.866      12.192      14.065    
  16.735      20.525      25.835      33.654      44.857      59.451      76.463      94.319      111.59      127.70    
  143.09      158.79      175.41      192.37      207.64      218.45      211.21      207.64      197.79      183.82    
  168.19      152.68      137.78      122.91      107.25      90.481      73.273      57.024      43.200      32.654    
  25.301      20.261      16.644      14.093      12.299      11.025      10.115      9.4785      9.0593      8.8226    
  8.7463      8.8226      9.0593      9.4785      10.115      11.025      12.299      14.093      16.644      20.261    
  25.301      32.654      43.200      57.024      73.273      90.481      107.25      122.91      137.78      152.68    
  168.19      183.82      197.79      207.64      195.45      192.37      183.82      171.59      157.74      143.67    
  129.77      115.60      100.55      84.555      68.368      53.319      40.693      31.158      24.514      19.881    
  16.537      14.173      12.505      11.315      10.464      9.8688      9.4785      9.2589      9.1883      9.2589    
  9.4785      9.8688      10.464      11.315      12.505      14.173      16.537      19.881      24.514      31.158    
  40.693      53.319      68.368      84.555      100.55      115.60      129.77      143.67      157.74      171.59    
  183.82      192.37      178.00      175.41      168.19      157.74      145.62      132.93      119.97      106.47    
  92.131      77.122      62.268      48.768      37.662      29.381      23.594      19.460      16.468      14.348    
  12.845      11.769      11.000      10.464      10.115      9.9210      9.8588      9.9210      10.115      10.464    
  11.000      11.769      12.845      14.348      16.468      19.460      23.594      29.381      37.662      48.768    
  62.268      77.122      92.131      106.47      119.97      132.93      145.62      157.74      168.19      175.41    
  160.96      158.79      152.68      143.67      132.93      121.28      109.05      96.159      82.617      68.804    
  55.548      43.850      34.457      27.545      22.661      19.083      16.499      14.666      13.362      12.431    
  11.769      11.315      11.025      10.866      10.816      10.866      11.025      11.315      11.769      12.431    
  13.362      14.666      16.499      19.083      22.661      27.545      34.457      43.850      55.548      68.804    
  82.617      96.159      109.05      121.28      132.93      143.67      152.68      158.79      144.96      143.09    
  137.78      129.77      119.97      109.05      97.375      85.133      72.567      60.192      48.756      39.009    
  31.390      25.837      21.814      18.834      16.694      15.181      14.113      13.362      12.845      12.505    
  12.299      12.192      12.160      12.192      12.299      12.505      12.845      13.362      14.113      15.181    
  16.694      18.834      21.814      25.837      31.390      39.009      48.756      60.192      72.567      85.133    
  97.375      109.05      119.97      129.77      137.78      143.09      129.36      127.70      122.91      115.60    
  106.47      96.159      85.133      73.766      62.478      51.809      42.359      34.600      28.689      24.373    
  21.150      18.789      17.119      15.965      15.181      14.666      14.348      14.173      14.093      14.065    
  14.059      14.065      14.093      14.173      14.348      14.666      15.181      15.965      17.119      18.789    
  21.150      24.373      28.689      34.600      42.359      51.809      62.478      73.766      85.133      96.159    
  106.47      115.60      122.91      127.70      113.10      111.59      107.25      100.55      92.131      82.617    
  72.567      62.478      52.831      44.105      36.707      30.852      26.469      23.199      20.757      19.026    
  17.860      17.119      16.694      16.499      16.468      16.537      16.644      16.735      16.770      16.735    
  16.644      16.537      16.468      16.499      16.694      17.119      17.860      19.026      20.757      23.199    
  26.469      30.852      36.707      44.105      52.831      62.478      72.567      82.617      92.131      100.55    
  107.25      111.59      95.650      94.319      90.481      84.555      77.122      68.804      60.192      51.809    
  44.105      37.437      32.016      27.852      24.731      22.378      20.712      19.632      19.026      18.789    
  18.834      19.083      19.460      19.881      20.261      20.525      20.619      20.525      20.261      19.881    
  19.460      19.083      18.834      18.789      19.026      19.632      20.712      22.378      24.731      27.852    
  32.016      37.437      44.105      51.809      60.192      68.804      77.122      84.555      90.481      94.319    
  77.571      76.463      73.273      68.368      62.268      55.548      48.756      42.359      36.707      32.016    
  28.337      25.549      23.447      21.978      21.092      20.712      20.757      21.150      21.814      22.661    
  23.594      24.514      25.301      25.835      26.023      25.835      25.301      24.514      23.594      22.661    
  21.814      21.150      20.757      20.712      21.092      21.978      23.447      25.549      28.337      32.016    
  36.707      42.359      48.756      55.548      62.268      68.368      73.273      76.463      60.297      59.451    
  57.024      53.319      48.768      43.850      39.009      34.600      30.852      27.852      25.549      23.820    
  22.659      22.056      21.978      22.378      23.199      24.373      25.837      27.545      29.381      31.158    
  32.654      33.654      34.007      33.654      32.654      31.158      29.381      27.545      25.837      24.373    
  23.199      22.378      21.978      22.056      22.659      23.820      25.549      27.852      30.852      34.600    
  39.009      43.850      48.768      53.319      57.024      59.451      45.437      44.857      43.200      40.693    
  37.662      34.457      31.390      28.689      26.469      24.731      23.447      22.659      22.393      22.659    
  23.447      24.731      26.469      28.689      31.390      34.457      37.662      40.693      43.200      44.857    
  45.437      44.857      43.200      40.693      37.662      34.457      31.390      28.689      26.469      24.731    
  23.447      22.659      22.393      22.659      23.447      24.731      26.469      28.689      31.390      34.457    
  37.662      40.693      43.200      44.857      34.007      33.654      32.654      31.158      29.381      27.545    
  25.837      24.373      23.199      22.378      21.978      22.056      22.659      23.820      25.549      27.852    
  30.852      34.600      39.009      43.850      48.768      53.319      57.024      59.451      60.297      59.451    
  57.024      53.319      48.768      43.850      39.009      34.600      30.852      27.852      25.549      23.820    
  22.659      22.056      21.978      22.378      23.199      24.373      25.837      27.545      29.381      31.158    
  32.654      33.654      26.023      25.835      25.301      24.514      23.594      22.661      21.814      21.150    
  20.757      20.712      21.092      21.978      23.447      25.549      28.337      32.016      36.707      42.359    
  48.756      55.548      62.268      68.368      73.273      76.463      77.571      76.463      73.273      68.368    
  62.268      55.548      48.756      42.359      36.707      32.016      28.337      25.549      23.447      21.978    
  21.092      20.712      20.757      21.150      21.814      22.661      23.594      24.514      25.301      25.835    
  20.619      20.525      20.261      19.881      19.460      19.083      18.834      18.789      19.026      19.632    
  20.712      22.378      24.731      27.852      32.016      37.437      44.105      51.809      60.192      68.804    
  77.122      84.555      90.481      94.319      95.650      94.319      90.481      84.555      77.122      68.804    
  60.192      51.809      44.105      37.437      32.016      27.852      24.731      22.378      20.712      19.632    
  19.026      18.789      18.834      19.083      19.460      19.881      20.261      20.525      16.770      16.735    
  16.644      16.537      16.468      16.499      16.694      17.119      17.860      19.026      20.757      23.199    
  26.469      30.852      36.707      44.105      52.831      62.478      72.567      82.617      92.131      100.55    
  107.25      111.59      113.10      111.59      107.25      100.55      92.131      82.617      72.567      62.478    
  52.831      44.105      36.707      30.852      26.469      23.199      20.757      19.026      17.860      17.119    
  16.694      16.499      16.468      16.537      16.644      16.735      14.059      14.065      14.093      14.173    
  14.348      14.666      15.181      15.965      17.119      18.789      21.150      24.373      28.689      34.600    
  42.359      51.809      62.478      73.766      85.133      96.159      106.47      115.60      122.91      127.70    
  129.36      127.70      122.91      115.60      106.47      96.159      85.133      73.766      62.478      51.809    
  42.359      34.600      28.689      24.373      21.150      18.789      17.119      15.965      15.181      14.666    
  14.348      14.173      14.093      14.065      12.160      12.192      12.299      12.505      12.845      13.362    
  14.113      15.181      16.694      18.834      21.814      25.837      31.390      39.009      48.756      60.192    
  72.567      85.133      97.375      109.05      119.97      129.77      137.78      143.09      144.96      143.09    
  137.78      129.77      119.97      109.05      97.375      85.133      72.567      60.192      48.756      39.009    
  31.390      25.837      21.814      18.834      16.694      15.181      14.113      13.362      12.845      12.505    
  12.299      12.192      10.816      10.866      11.025      11.315      11.769      12.431      13.362      14.666    
  16.499      19.083      22.661      27.545      34.457      43.850      55.548      68.804      82.617      96.159    
  109.05      121.28      132.93      143.67      152.68      158.79      160.96      158.79      152.68      143.67    
  132.93      121.28      109.05      96.159      82.617      68.804      55.548      43.850      34.457      27.545    
  22.661      19.083      16.499      14.666      13.362      12.431      11.769      11.315      11.025      10.866    
  9.8588      9.9210      10.115      10.464      11.000      11.769      12.845      14.348      16.468      19.460    
  23.594      29.381      37.662      48.768      62.268      77.122      92.131      106.47      119.97      132.93    
  145.62      157.74      168.19      175.41      178.00      175.41      168.19      157.74      145.62      132.93    
  119.97      106.47      92.131      77.122      62.268      48.768      37.662      29.381      23.594      19.460    
  16.468      14.348      12.845      11.769      11.000      10.464      10.115      9.9210      9.1883      9.2589    
  9.4785      9.8688      10.464      11.315      12.505      14.173      16.537      19.881      24.514      31.158    
  40.693      53.319      68.368      84.555      100.55      115.60      129.77      143.67      157.74      171.59    
  183.82      192.37      195.45      192.37      183.82      171.59      157.74      143.67      129.77      115.60    
  100.55      84.555      68.368      53.319      40.693      31.158      24.514      19.881      16.537      14.173    
  12.505      11.315      10.464      9.8688      9.4785      9.2589      8.7463      8.8226      9.0593      9.4785    
  10.115      11.025      12.299      14.093      16.644      20.261      25.301      32.654      43.200      57.024    
  73.273      90.481      107.25      122.91      137.78      152.68      168.19      183.82      197.79      207.64    
  211.21      207.64      197.79      183.82      168.19      152.68      137.78      122.91      107.25      90.481    
  73.273      57.024      43.200      32.654      25.301      20.261      16.644      14.093      12.299      11.025    
  10.115      9.4785      9.0593      8.8226      8.4961      8.5758      8.8226      9.2589      9.9210      10.866    
  12.192      14.065      16.735      20.525      25.835      33.654      44.857      59.451      76.463      94.319    
  111.59      127.70      143.09      158.79      175.41      192.37      207.64      218.45      222.38      218.45    
  207.64      192.37      175.41      158.79      143.09      127.70      111.59      94.319      76.463      59.451    
  44.857      33.654      25.835      20.525      16.735      14.065      12.192      10.866      9.9210      9.2589    
  8.8226      8.5758      8.4153      8.4961      8.7463      9.1883      9.8588      10.816      12.160      14.059    
  16.770      20.619      26.023      34.007      45.437      60.297      77.571      95.650      113.10      129.36    
  144.96      160.96      178.00      195.45      211.21      222.38      226.43      222.38      211.21      195.45    
  178.00      160.96      144.96      129.36      113.10      95.650      77.571      60.297      45.437      34.007    
  26.023      20.619      16.770      14.059      12.160      10.816      9.8588      9.1883      8.7463      8.4961    
  8.4961      8.5758      8.8226      9.2589      9.9210      10.866      12.192      14.065      16.735      20.525    
  25.835      33.654      44.857      59.451      76.463      94.319      111.59      127.70      143.09      158.79    
  175.41      192.37      207.64      218.45      222.38      218.45      207.64      192.37      175.41      158.79    
  143.09      127.70      111.59      94.319      76.463      59.451      44.857      33.654      25.835      20.525    
  16.735      14.065      12.192      10.866      9.9210      9.2589      8.8226      8.5758      8.7463      8.8226    
  9.0593      9.4785      10.115      11.025      12.299      14.093      16.644      20.261      25.301      32.654    
  43.200      57.024      73.273      90.481      107.25      122.91      137.78      152.68      168.19      183.82    
  197.79      207.64      211.21      207.64      197.79      183.82      168.19      152.68      137.78      122.91    
  107.25      90.481      73.273      57.024      43.200      32.654      25.301      20.261      16.644      14.093    
  12.299      11.025      10.115      9.4785      9.0593      8.8226      9.1883      9.2589      9.4785      9.8688    
  10.464      11.315      12.505      14.173      16.537      19.881      24.514      31.158      40.693      53.319    
  68.368      84.555      100.55      115.60      129.77      143.67      157.74      171.59      183.82      192.37    
  195.45      192.37      183.82      171.59      157.74      143.67      129.77      115.60      100.55      84.555    
  68.368      53.319      40.693      31.158      24.514      19.881      16.537      14.173      12.505      11.315    
  10.464      9.8688      9.4785      9.2589      9.8588      9.9210      10.115      10.464      11.000      11.769    
  12.845      14.348      16.468      19.460      23.594      29.381      37.662      48.768      62.268      77.122    
  92.131      106.47      119.97      132.93      145.62      157.74      168.19      175.41      178.00      175.41    
  168.19      157.74      145.62      132.93      119.97      106.47      92.131      77.122      62.268      48.768    
  37.662      29.381      23.594      19.460      16.468      14.348      12.845      11.769      11.000      10.464    
  10.115      9.9210      10.816      10.866      11.025      11.315      11.769      12.431      13.362      14.666    
  16.499      19.083      22.661      27.545      34.457      43.850      55.548      68.804      82.617      96.159    
  109.05      121.28      132.93      143.67      152.68      158.79      160.96      158.79      152.68      143.67    
  132.93      121.28      109.05      96.159      82.617      68.804      55.548      43.850      34.457      27.545    
  22.661      19.083      16.499      14.666      13.362      12.431      11.769      11.315      11.025      10.866    
  12.160      12.192      12.299      12.505      12.845      13.362      14.113      15.181      16.694      18.834    
  21.814      25.837      31.390      39.009      48.756      60.192      72.567      85.133      97.375      109.05    
  119.97      129.77      137.78      143.09      144.96      143.09      137.78      129.77      119.97      109.05    
  97.375      85.133      72.567      60.192      48.756      39.009      31.390      25.837      21.814      18.834    
  16.694      15.181      14.113      13.362      12.845      12.505      12.299      12.192      14.059      14.065    
  14.093      14.173      14.348      14.666      15.181      15.965      17.119      18.789      21.150      24.373    
  28.689      34.600      42.359      51.809      62.478      73.766      85.133      96.159      106.47      115.60    
  122.91      127.70      129.36      127.70      122.91      115.60      106.47      96.159      85.133      73.766    
  62.478      51.809      42.359      34.600      28.689      24.373      21.150      18.789      17.119      15.965    
  15.181      14.666      14.348      14.173      14.093      14.065      16.770      16.735      16.644      16.537    
  16.468      16.499      16.694      17.119      17.860      19.026      20.757      23.199      26.469      30.852    
  36.707      44.105      52.831      62.478      72.567      82.617      92.131      100.55      107.25      111.59    
  113.10      111.59      107.25      100.55      92.131      82.617      72.567      62.478      52.831      44.105    
  36.707      30.852      26.469      23.199      20.757      19.026      17.860      17.119      16.694      16.499    
  16.468      16.537      16.644      16.735      20.619      20.525      20.261      19.881      19.460      19.083    
  18.834      18.789      19.026      19.632      20.712      22.378      24.731      27.852      32.016      37.437    
  44.105      51.809      60.192      68.804      77.122      84.555      90.481      94.319      95.650      94.319    
  90.481      84.555      77.122      68.804      60.192      51.809      44.105      37.437      32.016      27.852    
  24.731      22.378      20.712      19.632      19.026      18.789      18.834      19.083      19.460      19.881    
  20.261      20.525      26.023      25.835      25.301      24.514      23.594      22.661      21.814      21.150    
  20.757      20.712      21.092      21.978      23.447      25.549      28.337      32.016      36.707      42.359    
  48.756      55.548      62.268      68.368      73.273      76.463      77.571      76.463      73.273      68.368    
  62.268      55.548      48.756      42.359      36.707      32.016      28.337      25.549      23.447      21.978    
  21.092      20.712      20.757      21.150      21.814      22.661      23.594      24.514      25.301      25.835    
  34.007      33.654      32.654      31.158      29.381      27.545      25.837      24.373      23.199      22.378    
  21.978      22.056      22.659      23.820      25.549      27.852      30.852      34.600      39.009      43.850    
  48.768      53.319      57.024      59.451      60.297      59.451      57.024      53.319      48.768      43.850    
  39.009      34.600      30.852      27.852      25.549      23.820      22.659      22.056      21.978      22.378    
  23.199      24.373      25.837      27.545      29.381      31.158      32.654      33.654      45.437      44.857    
  43.200      40.693      37.662      34.457      31.390      28.689      26.469      24.731      23.447      22.659    
  22.393      22.659      23.447      24.731      26.469      28.689      31.390      34.457      37.662      40.693    
  43.200      44.857      45.437      44.857      43.200      40.693      37.662      34.457      31.390      28.689    
  26.469      24.731      23.447      22.659      22.393      22.659      23.447      24.731      26.469      28.689    
  31.390      34.457      37.662      40.693      43.200      44.857      60.297      59.451      57.024      53.319    
  48.768      43.850      39.009      34.600      30.852      27.852      25.549      23.820      22.659      22.056    
  21.978      22.378      23.199      24.373      25.837      27.545      29.381      31.158      32.654      33.654    
  34.007      33.654      32.654      31.158      29.381      27.545      25.837      24.373      23.199      22.378    
  21.978      22.056      22.659      23.820      25.549      27.852      30.852      34.600      39.009      43.850    
  48.768      53.319      57.024      59.451      77.571      76.463      73.273      68.368      62.268      55.548    
  48.756      42.359      36.707      32.016      28.337      25.549      23.447      21.978      21.092      20.712    
  20.757      21.150      21.814      22.661      23.594      24.514      25.301      25.835      26.023      25.835    
  25.301      24.514      23.594      22.661      21.814      21.150      20.757      20.712      21.092      21.978    
  23.447      25.549      28.337      32.016      36.707      42.359      48.756      55.548      62.268      68.368    
  73.273      76.463      95.650      94.319      90.481      84.555      77.122      68.804      60.192      51.809    
  44.105      37.437      32.016      27.852      24.731      22.378      20.712      19.632      19.026      18.789    
  18.834      19.083      19.460      19.881      20.261      20.525      20.619      20.525      20.261      19.881    
  19.460      19.083      18.834      18.789      19.026      19.632      20.712      22.378      24.731      27.852    
  32.016      37.437      44.105      51.809      60.192      68.804      77.122      84.555      90.481      94.319    
  113.10      111.59      107.25      100.55      92.131      82.617      72.567      62.478      52.831      44.105    
  36.707      30.852      26.469      23.199      20.757      19.026      17.860      17.119      16.694      16.499    
  16.468      16.537      16.644      16.735      16.770      16.735      16.644      16.537      16.468      16.499    
  16.694      17.119      17.860      19.026      20.757      23.199      26.469      30.852      36.707      44.105    
  52.831      62.478      72.567      82.617      92.131      100.55      107.25      111.59      129.36      127.70    
  122.91      115.60      106.47      96.159      85.133      73.766      62.478      51.809      42.359      34.600    
  28.689      24.373      21.150      18.789      17.119      15.965      15.181      14.666      14.348      14.173    
  14.093      14.065      14.059      14.065      14.093      14.173      14.348      14.666      15.181      15.965    
  17.119      18.789      21.150      24.373      28.689      34.600      42.359      51.809      62.478      73.766    
  85.133      96.159      106.47      115.60      122.91      127.70      144.96      143.09      137.78      129.77    
  119.97      109.05      97.375      85.133      72.567      60.192      48.756      39.009      31.390      25.837    
  21.814      18.834      16.694      15.181      14.113      13.362      12.845      12.505      12.299      12.192    
  12.160      12.192      12.299      12.505      12.845      13.362      14.113      15.181      16.694      18.834    
  21.814      25.837      31.390      39.009      48.756      60.192      72.567      85.133      97.375      109.05    
  119.97      129.77      137.78      143.09      160.96      158.79      152.68      143.67      132.93      121.28    
  109.05      96.159      82.617      68.804      55.548      43.850      34.457      27.545      22.661      19.083    
  16.499      14.666      13.362      12.431      11.769      11.315      11.025      10.866      10.816      10.866    
  11.025      11.315      11.769      12.431      13.362      14.666      16.499      19.083      22.661      27.545    
  34.457      43.850      55.548      68.804      82.617      96.159      109.05      121.28      132.93      143.67    
  152.68      158.79      178.00      175.41      168.19      157.74      145.62      132.93      119.97      106.47    
  92.131      77.122      62.268      48.768      37.662      29.381      23.594      19.460      16.468      14.348    
  12.845      11.769      11.000      10.464      10.115      9.9210      9.8588      9.9210      10.115      10.464    
  11.000      11.769      12.845      14.348      16.468      19.460      23.594      29.381      37.662      48.768    
  62.268      77.122      92.131      106.47      119.97      132.93      145.62      157.74      168.19      175.41    
  195.45      192.37      183.82      171.59      157.74      143.67      129.77      115.60      100.55      84.555    
  68.368      53.319      40.693      31.158      24.514      19.881      16.537      14.173      12.505      11.315    
  10.464      9.8688      9.4785      9.2589      9.1883      9.2589      9.4785      9.8688      10.464      11.315    
  12.505      14.173      16.537      19.881      24.514      31.158      40.693      53.319      68.368      84.555    
  100.55      115.60      129.77      143.67      157.74      171.59      183.82      192.37      211.21      207.64    
  197.79      183.82      168.19      152.68      137.78      122.91      107.25      90.481      73.273      57.024    
  43.200      32.654      25.301      20.261      16.644      14.093      12.299      11.025      10.115      9.4785    
  9.0593      8.8226      8.7463      8.8226      9.0593      9.4785      10.115      11.025      12.299      14.093    
  16.644      20.261      25.301      32.654      43.200      57.024      73.273      90.481      107.25      122.91    
  137.78      152.68      168.19      183.82      197.79      207.64      222.38      218.45      207.64      192.37    
  175.41      158.79      143.09      127.70      111.59      94.319      76.463      59.451      44.857      33.654    
  25.835      20.525      16.735      14.065      12.192      10.866      9.9210      9.2589      8.8226      8.5758    
  8.4961      8.5758      8.8226      9.2589      9.9210      10.866      12.192      14.065      16.735      20.525    
  25.835      33.654      44.857      59.451      76.463      94.319      111.59      127.70      143.09      158.79    
  175.41      192.37      207.64      218.45      222.38      218.45      207.64      192.37      175.41      158.79    
  143.09      127.70      111.59      94.319      76.463      59.451      44.857      33.654      25.835      20.525    
  16.735      14.065      12.192      10.866      9.9210      9.2589      8.8226      8.5758      8.4961      8.5758    
  8.8226      9.2589      9.9210      10.866      12.192      14.065      16.735      20.525      25.835      33.654    
  44.857      59.451      76.463      94.319      111.59      127.70      143.09      158.79      175.41      192.37    
  207.64      218.45      218.45      214.66      204.19      189.37      172.89      156.66      141.25      126.05    
  110.11      93.008      75.373      58.621      44.288      33.309      25.649      20.431      16.700      14.070    
  12.224      10.915      9.9821      9.3284      8.8978      8.6543      8.5758      8.6543      8.8978      9.3284    
  9.9821      10.915      12.224      14.070      16.700      20.431      25.649      33.309      44.288      58.621    
  75.373      93.008      110.11      126.05      141.25      156.66      172.89      189.37      204.19      214.66    
  207.64      204.19      194.63      181.06      165.85      150.68      136.03      121.34      105.82      89.226    
  72.235      56.237      42.663      32.328      25.125      20.170      16.609      14.096      12.328      11.071    
  10.173      9.5446      9.1311      8.8978      8.8226      8.8978      9.1311      9.5446      10.173      11.071    
  12.328      14.096      16.609      20.170      25.125      32.328      42.663      56.237      72.235      89.226    
  105.82      121.34      136.03      150.68      165.85      181.06      194.63      204.19      192.37      189.37    