unknown system                          
   3.90000000000000     
     1.000000    0.000000    0.000000
     0.000000    1.000000    0.000000
     0.000000    0.000000    1.000000
   Pt
     4
Direct
  0.000000  0.000000  0.000000
  0.000000  0.500000  0.500000
  0.500000  0.000000  0.500000
  0.500000  0.500000  0.000000
 
   48   48   48
 0.22642654183E+03 0.22237565085E+03 0.21121332770E+03 0.19545306916E+03 0.17800274858E+03
 0.16096162921E+03 0.14496331029E+03 0.12936468965E+03 0.11309922429E+03 0.95650025990E+02
 0.77570616457E+02 0.60296927745E+02 0.45437433593E+02 0.34006520255E+02 0.26023447313E+02
 0.20618852791E+02 0.16769826607E+02 0.14058790517E+02 0.12159894990E+02 0.10816090025E+02
 0.98587769063E+01 0.91883005138E+01 0.87462960366E+01 0.84961093878E+01 0.84153333894E+01
 0.84961093878E+01 0.87462960366E+01 0.91883005138E+01 0.98587769063E+01 0.10816090025E+02
 0.12159894990E+02 0.14058790517E+02 0.16769826607E+02 0.20618852791E+02 0.26023447313E+02
 0.34006520255E+02 0.45437433593E+02 0.60296927745E+02 0.77570616457E+02 0.95650025990E+02
 0.11309922429E+03 0.12936468965E+03 0.14496331029E+03 0.16096162921E+03 0.17800274858E+03
 0.19545306916E+03 0.21121332770E+03 0.22237565085E+03 0.22237565085E+03 0.21845443497E+03
 0.20764488975E+03 0.19236635592E+03 0.17541189797E+03 0.15878869462E+03 0.14309142089E+03
 0.12769595828E+03 0.11159153219E+03 0.94319223082E+02 0.76463064973E+02 0.59451375134E+02
 0.44857324493E+02 0.33654304063E+02 0.25834580646E+02 0.20524620796E+02 0.16734884235E+02
 0.14064540083E+02 0.12192436778E+02 0.10866297385E+02 0.99209924277E+01 0.92588948912E+01
 0.88225912867E+01 0.85757688559E+01 0.84961093878E+01 0.85757688559E+01 0.88225912867E+01
 0.92588948912E+01 0.99209924277E+01 0.10866297385E+02 0.12192436778E+02 0.14064540083E+02
 0.16734884235E+02 0.20524620796E+02 0.25834580646E+02 0.33654304063E+02 0.44857324493E+02
 0.59451375134E+02 0.76463064973E+02 0.94319223082E+02 0.11159153219E+03 0.12769595828E+03
 0.14309142089E+03 0.15878869462E+03 0.17541189797E+03 0.19236635592E+03 0.20764488975E+03
 0.21845443497E+03 0.21121332770E+03 0.20764488975E+03 0.19779309180E+03 0.18381671069E+03
 0.16819323889E+03 0.15268077696E+03 0.13777523920E+03 0.12291465216E+03 0.10724915181E+03
 0.90481007971E+02 0.73273318845E+02 0.57024141319E+02 0.43199667349E+02 0.32653549652E+02
 0.25301273040E+02 0.20260946844E+02 0.16644226222E+02 0.14092708920E+02 0.12299139177E+02
 0.11025112513E+02 0.10115497624E+02 0.94784644809E+01 0.90592858866E+01 0.88225912867E+01
 0.87462960366E+01 0.88225912867E+01 0.90592858866E+01 0.94784644809E+01 0.10115497624E+02
 0.11025112513E+02 0.12299139177E+02 0.14092708920E+02 0.16644226222E+02 0.20260946844E+02
 0.25301273040E+02 0.32653549652E+02 0.43199667349E+02 0.57024141319E+02 0.73273318845E+02
 0.90481007971E+02 0.10724915181E+03 0.12291465216E+03 0.13777523920E+03 0.15268077696E+03
 0.16819323889E+03 0.18381671069E+03 0.19779309180E+03 0.20764488975E+03 0.19545306916E+03
 0.19236635592E+03 0.18381671069E+03 0.17159457416E+03 0.15773782446E+03 0.14366966187E+03
 0.12977297070E+03 0.11560171451E+03 0.10055210089E+03 0.84555174542E+02 0.68368422084E+02
 0.53318818952E+02 0.40693329861E+02 0.31157841751E+02 0.24513775996E+02 0.19880767529E+02
 0.16536916995E+02 0.14173205939E+02 0.12504830070E+02 0.11315055548E+02 0.10464092496E+02
 0.98688334396E+01 0.94784644809E+01 0.92588948912E+01 0.91883005138E+01 0.92588948912E+01
 0.94784644809E+01 0.98688334396E+01 0.10464092496E+02 0.11315055548E+02 0.12504830070E+02
 0.14173205939E+02 0.16536916995E+02 0.19880767529E+02 0.24513775996E+02 0.31157841751E+02
 0.40693329861E+02 0.53318818952E+02 0.68368422084E+02 0.84555174542E+02 0.10055210089E+03
 0.11560171451E+03 0.12977297070E+03 0.14366966187E+03 0.15773782446E+03 0.17159457416E+03
 0.18381671069E+03 0.19236635592E+03 0.17800274858E+03 0.17541189797E+03 0.16819323889E+03
 0.15773782446E+03 0.14561852543E+03 0.13292615388E+03 0.11996791757E+03 0.10647183943E+03
 0.92130873395E+02 0.77121509008E+02 0.62268401043E+02 0.48768041745E+02 0.37662068377E+02
 0.29380603270E+02 0.23593646684E+02 0.19459924702E+02 0.16468137044E+02 0.14348117064E+02
 0.12844871240E+02 0.11769078775E+02 0.10999765131E+02 0.10464092496E+02 0.10115497624E+02
 0.99209924277E+01 0.98587769063E+01 0.99209924277E+01 0.10115497624E+02 0.10464092496E+02
 0.10999765131E+02 0.11769078775E+02 0.12844871240E+02 0.14348117064E+02 0.16468137044E+02
 0.19459924702E+02 0.23593646684E+02 0.29380603270E+02 0.37662068377E+02 0.48768041745E+02
 0.62268401043E+02 0.77121509008E+02 0.92130873395E+02 0.10647183943E+03 0.11996791757E+03
 0.13292615388E+03 0.14561852543E+03 0.15773782446E+03 0.16819323889E+03 0.17541189797E+03
 0.16096162921E+03 0.15878869462E+03 0.15268077696E+03 0.14366966187E+03 0.13292615388E+03
 0.12128429303E+03 0.10904628123E+03 0.96159157927E+02 0.82616872144E+02 0.68804016938E+02
 0.55548491981E+02 0.43849841876E+02 0.34456834185E+02 0.27545161862E+02 0.22660710177E+02
 0.19083301341E+02 0.16499457290E+02 0.14665702242E+02 0.13362345313E+02 0.12430524079E+02
 0.11769078775E+02 0.11315055548E+02 0.11025112513E+02 0.10866297385E+02 0.10816090025E+02
 0.10866297385E+02 0.11025112513E+02 0.11315055548E+02 0.11769078775E+02 0.12430524079E+02
 0.13362345313E+02 0.14665702242E+02 0.16499457290E+02 0.19083301341E+02 0.22660710177E+02
 0.27545161862E+02 0.34456834185E+02 0.43849841876E+02 0.55548491981E+02 0.68804016938E+02
 0.82616872144E+02 0.96159157927E+02 0.10904628123E+03 0.12128429303E+03 0.13292615388E+03
 0.14366966187E+03 0.15268077696E+03 0.15878869462E+03 0.14496331029E+03 0.14309142089E+03
 0.13777523920E+03 0.12977297070E+03 0.11996791757E+03 0.10904628123E+03 0.97375366581E+02
 0.85132604424E+02 0.72567239264E+02 0.60191886888E+02 0.48756454043E+02 0.39009280338E+02
 0.31390456955E+02 0.25837394861E+02 0.21813910442E+02 0.18833785680E+02 0.16693871337E+02
 0.15180858074E+02 0.14113218199E+02 0.13362345313E+02 0.12844871240E+02 0.12504830070E+02
 0.12299139177E+02 0.12192436778E+02 0.12159894990E+02 0.12192436778E+02 0.12299139177E+02
 0.12504830070E+02 0.12844871240E+02 0.13362345313E+02 0.14113218199E+02 0.15180858074E+02
 0.16693871337E+02 0.18833785680E+02 0.21813910442E+02 0.25837394861E+02 0.31390456955E+02
 0.39009280338E+02 0.48756454043E+02 0.60191886888E+02 0.72567239264E+02 0.85132604424E+02
 0.97375366581E+02 0.10904628123E+03 0.11996791757E+03 0.12977297070E+03 0.13777523920E+03
 0.14309142089E+03 0.12936468965E+03 0.12769595828E+03 0.12291465216E+03 0.11560171451E+03
 0.10647183943E+03 0.96159157927E+02 0.85132604424E+02 0.73765997030E+02 0.62477688937E+02
 0.51808803446E+02 0.42358503058E+02 0.34600475499E+02 0.28689359857E+02 0.24373245831E+02
 0.21150493369E+02 0.18788885920E+02 0.17119362652E+02 0.15964658896E+02 0.15180858074E+02
 0.14665702242E+02 0.14348117064E+02 0.14173205939E+02 0.14092708920E+02 0.14064540083E+02
 0.14058790517E+02 0.14064540083E+02 0.14092708920E+02 0.14173205939E+02 0.14348117064E+02
 0.14665702242E+02 0.15180858074E+02 0.15964658896E+02 0.17119362652E+02 0.18788885920E+02
 0.21150493369E+02 0.24373245831E+02 0.28689359857E+02 0.34600475499E+02 0.42358503058E+02
 0.51808803446E+02 0.62477688937E+02 0.73765997030E+02 0.85132604424E+02 0.96159157927E+02
 0.10647183943E+03 0.11560171451E+03 0.12291465216E+03 0.12769595828E+03 0.11309922429E+03
 0.11159153219E+03 0.10724915181E+03 0.10055210089E+03 0.92130873395E+02 0.82616872144E+02
 0.72567239264E+02 0.62477688937E+02 0.52830810600E+02 0.44105145236E+02 0.36707003924E+02
 0.30852142537E+02 0.26468727870E+02 0.23199238502E+02 0.20757118317E+02 0.19026015144E+02
 0.17859762438E+02 0.17119362652E+02 0.16693871337E+02 0.16499457290E+02 0.16468137044E+02
 0.16536916995E+02 0.16644226222E+02 0.16734884235E+02 0.16769826607E+02 0.16734884235E+02
 0.16644226222E+02 0.16536916995E+02 0.16468137044E+02 0.16499457290E+02 0.16693871337E+02
 0.17119362652E+02 0.17859762438E+02 0.19026015144E+02 0.20757118317E+02 0.23199238502E+02
 0.26468727870E+02 0.30852142537E+02 0.36707003924E+02 0.44105145236E+02 0.52830810600E+02
 0.62477688937E+02 0.72567239264E+02 0.82616872144E+02 0.92130873395E+02 0.10055210089E+03
 0.10724915181E+03 0.11159153219E+03 0.95650025990E+02 0.94319223082E+02 0.90481007971E+02
 0.84555174542E+02 0.77121509008E+02 0.68804016938E+02 0.60191886888E+02 0.51808803446E+02
 0.44105145236E+02 0.37436761829E+02 0.32015650398E+02 0.27852405655E+02 0.24730560931E+02
 0.22377927910E+02 0.20711672561E+02 0.19632401237E+02 0.19026015144E+02 0.18788885920E+02
 0.18833785680E+02 0.19083301341E+02 0.19459924702E+02 0.19880767529E+02 0.20260946844E+02
 0.20524620796E+02 0.20618852791E+02 0.20524620796E+02 0.20260946844E+02 0.19880767529E+02
 0.19459924702E+02 0.19083301341E+02 0.18833785680E+02 0.18788885920E+02 0.19026015144E+02
 0.19632401237E+02 0.20711672561E+02 0.22377927910E+02 0.24730560931E+02 0.27852405655E+02
 0.32015650398E+02 0.37436761829E+02 0.44105145236E+02 0.51808803446E+02 0.60191886888E+02
 0.68804016938E+02 0.77121509008E+02 0.84555174542E+02 0.90481007971E+02 0.94319223082E+02
 0.77570616457E+02 0.76463064973E+02 0.73273318845E+02 0.68368422084E+02 0.62268401043E+02
 0.55548491981E+02 0.48756454043E+02 0.42358503058E+02 0.36707003924E+02 0.32015650398E+02
 0.28336600682E+02 0.25548957530E+02 0.23446884063E+02 0.21978028932E+02 0.21091718914E+02
 0.20711672561E+02 0.20757118317E+02 0.21150493369E+02 0.21813910442E+02 0.22660710177E+02
 0.23593646684E+02 0.24513775996E+02 0.25301273040E+02 0.25834580646E+02 0.26023447313E+02
 0.25834580646E+02 0.25301273040E+02 0.24513775996E+02 0.23593646684E+02 0.22660710177E+02
 0.21813910442E+02 0.21150493369E+02 0.20757118317E+02 0.20711672561E+02 0.21091718914E+02
 0.21978028932E+02 0.23446884063E+02 0.25548957530E+02 0.28336600682E+02 0.32015650398E+02
 0.36707003924E+02 0.42358503058E+02 0.48756454043E+02 0.55548491981E+02 0.62268401043E+02
 0.68368422084E+02 0.73273318845E+02 0.76463064973E+02 0.60296927745E+02 0.59451375134E+02
 0.57024141319E+02 0.53318818952E+02 0.48768041745E+02 0.43849841876E+02 0.39009280338E+02
 0.34600475499E+02 0.30852142537E+02 0.27852405655E+02 0.25548957530E+02 0.23820375375E+02
 0.22658719136E+02 0.22055880980E+02 0.21978028932E+02 0.22377927910E+02 0.23199238502E+02
 0.24373245831E+02 0.25837394861E+02 0.27545161862E+02 0.29380603270E+02 0.31157841751E+02
 0.32653549652E+02 0.33654304063E+02 0.34006520255E+02 0.33654304063E+02 0.32653549652E+02
 0.31157841751E+02 0.29380603270E+02 0.27545161862E+02 0.25837394861E+02 0.24373245831E+02
 0.23199238502E+02 0.22377927910E+02 0.21978028932E+02 0.22055880980E+02 0.22658719136E+02
 0.23820375375E+02 0.25548957530E+02 0.27852405655E+02 0.30852142537E+02 0.34600475499E+02
 0.39009280338E+02 0.43849841876E+02 0.48768041745E+02 0.53318818952E+02 0.57024141319E+02
 0.59451375134E+02 0.45437433593E+02 0.44857324493E+02 0.43199667349E+02 0.40693329861E+02
 0.37662068377E+02 0.34456834185E+02 0.31390456955E+02 0.28689359857E+02 0.26468727870E+02
 0.24730560931E+02 0.23446884063E+02 0.22658719136E+02 0.22393300429E+02 0.22658719136E+02
 0.23446884063E+02 0.24730560931E+02 0.26468727870E+02 0.28689359857E+02 0.31390456955E+02
 0.34456834185E+02 0.37662068377E+02 0.40693329861E+02 0.43199667349E+02 0.44857324493E+02
 0.45437433593E+02 0.44857324493E+02 0.43199667349E+02 0.40693329861E+02 0.37662068377E+02
 0.34456834185E+02 0.31390456955E+02 0.28689359857E+02 0.26468727870E+02 0.24730560931E+02
 0.23446884063E+02 0.22658719136E+02 0.22393300429E+02 0.22658719136E+02 0.23446884063E+02
 0.24730560931E+02 0.26468727870E+02 0.28689359857E+02 0.31390456955E+02 0.34456834185E+02
 0.37662068377E+02 0.40693329861E+02 0.43199667349E+02 0.44857324493E+02 0.34006520255E+02
 0.33654304063E+02 0.32653549652E+02 0.31157841751E+02 0.29380603270E+02 0.27545161862E+02
 0.25837394861E+02 0.24373245831E+02 0.23199238502E+02 0.22377927910E+02 0.21978028932E+02
 0.22055880980E+02 0.22658719136E+02 0.23820375375E+02 0.25548957530E+02 0.27852405655E+02
 0.30852142537E+02 0.34600475499E+02 0.39009280338E+02 0.43849841876E+02 0.48768041745E+02
 0.53318818952E+02 0.57024141319E+02 0.59451375134E+02 0.60296927745E+02 0.59451375134E+02
 0.57024141319E+02 0.53318818952E+02 0.48768041745E+02 0.43849841876E+02 0.39009280338E+02
 0.34600475499E+02 0.30852142537E+02 0.27852405655E+02 0.25548957530E+02 0.23820375375E+02
 0.22658719136E+02 0.22055880980E+02 0.21978028932E+02 0.22377927910E+02 0.23199238502E+02
 0.24373245831E+02 0.25837394861E+02 0.27545161862E+02 0.29380603270E+02 0.31157841751E+02
 0.32653549652E+02 0.33654304063E+02 0.26023447313E+02 0.25834580646E+02 0.25301273040E+02
 0.24513775996E+02 0.23593646684E+02 0.22660710177E+02 0.21813910442E+02 0.21150493369E+02
 0.20757118317E+02 0.20711672561E+02 0.21091718914E+02 0.21978028932E+02 0.23446884063E+02
 0.25548957530E+02 0.28336600682E+02 0.32015650398E+02 0.36707003924E+02 0.42358503058E+02
 0.48756454043E+02 0.55548491981E+02 0.62268401043E+02 0.68368422084E+02 0.73273318845E+02
 0.76463064973E+02 0.77570616457E+02 0.76463064973E+02 0.73273318845E+02 0.68368422084E+02
 0.62268401043E+02 0.55548491981E+02 0.48756454043E+02 0.42358503058E+02 0.36707003924E+02
 0.32015650398E+02 0.28336600682E+02 0.25548957530E+02 0.23446884063E+02 0.21978028932E+02
 0.21091718914E+02 0.20711672561E+02 0.20757118317E+02 0.21150493369E+02 0.21813910442E+02
 0.22660710177E+02 0.23593646684E+02 0.24513775996E+02 0.25301273040E+02 0.25834580646E+02
 0.20618852791E+02 0.20524620796E+02 0.20260946844E+02 0.19880767529E+02 0.19459924702E+02
 0.19083301341E+02 0.18833785680E+02 0.18788885920E+02 0.19026015144E+02 0.19632401237E+02
 0.20711672561E+02 0.22377927910E+02 0.24730560931E+02 0.27852405655E+02 0.32015650398E+02
 0.37436761829E+02 0.44105145236E+02 0.51808803446E+02 0.60191886888E+02 0.68804016938E+02
 0.77121509008E+02 0.84555174542E+02 0.90481007971E+02 0.94319223082E+02 0.95650025990E+02
 0.94319223082E+02 0.90481007971E+02 0.84555174542E+02 0.77121509008E+02 0.68804016938E+02
 0.60191886888E+02 0.51808803446E+02 0.44105145236E+02 0.37436761829E+02 0.32015650398E+02
 0.27852405655E+02 0.24730560931E+02 0.22377927910E+02 0.20711672561E+02 0.19632401237E+02
 0.19026015144E+02 0.18788885920E+02 0.18833785680E+02 0.19083301341E+02 0.19459924702E+02
 0.19880767529E+02 0.20260946844E+02 0.20524620796E+02 0.16769826607E+02 0.16734884235E+02
 0.16644226222E+02 0.16536916995E+02 0.16468137044E+02 0.16499457290E+02 0.16693871337E+02
 0.17119362652E+02 0.17859762438E+02 0.19026015144E+02 0.20757118317E+02 0.23199238502E+02
 0.26468727870E+02 0.30852142537E+02 0.36707003924E+02 0.44105145236E+02 0.52830810600E+02
 0.62477688937E+02 0.72567239264E+02 0.82616872144E+02 0.92130873395E+02 0.10055210089E+03
 0.10724915181E+03 0.11159153219E+03 0.11309922429E+03 0.11159153219E+03 0.10724915181E+03
 0.10055210089E+03 0.92130873395E+02 0.82616872144E+02 0.72567239264E+02 0.62477688937E+02
 0.52830810600E+02 0.44105145236E+02 0.36707003924E+02 0.30852142537E+02 0.26468727870E+02
 0.23199238502E+02 0.20757118317E+02 0.19026015144E+02 0.17859762438E+02 0.17119362652E+02
 0.16693871337E+02 0.16499457290E+02 0.16468137044E+02 0.16536916995E+02 0.16644226222E+02
 0.16734884235E+02 0.14058790517E+02 0.14064540083E+02 0.14092708920E+02 0.14173205939E+02
 0.14348117064E+02 0.14665702242E+02 0.15180858074E+02 0.15964658896E+02 0.17119362652E+02
 0.18788885920E+02 0.21150493369E+02 0.24373245831E+02 0.28689359857E+02 0.34600475499E+02
 0.42358503058E+02 0.51808803446E+02 0.62477688937E+02 0.73765997030E+02 0.85132604424E+02
 0.96159157927E+02 0.10647183943E+03 0.11560171451E+03 0.12291465216E+03 0.12769595828E+03
 0.12936468965E+03 0.12769595828E+03 0.12291465216E+03 0.11560171451E+03 0.10647183943E+03
 0.96159157927E+02 0.85132604424E+02 0.73765997030E+02 0.62477688937E+02 0.51808803446E+02
 0.42358503058E+02 0.34600475499E+02 0.28689359857E+02 0.24373245831E+02 0.21150493369E+02
 0.18788885920E+02 0.17119362652E+02 0.15964658896E+02 0.15180858074E+02 0.14665702242E+02
 0.14348117064E+02 0.14173205939E+02 0.14092708920E+02 0.14064540083E+02 0.12159894990E+02
 0.12192436778E+02 0.12299139177E+02 0.12504830070E+02 0.12844871240E+02 0.13362345313E+02
 0.14113218199E+02 0.15180858074E+02 0.16693871337E+02 0.18833785680E+02 0.21813910442E+02
 0.25837394861E+02 0.31390456955E+02 0.39009280338E+02 0.48756454043E+02 0.60191886888E+02
 0.72567239264E+02 0.85132604424E+02 0.97375366581E+02 0.10904628123E+03 0.11996791757E+03
 0.12977297070E+03 0.13777523920E+03 0.14309142089E+03 0.14496331029E+03 0.14309142089E+03
 0.13777523920E+03 0.12977297070E+03 0.11996791757E+03 0.10904628123E+03 0.97375366581E+02
 0.85132604424E+02 0.72567239264E+02 0.60191886888E+02 0.48756454043E+02 0.39009280338E+02
 0.31390456955E+02 0.25837394861E+02 0.21813910442E+02 0.18833785680E+02 0.16693871337E+02
 0.15180858074E+02 0.14113218199E+02 0.13362345313E+02 0.12844871240E+02 0.12504830070E+02
 0.12299139177E+02 0.12192436778E+02 0.10816090025E+02 0.10866297385E+02 0.11025112513E+02
 0.11315055548E+02 0.11769078775E+02 0.12430524079E+02 0.13362345313E+02 0.14665702242E+02
 0.16499457290E+02 0.19083301341E+02 0.22660710177E+02 0.27545161862E+02 0.34456834185E+02
 0.43849841876E+02 0.55548491981E+02 0.68804016938E+02 0.82616872144E+02 0.96159157927E+02
 0.10904628123E+03 0.12128429303E+03 0.13292615388E+03 0.14366966187E+03 0.15268077696E+03
 0.15878869462E+03 0.16096162921E+03 0.15878869462E+03 0.15268077696E+03 0.14366966187E+03
 0.13292615388E+03 0.12128429303E+03 0.10904628123E+03 0.96159157927E+02 0.82616872144E+02
 0.68804016938E+02 0.55548491981E+02 0.43849841876E+02 0.34456834185E+02 0.27545161862E+02
 0.22660710177E+02 0.19083301341E+02 0.16499457290E+02 0.14665702242E+02 0.13362345313E+02
 0.12430524079E+02 0.11769078775E+02 0.11315055548E+02 0.11025112513E+02 0.10866297385E+02
 0.98587769063E+01 0.99209924277E+01 0.10115497624E+02 0.10464092496E+02 0.10999765131E+02
 0.11769078775E+02 0.12844871240E+02 0.14348117064E+02 0.16468137044E+02 0.19459924702E+02
 0.23593646684E+02 0.29380603270E+02 0.37662068377E+02 0.48768041745E+02 0.62268401043E+02
 0.77121509008E+02 0.92130873395E+02 0.10647183943E+03 0.11996791757E+03 0.13292615388E+03
 0.14561852543E+03 0.15773782446E+03 0.16819323889E+03 0.17541189797E+03 0.17800274858E+03
 0.17541189797E+03 0.16819323889E+03 0.15773782446E+03 0.14561852543E+03 0.13292615388E+03
 0.11996791757E+03 0.10647183943E+03 0.92130873395E+02 0.77121509008E+02 0.62268401043E+02
 0.48768041745E+02 0.37662068377E+02 0.29380603270E+02 0.23593646684E+02 0.19459924702E+02
 0.16468137044E+02 0.14348117064E+02 0.12844871240E+02 0.11769078775E+02 0.10999765131E+02
 0.10464092496E+02 0.10115497624E+02 0.99209924277E+01 0.91883005138E+01 0.92588948912E+01
 0.94784644809E+01 0.98688334396E+01 0.10464092496E+02 0.11315055548E+02 0.12504830070E+02
 0.14173205939E+02 0.16536916995E+02 0.19880767529E+02 0.24513775996E+02 0.31157841751E+02
 0.40693329861E+02 0.53318818952E+02 0.68368422084E+02 0.84555174542E+02 0.10055210089E+03
 0.11560171451E+03 0.12977297070E+03 0.14366966187E+03 0.15773782446E+03 0.17159457416E+03
 0.18381671069E+03 0.19236635592E+03 0.19545306916E+03 0.19236635592E+03 0.18381671069E+03
 0.17159457416E+03 0.15773782446E+03 0.14366966187E+03 0.12977297070E+03 0.11560171451E+03
 0.10055210089E+03 0.84555174542E+02 0.68368422084E+02 0.53318818952E+02 0.40693329861E+02
 0.31157841751E+02 0.24513775996E+02 0.19880767529E+02 0.16536916995E+02 0.14173205939E+02
 0.12504830070E+02 0.11315055548E+02 0.10464092496E+02 0.98688334396E+01 0.94784644809E+01
 0.92588948912E+01 0.87462960366E+01 0.88225912867E+01 0.90592858866E+01 0.94784644809E+01
 0.10115497624E+02 0.11025112513E+02 0.12299139177E+02 0.14092708920E+02 0.16644226222E+02
 0.20260946844E+02 0.25301273040E+02 0.32653549652E+02 0.43199667349E+02 0.57024141319E+02
 0.73273318845E+02 0.90481007971E+02 0.10724915181E+03 0.12291465216E+03 0.13777523920E+03
 0.15268077696E+03 0.16819323889E+03 0.18381671069E+03 0.19779309180E+03 0.20764488975E+03
 0.21121332770E+03 0.20764488975E+03 0.19779309180E+03 0.18381671069E+03 0.16819323889E+03
 0.15268077696E+03 0.13777523920E+03 0.12291465216E+03 0.10724915181E+03 0.90481007971E+02
 0.73273318845E+02 0.57024141319E+02 0.43199667349E+02 0.32653549652E+02 0.25301273040E+02
 0.20260946844E+02 0.16644226222E+02 0.14092708920E+02 0.12299139177E+02 0.11025112513E+02
 0.10115497624E+02 0.94784644809E+01 0.90592858866E+01 0.88225912867E+01 0.84961093878E+01
 0.85757688559E+01 0.88225912867E+01 0.92588948912E+01 0.99209924277E+01 0.10866297385E+02
 0.12192436778E+02 0.14064540083E+02 0.16734884235E+02 0.20524620796E+02 0.25834580646E+02
 0.33654304063E+02 0.44857324493E+02 0.59451375134E+02 0.76463064973E+02 0.94319223082E+02
 0.11159153219E+03 0.12769595828E+03 0.14309142089E+03 0.15878869462E+03 0.17541189797E+03
 0.19236635592E+03 0.20764488975E+03 0.21845443497E+03 0.22237565085E+03 0.21845443497E+03
 0.20764488975E+03 0.19236635592E+03 0.17541189797E+03 0.15878869462E+03 0.14309142089E+03
 0.12769595828E+03 0.11159153219E+03 0.94319223082E+02 0.76463064973E+02 0.59451375134E+02
 0.44857324493E+02 0.33654304063E+02 0.25834580646E+02 0.20524620796E+02 0.16734884235E+02
 0.14064540083E+02 0.12192436778E+02 0.10866297385E+02 0.99209924277E+01 0.92588948912E+01
 0.88225912867E+01 0.85757688559E+01 0.84153333894E+01 0.84961093878E+01 0.87462960366E+01
 0.91883005138E+01 0.98587769063E+01 0.10816090025E+02 0.12159894990E+02 0.14058790517E+02
 0.16769826607E+02 0.20618852791E+02 0.26023447313E+02 0.34006520255E+02 0.45437433593E+02
 0.60296927745E+02 0.77570616457E+02 0.95650025990E+02 0.11309922429E+03 0.12936468965E+03
 0.14496331029E+03 0.16096162921E+03 0.17800274858E+03 0.19545306916E+03 0.21121332770E+03
 0.22237565085E+03 0.22642654183E+03 0.22237565085E+03 0.21121332770E+03 0.19545306916E+03
 0.17800274858E+03 0.16096162921E+03 0.14496331029E+03 0.12936468965E+03 0.11309922429E+03
 0.95650025990E+02 0.77570616457E+02 0.60296927745E+02 0.45437433593E+02 0.34006520255E+02
 0.26023447313E+02 0.20618852791E+02 0.16769826607E+02 0.14058790517E+02 0.12159894990E+02
 0.10816090025E+02 0.98587769063E+01 0.91883005138E+01 0.87462960366E+01 0.84961093878E+01
 0.84961093878E+01 0.85757688559E+01 0.88225912867E+01 0.92588948912E+01 0.99209924277E+01
 0.10866297385E+02 0.12192436778E+02 0.14064540083E+02 0.16734884235E+02 0.20524620796E+02
 0.25834580646E+02 0.33654304063E+02 0.44857324493E+02 0.59451375134E+02 0.76463064973E+02
 0.94319223082E+02 0.11159153219E+03 0.12769595828E+03 0.14309142089E+03 0.15878869462E+03
 0.17541189797E+03 0.19236635592E+03 0.20764488975E+03 0.21845443497E+03 0.22237565085E+03
 0.21845443497E+03 0.20764488975E+03 0.19236635592E+03 0.17541189797E+03 0.15878869462E+03
 0.14309142089E+03 0.12769595828E+03 0.11159153219E+03 0.94319223082E+02 0.76463064973E+02
 0.59451375134E+02 0.44857324493E+02 0.33654304063E+02 0.25834580646E+02 0.20524620796E+02
 0.16734884235E+02 0.14064540083E+02 0.12192436778E+02 0.10866297385E+02 0.99209924277E+01
 0.92588948912E+01 0.88225912867E+01 0.85757688559E+01 0.87462960366E+01 0.88225912867E+01
 0.90592858866E+01 0.94784644809E+01 0.10115497624E+02 0.11025112513E+02 0.12299139177E+02
 0.14092708920E+02 0.16644226222E+02 0.20260946844E+02 0.25301273040E+02 0.32653549652E+02
 0.43199667349E+02 0.57024141319E+02 0.73273318845E+02 0.90481007971E+02 0.10724915181E+03
 0.12291465216E+03 0.13777523920E+03 0.15268077696E+03 0.16819323889E+03 0.18381671069E+03
 0.19779309180E+03 0.20764488975E+03 0.21121332770E+03 0.20764488975E+03 0.19779309180E+03
 0.18381671069E+03 0.16819323889E+03 0.15268077696E+03 0.13777523920E+03 0.12291465216E+03
 0.10724915181E+03 0.90481007971E+02 0.73273318845E+02 0.57024141319E+02 0.43199667349E+02
 0.32653549652E+02 0.25301273040E+02 0.20260946844E+02 0.16644226222E+02 0.14092708920E+02
 0.12299139177E+02 0.11025112513E+02 0.10115497624E+02 0.94784644809E+01 0.90592858866E+01
 0.88225912867E+01 0.91883005138E+01 0.92588948912E+01 0.94784644809E+01 0.98688334396E+01
 0.10464092496E+02 0.11315055548E+02 0.12504830070E+02 0.14173205939E+02 0.16536916995E+02
 0.19880767529E+02 0.24513775996E+02 0.31157841751E+02 0.40693329861E+02 0.53318818952E+02
 0.68368422084E+02 0.84555174542E+02 0.10055210089E+03 0.11560171451E+03 0.12977297070E+03
 0.14366966187E+03 0.15773782446E+03 0.17159457416E+03 0.18381671069E+03 0.19236635592E+03
 0.19545306916E+03 0.19236635592E+03 0.18381671069E+03 0.17159457416E+03 0.15773782446E+03
 0.14366966187E+03 0.12977297070E+03 0.11560171451E+03 0.10055210089E+03 0.84555174542E+02
 0.68368422084E+02 0.53318818952E+02 0.40693329861E+02 0.31157841751E+02 0.24513775996E+02
 0.19880767529E+02 0.16536916995E+02 0.14173205939E+02 0.12504830070E+02 0.11315055548E+02
 0.10464092496E+02 0.98688334396E+01 0.94784644809E+01 0.92588948912E+01 0.98587769063E+01
 0.99209924277E+01 0.10115497624E+02 0.10464092496E+02 0.10999765131E+02 0.11769078775E+02
 0.12844871240E+02 0.14348117064E+02 0.16468137044E+02 0.19459924702E+02 0.23593646684E+02
 0.29380603270E+02 0.37662068377E+02 0.48768041745E+02 0.62268401043E+02 0.77121509008E+02
 0.92130873395E+02 0.10647183943E+03 0.11996791757E+03 0.13292615388E+03 0.14561852543E+03
 0.15773782446E+03 0.16819323889E+03 0.17541189797E+03 0.17800274858E+03 0.17541189797E+03
 0.16819323889E+03 0.15773782446E+03 0.14561852543E+03 0.13292615388E+03 0.11996791757E+03
 0.10647183943E+03 0.92130873395E+02 0.77121509008E+02 0.62268401043E+02 0.48768041745E+02
 0.37662068377E+02 0.29380603270E+02 0.23593646684E+02 0.19459924702E+02 0.16468137044E+02
 0.14348117064E+02 0.12844871240E+02 0.11769078775E+02 0.10999765131E+02 0.10464092496E+02
 0.10115497624E+02 0.99209924277E+01 0.10816090025E+02 0.10866297385E+02 0.11025112513E+02
 0.11315055548E+02 0.11769078775E+02 0.12430524079E+02 0.13362345313E+02 0.14665702242E+02
 0.16499457290E+02 0.19083301341E+02 0.22660710177E+02 0.27545161862E+02 0.34456834185E+02
 0.43849841876E+02 0.55548491981E+02 0.68804016938E+02 0.82616872144E+02 0.96159157927E+02
 0.10904628123E+03 0.12128429303E+03 0.13292615388E+03 0.14366966187E+03 0.15268077696E+03
 0.15878869462E+03 0.16096162921E+03 0.15878869462E+03 0.15268077696E+03 0.14366966187E+03
 0.13292615388E+03 0.12128429303E+03 0.10904628123E+03 0.96159157927E+02 0.82616872144E+02
 0.68804016938E+02 0.55548491981E+02 0.43849841876E+02 0.34456834185E+02 0.27545161862E+02
 0.22660710177E+02 0.19083301341E+02 0.16499457290E+02 0.14665702242E+02 0.13362345313E+02
 0.12430524079E+02 0.11769078775E+02 0.11315055548E+02 0.11025112513E+02 0.10866297385E+02
 0.12159894990E+02 0.12192436778E+02 0.12299139177E+02 0.12504830070E+02 0.12844871240E+02
 0.13362345313E+02 0.14113218199E+02 0.15180858074E+02 0.16693871337E+02 0.18833785680E+02
 0.21813910442E+02 0.25837394861E+02 0.31390456955E+02 0.39009280338E+02 0.48756454043E+02
 0.60191886888E+02 0.72567239264E+02 0.85132604424E+02 0.97375366581E+02 0.10904628123E+03
 0.11996791757E+03 0.12977297070E+03 0.13777523920E+03 0.14309142089E+03 0.14496331029E+03
 0.14309142089E+03 0.13777523920E+03 0.12977297070E+03 0.11996791757E+03 0.10904628123E+03
 0.97375366581E+02 0.85132604424E+02 0.72567239264E+02 0.60191886888E+02 0.48756454043E+02
 0.39009280338E+02 0.31390456955E+02 0.25837394861E+02 0.21813910442E+02 0.18833785680E+02
 0.16693871337E+02 0.15180858074E+02 0.14113218199E+02 0.13362345313E+02 0.12844871240E+02
 0.12504830070E+02 0.12299139177E+02 0.12192436778E+02 0.14058790517E+02 0.14064540083E+02
 0.14092708920E+02 0.14173205939E+02 0.14348117064E+02 0.14665702242E+02 0.15180858074E+02
 0.15964658896E+02 0.17119362652E+02 0.18788885920E+02 0.21150493369E+02 0.24373245831E+02
 0.28689359857E+02 0.34600475499E+02 0.42358503058E+02 0.51808803446E+02 0.62477688937E+02
 0.73765997030E+02 0.85132604424E+02 0.96159157927E+02 0.10647183943E+03 0.11560171451E+03
 0.12291465216E+03 0.12769595828E+03 0.12936468965E+03 0.12769595828E+03 0.12291465216E+03
 0.11560171451E+03 0.10647183943E+03 0.96159157927E+02 0.85132604424E+02 0.73765997030E+02
 0.62477688937E+02 0.51808803446E+02 0.42358503058E+02 0.34600475499E+02 0.28689359857E+02
 0.24373245831E+02 0.21150493369E+02 0.18788885920E+02 0.17119362652E+02 0.15964658896E+02
 0.15180858074E+02 0.14665702242E+02 0.14348117064E+02 0.14173205939E+02 0.14092708920E+02
 0.14064540083E+02 0.16769826607E+02 0.16734884235E+02 0.16644226222E+02 0.16536916995E+02
 0.16468137044E+02 0.16499457290E+02 0.16693871337E+02 0.17119362652E+02 0.17859762438E+02
 0.19026015144E+02 0.20757118317E+02 0.23199238502E+02 0.26468727870E+02 0.30852142537E+02
 0.36707003924E+02 0.44105145236E+02 0.52830810600E+02 0.62477688937E+02 0.72567239264E+02
 0.82616872144E+02 0.92130873395E+02 0.10055210089E+03 0.10724915181E+03 0.11159153219E+03
 0.11309922429E+03 0.11159153219E+03 0.10724915181E+03 0.10055210089E+03 0.92130873395E+02
 0.82616872144E+02 0.72567239264E+02 0.62477688937E+02 0.52830810600E+02 0.44105145236E+02
 0.36707003924E+02 0.30852142537E+02 0.26468727870E+02 0.23199238502E+02 0.20757118317E+02
 0.19026015144E+02 0.17859762438E+02 0.17119362652E+02 0.16693871337E+02 0.16499457290E+02
 0.16468137044E+02 0.16536916995E+02 0.16644226222E+02 0.16734884235E+02 0.20618852791E+02
 0.20524620796E+02 0.20260946844E+02 0.19880767529E+02 0.19459924702E+02 0.19083301341E+02
 0.18833785680E+02 0.18788885920E+02 0.19026015144E+02 0.19632401237E+02 0.20711672561E+02
 0.22377927910E+02 0.24730560931E+02 0.27852405655E+02 0.32015650398E+02 0.37436761829E+02
 0.44105145236E+02 0.51808803446E+02 0.60191886888E+02 0.68804016938E+02 0.77121509008E+02
 0.84555174542E+02 0.90481007971E+02 0.94319223082E+02 0.95650025990E+02 0.94319223082E+02
 0.90481007971E+02 0.84555174542E+02 0.77121509008E+02 0.68804016938E+02 0.60191886888E+02
 0.51808803446E+02 0.44105145236E+02 0.37436761829E+02 0.32015650398E+02 0.27852405655E+02
 0.24730560931E+02 0.22377927910E+02 0.20711672561E+02 0.19632401237E+02 0.19026015144E+02