   4   4   0   0
  0.1482975E+02  0.3900000E-09  0.3900000E-09  0.3900000E-09  0.5000000E-15
  1.000000000000000E-004
  CAR 
 unknown system                          
     17.64628088     -4.22843606  301      8.17082186      1.00000000
     -4.228  0.0000E+00  0.0000E+00
     -4.156  0.0000E+00  0.0000E+00
     -4.083  0.0000E+00  0.0000E+00
     -4.010  0.0000E+00  0.0000E+00
     -3.937  0.0000E+00  0.0000E+00
     -3.864  0.0000E+00  0.0000E+00
     -3.791  0.0000E+00  0.0000E+00
     -3.718  0.0000E+00  0.0000E+00
     -3.645  0.0000E+00  0.0000E+00
     -3.572  0.0000E+00  0.0000E+00
     -3.499  0.0000E+00  0.0000E+00
     -3.426  0.0000E+00  0.0000E+00
     -3.353  0.0000E+00  0.0000E+00
     -3.281  0.0000E+00  0.0000E+00
     -3.208  0.0000E+00  0.0000E+00
     -3.135  0.0000E+00  0.0000E+00
     -3.062  0.0000E+00  0.0000E+00
     -2.989  0.0000E+00  0.0000E+00
     -2.916  0.0000E+00  0.0000E+00
     -2.843  0.0000E+00  0.0000E+00
     -2.770  0.0000E+00  0.0000E+00
     -2.697  0.0000E+00  0.0000E+00
     -2.624  0.0000E+00  0.0000E+00
     -2.551  0.0000E+00  0.0000E+00
     -2.478  0.0000E+00  0.0000E+00
     -2.406  0.0000E+00  0.0000E+00
     -2.333  0.0000E+00  0.0000E+00
     -2.260  0.0000E+00  0.0000E+00
     -2.187  0.1930E-02  0.2679E-04
     -2.114  0.1461E-01  0.5578E-03
     -2.041  0.3912E-01  0.2445E-02
     -1.968  0.7547E-01  0.6551E-02
     -1.895  0.1188E+00  0.1367E-01
     -1.822  0.1514E+00  0.2359E-01
     -1.749  0.1720E+00  0.3546E-01
     -1.676  0.1803E+00  0.4838E-01
     -1.603  0.1840E+00  0.6163E-01
     -1.531  0.1931E+00  0.7534E-01
     -1.458  0.2075E+00  0.8992E-01
     -1.385  0.2266E+00  0.1057E+00
     -1.312  0.2469E+00  0.1230E+00
     -1.239  0.2682E+00  0.1418E+00
     -1.166  0.2903E+00  0.1621E+00
     -1.093  0.3113E+00  0.1841E+00
     -1.020  0.3273E+00  0.2074E+00
     -0.947  0.3382E+00  0.2317E+00
     -0.874  0.3469E+00  0.2566E+00
     -0.801  0.3607E+00  0.2824E+00
     -0.728  0.3793E+00  0.3094E+00
     -0.656  0.3984E+00  0.3377E+00
     -0.583  0.4166E+00  0.3674E+00
     -0.510  0.4351E+00  0.3985E+00
     -0.437  0.4542E+00  0.4309E+00
     -0.364  0.4737E+00  0.4647E+00
     -0.291  0.4936E+00  0.5000E+00
     -0.218  0.5141E+00  0.5367E+00
     -0.145  0.5388E+00  0.5751E+00
     -0.072  0.5672E+00  0.6154E+00
      0.001  0.6093E+00  0.6579E+00
      0.074  0.7669E+00  0.7082E+00
      0.147  0.9116E+00  0.7694E+00
      0.219  0.1066E+01  0.8417E+00
      0.292  0.9821E+00  0.9163E+00
      0.365  0.9568E+00  0.9858E+00
      0.438  0.1024E+01  0.1058E+01
      0.511  0.1082E+01  0.1135E+01
      0.584  0.1132E+01  0.1216E+01
      0.657  0.1173E+01  0.1300E+01
      0.730  0.2501E+01  0.1468E+01
      0.803  0.1884E+01  0.1630E+01
      0.876  0.1275E+01  0.1744E+01
      0.949  0.1299E+01  0.1837E+01
      1.021  0.1580E+01  0.1940E+01
      1.094  0.2117E+01  0.2073E+01
      1.167  0.3176E+01  0.2257E+01
      1.240  0.3813E+01  0.2521E+01
      1.313  0.4322E+01  0.2818E+01
      1.386  0.4705E+01  0.3147E+01
      1.459  0.5045E+01  0.3505E+01
      1.532  0.5075E+01  0.3879E+01
      1.605  0.5466E+01  0.4261E+01
      1.678  0.5653E+01  0.4668E+01
      1.751  0.6145E+01  0.5094E+01
      1.824  0.6243E+01  0.5551E+01
      1.896  0.5365E+01  0.5966E+01
      1.969  0.5266E+01  0.6351E+01
      2.042  0.5325E+01  0.6737E+01
      2.115  0.5317E+01  0.7125E+01
      2.188  0.5287E+01  0.7512E+01
      2.261  0.5615E+01  0.7905E+01
      2.334  0.6977E+01  0.8376E+01
      2.407  0.5996E+01  0.8850E+01
      2.480  0.3455E+01  0.9181E+01
      2.553  0.3261E+01  0.9426E+01
      2.626  0.3106E+01  0.9658E+01
      2.699  0.2996E+01  0.9880E+01
      2.771  0.2935E+01  0.1010E+02
      2.844  0.3030E+01  0.1031E+02
      2.917  0.3331E+01  0.1054E+02
      2.990  0.5707E+01  0.1096E+02
      3.063  0.5169E+01  0.1134E+02
      3.136  0.5423E+01  0.1172E+02
      3.209  0.5046E+01  0.1211E+02
      3.282  0.5476E+01  0.1250E+02
      3.355  0.5100E+01  0.1287E+02
      3.428  0.5061E+01  0.1324E+02
      3.501  0.5059E+01  0.1361E+02
      3.574  0.5157E+01  0.1399E+02
      3.646  0.5427E+01  0.1437E+02
      3.719  0.5356E+01  0.1477E+02
      3.792  0.5003E+01  0.1514E+02
      3.865  0.5272E+01  0.1552E+02
      3.938  0.5510E+01  0.1594E+02
      4.011  0.8179E+01  0.1638E+02
      4.084  0.7489E+01  0.1701E+02
      4.157  0.5456E+01  0.1749E+02
      4.230  0.5648E+01  0.1789E+02
      4.303  0.7322E+01  0.1841E+02
      4.376  0.7206E+01  0.1893E+02
      4.449  0.1186E+02  0.1962E+02
      4.521  0.9632E+01  0.2038E+02
      4.594  0.9540E+01  0.2108E+02
      4.667  0.9621E+01  0.2177E+02
      4.740  0.6714E+01  0.2233E+02
      4.813  0.4867E+01  0.2276E+02
      4.886  0.3163E+01  0.2304E+02
      4.959  0.3928E+01  0.2330E+02
      5.032  0.4437E+01  0.2361E+02
      5.105  0.4163E+01  0.2393E+02
      5.178  0.3980E+01  0.2422E+02
      5.251  0.4845E+01  0.2453E+02
      5.324  0.7823E+01  0.2497E+02
      5.396  0.6175E+01  0.2546E+02
      5.469  0.6127E+01  0.2591E+02
      5.542  0.5849E+01  0.2635E+02
      5.615  0.4790E+01  0.2676E+02
      5.688  0.5084E+01  0.2711E+02
      5.761  0.5681E+01  0.2750E+02
      5.834  0.5677E+01  0.2790E+02
      5.907  0.4982E+01  0.2834E+02
      5.980  0.4626E+01  0.2869E+02
      6.053  0.4345E+01  0.2902E+02
      6.126  0.4341E+01  0.2933E+02
      6.199  0.4131E+01  0.2963E+02
      6.271  0.6314E+01  0.2998E+02
      6.344  0.5199E+01  0.3040E+02
      6.417  0.5876E+01  0.3080E+02
      6.490  0.5806E+01  0.3130E+02
      6.563  0.5344E+01  0.3172E+02
      6.636  0.4870E+01  0.3210E+02
      6.709  0.4675E+01  0.3245E+02
      6.782  0.4279E+01  0.3279E+02
      6.855  0.3756E+01  0.3308E+02
      6.928  0.3978E+01  0.3336E+02
      7.001  0.3981E+01  0.3365E+02
      7.074  0.4064E+01  0.3394E+02
      7.146  0.4133E+01  0.3424E+02
      7.219  0.4401E+01  0.3455E+02
      7.292  0.4619E+01  0.3488E+02
      7.365  0.4820E+01  0.3522E+02
      7.438  0.5055E+01  0.3561E+02
      7.511  0.4936E+01  0.3599E+02
      7.584  0.4729E+01  0.3634E+02
      7.657  0.4665E+01  0.3668E+02
      7.730  0.4775E+01  0.3702E+02
      7.803  0.4966E+01  0.3738E+02
      7.876  0.6312E+01  0.3781E+02
      7.948  0.7590E+01  0.3828E+02
      8.021  0.8362E+01  0.3887E+02
      8.094  0.7399E+01  0.3946E+02
      8.167  0.6854E+01  0.3998E+02
      8.240  0.6340E+01  0.4045E+02
      8.313  0.6401E+01  0.4091E+02
      8.386  0.4824E+01  0.4136E+02
      8.459  0.3601E+01  0.4166E+02
      8.532  0.2636E+01  0.4188E+02
      8.605  0.2159E+01  0.4206E+02
      8.678  0.1636E+01  0.4220E+02
      8.751  0.1275E+01  0.4229E+02
      8.823  0.1242E+01  0.4239E+02
      8.896  0.1470E+01  0.4250E+02
      8.969  0.1379E+01  0.4260E+02
      9.042  0.1050E+01  0.4269E+02
      9.115  0.1050E+01  0.4277E+02
      9.188  0.1067E+01  0.4285E+02
      9.261  0.1085E+01  0.4293E+02
      9.334  0.1278E+01  0.4303E+02
      9.407  0.1295E+01  0.4312E+02
      9.480  0.1307E+01  0.4321E+02
      9.553  0.1314E+01  0.4331E+02
      9.626  0.1316E+01  0.4341E+02
      9.698  0.1312E+01  0.4350E+02
      9.771  0.1216E+01  0.4360E+02
      9.844  0.1184E+01  0.4368E+02
      9.917  0.1152E+01  0.4377E+02
      9.990  0.1119E+01  0.4385E+02
     10.063  0.1799E+01  0.4394E+02
     10.136  0.7991E+00  0.4406E+02
     10.209  0.7807E+00  0.4412E+02
     10.282  0.7624E+00  0.4417E+02
     10.355  0.7468E+00  0.4423E+02
     10.428  0.7447E+00  0.4428E+02
     10.501  0.7576E+00  0.4434E+02
     10.573  0.7777E+00  0.4439E+02
     10.646  0.7978E+00  0.4445E+02
     10.719  0.8178E+00  0.4451E+02
     10.792  0.8376E+00  0.4457E+02
     10.865  0.9501E+00  0.4463E+02
     10.938  0.9937E+00  0.4470E+02
     11.011  0.1043E+01  0.4478E+02
     11.084  0.1098E+01  0.4486E+02
     11.157  0.1154E+01  0.4494E+02
     11.230  0.1196E+01  0.4506E+02
     11.303  0.1215E+01  0.4515E+02
     11.376  0.1232E+01  0.4524E+02
     11.448  0.1249E+01  0.4533E+02
     11.521  0.1249E+01  0.4542E+02
     11.594  0.1217E+01  0.4551E+02
     11.667  0.1180E+01  0.4560E+02
     11.740  0.1263E+01  0.4569E+02
     11.813  0.1037E+01  0.4578E+02
     11.886  0.9996E+00  0.4585E+02
     11.959  0.1002E+01  0.4592E+02
     12.032  0.1003E+01  0.4600E+02
     12.105  0.1004E+01  0.4607E+02
     12.178  0.9982E+00  0.4614E+02
     12.251  0.9887E+00  0.4621E+02
     12.323  0.9774E+00  0.4629E+02
     12.396  0.9645E+00  0.4636E+02
     12.469  0.9538E+00  0.4643E+02
     12.542  0.9555E+00  0.4650E+02
     12.615  0.9661E+00  0.4657E+02
     12.688  0.9874E+00  0.4664E+02
     12.761  0.9828E+00  0.4671E+02
     12.834  0.9796E+00  0.4678E+02
     12.907  0.9743E+00  0.4685E+02
     12.980  0.9668E+00  0.4692E+02
     13.053  0.9572E+00  0.4699E+02
     13.126  0.9454E+00  0.4706E+02
     13.198  0.9315E+00  0.4713E+02
     13.271  0.9154E+00  0.4720E+02
     13.344  0.8972E+00  0.4726E+02
     13.417  0.9754E+00  0.4733E+02
     13.490  0.9209E+00  0.4740E+02
     13.563  0.8615E+00  0.4746E+02
     13.636  0.7973E+00  0.4752E+02
     13.709  0.7333E+00  0.4758E+02
     13.782  0.6707E+00  0.4763E+02
     13.855  0.6163E+00  0.4768E+02
     13.928  0.5882E+00  0.4772E+02
     14.000  0.5642E+00  0.4776E+02
     14.073  0.5364E+00  0.4780E+02
     14.146  0.5047E+00  0.4784E+02
     14.219  0.3355E+00  0.4787E+02
     14.292  0.2197E+00  0.4789E+02
     14.365  0.1784E+00  0.4791E+02
     14.438  0.1631E+00  0.4792E+02
     14.511  0.1484E+00  0.4793E+02
     14.584  0.1343E+00  0.4794E+02
     14.657  0.1208E+00  0.4795E+02
     14.730  0.1079E+00  0.4796E+02
     14.803  0.9564E-01  0.4797E+02
     14.875  0.8398E-01  0.4797E+02
     14.948  0.7295E-01  0.4798E+02
     15.021  0.6252E-01  0.4798E+02
     15.094  0.5271E-01  0.4799E+02
     15.167  0.4352E-01  0.4799E+02
     15.240  0.3493E-01  0.4799E+02
     15.313  0.2697E-01  0.4800E+02
     15.386  0.1961E-01  0.4800E+02
     15.459  0.1288E-01  0.4800E+02
     15.532  0.6751E-02  0.4800E+02
     15.605  0.1846E-02  0.4800E+02
     15.678  0.0000E+00  0.4800E+02
     15.750  0.0000E+00  0.4800E+02
     15.823  0.0000E+00  0.4800E+02
     15.896  0.0000E+00  0.4800E+02
     15.969  0.0000E+00  0.4800E+02
     16.042  0.0000E+00  0.4800E+02
     16.115  0.0000E+00  0.4800E+02
     16.188  0.0000E+00  0.4800E+02
     16.261  0.0000E+00  0.4800E+02
     16.334  0.0000E+00  0.4800E+02
     16.407  0.0000E+00  0.4800E+02
     16.480  0.0000E+00  0.4800E+02
     16.553  0.0000E+00  0.4800E+02
     16.625  0.0000E+00  0.4800E+02
     16.698  0.0000E+00  0.4800E+02
     16.771  0.0000E+00  0.4800E+02
     16.844  0.0000E+00  0.4800E+02
     16.917  0.0000E+00  0.4800E+02
     16.990  0.0000E+00  0.4800E+02
     17.063  0.0000E+00  0.4800E+02
     17.136  0.0000E+00  0.4800E+02
     17.209  0.0000E+00  0.4800E+02
     17.282  0.0000E+00  0.4800E+02
     17.355  0.0000E+00  0.4800E+02
     17.428  0.0000E+00  0.4800E+02
     17.500  0.0000E+00  0.4800E+02
     17.573  0.0000E+00  0.4800E+02
     17.646  0.0000E+00  0.4800E+02
