    4    4    1    1
  0.1482975E+02  0.3900000E-09  0.3900000E-09  0.3900000E-09  0.5000000E-15
  1.000000000000000E-004
  CAR 
 unknown system                          
     40     20     24
 
  0.0000000E+00  0.0000000E+00  0.0000000E+00  0.2915452E-02
    1       -2.228436   1.000000
    2        0.921481   1.000000
    3        0.921481   1.000000
    4        0.921481   1.000000
    5        1.377938   1.000000
    6        1.377938   1.000000
    7        1.377938   1.000000
    8        4.286974   1.000000
    9        4.286974   1.000000
   10        4.286974   1.000000
   11        6.520509   1.000000
   12        6.520509   1.000000
   13        8.208493   0.998981
   14        8.208493   0.998957
   15        8.208493   0.995154
   16        8.695794   0.330676
   17        8.695794  -0.110880
   18        8.695794  -0.064179
   19        8.695794   0.000000
   20        8.695794   0.000000
   21        8.695794   0.000000
   22        9.961596   0.000000
   23        9.961596   0.000000
   24        9.961596   0.000000
 
  0.1428571E+00  0.0000000E+00  0.0000000E+00  0.1749271E-01
    1       -1.950042   1.000000
    2        1.026522   1.000000
    3        1.126785   1.000000
    4        1.126785   1.000000
    5        1.494032   1.000000
    6        1.555648   1.000000
    7        1.555648   1.000000
    8        4.102939   1.000000
    9        4.433342   1.000000
   10        4.433342   1.000000
   11        6.315294   1.000000
   12        6.595445   1.000000
   13        7.288203   1.000009
   14        7.288203   1.000011
   15        7.898026   0.999460
   16        7.898026   0.980442
   17        8.114686   0.916648
   18        8.333566   0.622434
   19        8.333566   0.169679
   20        8.696537  -0.042696
   21        8.696537   0.000000
   22        8.705791   0.000000
   23       11.512378   0.000000
   24       11.512378   0.000000
 
  0.2857143E+00  0.0000000E+00  0.0000000E+00  0.1749271E-01
    1       -1.153764   1.000000
    2        1.215213   1.000000
    3        1.673232   1.000000
    4        1.673232   1.000000
    5        1.830592   1.000000
    6        2.084031   1.000000
    7        2.084031   1.000000
    8        3.617989   1.000000
    9        4.866192   1.000000
   10        4.866192   1.000000
   11        5.598601   1.000000
   12        5.598601   1.000000
   13        5.786175   1.000000
   14        6.610330   1.000000
   15        6.809495   1.000000
   16        7.094104   1.000000
   17        7.094104   1.000000
   18        7.469190   1.004037
   19        7.469190   1.081618
   20        7.858490   0.911527
   21        8.698106  -0.000750
   22        8.698106  -0.000129
   23       13.606008   0.000000
   24       13.606008   0.000000
 
  0.4285714E+00  0.0000000E+00  0.0000000E+00  0.1749271E-01
    1       -0.005076   1.000000
    2        0.995275   1.000000
    3        2.262220   1.000000
    4        2.262220   1.000000
    5        2.350366   1.000000
    6        2.950274   1.000000
    7        2.950274   1.000000
    8        2.983405   1.000000
    9        4.132745   1.000000
   10        4.132745   1.000000
   11        5.222467   1.000000
   12        5.264902   1.000000
   13        5.562190   1.000000
   14        5.562190   1.000000
   15        6.282965   1.000000
   16        6.282966   1.000000
   17        6.467915   1.000000
   18        6.467915   1.000000
   19        7.130431   1.002150
   20        7.504109   1.071811
   21        8.699376  -0.010991
   22        8.699376  -0.010503
   23       15.581056   0.000000
   24       15.646281   0.000000
 
  0.1428571E+00  0.1428571E+00  0.0000000E+00  0.3498542E-01
    1       -1.681793   1.000000
    2        1.237052   1.000000
    3        1.237052   1.000000
    4        1.269559   1.000000
    5        1.665101   1.000000
    6        1.665101   1.000000
    7        1.769605   1.000000
    8        4.026656   1.000000
    9        4.488690   1.000000
   10        4.538064   1.000000
   11        6.268065   1.000000
   12        6.567326   1.000000
   13        6.703416   1.000047
   14        6.703416   1.000050
   15        6.704687   1.000526
   16        7.649832   1.003635
   17        7.886290   0.998075
   18        7.886290   0.985397
   19        8.332113   0.298630
   20        8.332113   0.034129
   21        8.465178  -0.009385
   22       10.382668   0.000000
   23       10.382668   0.000000
   24       12.478083   0.000000
 
  0.2857143E+00  0.1428571E+00  0.0000000E+00  0.6997085E-01
    1       -0.914137   1.000000
    2        1.437756   1.000000
    3        1.703363   1.000000
    4        1.803355   1.000000
    5        1.981850   1.000000
    6        2.172505   1.000000
    7        2.327325   1.000000
    8        3.629953   1.000000
    9        4.798532   1.000000
   10        4.874621   1.000000
   11        5.113776   1.000000
   12        5.418016   1.000000
   13        5.535569   1.000000
   14        5.891325   1.000000
   15        6.830158   1.000000
   16        6.974235   1.000000
   17        7.183387   1.000000
   18        7.464686   1.002277
   19        7.474095   1.110860
   20        8.327935   0.304603
   21        8.343766   0.038771
   22        8.827912  -0.000137
   23       12.123213   0.000000
   24       14.312956   0.000000
 
  0.4285714E+00  0.1428571E+00  0.0000000E+00  0.6997085E-01
    1        0.200995   1.000000
    2        1.206192   1.000000
    3        2.338603   1.000000
    4        2.431705   1.000000
    5        2.468301   1.000000
    6        2.977424   1.000000
    7        2.998098   1.000000
    8        3.054711   1.000000
    9        3.805799   1.000000
   10        4.105745   1.000000
   11        4.706311   1.000000
   12        4.787927   1.000000
   13        5.559793   1.000000
   14        5.901275   1.000000
   15        6.290227   1.000000
   16        6.401038   1.000000
   17        6.462744   1.000000
   18        6.634459   1.000000
   19        7.296178   1.003227
   20        7.904041   1.010628
   21        8.321007   0.073601
   22        8.322256  -0.000788
   23       13.416584   0.000000
   24       14.177040   0.000000
 
  0.2857143E+00  0.2857143E+00  0.0000000E+00  0.3498542E-01
    1       -0.231116   1.000000
    2        1.929206   1.000000
    3        2.052039   1.000000
    4        2.052039   1.000000
    5        2.424835   1.000000
    6        2.424835   1.000000
    7        2.845303   1.000000
    8        3.533600   1.000000
    9        4.262850   1.000000
   10        4.262850   1.000000
   11        4.720007   1.000000
   12        4.844180   1.000000
   13        5.064185   1.000000
   14        5.773865   1.000000
   15        6.578561   1.000000
   16        6.964784   1.000000
   17        6.964784   1.000000
   18        7.236531   1.000000
   19        7.457167   1.044525
   20        7.457167   1.162055
   21        7.822067   1.094255
   22       10.287698  -0.000103
   23       10.287698   0.000000
   24       13.448593   0.000000
 
  0.4285714E+00  0.2857143E+00  0.0000000E+00  0.6997085E-01
    1        0.768397   1.000000
    2        1.762734   1.000000
    3        2.428597   1.000000
    4        2.798964   1.000000
    5        2.835933   1.000000
    6        3.122588   1.000000
    7        3.210183   1.000000
    8        3.211081   1.000000
    9        3.213875   1.000000
   10        3.988870   1.000000
   11        3.989623   1.000000
   12        4.435750   1.000000
   13        5.620939   1.000000
   14        5.772097   1.000000
   15        6.134998   1.000000
   16        6.320807   1.000000
   17        6.330317   1.000000
   18        6.471389   1.000000
   19        7.468855   1.003549
   20        7.553895   1.016388
   21        8.015075   0.805662
   22        8.984370  -0.003182
   23       11.499000   0.000000
   24       12.417007   0.000000
 
  0.4285714E+00  0.4285714E+00  0.0000000E+00  0.3498542E-01
    1        1.542715   1.000000
    2        2.329638   1.000000
    3        2.329638   1.000000
    4        2.462137   1.000000
    5        3.262392   1.000000
    6        3.262392   1.000000
    7        3.314756   1.000000
    8        3.556938   1.000000
    9        3.639193   1.000000
   10        3.639193   1.000000
   11        3.707615   1.000000
   12        4.190926   1.000000
   13        5.506754   1.000000
   14        5.763867   1.000000
   15        5.831989   1.000000
   16        5.831989   1.000000
   17        5.921722   1.000000
   18        6.574081   1.000000
   19        6.574081   1.000000
   20        6.907569   1.000000
   21        9.026183  -0.147637
   22       10.126650   0.000000
   23       10.126650   0.000000
   24       11.173135   0.000000
 
  0.1428571E+00  0.1428571E+00  0.1428571E+00  0.2332362E-01
    1       -1.428371   1.000000
    2        1.369466   1.000000
    3        1.369466   1.000000
    4        1.369466   1.000000
    5        1.883910   1.000000
    6        1.883910   1.000000
    7        1.883910   1.000000
    8        3.984801   1.000000
    9        4.565072   1.000000
   10        4.565072   1.000000
   11        6.213084   1.000000
   12        6.213084   1.000000
   13        6.213084   1.000034
   14        6.407774   1.000032
   15        6.407774   1.000113
   16        7.301072   1.007467
   17        7.301072   1.016815
   18        7.301072   1.028967
   19        8.476252   0.126093
   20        8.476252  -0.008888
   21        8.476252  -0.025873
   22       11.187726   0.000000
   23       11.187726   0.000000
   24       11.187726   0.000000
 
  0.2857143E+00  0.1428571E+00  0.1428571E+00  0.6997085E-01
    1       -0.705240   1.000000
    2        1.539233   1.000000
    3        1.781253   1.000000
    4        1.781253   1.000000
    5        2.214238   1.000000
    6        2.440604   1.000000
    7        2.440604   1.000000
    8        3.685678   1.000000
    9        4.759226   1.000000
   10        4.809693   1.000000
   11        5.026809   1.000000
   12        5.026809   1.000000
   13        5.155135   1.000000
   14        6.105312   1.000000
   15        6.597952   1.000000
   16        6.788056   1.000000
   17        6.788337   1.000000
   18        6.788337   1.002024
   19        8.290413   0.586286
   20        8.302713   0.284894
   21        8.302713   0.065656
   22        9.203732  -0.000078
   23       12.650244   0.000000
   24       12.650244   0.000000
 
  0.4285714E+00  0.1428571E+00  0.1428571E+00  0.6997085E-01
    1        0.341782   1.000000
    2        1.295331   1.000000
    3        2.429397   1.000000
    4        2.429397   1.000000
    5        2.679721   1.000000
    6        2.923497   1.000000
    7        2.923497   1.000000
    8        3.195397   1.000000
    9        4.026156   1.000000
   10        4.026156   1.000000
   11        4.477407   1.000000
   12        4.650900   1.000000
   13        5.245082   1.000000
   14        5.862605   1.000000
   15        6.233642   1.000000
   16        6.233642   1.000000
   17        6.408297   1.000000
   18        7.313830   1.000000
   19        7.542510   1.022773
   20        7.861500   1.026328
   21        8.158118   0.553403
   22        8.158118   0.013359
   23       13.839912   0.000000
   24       13.839914   0.000000
 
  0.2857143E+00  0.2857143E+00  0.1428571E+00  0.6997085E-01
    1       -0.117594   1.000000
    2        1.852919   1.000000
    3        1.852919   1.000000
    4        1.913703   1.000000
    5        2.800183   1.000000
    6        2.800183   1.000000
    7        2.938938   1.000000
    8        3.722961   1.000000
    9        4.308330   1.000000
   10        4.308330   1.000000
   11        4.695687   1.000000
   12        4.700091   1.000000
   13        4.819954   1.000000
   14        6.174287   1.000000
   15        6.203106   1.000000
   16        6.203106   1.000000
   17        6.209796   1.000000
   18        7.125752   1.000000
   19        8.092620   0.875010
   20        8.100551   0.812592
   21        8.100551   0.679204
   22       10.477383  -0.000047
   23       10.477383   0.000000
   24       13.918516   0.000000
 
  0.4285714E+00  0.2857143E+00  0.1428571E+00  0.1399417E+00
    1        0.717818   1.000000
    2        1.516834   1.000000
    3        2.225620   1.000000
    4        2.268689   1.000000
    5        3.147876   1.000000
    6        3.152598   1.000000
    7        3.275059   1.000000
    8        3.569132   1.000000
    9        3.984269   1.000000
   10        4.027903   1.000000
   11        4.345188   1.000000
   12        4.427884   1.000000
   13        5.045467   1.000000
   14        5.535318   1.000000
   15        5.783060   1.000000
   16        5.867331   1.000000
   17        6.543728   1.000000
   18        7.430871   1.000000
   19        7.811107   1.016763
   20        7.813023   1.027340
   21        7.890553   0.976356
   22        8.882158  -0.001964
   23       11.684868   0.000000
   24       12.716594   0.000000
 
  0.4285714E+00  0.4285714E+00  0.1428571E+00  0.6997085E-01
    1        1.223419   1.000000
    2        1.768160   1.000000
    3        1.768160   1.000000
    4        1.988991   1.000000
    5        3.492372   1.000000
    6        3.705854   1.000000
    7        3.705854   1.000000
    8        3.906955   1.000000
    9        4.064995   1.000000
   10        4.064995   1.000000
   11        4.281267   1.000000
   12        4.481233   1.000000
   13        4.965604   1.000000
   14        5.306612   1.000000
   15        5.306612   1.000000
   16        5.335598   1.000000
   17        6.596668   1.000000
   18        7.189445   1.000000
   19        7.189445   1.010640
   20        7.364532   1.010548
   21        8.889666  -0.121193
   22       10.053582   0.000000
   23       10.053582   0.000000
   24       11.207495   0.000000
 
  0.2857143E+00  0.2857143E+00  0.2857143E+00  0.2332362E-01
    1        0.204755   1.000000
    2        1.710971   1.000000
    3        1.710971   1.000000
    4        1.710971   1.000000
    5        3.296851   1.000000
    6        3.296851   1.000000
    7        3.296851   1.000000
    8        4.176086   1.000000
    9        4.478523   1.000000
   10        4.478523   1.000000
   11        4.478523   1.000000
   12        4.613106   1.000000
   13        4.613106   1.000000
   14        5.514045   1.000000
   15        5.514045   1.000000
   16        5.514045   1.000000
   17        6.954441   1.000000
   18        6.954441   1.000000
   19        8.335925   0.348126
   20        8.335925   0.299645
   21        8.335925   0.001329
   22       11.108689  -0.000021
   23       11.108689   0.000000
   24       11.108689   0.000000
 
  0.4285714E+00  0.2857143E+00  0.2857143E+00  0.6997085E-01
    1        0.687101   1.000000
    2        1.242865   1.000000
    3        1.682464   1.000000
    4        1.682464   1.000000
    5        3.447056   1.000000
    6        3.447056   1.000000
    7        3.879539   1.000000
    8        4.368286   1.000000
    9        4.419934   1.000000
   10        4.467582   1.000000
   11        4.657621   1.000000
   12        4.863901   1.000000
   13        4.863901   1.000000
   14        4.970687   1.000000
   15        5.201947   1.000000
   16        5.201947   1.000000
   17        7.376859   1.000000
   18        7.681160   1.000000
   19        8.103500   0.955893
   20        8.103500   0.954610
   21        8.194616   0.313123
   22        8.873905  -0.000433
   23       11.825902   0.000000
   24       11.825902   0.000000
 
  0.4285714E+00  0.4285714E+00  0.2857143E+00  0.6997085E-01
    1        0.820638   1.000000
    2        1.163040   1.000000
    3        1.163040   1.000000
    4        1.307994   1.000000
    5        3.764165   1.000000
    6        3.912974   1.000000
    7        3.912974   1.000000
    8        4.278323   1.000000
    9        4.486283   1.000000
   10        4.690104   1.000000
   11        4.690104   1.000000
   12        4.753977   1.000000
   13        5.332063   1.000000
   14        5.349025   1.000000
   15        5.349025   1.000000
   16        5.531051   1.000000
   17        7.423436   1.000000
   18        7.943194   1.000000
   19        7.943194   1.046065
   20        7.973100   1.041188
   21        8.482592  -0.023311
   22        9.766333   0.000000
   23        9.766333   0.000000
   24       10.853940   0.000000
 
  0.4285714E+00  0.4285714E+00  0.4285714E+00  0.2332362E-01
    1        0.673623   1.000000
    2        0.840600   1.000000
    3        0.840600   1.000000
    4        0.840600   1.000000
    5        4.090523   1.000000
    6        4.090523   1.000000
    7        4.090523   1.000000
    8        4.281972   1.000000
    9        4.281972   1.000000
   10        4.376777   1.000000
   11        4.376777   1.000000
   12        4.376777   1.000000
   13        6.522929   1.000000
   14        6.522929   1.000000
   15        6.522929   1.000000
   16        6.778389   1.000000
   17        8.040862   1.000000
   18        8.040862   1.000000
   19        8.247139   0.423290
   20        8.247139   0.388963
   21        8.247139   0.000000
   22        9.312457   0.000000
   23        9.312457   0.000000
   24        9.312457   0.000000
