Starting job 28218135 ("jobfile") on c31-30 at Fri Sep 20 12:12:20 CEST 2019
 running on    4 total cores
 distrk:  each k-point on    4 cores,    1 groups
 distr:  one band on    2 cores,    2 groups
 using from now: INCAR     
 vasp.5.4.1 05Feb16 (build Mar 02 2016 14:09:44) complex                        
  
 POSCAR found type information on POSCAR  Pt
 POSCAR found :  1 types and       4 ions

 ----------------------------------------------------------------------------- 
|                                                                             |
|  ADVICE TO THIS USER RUNNING 'VASP/VAMP'   (HEAR YOUR MASTER'S VOICE ...):  |
|                                                                             |
|      You have a (more or less) 'small supercell' and for smaller cells      |
|      it is recommended  to use the reciprocal-space projection scheme!      |
|      The real space optimization is not  efficient for small cells and it   |
|      is also less accurate ...                                              |
|      Therefore set LREAL=.FALSE. in the  INCAR file                         |
|                                                                             |
 ----------------------------------------------------------------------------- 

 LDA part: xc-table for Pade appr. of Perdew
 POSCAR, INCAR and KPOINTS ok, starting setup
 WARNING: small aliasing (wrap around) errors must be expected
 FFT: planning ...
 WAVECAR not read
 entering main loop
       N       E                     dE             d eps       ncg     rms          rms(c)
DAV:   1     0.484185367693E+03    0.48419E+03   -0.18547E+04   960   0.165E+03
DAV:   2     0.724264484295E+01   -0.47694E+03   -0.46382E+03   968   0.539E+02
DAV:   3    -0.244756310409E+02   -0.31718E+02   -0.30791E+02  1336   0.132E+02
DAV:   4    -0.254978708920E+02   -0.10222E+01   -0.10143E+01  1024   0.302E+01
DAV:   5    -0.255265427085E+02   -0.28672E-01   -0.28614E-01  1152   0.331E+00    0.725E+00
RMM:   6    -0.242457495517E+02    0.12808E+01   -0.25850E+00   960   0.176E+01    0.255E+00
RMM:   7    -0.241109050629E+02    0.13484E+00   -0.11112E+00   982   0.833E+00    0.570E-01
RMM:   8    -0.240959346107E+02    0.14970E-01   -0.51771E-02  1030   0.217E+00    0.142E-01
RMM:   9    -0.240960043430E+02   -0.69732E-04   -0.67940E-03  1092   0.413E-01    0.361E-02
RMM:  10    -0.240960431434E+02   -0.38800E-04   -0.42965E-04  1032   0.152E-01    0.310E-02
RMM:  11    -0.240960243246E+02    0.18819E-04   -0.12283E-04   970   0.114E-01    0.133E-03
RMM:  12    -0.240960254272E+02   -0.11026E-05   -0.91310E-06   503   0.154E-02
   1 F= -.24096025E+02 E0= -.24096025E+02  d E =0.000000E+00

Currently Loaded Modulefiles:
  1) intel/2016.1       2) vasp/5.4.1.Feb16

Job script resource usage:
       JobID  MaxVMSize     MaxRSS 
------------ ---------- ---------- 
28218135.ba+    216752K      2884K 

Job step resource usage:
       JobID    JobName  AllocCPUS  MaxVMSize     MaxRSS    Elapsed ExitCode 
------------ ---------- ---------- ---------- ---------- ---------- -------- 
28218135        jobfile          4                         00:00:09      0:0 
28218135.0    pmi_proxy          1    279832K       548K   00:00:07      0:0 

Job 28218135 ("jobfile") completed on c31-30 at Fri Sep 20 12:12:27 CEST 2019
