<?xml version="1.0" encoding="ISO-8859-1"?>
<modeling>
 <generator>
  <i name="program" type="string">vasp </i>
  <i name="version" type="string">5.4.1  </i>
  <i name="subversion" type="string">05Feb16 (build Mar 02 2016 14:09:44) complex                          parallel </i>
  <i name="platform" type="string">Abel-impi-ifc-cuda </i>
  <i name="date" type="string">2019 09 20 </i>
  <i name="time" type="string">12:12:20 </i>
 </generator>
 <incar>
  <i type="string" name="PREC">normal    ! low/normal/accurate</i>
  <i type="string" name="ALGO"> Fast      ! Algorithm for electronic re</i>
  <i type="int" name="ISPIN">     1</i>
  <i type="int" name="NELMIN">     4</i>
  <i name="EDIFF">      0.00001000</i>
  <i type="int" name="NSW">     0</i>
  <i name="ENCUT">    500.00000000</i>
  <i type="string" name="LREAL"> Auto      ! Projection in reciprocal sp</i>
  <i type="int" name="ISMEAR">    -5</i>
  <i name="SIGMA">      0.20000000</i>
  <i type="logical" name="LWAVE"> F  </i>
  <v type="int" name="KPOINT_BSE">    -1     0     0     0</v>
 </incar>
 <kpoints>
  <generation param="Gamma">
   <v type="int" name="divisions">       7        7        7 </v>
   <v name="usershift">      0.00000000       0.00000000       0.00000000 </v>
   <v name="genvec1">      0.14285714       0.00000000       0.00000000 </v>
   <v name="genvec2">      0.00000000       0.14285714       0.00000000 </v>
   <v name="genvec3">      0.00000000       0.00000000       0.14285714 </v>
   <v name="shift">      0.00000000       0.00000000       0.00000000 </v>
  </generation>
  <varray name="kpointlist" >
   <v>       0.00000000       0.00000000       0.00000000 </v>
   <v>       0.14285714       0.00000000       0.00000000 </v>
   <v>       0.28571429       0.00000000       0.00000000 </v>
   <v>       0.42857143       0.00000000       0.00000000 </v>
   <v>       0.14285714       0.14285714       0.00000000 </v>
   <v>       0.28571429       0.14285714       0.00000000 </v>
   <v>       0.42857143       0.14285714       0.00000000 </v>
   <v>       0.28571429       0.28571429       0.00000000 </v>
   <v>       0.42857143       0.28571429       0.00000000 </v>
   <v>       0.42857143       0.42857143       0.00000000 </v>
   <v>       0.14285714       0.14285714       0.14285714 </v>
   <v>       0.28571429       0.14285714       0.14285714 </v>
   <v>       0.42857143       0.14285714       0.14285714 </v>
   <v>       0.28571429       0.28571429       0.14285714 </v>
   <v>       0.42857143       0.28571429       0.14285714 </v>
   <v>       0.42857143       0.42857143       0.14285714 </v>
   <v>       0.28571429       0.28571429       0.28571429 </v>
   <v>       0.42857143       0.28571429       0.28571429 </v>
   <v>       0.42857143       0.42857143       0.28571429 </v>
   <v>       0.42857143       0.42857143       0.42857143 </v>
  </varray>
  <varray name="weights" >
   <v>       0.00291545 </v>
   <v>       0.01749271 </v>
   <v>       0.01749271 </v>
   <v>       0.01749271 </v>
   <v>       0.03498542 </v>
   <v>       0.06997085 </v>
   <v>       0.06997085 </v>
   <v>       0.03498542 </v>
   <v>       0.06997085 </v>
   <v>       0.03498542 </v>
   <v>       0.02332362 </v>
   <v>       0.06997085 </v>
   <v>       0.06997085 </v>
   <v>       0.06997085 </v>
   <v>       0.13994169 </v>
   <v>       0.06997085 </v>
   <v>       0.02332362 </v>
   <v>       0.06997085 </v>
   <v>       0.06997085 </v>
   <v>       0.02332362 </v>
  </varray>
  <varray name="tetrahedronlist"  type="int" >
   <v type="int" >       12        1        2        2        5 </v>
   <v type="int" >       12        2        2        5        5 </v>
   <v type="int" >       12        2        5        5       11 </v>
   <v type="int" >       12        2        3        5        6 </v>
   <v type="int" >       12        2        5        5        6 </v>
   <v type="int" >       12        5        5        6       11 </v>
   <v type="int" >       12        3        5        6        6 </v>
   <v type="int" >       24        5        6        6       12 </v>
   <v type="int" >       24        5        6       11       12 </v>
   <v type="int" >       12        3        4        6        7 </v>
   <v type="int" >       12        3        6        6        7 </v>
   <v type="int" >       12        6        6        7       12 </v>
   <v type="int" >       12        4        6        7        7 </v>
   <v type="int" >       12        6        7        7       13 </v>
   <v type="int" >       12        6        7       12       13 </v>
   <v type="int" >        6        4        4        7        7 </v>
   <v type="int" >       12        4        7        7        7 </v>
   <v type="int" >       12        7        7        7       13 </v>
   <v type="int" >        6        7        7       13       13 </v>
   <v type="int" >       12        5        6        8       11 </v>
   <v type="int" >       12        6        8       11       12 </v>
   <v type="int" >       12        8       11       12       14 </v>
   <v type="int" >       12        6        7        9       12 </v>
   <v type="int" >       12        6        8        9       12 </v>
   <v type="int" >       12        8        9       12       14 </v>
   <v type="int" >       12        7        9       12       13 </v>
   <v type="int" >       12        9       12       13       15 </v>
   <v type="int" >       12        9       12       14       15 </v>
   <v type="int" >       12        7        7        9       13 </v>
   <v type="int" >       12        7        9        9       13 </v>
   <v type="int" >       12        9        9       13       15 </v>
   <v type="int" >       12        7        9       13       13 </v>
   <v type="int" >       12        9       13       13       15 </v>
   <v type="int" >       12        9       13       15       15 </v>
   <v type="int" >       12        6        7        8       13 </v>
   <v type="int" >       12        7        8        9       13 </v>
   <v type="int" >       12        8        9       13       15 </v>
   <v type="int" >       12        6        8       12       13 </v>
   <v type="int" >       12        8       12       13       14 </v>
   <v type="int" >       12        8       13       14       15 </v>
   <v type="int" >       12        6        6        8       12 </v>
   <v type="int" >       12        6        8       12       14 </v>
   <v type="int" >       12        6       11       12       12 </v>
   <v type="int" >       12        6       12       12       14 </v>
   <v type="int" >       12        2        3        5       11 </v>
   <v type="int" >       12        3        5        6       11 </v>
   <v type="int" >       12        3        6       11       12 </v>
   <v type="int" >       12        8        9       10       14 </v>
   <v type="int" >       12        9       10       14       15 </v>
   <v type="int" >       12       10       14       15       16 </v>
   <v type="int" >       24        9        9       10       15 </v>
   <v type="int" >       12        9       10       10       15 </v>
   <v type="int" >       12       10       10       15       16 </v>
   <v type="int" >       12        9       10       15       15 </v>
   <v type="int" >       12       10       15       15       16 </v>
   <v type="int" >       12       10       15       16       16 </v>
   <v type="int" >       12        8        9        9       15 </v>
   <v type="int" >       12        9       10       15       16 </v>
   <v type="int" >       12        8        9       14       15 </v>
   <v type="int" >       12        9       14       15       15 </v>
   <v type="int" >       24        9       15       15       16 </v>
   <v type="int" >       12        6        7        8       14 </v>
   <v type="int" >       12        7        8        9       14 </v>
   <v type="int" >       12        7        9       14       15 </v>
   <v type="int" >       12        6        7       12       14 </v>
   <v type="int" >       12        7       12       13       14 </v>
   <v type="int" >       12        7       13       14       15 </v>
   <v type="int" >       12        3        4        6       12 </v>
   <v type="int" >       12        4        6        7       12 </v>
   <v type="int" >       12        4        7       12       13 </v>
   <v type="int" >       12       10       10       10       16 </v>
   <v type="int" >       12       10       10       16       16 </v>
   <v type="int" >       12       10       16       16       16 </v>
   <v type="int" >       12        9        9       10       16 </v>
   <v type="int" >       12        9       10       10       16 </v>
   <v type="int" >       12        9       10       16       16 </v>
   <v type="int" >       12        9        9       15       16 </v>
   <v type="int" >       12        9       15       16       16 </v>
   <v type="int" >       12        7        7        9       15 </v>
   <v type="int" >       12        7        9        9       15 </v>
   <v type="int" >       12        7        9       15       15 </v>
   <v type="int" >       12        7        7       13       15 </v>
   <v type="int" >       12        7       13       13       15 </v>
   <v type="int" >       12        7       13       15       15 </v>
   <v type="int" >       12        4        4        7       13 </v>
   <v type="int" >       12        4        7        7       13 </v>
   <v type="int" >       12        4        7       13       13 </v>
   <v type="int" >       12        8        9       10       16 </v>
   <v type="int" >       12        8        9       15       16 </v>
   <v type="int" >       12        8       14       15       16 </v>
   <v type="int" >       12        6        7        9       15 </v>
   <v type="int" >       12        6        8        9       15 </v>
   <v type="int" >       12        6        8       14       15 </v>
   <v type="int" >       12        6        7       13       15 </v>
   <v type="int" >       12        6       12       13       15 </v>
   <v type="int" >       12        6       12       14       15 </v>
   <v type="int" >       12        3        4        7       13 </v>
   <v type="int" >       12        3        6        7       13 </v>
   <v type="int" >       12        3        6       12       13 </v>
   <v type="int" >       12        5        6        8       14 </v>
   <v type="int" >       12        5        6       12       14 </v>
   <v type="int" >       12        5       11       12       14 </v>
   <v type="int" >       12        2        3        6       12 </v>
   <v type="int" >       12        2        5        6       12 </v>
   <v type="int" >       12        2        5       11       12 </v>
   <v type="int" >       12        1        2        5       11 </v>
   <v type="int" >       12       11       12       12       14 </v>
   <v type="int" >       12       12       12       14       14 </v>
   <v type="int" >       12       12       14       14       17 </v>
   <v type="int" >       12       12       13       14       15 </v>
   <v type="int" >       12       12       14       14       15 </v>
   <v type="int" >       12       14       14       15       17 </v>
   <v type="int" >       12       13       14       15       15 </v>
   <v type="int" >       24       14       15       15       18 </v>
   <v type="int" >       24       14       15       17       18 </v>
   <v type="int" >        6       13       13       15       15 </v>
   <v type="int" >       12       13       15       15       15 </v>
   <v type="int" >       12       15       15       15       18 </v>
   <v type="int" >        6       15       15       18       18 </v>
   <v type="int" >       12       14       15       16       17 </v>
   <v type="int" >       12       15       16       17       18 </v>
   <v type="int" >       12       16       17       18       19 </v>
   <v type="int" >       24       15       15       16       18 </v>
   <v type="int" >       12       15       16       16       18 </v>
   <v type="int" >       12       16       16       18       19 </v>
   <v type="int" >       12       15       16       18       18 </v>
   <v type="int" >       12       16       18       18       19 </v>
   <v type="int" >       12       16       18       19       19 </v>
   <v type="int" >       12       15       16       18       19 </v>
   <v type="int" >       12       15       17       18       18 </v>
   <v type="int" >       24       15       18       18       19 </v>
   <v type="int" >       12       12       13       14       17 </v>
   <v type="int" >       12       13       14       15       17 </v>
   <v type="int" >       12       13       15       17       18 </v>
   <v type="int" >       12       16       16       16       19 </v>
   <v type="int" >       12       16       16       19       19 </v>
   <v type="int" >       12       16       19       19       19 </v>
   <v type="int" >       12       15       15       16       19 </v>
   <v type="int" >       12       15       16       16       19 </v>
   <v type="int" >       12       15       16       19       19 </v>
   <v type="int" >       12       15       15       18       19 </v>
   <v type="int" >       12       15       18       19       19 </v>
   <v type="int" >       12       13       13       15       18 </v>
   <v type="int" >       12       13       15       15       18 </v>
   <v type="int" >       12       13       15       18       18 </v>
   <v type="int" >       12       14       15       16       19 </v>
   <v type="int" >       12       14       15       18       19 </v>
   <v type="int" >       12       14       17       18       19 </v>
   <v type="int" >       12       12       13       15       18 </v>
   <v type="int" >       12       12       14       15       18 </v>
   <v type="int" >       12       12       14       17       18 </v>
   <v type="int" >       12       11       12       14       17 </v>
   <v type="int" >       12       17       18       18       19 </v>
   <v type="int" >       18       18       18       19       19 </v>
   <v type="int" >       24       18       19       19       20 </v>
   <v type="int" >       12       18       19       19       19 </v>
   <v type="int" >       24       19       19       19       20 </v>
   <v type="int" >       18       19       19       20       20 </v>
   <v type="int" >       12       19       20       20       20 </v>
   <v type="int" >       12       18       18       19       20 </v>
   <v type="int" >       12       18       19       20       20 </v>
   <v type="int" >       12       17       18       19       20 </v>
   <v type="int" >        6       20       20       20       20 </v>
  </varray>
  <i name="volumeweight">      0.00048591 </i>
 </kpoints>
 <parameters>
  <separator name="general" >
   <i type="string" name="SYSTEM">unknown system</i>
   <i type="logical" name="LCOMPAT"> F  </i>
  </separator>
  <separator name="electronic" >
   <i type="string" name="PREC">normal</i>
   <i name="ENMAX">    500.00000000</i>
   <i name="ENAUG">    358.96600000</i>
   <i name="EDIFF">      0.00001000</i>
   <i type="int" name="IALGO">    68</i>
   <i type="int" name="IWAVPR">    10</i>
   <i type="int" name="NBANDS">    24</i>
   <i name="NELECT">     40.00000000</i>
   <i type="int" name="TURBO">     0</i>
   <i type="int" name="IRESTART">     0</i>
   <i type="int" name="NREBOOT">     0</i>
   <i type="int" name="NMIN">     0</i>
   <i name="EREF">      0.00000000</i>
   <separator name="electronic smearing" >
    <i type="int" name="ISMEAR">    -5</i>
    <i name="SIGMA">      0.20000000</i>
    <i name="KSPACING">      0.50000000</i>
    <i type="logical" name="KGAMMA"> T  </i>
   </separator>
   <separator name="electronic projectors" >
    <i type="logical" name="LREAL"> T  </i>
    <v name="ROPT">     -0.00050000</v>
    <i type="int" name="LMAXPAW">  -100</i>
    <i type="int" name="LMAXMIX">     2</i>
    <i type="logical" name="NLSPLINE"> F  </i>
   </separator>
   <separator name="electronic startup" >
    <i type="int" name="ISTART">     0</i>
    <i type="int" name="ICHARG">     2</i>
    <i type="int" name="INIWAV">     1</i>
   </separator>
   <separator name="electronic spin" >
    <i type="int" name="ISPIN">     1</i>
    <i type="logical" name="LNONCOLLINEAR"> F  </i>
    <v name="MAGMOM">      1.00000000      1.00000000      1.00000000      1.00000000</v>
    <i name="NUPDOWN">     -1.00000000</i>
    <i type="logical" name="LSORBIT"> F  </i>
    <v name="SAXIS">      0.00000000      0.00000000      1.00000000</v>
    <i type="logical" name="LSPIRAL"> F  </i>
    <v name="QSPIRAL">      0.00000000      0.00000000      0.00000000</v>
    <i type="logical" name="LZEROZ"> F  </i>
   </separator>
   <separator name="electronic exchange-correlation" >
    <i type="logical" name="LASPH"> F  </i>
    <i type="logical" name="LMETAGGA"> F  </i>
   </separator>
   <separator name="electronic convergence" >
    <i type="int" name="NELM">    60</i>
    <i type="int" name="NELMDL">    -5</i>
    <i type="int" name="NELMIN">     4</i>
    <i name="ENINI">    500.00000000</i>
    <separator name="electronic convergence detail" >
     <i type="logical" name="LDIAG"> T  </i>
     <i type="logical" name="LSUBROT"> F  </i>
     <i name="WEIMIN">      0.00000000</i>
     <i name="EBREAK">      0.00000010</i>
     <i name="DEPER">      0.30000000</i>
     <i type="int" name="NRMM">     4</i>
     <i name="TIME">      0.40000000</i>
    </separator>
   </separator>
   <separator name="electronic mixer" >
    <i name="AMIX">      0.40000000</i>
    <i name="BMIX">      1.00000000</i>
    <i name="AMIN">      0.10000000</i>
    <i name="AMIX_MAG">      1.60000000</i>
    <i name="BMIX_MAG">      1.00000000</i>
    <separator name="electronic mixer details" >
     <i type="int" name="IMIX">     4</i>
     <i type="logical" name="MIXFIRST"> F  </i>
     <i type="int" name="MAXMIX">   -45</i>
     <i name="WC">    100.00000000</i>
     <i type="int" name="INIMIX">     1</i>
     <i type="int" name="MIXPRE">     1</i>
     <i type="int" name="MREMOVE">     5</i>
    </separator>
   </separator>
   <separator name="electronic dipolcorrection" >
    <i type="logical" name="LDIPOL"> F  </i>
    <i type="logical" name="LMONO"> F  </i>
    <i type="int" name="IDIPOL">     0</i>
    <i name="EPSILON">      1.00000000</i>
    <v name="DIPOL">   -100.00000000   -100.00000000   -100.00000000</v>
    <i name="EFIELD">      0.00000000</i>
   </separator>
  </separator>
  <separator name="grids" >
   <i type="int" name="NGX">    24</i>
   <i type="int" name="NGY">    24</i>
   <i type="int" name="NGZ">    24</i>
   <i type="int" name="NGXF">    48</i>
   <i type="int" name="NGYF">    48</i>
   <i type="int" name="NGZF">    48</i>
   <i type="logical" name="ADDGRID"> F  </i>
  </separator>
  <separator name="ionic" >
   <i type="int" name="NSW">     0</i>
   <i type="int" name="IBRION">    -1</i>
   <i type="int" name="ISIF">     2</i>
   <i name="PSTRESS">      0.00000000</i>
   <i name="EDIFFG">      0.00010000</i>
   <i type="int" name="NFREE">     0</i>
   <i name="POTIM">      0.50000000</i>
   <i name="SMASS">     -3.00000000</i>
   <i name="SCALEE">      1.00000000</i>
  </separator>
  <separator name="ionic md" >
   <i name="TEBEG">      0.00010000</i>
   <i name="TEEND">      0.00010000</i>
   <i type="int" name="NBLOCK">     1</i>
   <i type="int" name="KBLOCK">     1</i>
   <i type="int" name="NPACO">   256</i>
   <i name="APACO">     16.00000000</i>
  </separator>
  <separator name="symmetry" >
   <i type="int" name="ISYM">     2</i>
   <i name="SYMPREC">      0.00001000</i>
  </separator>
  <separator name="dos" >
   <i type="logical" name="LORBIT"> F  </i>
   <v name="RWIGS">     -1.00000000</v>
   <i type="int" name="NEDOS">   301</i>
   <i name="EMIN">     10.00000000</i>
   <i name="EMAX">    -10.00000000</i>
   <i name="EFERMI">      0.00000000</i>
  </separator>
  <separator name="writing" >
   <i type="int" name="NWRITE">     2</i>
   <i type="logical" name="LWAVE"> F  </i>
   <i type="logical" name="LCHARG"> T  </i>
   <i type="logical" name="LPARD"> F  </i>
   <i type="logical" name="LVTOT"> F  </i>
   <i type="logical" name="LVHAR"> F  </i>
   <i type="logical" name="LELF"> F  </i>
   <i type="logical" name="LOPTICS"> F  </i>
   <v name="STM">      0.00000000      0.00000000      0.00000000      0.00000000      0.00000000      0.00000000      0.00000000</v>
  </separator>
  <separator name="performance" >
   <i type="int" name="NPAR">     2</i>
   <i type="int" name="NSIM">     4</i>
   <i type="int" name="NBLK">    -1</i>
   <i type="logical" name="LPLANE"> T  </i>
   <i type="logical" name="LSCALAPACK"> F  </i>
   <i type="logical" name="LSCAAWARE"> F  </i>
   <i type="logical" name="LSCALU"> F  </i>
   <i type="logical" name="LASYNC"> F  </i>
   <i type="logical" name="LORBITALREAL"> F  </i>
  </separator>
  <separator name="miscellaneous" >
   <i type="int" name="IDIOT">     3</i>
   <i type="logical" name="LMUSIC"> F  </i>
   <v name="POMASS">    195.08000000</v>
   <v name="DARWINR">      0.00000000</v>
   <v name="DARWINV">      1.00000000</v>
   <i type="logical" name="LCORR"> T  </i>
  </separator>
  <i type="logical" name="GGA_COMPAT"> T  </i>
  <i type="logical" name="LBERRY"> F  </i>
  <i type="int" name="ICORELEVEL">     0</i>
  <i type="logical" name="LDAU"> F  </i>
  <i type="int" name="I_CONSTRAINED_M">     0</i>
  <separator name="electronic exchange-correlation" >
   <i type="string" name="GGA">--</i>
   <i type="int" name="VOSKOWN">     0</i>
   <i type="logical" name="LHFCALC"> F  </i>
   <i type="string" name="PRECFOCK"></i>
   <i type="logical" name="LSYMGRAD"> F  </i>
   <i type="logical" name="LHFONE"> F  </i>
   <i type="logical" name="LRHFCALC"> F  </i>
   <i type="logical" name="LTHOMAS"> F  </i>
   <i type="logical" name="LMODELHF"> F  </i>
   <i name="ENCUT4O">     -1.00000000</i>
   <i type="int" name="EXXOEP">     0</i>
   <i type="int" name="FOURORBIT">     0</i>
   <i name="AEXX">      0.00000000</i>
   <i name="HFALPHA">      0.00000000</i>
   <i name="MCALPHA">      0.00000000</i>
   <i name="ALDAX">      1.00000000</i>
   <i name="AGGAX">      1.00000000</i>
   <i name="ALDAC">      1.00000000</i>
   <i name="AGGAC">      1.00000000</i>
   <i type="int" name="NKREDX">     1</i>
   <i type="int" name="NKREDY">     1</i>
   <i type="int" name="NKREDZ">     1</i>
   <i type="logical" name="SHIFTRED"> F  </i>
   <i type="logical" name="ODDONLY"> F  </i>
   <i type="logical" name="EVENONLY"> F  </i>
   <i type="int" name="LMAXFOCK">     0</i>
   <i type="int" name="NMAXFOCKAE">     0</i>
   <i type="logical" name="LFOCKAEDFT"> F  </i>
   <i name="HFSCREEN">      0.00000000</i>
   <i name="HFSCREENC">      0.00000000</i>
   <i type="int" name="NBANDSGWLOW">     0</i>
  </separator>
  <separator name="vdW DFT" >
   <i type="logical" name="LUSE_VDW"> F  </i>
   <i name="Zab_VDW">     -0.84910000</i>
   <i name="PARAM1">      0.12340000</i>
   <i name="PARAM2">      1.00000000</i>
   <i name="PARAM3">      0.00000000</i>
  </separator>
  <separator name="model GW" >
   <i type="int" name="MODEL_GW">     0</i>
   <i name="MODEL_EPS0">      8.89785000</i>
   <i name="MODEL_ALPHA">      1.00000000</i>
  </separator>
  <separator name="linear response parameters" >
   <i type="logical" name="LEPSILON"> F  </i>
   <i type="logical" name="LRPA"> F  </i>
   <i type="logical" name="LNABLA"> F  </i>
   <i type="logical" name="LVEL"> F  </i>
   <i type="int" name="KINTER">     0</i>
   <i name="CSHIFT">      0.10000000</i>
   <i name="OMEGAMAX">     -1.00000000</i>
   <i name="DEG_THRESHOLD">      0.00200000</i>
  </separator>
  <separator name="orbital magnetization" >
   <i type="logical" name="NUCIND"> F  </i>
   <v name="MAGPOS">      0.00000000      0.00000000      0.00000000</v>
   <i type="logical" name="LNICSALL"> T  </i>
   <i type="logical" name="ORBITALMAG"> F  </i>
   <i type="logical" name="LMAGBLOCH"> F  </i>
   <i type="logical" name="LCHIMAG"> F  </i>
   <i type="logical" name="LGAUGE"> T  </i>
   <i type="int" name="MAGATOM">     0</i>
   <v name="MAGDIPOL">      0.00000000      0.00000000      0.00000000</v>
   <v name="AVECCONST">      0.00000000      0.00000000      0.00000000</v>
  </separator>
  <separator name="response functions" >
   <i type="logical" name="LADDER"> F  </i>
   <i type="logical" name="LFXC"> F  </i>
   <i type="logical" name="LHARTREE"> T  </i>
   <i type="int" name="IBSE">     0</i>
   <v type="int" name="KPOINT">    -1     0     0     0</v>
   <i type="logical" name="LTCTE"> F  </i>
   <i type="logical" name="LTETE"> F  </i>
   <i type="logical" name="LTRIPLET"> F  </i>
   <i type="logical" name="LFXCEPS"> F  </i>
   <i type="logical" name="LFXHEG"> F  </i>
   <i type="int" name="NATURALO">     0</i>
   <i type="logical" name="L2ORDER"> F  </i>
   <i type="logical" name="LUSEW"> F  </i>
   <i name="ENCUTGW">     -2.00000000</i>
   <i name="ENCUTGWSOFT">     -2.00000000</i>
   <i name="ENCUTLF">     -1.00000000</i>
   <i type="int" name="LMAXMP2">    -1</i>
   <i name="SCISSOR">      0.00000000</i>
   <i type="int" name="NOMEGA">     0</i>
   <i type="int" name="NOMEGAR">     0</i>
   <i type="int" name="NBANDSGW">    -1</i>
   <i type="int" name="NBANDSO">    -1</i>
   <i type="int" name="NBANDSV">    -1</i>
   <i type="int" name="NELM">     1</i>
   <i type="int" name="NELMHF">     1</i>
   <i type="int" name="DIM">     3</i>
   <i type="int" name="ANTIRES">     0</i>
   <i name="OMEGAMAX">    -30.00000000</i>
   <i name="OMEGAMIN">    -30.00000000</i>
   <i name="OMEGATL">   -200.00000000</i>
   <i type="int" name="OMEGAGRID">     0</i>
   <i name="CSHIFT">     -0.10000000</i>
   <i type="logical" name="SELFENERGY"> F  </i>
   <i type="logical" name="LSPECTRAL"> F  </i>
   <i type="logical" name="LSPECTRALGW"> F  </i>
   <i type="logical" name="LSINGLES"> F  </i>
   <i type="logical" name="LFERMIGW"> F  </i>
   <i type="logical" name="ODDONLYGW"> F  </i>
   <i type="logical" name="EVENONLYGW"> F  </i>
   <i type="int" name="NKREDLFX">     1</i>
   <i type="int" name="NKREDLFY">     1</i>
   <i type="int" name="NKREDLFZ">     1</i>
   <i type="int" name="MAXMEM">  1800</i>
   <i type="int" name="TELESCOPE">     0</i>
   <i type="int" name="TAUPAR">     1</i>
   <i type="int" name="OMEGAPAR">    -1</i>
   <i name="LAMBDA">      1.00000000</i>
  </separator>
  <separator name="External order field" >
   <i name="OFIELD_KAPPA">      0.00000000</i>
   <v name="OFIELD_K">      0.00000000      0.00000000      0.00000000</v>
   <i name="OFIELD_Q6_NEAR">      0.00000000</i>
   <i name="OFIELD_Q6_FAR">      0.00000000</i>
   <i name="OFIELD_A">      0.00000000</i>
  </separator>
 </parameters>
 <atominfo>
  <atoms>       4 </atoms>
  <types>       1 </types>
  <array name="atoms" >
   <dimension dim="1">ion</dimension>
   <field type="string">element</field>
   <field type="int">atomtype</field>
   <set>
    <rc><c>Pt</c><c>   1</c></rc>
    <rc><c>Pt</c><c>   1</c></rc>
    <rc><c>Pt</c><c>   1</c></rc>
    <rc><c>Pt</c><c>   1</c></rc>
   </set>
  </array>
  <array name="atomtypes" >
   <dimension dim="1">type</dimension>
   <field type="int">atomspertype</field>
   <field type="string">element</field>
   <field>mass</field>
   <field>valence</field>
   <field type="string">pseudopotential</field>
   <set>
    <rc><c>   4</c><c>Pt</c><c>    195.08000000</c><c>     10.00000000</c><c> PAW_PBE Pt 05Jan2001                   </c></rc>
   </set>
  </array>
 </atominfo>
 <structure name="initialpos" >
  <crystal>
   <varray name="basis" >
    <v>       3.90000000       0.00000000       0.00000000 </v>
    <v>       0.00000000       3.90000000       0.00000000 </v>
    <v>       0.00000000       0.00000000       3.90000000 </v>
   </varray>
   <i name="volume">     59.31900000 </i>
   <varray name="rec_basis" >
    <v>       0.25641026       0.00000000       0.00000000 </v>
    <v>       0.00000000       0.25641026       0.00000000 </v>
    <v>       0.00000000       0.00000000       0.25641026 </v>
   </varray>
  </crystal>
  <varray name="positions" >
   <v>       0.00000000       0.00000000       0.00000000 </v>
   <v>       0.00000000       0.50000000       0.50000000 </v>
   <v>       0.50000000       0.00000000       0.50000000 </v>
   <v>       0.50000000       0.50000000       0.00000000 </v>
  </varray>
 </structure>
 <calculation>
  <scstep>
   <time name="dav">    0.36    0.36</time>
   <time name="total">    0.38    0.51</time>
   <energy>
    <i name="alphaZ">    392.44162579 </i>
    <i name="ewald">  -3385.69429524 </i>
    <i name="hartreedc">   -280.23874940 </i>
    <i name="XCdc">     15.51147323 </i>
    <i name="pawpsdc">   2292.98197300 </i>
    <i name="pawaedc">  -2179.84848231 </i>
    <i name="eentropy">      0.00000000 </i>
    <i name="bandstr">    712.57915539 </i>
    <i name="atom">   2916.45266723 </i>
    <i name="e_fr_energy">    484.18536769 </i>
    <i name="e_wo_entrp">    484.18536769 </i>
    <i name="e_0_energy">    484.18536769 </i>
   </energy>
  </scstep>
  <scstep>
   <time name="dav">    0.34    0.34</time>
   <time name="total">    0.35    0.35</time>
   <energy>
    <i name="e_fr_energy">      7.24264484 </i>
    <i name="e_wo_entrp">      7.24264484 </i>
    <i name="e_0_energy">      7.24264484 </i>
   </energy>
  </scstep>
  <scstep>
   <time name="dav">    0.40    0.41</time>
   <time name="total">    0.41    0.42</time>
   <energy>
    <i name="e_fr_energy">    -24.47563104 </i>
    <i name="e_wo_entrp">    -24.47563104 </i>
    <i name="e_0_energy">    -24.47563104 </i>
   </energy>
  </scstep>
  <scstep>
   <time name="dav">    0.37    0.38</time>
   <time name="total">    0.38    0.39</time>
   <energy>
    <i name="e_fr_energy">    -25.49787089 </i>
    <i name="e_wo_entrp">    -25.49787089 </i>
    <i name="e_0_energy">    -25.49787089 </i>
   </energy>
  </scstep>
  <scstep>
   <time name="dav">    0.36    0.36</time>
   <time name="total">    0.40    0.41</time>
   <energy>
    <i name="e_fr_energy">    -25.52654271 </i>
    <i name="e_wo_entrp">    -25.52654271 </i>
    <i name="e_0_energy">    -25.52654271 </i>
   </energy>
  </scstep>
  <scstep>
   <time name="diag">    0.06    0.06</time>
   <time name="diis">    0.22    0.22</time>
   <time name="orth">    0.00    0.01</time>
   <time name="total">    0.34    0.36</time>
   <energy>
    <i name="e_fr_energy">    -24.24574955 </i>
    <i name="e_wo_entrp">    -24.24574955 </i>
    <i name="e_0_energy">    -24.24574955 </i>
   </energy>
  </scstep>
  <scstep>
   <time name="diag">    0.05    0.05</time>
   <time name="diis">    0.19    0.19</time>
   <time name="orth">    0.00    0.01</time>
   <time name="total">    0.29    0.30</time>
   <energy>
    <i name="e_fr_energy">    -24.11090506 </i>
    <i name="e_wo_entrp">    -24.11090506 </i>
    <i name="e_0_energy">    -24.11090506 </i>
   </energy>
  </scstep>
  <scstep>
   <time name="diag">    0.05    0.05</time>
   <time name="diis">    0.29    0.29</time>
   <time name="orth">    0.01    0.01</time>
   <time name="total">    0.40    0.42</time>
   <energy>
    <i name="e_fr_energy">    -24.09593461 </i>
    <i name="e_wo_entrp">    -24.09593461 </i>
    <i name="e_0_energy">    -24.09593461 </i>
   </energy>
  </scstep>
  <scstep>
   <time name="diag">    0.05    0.05</time>
   <time name="diis">    0.22    0.22</time>
   <time name="orth">    0.01    0.01</time>
   <time name="total">    0.32    0.33</time>
   <energy>
    <i name="e_fr_energy">    -24.09600434 </i>
    <i name="e_wo_entrp">    -24.09600434 </i>
    <i name="e_0_energy">    -24.09600434 </i>
   </energy>
  </scstep>
  <scstep>
   <time name="diag">    0.05    0.05</time>
   <time name="diis">    0.22    0.22</time>
   <time name="orth">    0.01    0.01</time>
   <time name="total">    0.33    0.35</time>
   <energy>
    <i name="e_fr_energy">    -24.09604314 </i>
    <i name="e_wo_entrp">    -24.09604314 </i>
    <i name="e_0_energy">    -24.09604314 </i>
   </energy>
  </scstep>
  <scstep>
   <time name="diag">    0.05    0.05</time>
   <time name="diis">    0.19    0.19</time>
   <time name="orth">    0.00    0.01</time>
   <time name="total">    0.30    0.30</time>
   <energy>
    <i name="e_fr_energy">    -24.09602432 </i>
    <i name="e_wo_entrp">    -24.09602432 </i>
    <i name="e_0_energy">    -24.09602432 </i>
   </energy>
  </scstep>
  <scstep>
   <time name="diag">    0.04    0.04</time>
   <time name="diis">    0.10    0.10</time>
   <time name="orth">    0.00    0.01</time>
   <time name="total">    0.18    0.18</time>
   <energy>
    <i name="alphaZ">    392.44162579 </i>
    <i name="ewald">  -3385.69429524 </i>
    <i name="hartreedc">   -241.73301746 </i>
    <i name="XCdc">     14.13642617 </i>
    <i name="pawpsdc">   2422.18483316 </i>
    <i name="pawaedc">  -2320.24686758 </i>
    <i name="eentropy">      0.00000000 </i>
    <i name="bandstr">    178.36260250 </i>
    <i name="atom">   2916.45266723 </i>
    <i name="e_fr_energy">    -24.09602543 </i>
    <i name="e_wo_entrp">    -24.09602543 </i>
    <i name="e_0_energy">    -24.09602543 </i>
   </energy>
  </scstep>
  <structure>
   <crystal>
    <varray name="basis" >
     <v>       3.90000000       0.00000000       0.00000000 </v>
     <v>       0.00000000       3.90000000       0.00000000 </v>
     <v>       0.00000000       0.00000000       3.90000000 </v>
    </varray>
    <i name="volume">     59.31900000 </i>
    <varray name="rec_basis" >
     <v>       0.25641026       0.00000000       0.00000000 </v>
     <v>       0.00000000       0.25641026       0.00000000 </v>
     <v>       0.00000000       0.00000000       0.25641026 </v>
    </varray>
   </crystal>
   <varray name="positions" >
    <v>       0.00000000       0.00000000       0.00000000 </v>
    <v>       0.00000000       0.50000000       0.50000000 </v>
    <v>       0.50000000       0.00000000       0.50000000 </v>
    <v>       0.50000000       0.50000000       0.00000000 </v>
   </varray>
  </structure>
  <varray name="forces" >
   <v>       0.00000000       0.00000000      -0.00000000 </v>
   <v>      -0.00000000      -0.00000000       0.00000000 </v>
   <v>      -0.00000000      -0.00000000       0.00000000 </v>
   <v>       0.00000000      -0.00000000       0.00000000 </v>
  </varray>
  <varray name="stress" >
   <v>     170.57768740       0.00000000      -0.00000000 </v>
   <v>       0.00000000     170.57768740       0.00000000 </v>
   <v>       0.00000000       0.00000000     170.57768740 </v>
  </varray>
  <energy>
   <i name="e_fr_energy">    -24.09602543 </i>
   <i name="e_wo_entrp">    -24.09602543 </i>
   <i name="e_0_energy">      0.00000000 </i>
  </energy>
  <time name="totalsc">    4.72    5.02</time>
  <eigenvalues>
   <array>
    <dimension dim="1">band</dimension>
    <dimension dim="2">kpoint</dimension>
    <dimension dim="3">spin</dimension>
    <field>eigene</field>
    <field>occ</field>
    <set>
     <set comment="spin 1">
      <set comment="kpoint 1">
       <r>   -2.2284    1.0000 </r>
       <r>    0.9215    1.0000 </r>
       <r>    0.9215    1.0000 </r>
       <r>    0.9215    1.0000 </r>
       <r>    1.3779    1.0000 </r>
       <r>    1.3779    1.0000 </r>
       <r>    1.3779    1.0000 </r>
       <r>    4.2870    1.0000 </r>
       <r>    4.2870    1.0000 </r>
       <r>    4.2870    1.0000 </r>
       <r>    6.5205    1.0000 </r>
       <r>    6.5205    1.0000 </r>
       <r>    8.2085    0.9990 </r>
       <r>    8.2085    0.9990 </r>
       <r>    8.2085    0.9952 </r>
       <r>    8.6958    0.3307 </r>
       <r>    8.6958   -0.1109 </r>
       <r>    8.6958   -0.0642 </r>
       <r>    8.6958    0.0000 </r>
       <r>    8.6958    0.0000 </r>
       <r>    8.6958    0.0000 </r>
       <r>    9.9616    0.0000 </r>
       <r>    9.9616    0.0000 </r>
       <r>    9.9616    0.0000 </r>
      </set>
      <set comment="kpoint 2">
       <r>   -1.9500    1.0000 </r>
       <r>    1.0265    1.0000 </r>
       <r>    1.1268    1.0000 </r>
       <r>    1.1268    1.0000 </r>
       <r>    1.4940    1.0000 </r>
       <r>    1.5556    1.0000 </r>
       <r>    1.5556    1.0000 </r>
       <r>    4.1029    1.0000 </r>
       <r>    4.4333    1.0000 </r>
       <r>    4.4333    1.0000 </r>
       <r>    6.3153    1.0000 </r>
       <r>    6.5954    1.0000 </r>
       <r>    7.2882    1.0000 </r>
       <r>    7.2882    1.0000 </r>
       <r>    7.8980    0.9995 </r>
       <r>    7.8980    0.9804 </r>
       <r>    8.1147    0.9166 </r>
       <r>    8.3336    0.6224 </r>
       <r>    8.3336    0.1697 </r>
       <r>    8.6965   -0.0427 </r>
       <r>    8.6965    0.0000 </r>
       <r>    8.7058    0.0000 </r>
       <r>   11.5124    0.0000 </r>
       <r>   11.5124    0.0000 </r>
      </set>
      <set comment="kpoint 3">
       <r>   -1.1538    1.0000 </r>
       <r>    1.2152    1.0000 </r>
       <r>    1.6732    1.0000 </r>
       <r>    1.6732    1.0000 </r>
       <r>    1.8306    1.0000 </r>
       <r>    2.0840    1.0000 </r>
       <r>    2.0840    1.0000 </r>
       <r>    3.6180    1.0000 </r>
       <r>    4.8662    1.0000 </r>
       <r>    4.8662    1.0000 </r>
       <r>    5.5986    1.0000 </r>
       <r>    5.5986    1.0000 </r>
       <r>    5.7862    1.0000 </r>
       <r>    6.6103    1.0000 </r>
       <r>    6.8095    1.0000 </r>
       <r>    7.0941    1.0000 </r>
       <r>    7.0941    1.0000 </r>
       <r>    7.4692    1.0040 </r>
       <r>    7.4692    1.0816 </r>
       <r>    7.8585    0.9115 </r>
       <r>    8.6981   -0.0008 </r>
       <r>    8.6981   -0.0001 </r>
       <r>   13.6060    0.0000 </r>
       <r>   13.6060    0.0000 </r>
      </set>
      <set comment="kpoint 4">
       <r>   -0.0051    1.0000 </r>
       <r>    0.9953    1.0000 </r>
       <r>    2.2622    1.0000 </r>
       <r>    2.2622    1.0000 </r>
       <r>    2.3504    1.0000 </r>
       <r>    2.9503    1.0000 </r>
       <r>    2.9503    1.0000 </r>
       <r>    2.9834    1.0000 </r>
       <r>    4.1327    1.0000 </r>
       <r>    4.1327    1.0000 </r>
       <r>    5.2225    1.0000 </r>
       <r>    5.2649    1.0000 </r>
       <r>    5.5622    1.0000 </r>
       <r>    5.5622    1.0000 </r>
       <r>    6.2830    1.0000 </r>
       <r>    6.2830    1.0000 </r>
       <r>    6.4679    1.0000 </r>
       <r>    6.4679    1.0000 </r>
       <r>    7.1304    1.0021 </r>
       <r>    7.5041    1.0718 </r>
       <r>    8.6994   -0.0110 </r>
       <r>    8.6994   -0.0105 </r>
       <r>   15.5811    0.0000 </r>
       <r>   15.6463    0.0000 </r>
      </set>
      <set comment="kpoint 5">
       <r>   -1.6818    1.0000 </r>
       <r>    1.2371    1.0000 </r>
       <r>    1.2371    1.0000 </r>
       <r>    1.2696    1.0000 </r>
       <r>    1.6651    1.0000 </r>
       <r>    1.6651    1.0000 </r>
       <r>    1.7696    1.0000 </r>
       <r>    4.0267    1.0000 </r>
       <r>    4.4887    1.0000 </r>
       <r>    4.5381    1.0000 </r>
       <r>    6.2681    1.0000 </r>
       <r>    6.5673    1.0000 </r>
       <r>    6.7034    1.0000 </r>
       <r>    6.7034    1.0000 </r>
       <r>    6.7047    1.0005 </r>
       <r>    7.6498    1.0036 </r>
       <r>    7.8863    0.9981 </r>
       <r>    7.8863    0.9854 </r>
       <r>    8.3321    0.2986 </r>
       <r>    8.3321    0.0341 </r>
       <r>    8.4652   -0.0094 </r>
       <r>   10.3827    0.0000 </r>
       <r>   10.3827    0.0000 </r>
       <r>   12.4781    0.0000 </r>
      </set>
      <set comment="kpoint 6">
       <r>   -0.9141    1.0000 </r>
       <r>    1.4378    1.0000 </r>
       <r>    1.7034    1.0000 </r>
       <r>    1.8034    1.0000 </r>
       <r>    1.9819    1.0000 </r>
       <r>    2.1725    1.0000 </r>
       <r>    2.3273    1.0000 </r>
       <r>    3.6300    1.0000 </r>
       <r>    4.7985    1.0000 </r>
       <r>    4.8746    1.0000 </r>
       <r>    5.1138    1.0000 </r>
       <r>    5.4180    1.0000 </r>
       <r>    5.5356    1.0000 </r>
       <r>    5.8913    1.0000 </r>
       <r>    6.8302    1.0000 </r>
       <r>    6.9742    1.0000 </r>
       <r>    7.1834    1.0000 </r>
       <r>    7.4647    1.0023 </r>
       <r>    7.4741    1.1109 </r>
       <r>    8.3279    0.3046 </r>
       <r>    8.3438    0.0388 </r>
       <r>    8.8279   -0.0001 </r>
       <r>   12.1232    0.0000 </r>
       <r>   14.3130    0.0000 </r>
      </set>
      <set comment="kpoint 7">
       <r>    0.2010    1.0000 </r>
       <r>    1.2062    1.0000 </r>
       <r>    2.3386    1.0000 </r>
       <r>    2.4317    1.0000 </r>
       <r>    2.4683    1.0000 </r>
       <r>    2.9774    1.0000 </r>
       <r>    2.9981    1.0000 </r>
       <r>    3.0547    1.0000 </r>
       <r>    3.8058    1.0000 </r>
       <r>    4.1057    1.0000 </r>
       <r>    4.7063    1.0000 </r>
       <r>    4.7879    1.0000 </r>
       <r>    5.5598    1.0000 </r>
       <r>    5.9013    1.0000 </r>
       <r>    6.2902    1.0000 </r>
       <r>    6.4010    1.0000 </r>
       <r>    6.4627    1.0000 </r>
       <r>    6.6345    1.0000 </r>
       <r>    7.2962    1.0032 </r>
       <r>    7.9040    1.0106 </r>
       <r>    8.3210    0.0736 </r>
       <r>    8.3223   -0.0008 </r>
       <r>   13.4166    0.0000 </r>
       <r>   14.1770    0.0000 </r>
      </set>
      <set comment="kpoint 8">
       <r>   -0.2311    1.0000 </r>
       <r>    1.9292    1.0000 </r>
       <r>    2.0520    1.0000 </r>
       <r>    2.0520    1.0000 </r>
       <r>    2.4248    1.0000 </r>
       <r>    2.4248    1.0000 </r>
       <r>    2.8453    1.0000 </r>
       <r>    3.5336    1.0000 </r>
       <r>    4.2628    1.0000 </r>
       <r>    4.2628    1.0000 </r>
       <r>    4.7200    1.0000 </r>
       <r>    4.8442    1.0000 </r>
       <r>    5.0642    1.0000 </r>
       <r>    5.7739    1.0000 </r>
       <r>    6.5786    1.0000 </r>
       <r>    6.9648    1.0000 </r>
       <r>    6.9648    1.0000 </r>
       <r>    7.2365    1.0000 </r>
       <r>    7.4572    1.0445 </r>
       <r>    7.4572    1.1621 </r>
       <r>    7.8221    1.0943 </r>
       <r>   10.2877   -0.0001 </r>
       <r>   10.2877    0.0000 </r>
       <r>   13.4486    0.0000 </r>
      </set>
      <set comment="kpoint 9">
       <r>    0.7684    1.0000 </r>
       <r>    1.7627    1.0000 </r>
       <r>    2.4286    1.0000 </r>
       <r>    2.7990    1.0000 </r>
       <r>    2.8359    1.0000 </r>
       <r>    3.1226    1.0000 </r>
       <r>    3.2102    1.0000 </r>
       <r>    3.2111    1.0000 </r>
       <r>    3.2139    1.0000 </r>
       <r>    3.9889    1.0000 </r>
       <r>    3.9896    1.0000 </r>
       <r>    4.4357    1.0000 </r>
       <r>    5.6209    1.0000 </r>
       <r>    5.7721    1.0000 </r>
       <r>    6.1350    1.0000 </r>
       <r>    6.3208    1.0000 </r>
       <r>    6.3303    1.0000 </r>
       <r>    6.4714    1.0000 </r>
       <r>    7.4689    1.0035 </r>
       <r>    7.5539    1.0164 </r>
       <r>    8.0151    0.8057 </r>
       <r>    8.9844   -0.0032 </r>
       <r>   11.4990    0.0000 </r>
       <r>   12.4170    0.0000 </r>
      </set>
      <set comment="kpoint 10">
       <r>    1.5427    1.0000 </r>
       <r>    2.3296    1.0000 </r>
       <r>    2.3296    1.0000 </r>
       <r>    2.4621    1.0000 </r>
       <r>    3.2624    1.0000 </r>
       <r>    3.2624    1.0000 </r>
       <r>    3.3148    1.0000 </r>
       <r>    3.5569    1.0000 </r>
       <r>    3.6392    1.0000 </r>
       <r>    3.6392    1.0000 </r>
       <r>    3.7076    1.0000 </r>
       <r>    4.1909    1.0000 </r>
       <r>    5.5068    1.0000 </r>
       <r>    5.7639    1.0000 </r>
       <r>    5.8320    1.0000 </r>
       <r>    5.8320    1.0000 </r>
       <r>    5.9217    1.0000 </r>
       <r>    6.5741    1.0000 </r>
       <r>    6.5741    1.0000 </r>
       <r>    6.9076    1.0000 </r>
       <r>    9.0262   -0.1476 </r>
       <r>   10.1267    0.0000 </r>
       <r>   10.1267    0.0000 </r>
       <r>   11.1731    0.0000 </r>
      </set>
      <set comment="kpoint 11">
       <r>   -1.4284    1.0000 </r>
       <r>    1.3695    1.0000 </r>
       <r>    1.3695    1.0000 </r>
       <r>    1.3695    1.0000 </r>
       <r>    1.8839    1.0000 </r>
       <r>    1.8839    1.0000 </r>
       <r>    1.8839    1.0000 </r>
       <r>    3.9848    1.0000 </r>
       <r>    4.5651    1.0000 </r>
       <r>    4.5651    1.0000 </r>
       <r>    6.2131    1.0000 </r>
       <r>    6.2131    1.0000 </r>
       <r>    6.2131    1.0000 </r>
       <r>    6.4078    1.0000 </r>
       <r>    6.4078    1.0001 </r>
       <r>    7.3011    1.0075 </r>
       <r>    7.3011    1.0168 </r>
       <r>    7.3011    1.0290 </r>
       <r>    8.4763    0.1261 </r>
       <r>    8.4763   -0.0089 </r>
       <r>    8.4763   -0.0259 </r>
       <r>   11.1877    0.0000 </r>
       <r>   11.1877    0.0000 </r>
       <r>   11.1877    0.0000 </r>
      </set>
      <set comment="kpoint 12">
       <r>   -0.7052    1.0000 </r>
       <r>    1.5392    1.0000 </r>
       <r>    1.7813    1.0000 </r>
       <r>    1.7813    1.0000 </r>
       <r>    2.2142    1.0000 </r>
       <r>    2.4406    1.0000 </r>
       <r>    2.4406    1.0000 </r>
       <r>    3.6857    1.0000 </r>
       <r>    4.7592    1.0000 </r>
       <r>    4.8097    1.0000 </r>
       <r>    5.0268    1.0000 </r>
       <r>    5.0268    1.0000 </r>
       <r>    5.1551    1.0000 </r>
       <r>    6.1053    1.0000 </r>
       <r>    6.5980    1.0000 </r>
       <r>    6.7881    1.0000 </r>
       <r>    6.7883    1.0000 </r>
       <r>    6.7883    1.0020 </r>
       <r>    8.2904    0.5863 </r>
       <r>    8.3027    0.2849 </r>
       <r>    8.3027    0.0657 </r>
       <r>    9.2037   -0.0001 </r>
       <r>   12.6502    0.0000 </r>
       <r>   12.6502    0.0000 </r>
      </set>
      <set comment="kpoint 13">
       <r>    0.3418    1.0000 </r>
       <r>    1.2953    1.0000 </r>
       <r>    2.4294    1.0000 </r>
       <r>    2.4294    1.0000 </r>
       <r>    2.6797    1.0000 </r>
       <r>    2.9235    1.0000 </r>
       <r>    2.9235    1.0000 </r>
       <r>    3.1954    1.0000 </r>
       <r>    4.0262    1.0000 </r>
       <r>    4.0262    1.0000 </r>
       <r>    4.4774    1.0000 </r>
       <r>    4.6509    1.0000 </r>
       <r>    5.2451    1.0000 </r>
       <r>    5.8626    1.0000 </r>
       <r>    6.2336    1.0000 </r>
       <r>    6.2336    1.0000 </r>
       <r>    6.4083    1.0000 </r>
       <r>    7.3138    1.0000 </r>
       <r>    7.5425    1.0228 </r>
       <r>    7.8615    1.0263 </r>
       <r>    8.1581    0.5534 </r>
       <r>    8.1581    0.0134 </r>
       <r>   13.8399    0.0000 </r>
       <r>   13.8399    0.0000 </r>
      </set>
      <set comment="kpoint 14">
       <r>   -0.1176    1.0000 </r>
       <r>    1.8529    1.0000 </r>
       <r>    1.8529    1.0000 </r>
       <r>    1.9137    1.0000 </r>
       <r>    2.8002    1.0000 </r>
       <r>    2.8002    1.0000 </r>
       <r>    2.9389    1.0000 </r>
       <r>    3.7230    1.0000 </r>
       <r>    4.3083    1.0000 </r>
       <r>    4.3083    1.0000 </r>
       <r>    4.6957    1.0000 </r>
       <r>    4.7001    1.0000 </r>
       <r>    4.8200    1.0000 </r>
       <r>    6.1743    1.0000 </r>
       <r>    6.2031    1.0000 </r>
       <r>    6.2031    1.0000 </r>
       <r>    6.2098    1.0000 </r>
       <r>    7.1258    1.0000 </r>
       <r>    8.0926    0.8750 </r>
       <r>    8.1006    0.8126 </r>
       <r>    8.1006    0.6792 </r>
       <r>   10.4774   -0.0000 </r>
       <r>   10.4774    0.0000 </r>
       <r>   13.9185    0.0000 </r>
      </set>
      <set comment="kpoint 15">
       <r>    0.7178    1.0000 </r>
       <r>    1.5168    1.0000 </r>
       <r>    2.2256    1.0000 </r>
       <r>    2.2687    1.0000 </r>
       <r>    3.1479    1.0000 </r>
       <r>    3.1526    1.0000 </r>
       <r>    3.2751    1.0000 </r>
       <r>    3.5691    1.0000 </r>
       <r>    3.9843    1.0000 </r>
       <r>    4.0279    1.0000 </r>
       <r>    4.3452    1.0000 </r>
       <r>    4.4279    1.0000 </r>
       <r>    5.0455    1.0000 </r>
       <r>    5.5353    1.0000 </r>
       <r>    5.7831    1.0000 </r>
       <r>    5.8673    1.0000 </r>
       <r>    6.5437    1.0000 </r>
       <r>    7.4309    1.0000 </r>
       <r>    7.8111    1.0168 </r>
       <r>    7.8130    1.0273 </r>
       <r>    7.8906    0.9764 </r>
       <r>    8.8822   -0.0020 </r>
       <r>   11.6849    0.0000 </r>
       <r>   12.7166    0.0000 </r>
      </set>
      <set comment="kpoint 16">
       <r>    1.2234    1.0000 </r>
       <r>    1.7682    1.0000 </r>
       <r>    1.7682    1.0000 </r>
       <r>    1.9890    1.0000 </r>
       <r>    3.4924    1.0000 </r>
       <r>    3.7059    1.0000 </r>
       <r>    3.7059    1.0000 </r>
       <r>    3.9070    1.0000 </r>
       <r>    4.0650    1.0000 </r>
       <r>    4.0650    1.0000 </r>
       <r>    4.2813    1.0000 </r>
       <r>    4.4812    1.0000 </r>
       <r>    4.9656    1.0000 </r>
       <r>    5.3066    1.0000 </r>
       <r>    5.3066    1.0000 </r>
       <r>    5.3356    1.0000 </r>
       <r>    6.5967    1.0000 </r>
       <r>    7.1894    1.0000 </r>
       <r>    7.1894    1.0106 </r>
       <r>    7.3645    1.0105 </r>
       <r>    8.8897   -0.1212 </r>
       <r>   10.0536    0.0000 </r>
       <r>   10.0536    0.0000 </r>
       <r>   11.2075    0.0000 </r>
      </set>
      <set comment="kpoint 17">
       <r>    0.2048    1.0000 </r>
       <r>    1.7110    1.0000 </r>
       <r>    1.7110    1.0000 </r>
       <r>    1.7110    1.0000 </r>
       <r>    3.2969    1.0000 </r>
       <r>    3.2969    1.0000 </r>
       <r>    3.2969    1.0000 </r>
       <r>    4.1761    1.0000 </r>
       <r>    4.4785    1.0000 </r>
       <r>    4.4785    1.0000 </r>
       <r>    4.4785    1.0000 </r>
       <r>    4.6131    1.0000 </r>
       <r>    4.6131    1.0000 </r>
       <r>    5.5140    1.0000 </r>
       <r>    5.5140    1.0000 </r>
       <r>    5.5140    1.0000 </r>
       <r>    6.9544    1.0000 </r>
       <r>    6.9544    1.0000 </r>
       <r>    8.3359    0.3481 </r>
       <r>    8.3359    0.2996 </r>
       <r>    8.3359    0.0013 </r>
       <r>   11.1087   -0.0000 </r>
       <r>   11.1087    0.0000 </r>
       <r>   11.1087    0.0000 </r>
      </set>
      <set comment="kpoint 18">
       <r>    0.6871    1.0000 </r>
       <r>    1.2429    1.0000 </r>
       <r>    1.6825    1.0000 </r>
       <r>    1.6825    1.0000 </r>
       <r>    3.4471    1.0000 </r>
       <r>    3.4471    1.0000 </r>
       <r>    3.8795    1.0000 </r>
       <r>    4.3683    1.0000 </r>
       <r>    4.4199    1.0000 </r>
       <r>    4.4676    1.0000 </r>
       <r>    4.6576    1.0000 </r>
       <r>    4.8639    1.0000 </r>
       <r>    4.8639    1.0000 </r>
       <r>    4.9707    1.0000 </r>
       <r>    5.2019    1.0000 </r>
       <r>    5.2019    1.0000 </r>
       <r>    7.3769    1.0000 </r>
       <r>    7.6812    1.0000 </r>
       <r>    8.1035    0.9559 </r>
       <r>    8.1035    0.9546 </r>
       <r>    8.1946    0.3131 </r>
       <r>    8.8739   -0.0004 </r>
       <r>   11.8259    0.0000 </r>
       <r>   11.8259    0.0000 </r>
      </set>
      <set comment="kpoint 19">
       <r>    0.8206    1.0000 </r>
       <r>    1.1630    1.0000 </r>
       <r>    1.1630    1.0000 </r>
       <r>    1.3080    1.0000 </r>
       <r>    3.7642    1.0000 </r>
       <r>    3.9130    1.0000 </r>
       <r>    3.9130    1.0000 </r>
       <r>    4.2783    1.0000 </r>
       <r>    4.4863    1.0000 </r>
       <r>    4.6901    1.0000 </r>
       <r>    4.6901    1.0000 </r>
       <r>    4.7540    1.0000 </r>
       <r>    5.3321    1.0000 </r>
       <r>    5.3490    1.0000 </r>
       <r>    5.3490    1.0000 </r>
       <r>    5.5311    1.0000 </r>
       <r>    7.4234    1.0000 </r>
       <r>    7.9432    1.0000 </r>
       <r>    7.9432    1.0461 </r>
       <r>    7.9731    1.0412 </r>
       <r>    8.4826   -0.0233 </r>
       <r>    9.7663    0.0000 </r>
       <r>    9.7663    0.0000 </r>
       <r>   10.8539    0.0000 </r>
      </set>
      <set comment="kpoint 20">
       <r>    0.6736    1.0000 </r>
       <r>    0.8406    1.0000 </r>
       <r>    0.8406    1.0000 </r>
       <r>    0.8406    1.0000 </r>
       <r>    4.0905    1.0000 </r>
       <r>    4.0905    1.0000 </r>
       <r>    4.0905    1.0000 </r>
       <r>    4.2820    1.0000 </r>
       <r>    4.2820    1.0000 </r>
       <r>    4.3768    1.0000 </r>
       <r>    4.3768    1.0000 </r>
       <r>    4.3768    1.0000 </r>
       <r>    6.5229    1.0000 </r>
       <r>    6.5229    1.0000 </r>
       <r>    6.5229    1.0000 </r>
       <r>    6.7784    1.0000 </r>
       <r>    8.0409    1.0000 </r>
       <r>    8.0409    1.0000 </r>
       <r>    8.2471    0.4233 </r>
       <r>    8.2471    0.3890 </r>
       <r>    8.2471    0.0000 </r>
       <r>    9.3125    0.0000 </r>
       <r>    9.3125    0.0000 </r>
       <r>    9.3125    0.0000 </r>
      </set>
     </set>
    </set>
   </array>
  </eigenvalues>
  <separator name="orbital magnetization" >
   <v name="MAGDIPOLOUT">      0.00000000      0.00000000      0.00000000</v>
  </separator>
  <dos>
   <i name="efermi">      8.17082186 </i>
   <total>
    <array>
     <dimension dim="1">gridpoints</dimension>
     <dimension dim="2">spin</dimension>
     <field>energy</field>
     <field>total</field>
     <field>integrated</field>
     <set>
      <set comment="spin 1">
       <r>    -4.2284     0.0000     0.0000 </r>
       <r>    -4.1555     0.0000     0.0000 </r>
       <r>    -4.0826     0.0000     0.0000 </r>
       <r>    -4.0097     0.0000     0.0000 </r>
       <r>    -3.9368     0.0000     0.0000 </r>
       <r>    -3.8639     0.0000     0.0000 </r>
       <r>    -3.7909     0.0000     0.0000 </r>
       <r>    -3.7180     0.0000     0.0000 </r>
       <r>    -3.6451     0.0000     0.0000 </r>
       <r>    -3.5722     0.0000     0.0000 </r>
       <r>    -3.4993     0.0000     0.0000 </r>
       <r>    -3.4264     0.0000     0.0000 </r>
       <r>    -3.3534     0.0000     0.0000 </r>
       <r>    -3.2805     0.0000     0.0000 </r>
       <r>    -3.2076     0.0000     0.0000 </r>
       <r>    -3.1347     0.0000     0.0000 </r>
       <r>    -3.0618     0.0000     0.0000 </r>
       <r>    -2.9889     0.0000     0.0000 </r>
       <r>    -2.9160     0.0000     0.0000 </r>
       <r>    -2.8430     0.0000     0.0000 </r>
       <r>    -2.7701     0.0000     0.0000 </r>
       <r>    -2.6972     0.0000     0.0000 </r>
       <r>    -2.6243     0.0000     0.0000 </r>
       <r>    -2.5514     0.0000     0.0000 </r>
       <r>    -2.4785     0.0000     0.0000 </r>
       <r>    -2.4055     0.0000     0.0000 </r>
       <r>    -2.3326     0.0000     0.0000 </r>
       <r>    -2.2597     0.0000     0.0000 </r>
       <r>    -2.1868     0.0019     0.0000 </r>
       <r>    -2.1139     0.0146     0.0006 </r>
       <r>    -2.0410     0.0391     0.0024 </r>
       <r>    -1.9680     0.0755     0.0066 </r>
       <r>    -1.8951     0.1188     0.0137 </r>
       <r>    -1.8222     0.1514     0.0236 </r>
       <r>    -1.7493     0.1720     0.0355 </r>
       <r>    -1.6764     0.1803     0.0484 </r>
       <r>    -1.6035     0.1840     0.0616 </r>
       <r>    -1.5306     0.1931     0.0753 </r>
       <r>    -1.4576     0.2075     0.0899 </r>
       <r>    -1.3847     0.2266     0.1057 </r>
       <r>    -1.3118     0.2469     0.1230 </r>
       <r>    -1.2389     0.2682     0.1418 </r>
       <r>    -1.1660     0.2903     0.1621 </r>
       <r>    -1.0931     0.3113     0.1841 </r>
       <r>    -1.0201     0.3273     0.2074 </r>
       <r>    -0.9472     0.3382     0.2317 </r>
       <r>    -0.8743     0.3469     0.2566 </r>
       <r>    -0.8014     0.3607     0.2824 </r>
       <r>    -0.7285     0.3793     0.3094 </r>
       <r>    -0.6556     0.3984     0.3377 </r>
       <r>    -0.5826     0.4166     0.3674 </r>
       <r>    -0.5097     0.4351     0.3985 </r>
       <r>    -0.4368     0.4542     0.4309 </r>
       <r>    -0.3639     0.4737     0.4647 </r>
       <r>    -0.2910     0.4936     0.5000 </r>
       <r>    -0.2181     0.5141     0.5367 </r>
       <r>    -0.1452     0.5388     0.5751 </r>
       <r>    -0.0722     0.5672     0.6154 </r>
       <r>     0.0007     0.6093     0.6579 </r>
       <r>     0.0736     0.7669     0.7082 </r>
       <r>     0.1465     0.9116     0.7694 </r>
       <r>     0.2194     1.0663     0.8417 </r>
       <r>     0.2923     0.9821     0.9163 </r>
       <r>     0.3653     0.9568     0.9858 </r>
       <r>     0.4382     1.0238     1.0581 </r>
       <r>     0.5111     1.0822     1.1349 </r>
       <r>     0.5840     1.1320     1.2157 </r>
       <r>     0.6569     1.1731     1.2998 </r>
       <r>     0.7298     2.5008     1.4681 </r>
       <r>     0.8027     1.8840     1.6297 </r>
       <r>     0.8757     1.2754     1.7442 </r>
       <r>     0.9486     1.2993     1.8374 </r>
       <r>     1.0215     1.5800     1.9396 </r>
       <r>     1.0944     2.1174     2.0732 </r>
       <r>     1.1673     3.1758     2.2573 </r>
       <r>     1.2402     3.8126     2.5210 </r>
       <r>     1.3132     4.3222     2.8185 </r>
       <r>     1.3861     4.7050     3.1475 </r>
       <r>     1.4590     5.0445     3.5049 </r>
       <r>     1.5319     5.0750     3.8793 </r>
       <r>     1.6048     5.4662     4.2611 </r>
       <r>     1.6777     5.6528     4.6680 </r>
       <r>     1.7507     6.1447     5.0941 </r>
       <r>     1.8236     6.2433     5.5514 </r>
       <r>     1.8965     5.3652     5.9661 </r>
       <r>     1.9694     5.2662     6.3506 </r>
       <r>     2.0423     5.3252     6.7374 </r>
       <r>     2.1152     5.3172     7.1255 </r>
       <r>     2.1881     5.2873     7.5119 </r>
       <r>     2.2611     5.6145     7.9054 </r>
       <r>     2.3340     6.9774     8.3757 </r>
       <r>     2.4069     5.9959     8.8498 </r>
       <r>     2.4798     3.4554     9.1814 </r>
       <r>     2.5527     3.2605     9.4260 </r>
       <r>     2.6256     3.1057     9.6578 </r>
       <r>     2.6986     2.9960     9.8799 </r>
       <r>     2.7715     2.9348    10.0959 </r>
       <r>     2.8444     3.0303    10.3114 </r>
       <r>     2.9173     3.3306    10.5422 </r>
       <r>     2.9902     5.7071    10.9627 </r>
       <r>     3.0631     5.1692    11.3353 </r>
       <r>     3.1361     5.4232    11.7194 </r>
       <r>     3.2090     5.0458    12.1089 </r>
       <r>     3.2819     5.4761    12.4976 </r>
       <r>     3.3548     5.0996    12.8744 </r>
       <r>     3.4277     5.0607    13.2448 </r>
       <r>     3.5006     5.0587    13.6138 </r>
       <r>     3.5735     5.1566    13.9858 </r>
       <r>     3.6465     5.4267    14.3669 </r>
       <r>     3.7194     5.3558    14.7719 </r>
       <r>     3.7923     5.0034    15.1426 </r>
       <r>     3.8652     5.2716    15.5225 </r>
       <r>     3.9381     5.5104    15.9410 </r>
       <r>     4.0110     8.1793    16.3795 </r>
       <r>     4.0840     7.4889    17.0148 </r>
       <r>     4.1569     5.4561    17.4902 </r>
       <r>     4.2298     5.6477    17.8924 </r>
       <r>     4.3027     7.3219    18.4148 </r>
       <r>     4.3756     7.2061    18.9349 </r>
       <r>     4.4485    11.8619    19.6226 </r>
       <r>     4.5215     9.6323    20.3809 </r>
       <r>     4.5944     9.5399    21.0811 </r>
       <r>     4.6673     9.6208    21.7703 </r>
       <r>     4.7402     6.7143    22.3291 </r>
       <r>     4.8131     4.8667    22.7642 </r>
       <r>     4.8860     3.1631    23.0409 </r>
       <r>     4.9589     3.9280    23.2993 </r>
       <r>     5.0319     4.4373    23.6134 </r>
       <r>     5.1048     4.1635    23.9275 </r>
       <r>     5.1777     3.9796    24.2238 </r>
       <r>     5.2506     4.8450    24.5333 </r>
       <r>     5.3235     7.8232    24.9664 </r>
       <r>     5.3964     6.1750    25.4612 </r>
       <r>     5.4694     6.1274    25.9101 </r>
       <r>     5.5423     5.8488    26.3480 </r>
       <r>     5.6152     4.7901    26.7556 </r>
       <r>     5.6881     5.0840    27.1123 </r>
       <r>     5.7610     5.6813    27.5033 </r>
       <r>     5.8339     5.6768    27.8967 </r>
       <r>     5.9068     4.9820    28.3387 </r>
       <r>     5.9798     4.6255    28.6891 </r>
       <r>     6.0527     4.3450    29.0154 </r>
       <r>     6.1256     4.3406    29.3275 </r>
       <r>     6.1985     4.1308    29.6345 </r>
       <r>     6.2714     6.3135    29.9818 </r>
       <r>     6.3443     5.1987    30.4007 </r>
       <r>     6.4173     5.8762    30.8043 </r>
       <r>     6.4902     5.8062    31.2966 </r>
       <r>     6.5631     5.3441    31.7177 </r>
       <r>     6.6360     4.8700    32.1037 </r>
       <r>     6.7089     4.6755    32.4525 </r>
       <r>     6.7818     4.2786    32.7860 </r>
       <r>     6.8548     3.7565    33.0775 </r>
       <r>     6.9277     3.9780    33.3575 </r>
       <r>     7.0006     3.9808    33.6499 </r>
       <r>     7.0735     4.0643    33.9435 </r>
       <r>     7.1464     4.1325    34.2415 </r>
       <r>     7.2193     4.4008    34.5520 </r>
       <r>     7.2922     4.6191    34.8812 </r>
       <r>     7.3652     4.8201    35.2218 </r>
       <r>     7.4381     5.0553    35.6130 </r>
       <r>     7.5110     4.9363    35.9881 </r>
       <r>     7.5839     4.7293    36.3384 </r>
       <r>     7.6568     4.6649    36.6802 </r>
       <r>     7.7297     4.7750    37.0231 </r>
       <r>     7.8027     4.9657    37.3780 </r>
       <r>     7.8756     6.3118    37.8113 </r>
       <r>     7.9485     7.5899    38.2813 </r>
       <r>     8.0214     8.3619    38.8741 </r>
       <r>     8.0943     7.3992    39.4563 </r>
       <r>     8.1672     6.8536    39.9755 </r>
       <r>     8.2402     6.3396    40.4507 </r>
       <r>     8.3131     6.4005    40.9127 </r>
       <r>     8.3860     4.8241    41.3637 </r>
       <r>     8.4589     3.6014    41.6649 </r>
       <r>     8.5318     2.6364    41.8830 </r>
       <r>     8.6047     2.1588    42.0581 </r>
       <r>     8.6776     1.6357    42.1967 </r>
       <r>     8.7506     1.2752    42.2941 </r>
       <r>     8.8235     1.2420    42.3865 </r>
       <r>     8.8964     1.4704    42.4960 </r>
       <r>     8.9693     1.3790    42.5998 </r>
       <r>     9.0422     1.0504    42.6931 </r>
       <r>     9.1151     1.0502    42.7696 </r>
       <r>     9.1881     1.0668    42.8467 </r>
       <r>     9.2610     1.0849    42.9252 </r>
       <r>     9.3339     1.2783    43.0261 </r>
       <r>     9.4068     1.2952    43.1200 </r>
       <r>     9.4797     1.3070    43.2149 </r>
       <r>     9.5526     1.3138    43.3105 </r>
       <r>     9.6256     1.3157    43.4064 </r>
       <r>     9.6985     1.3125    43.5022 </r>
       <r>     9.7714     1.2159    43.5972 </r>
       <r>     9.8443     1.1842    43.6847 </r>
       <r>     9.9172     1.1519    43.7699 </r>
       <r>     9.9901     1.1192    43.8527 </r>
       <r>    10.0630     1.7990    43.9399 </r>
       <r>    10.1360     0.7991    44.0605 </r>
       <r>    10.2089     0.7807    44.1181 </r>
       <r>    10.2818     0.7624    44.1743 </r>
       <r>    10.3547     0.7468    44.2293 </r>
       <r>    10.4276     0.7447    44.2835 </r>
       <r>    10.5005     0.7576    44.3382 </r>
       <r>    10.5735     0.7777    44.3942 </r>
       <r>    10.6464     0.7978    44.4516 </r>
       <r>    10.7193     0.8178    44.5105 </r>
       <r>    10.7922     0.8376    44.5709 </r>
       <r>    10.8651     0.9501    44.6337 </r>
       <r>    10.9380     0.9937    44.7045 </r>
       <r>    11.0110     1.0429    44.7787 </r>
       <r>    11.0839     1.0976    44.8567 </r>
       <r>    11.1568     1.1537    44.9389 </r>
       <r>    11.2297     1.1964    45.0615 </r>
       <r>    11.3026     1.2149    45.1494 </r>
       <r>    11.3755     1.2322    45.2386 </r>
       <r>    11.4484     1.2485    45.3291 </r>
       <r>    11.5214     1.2487    45.4205 </r>
       <r>    11.5943     1.2169    45.5104 </r>
       <r>    11.6672     1.1801    45.5978 </r>
       <r>    11.7401     1.2628    45.6931 </r>
       <r>    11.8130     1.0374    45.7770 </r>
       <r>    11.8859     0.9996    45.8500 </r>
       <r>    11.9589     1.0015    45.9230 </r>
       <r>    12.0318     1.0030    45.9961 </r>
       <r>    12.1047     1.0041    46.0692 </r>
       <r>    12.1776     0.9982    46.1423 </r>
       <r>    12.2505     0.9887    46.2148 </r>
       <r>    12.3234     0.9774    46.2865 </r>
       <r>    12.3963     0.9645    46.3573 </r>
       <r>    12.4693     0.9538    46.4271 </r>
       <r>    12.5422     0.9555    46.4967 </r>
       <r>    12.6151     0.9661    46.5667 </r>
       <r>    12.6880     0.9874    46.6379 </r>
       <r>    12.7609     0.9828    46.7097 </r>
       <r>    12.8338     0.9796    46.7813 </r>
       <r>    12.9068     0.9743    46.8526 </r>
       <r>    12.9797     0.9668    46.9233 </r>
       <r>    13.0526     0.9572    46.9935 </r>
       <r>    13.1255     0.9454    47.0629 </r>
       <r>    13.1984     0.9315    47.1313 </r>
       <r>    13.2713     0.9154    47.1987 </r>
       <r>    13.3443     0.8972    47.2648 </r>
       <r>    13.4172     0.9754    47.3295 </r>
       <r>    13.4901     0.9209    47.3987 </r>
       <r>    13.5630     0.8615    47.4637 </r>
       <r>    13.6359     0.7973    47.5242 </r>
       <r>    13.7088     0.7333    47.5800 </r>
       <r>    13.7817     0.6707    47.6311 </r>
       <r>    13.8547     0.6163    47.6779 </r>
       <r>    13.9276     0.5882    47.7218 </r>
       <r>    14.0005     0.5642    47.7638 </r>
       <r>    14.0734     0.5364    47.8040 </r>
       <r>    14.1463     0.5047    47.8419 </r>
       <r>    14.2192     0.3355    47.8729 </r>
       <r>    14.2922     0.2197    47.8931 </r>
       <r>    14.3651     0.1784    47.9069 </r>
       <r>    14.4380     0.1631    47.9194 </r>
       <r>    14.5109     0.1484    47.9307 </r>
       <r>    14.5838     0.1343    47.9410 </r>
       <r>    14.6567     0.1208    47.9503 </r>
       <r>    14.7297     0.1079    47.9587 </r>
       <r>    14.8026     0.0956    47.9661 </r>
       <r>    14.8755     0.0840    47.9726 </r>
       <r>    14.9484     0.0729    47.9783 </r>
       <r>    15.0213     0.0625    47.9833 </r>
       <r>    15.0942     0.0527    47.9875 </r>
       <r>    15.1671     0.0435    47.9910 </r>
       <r>    15.2401     0.0349    47.9938 </r>
       <r>    15.3130     0.0270    47.9961 </r>
       <r>    15.3859     0.0196    47.9978 </r>
       <r>    15.4588     0.0129    47.9990 </r>
       <r>    15.5317     0.0068    47.9997 </r>
       <r>    15.6046     0.0018    48.0000 </r>
       <r>    15.6776     0.0000    48.0000 </r>
       <r>    15.7505     0.0000    48.0000 </r>
       <r>    15.8234     0.0000    48.0000 </r>
       <r>    15.8963     0.0000    48.0000 </r>
       <r>    15.9692     0.0000    48.0000 </r>
       <r>    16.0421     0.0000    48.0000 </r>
       <r>    16.1151     0.0000    48.0000 </r>
       <r>    16.1880     0.0000    48.0000 </r>
       <r>    16.2609     0.0000    48.0000 </r>
       <r>    16.3338     0.0000    48.0000 </r>
       <r>    16.4067     0.0000    48.0000 </r>
       <r>    16.4796     0.0000    48.0000 </r>
       <r>    16.5525     0.0000    48.0000 </r>
       <r>    16.6255     0.0000    48.0000 </r>
       <r>    16.6984     0.0000    48.0000 </r>
       <r>    16.7713     0.0000    48.0000 </r>
       <r>    16.8442     0.0000    48.0000 </r>
       <r>    16.9171     0.0000    48.0000 </r>
       <r>    16.9900     0.0000    48.0000 </r>
       <r>    17.0630     0.0000    48.0000 </r>
       <r>    17.1359     0.0000    48.0000 </r>
       <r>    17.2088     0.0000    48.0000 </r>
       <r>    17.2817     0.0000    48.0000 </r>
       <r>    17.3546     0.0000    48.0000 </r>
       <r>    17.4275     0.0000    48.0000 </r>
       <r>    17.5004     0.0000    48.0000 </r>
       <r>    17.5734     0.0000    48.0000 </r>
       <r>    17.6463     0.0000    48.0000 </r>
      </set>
     </set>
    </array>
   </total>
  </dos>
 </calculation>
 <structure name="finalpos" >
  <crystal>
   <varray name="basis" >
    <v>       3.90000000       0.00000000       0.00000000 </v>
    <v>       0.00000000       3.90000000       0.00000000 </v>
    <v>       0.00000000       0.00000000       3.90000000 </v>
   </varray>
   <i name="volume">     59.31900000 </i>
   <varray name="rec_basis" >
    <v>       0.25641026       0.00000000       0.00000000 </v>
    <v>       0.00000000       0.25641026       0.00000000 </v>
    <v>       0.00000000       0.00000000       0.25641026 </v>
   </varray>
  </crystal>
  <varray name="positions" >
   <v>       0.00000000       0.00000000       0.00000000 </v>
   <v>       0.00000000       0.50000000       0.50000000 </v>
   <v>       0.50000000       0.00000000       0.50000000 </v>
   <v>       0.50000000       0.50000000       0.00000000 </v>
  </varray>
 </structure>
</modeling>
