unknown system                          
   3.00000000000000     
     1.000000    0.000000    0.000000
     0.000000    1.000000    0.000000
     0.000000    0.000000    1.000000
   Pt
     2
Direct
  0.000000  0.000000  0.000000
  0.500000  0.500000  0.500000
 
   32   32   32
  102.95      100.52      94.073      85.552      76.879      68.913      61.270      53.038      43.776      34.038    
  25.073      18.038      13.327      10.470      8.7265      7.8024      7.5174      7.8024      8.7265      10.470    
  13.327      18.038      25.073      34.038      43.776      53.038      61.270      68.913      76.879      85.552    
  94.073      100.52      100.52      98.189      91.973      83.749      75.345      67.575      60.065      51.953    
  42.846      33.312      24.572      17.736      13.166      10.383      8.6771      7.7730      7.4940      7.7730    
  8.6771      10.383      13.166      17.736      24.572      33.312      42.846      51.953      60.065      67.575    
  75.345      83.749      91.973      98.189      94.073      91.973      86.369      78.907      71.184      63.895    
  56.709      48.908      40.231      31.272      23.167      16.894      12.715      10.135      8.5376      7.6904    
  7.4286      7.6904      8.5376      10.135      12.715      16.894      23.167      31.272      40.231      48.908    
  56.709      63.895      71.184      78.907      86.369      91.973      85.552      83.749      78.907      72.372    
  65.440      58.677      51.843      44.440      36.383      28.280      21.120      15.674      12.058      9.7663    
  8.3325      7.5702      7.3341      7.5702      8.3325      9.7663      12.058      15.674      21.120      28.280    
  36.383      44.440      51.843      58.677      65.440      72.372      78.907      83.749      76.879      75.345    
  71.184      65.440      59.132      52.738      46.169      39.181      31.866      24.801      18.768      14.282    
  11.298      9.3318      8.0942      7.4332      7.2276      7.4332      8.0942      9.3318      11.298      14.282    
  18.768      24.801      31.866      39.181      46.169      52.738      59.132      65.440      71.184      75.345    
  68.913      67.575      63.895      58.677      52.738      46.543      40.186      33.665      27.198      21.274    
  16.426      12.905      10.519      8.8862      7.8556      7.3003      7.1264      7.3003      7.8556      8.8862    
  10.519      12.905      16.426      21.274      27.198      33.665      40.186      46.543      52.738      58.677    
  63.895      67.575      61.270      60.065      56.709      51.843      46.169      40.186      34.158      28.265    
  22.771      18.029      14.319      11.661      9.7821      8.4742      7.6425      7.1884      7.0446      7.1884    
  7.6425      8.4742      9.7821      11.661      14.319      18.029      22.771      28.265      34.158      40.186    
  46.169      51.843      56.709      60.065      53.038      51.953      48.908      44.440      39.181      33.665    
  28.265      23.248      18.848      15.262      12.555      10.587      9.1354      8.1237      7.4715      7.1085    
  6.9921      7.1085      7.4715      8.1237      9.1354      10.587      12.555      15.262      18.848      23.248    
  28.265      33.665      39.181      44.440      48.908      51.953      43.776      42.846      40.231      36.383    
  31.866      27.198      22.771      18.848      15.588      13.043      11.134      9.6793      8.6025      7.8465    
  7.3493      7.0661      6.9740      7.0661      7.3493      7.8465      8.6025      9.6793      11.134      13.043    
  15.588      18.848      22.771      27.198      31.866      36.383      40.231      42.846      34.038      33.312    
  31.272      28.280      24.801      21.274      18.029      15.262      13.043      11.327      9.9827      8.9482    
  8.1849      7.6415      7.2756      7.0624      6.9921      7.0624      7.2756      7.6415      8.1849      8.9482    
  9.9827      11.327      13.043      15.262      18.029      21.274      24.801      28.280      31.272      33.312    
  25.073      24.572      23.167      21.120      18.768      16.426      14.319      12.555      11.134      9.9827    
  9.0734      8.3822      7.8702      7.4998      7.2455      7.0948      7.0446      7.0948      7.2455      7.4998    
  7.8702      8.3822      9.0734      9.9827      11.134      12.555      14.319      16.426      18.768      21.120    
  23.167      24.572      18.038      17.736      16.894      15.674      14.282      12.905      11.661      10.587    
  9.6793      8.9482      8.3822      7.9556      7.6395      7.4099      7.2515      7.1576      7.1264      7.1576    
  7.2515      7.4099      7.6395      7.9556      8.3822      8.9482      9.6793      10.587      11.661      12.905    
  14.282      15.674      16.894      17.736      13.327      13.166      12.715      12.058      11.298      10.519    
  9.7821      9.1354      8.6025      8.1849      7.8702      7.6395      7.4743      7.3595      7.2841      7.2414    
  7.2276      7.2414      7.2841      7.3595      7.4743      7.6395      7.8702      8.1849      8.6025      9.1354    
  9.7821      10.519      11.298      12.058      12.715      13.166      10.470      10.383      10.135      9.7663    
  9.3318      8.8862      8.4742      8.1237      7.8465      7.6415      7.4998      7.4099      7.3595      7.3369    
  7.3313      7.3327      7.3341      7.3327      7.3313      7.3369      7.3595      7.4099      7.4998      7.6415    
  7.8465      8.1237      8.4742      8.8862      9.3318      9.7663      10.135      10.383      8.7265      8.6771    
  8.5376      8.3325      8.0942      7.8556      7.6425      7.4715      7.3493      7.2756      7.2455      7.2515    
  7.2841      7.3313      7.3796      7.4154      7.4286      7.4154      7.3796      7.3313      7.2841      7.2515    
  7.2455      7.2756      7.3493      7.4715      7.6425      7.8556      8.0942      8.3325      8.5376      8.6771    
  7.8024      7.7730      7.6904      7.5702      7.4332      7.3003      7.1884      7.1085      7.0661      7.0624    
  7.0948      7.1576      7.2414      7.3327      7.4154      7.4732      7.4940      7.4732      7.4154      7.3327    
  7.2414      7.1576      7.0948      7.0624      7.0661      7.1085      7.1884      7.3003      7.4332      7.5702    
  7.6904      7.7730      7.5174      7.4940      7.4286      7.3341      7.2276      7.1264      7.0446      6.9921    
  6.9740      6.9921      7.0446      7.1264      7.2276      7.3341      7.4286      7.4940      7.5174      7.4940    
  7.4286      7.3341      7.2276      7.1264      7.0446      6.9921      6.9740      6.9921      7.0446      7.1264    
  7.2276      7.3341      7.4286      7.4940      7.8024      7.7730      7.6904      7.5702      7.4332      7.3003    
  7.1884      7.1085      7.0661      7.0624      7.0948      7.1576      7.2414      7.3327      7.4154      7.4732    
  7.4940      7.4732      7.4154      7.3327      7.2414      7.1576      7.0948      7.0624      7.0661      7.1085    
  7.1884      7.3003      7.4332      7.5702      7.6904      7.7730      8.7265      8.6771      8.5376      8.3325    
  8.0942      7.8556      7.6425      7.4715      7.3493      7.2756      7.2455      7.2515      7.2841      7.3313    
  7.3796      7.4154      7.4286      7.4154      7.3796      7.3313      7.2841      7.2515      7.2455      7.2756    
  7.3493      7.4715      7.6425      7.8556      8.0942      8.3325      8.5376      8.6771      10.470      10.383    
  10.135      9.7663      9.3318      8.8862      8.4742      8.1237      7.8465      7.6415      7.4998      7.4099    
  7.3595      7.3369      7.3313      7.3327      7.3341      7.3327      7.3313      7.3369      7.3595      7.4099    
  7.4998      7.6415      7.8465      8.1237      8.4742      8.8862      9.3318      9.7663      10.135      10.383    
  13.327      13.166      12.715      12.058      11.298      10.519      9.7821      9.1354      8.6025      8.1849    
  7.8702      7.6395      7.4743      7.3595      7.2841      7.2414      7.2276      7.2414      7.2841      7.3595    
  7.4743      7.6395      7.8702      8.1849      8.6025      9.1354      9.7821      10.519      11.298      12.058    
  12.715      13.166      18.038      17.736      16.894      15.674      14.282      12.905      11.661      10.587    
  9.6793      8.9482      8.3822      7.9556      7.6395      7.4099      7.2515      7.1576      7.1264      7.1576    
  7.2515      7.4099      7.6395      7.9556      8.3822      8.9482      9.6793      10.587      11.661      12.905    
  14.282      15.674      16.894      17.736      25.073      24.572      23.167      21.120      18.768      16.426    
  14.319      12.555      11.134      9.9827      9.0734      8.3822      7.8702      7.4998      7.2455      7.0948    
  7.0446      7.0948      7.2455      7.4998      7.8702      8.3822      9.0734      9.9827      11.134      12.555    
  14.319      16.426      18.768      21.120      23.167      24.572      34.038      33.312      31.272      28.280    
  24.801      21.274      18.029      15.262      13.043      11.327      9.9827      8.9482      8.1849      7.6415    
  7.2756      7.0624      6.9921      7.0624      7.2756      7.6415      8.1849      8.9482      9.9827      11.327    
  13.043      15.262      18.029      21.274      24.801      28.280      31.272      33.312      43.776      42.846    
  40.231      36.383      31.866      27.198      22.771      18.848      15.588      13.043      11.134      9.6793    
  8.6025      7.8465      7.3493      7.0661      6.9740      7.0661      7.3493      7.8465      8.6025      9.6793    
  11.134      13.043      15.588      18.848      22.771      27.198      31.866      36.383      40.231      42.846    
  53.038      51.953      48.908      44.440      39.181      33.665      28.265      23.248      18.848      15.262    
  12.555      10.587      9.1354      8.1237      7.4715      7.1085      6.9921      7.1085      7.4715      8.1237    
  9.1354      10.587      12.555      15.262      18.848      23.248      28.265      33.665      39.181      44.440    
  48.908      51.953      61.270      60.065      56.709      51.843      46.169      40.186      34.158      28.265    
  22.771      18.029      14.319      11.661      9.7821      8.4742      7.6425      7.1884      7.0446      7.1884    
  7.6425      8.4742      9.7821      11.661      14.319      18.029      22.771      28.265      34.158      40.186    
  46.169      51.843      56.709      60.065      68.913      67.575      63.895      58.677      52.738      46.543    
  40.186      33.665      27.198      21.274      16.426      12.905      10.519      8.8862      7.8556      7.3003    
  7.1264      7.3003      7.8556      8.8862      10.519      12.905      16.426      21.274      27.198      33.665    
  40.186      46.543      52.738      58.677      63.895      67.575      76.879      75.345      71.184      65.440    
  59.132      52.738      46.169      39.181      31.866      24.801      18.768      14.282      11.298      9.3318    
  8.0942      7.4332      7.2276      7.4332      8.0942      9.3318      11.298      14.282      18.768      24.801    
  31.866      39.181      46.169      52.738      59.132      65.440      71.184      75.345      85.552      83.749    
  78.907      72.372      65.440      58.677      51.843      44.440      36.383      28.280      21.120      15.674    
  12.058      9.7663      8.3325      7.5702      7.3341      7.5702      8.3325      9.7663      12.058      15.674    
  21.120      28.280      36.383      44.440      51.843      58.677      65.440      72.372      78.907      83.749    
  94.073      91.973      86.369      78.907      71.184      63.895      56.709      48.908      40.231      31.272    
  23.167      16.894      12.715      10.135      8.5376      7.6904      7.4286      7.6904      8.5376      10.135    
  12.715      16.894      23.167      31.272      40.231      48.908      56.709      63.895      71.184      78.907    
  86.369      91.973      100.52      98.189      91.973      83.749      75.345      67.575      60.065      51.953    
  42.846      33.312      24.572      17.736      13.166      10.383      8.6771      7.7730      7.4940      7.7730    
  8.6771      10.383      13.166      17.736      24.572      33.312      42.846      51.953      60.065      67.575    
  75.345      83.749      91.973      98.189      100.52      98.189      91.973      83.749      75.345      67.575    
  60.065      51.953      42.846      33.312      24.572      17.736      13.166      10.383      8.6771      7.7730    
  7.4940      7.7730      8.6771      10.383      13.166      17.736      24.572      33.312      42.846      51.953    
  60.065      67.575      75.345      83.749      91.973      98.189      98.189      95.941      89.949      82.006    
  73.859      66.275      58.892      50.897      41.944      32.609      24.089      17.447      13.012      10.300    
  8.6310      7.7463      7.4732      7.7463      8.6310      10.300      13.012      17.447      24.089      32.609    
  41.944      50.897      58.892      66.275      73.859      82.006      89.949      95.941      91.973      89.949    
  84.541      77.324      69.823      62.696      55.625      47.936      39.406      30.636      22.736      16.640    
  12.583      10.064      8.5013      7.6718      7.4154      7.6718      8.5013      10.064      12.583      16.640    
  22.736      30.636      39.406      47.936      55.625      62.696      69.823      77.324      84.541      89.949    
  83.749      82.006      77.324      70.989      64.239      57.611      50.882      43.586      35.670      27.742    
  20.765      15.471      11.957      9.7154      8.3113      7.5642      7.3327      7.5642      8.3113      9.7154    
  11.957      15.471      20.765      27.742      35.670      43.586      50.882      57.611      64.239      70.989    
  77.324      82.006      75.345      73.859      69.823      64.239      58.079      51.806      45.339      38.462    
  31.284      24.379      18.501      14.139      11.232      9.3053      8.0921      7.4434      7.2414      7.4434    
  8.0921      9.3053      11.232      14.139      18.501      24.379      31.284      38.462      45.339      51.806    
  58.079      64.239      69.823      73.859      67.575      66.275      62.696      57.611      51.806      45.731    
  39.486      33.085      26.752      20.969      16.247      12.820      10.488      8.8865      7.8747      7.3288    
  7.1576      7.3288      7.8747      8.8865      10.488      12.820      16.247      20.969      26.752      33.085    
  39.486      45.731      51.806      57.611      62.696      66.275      60.065      58.892      55.625      50.882    
  45.339      39.486      33.585      27.819      22.454      17.832      14.219      11.628      9.7854      8.5015    
  7.6838      7.2365      7.0948      7.2365      7.6838      8.5015      9.7854      11.628      14.219      17.832    
  22.454      27.819      33.585      39.486      45.339      50.882      55.625      58.892      51.953      50.897    
  47.936      43.586      38.462      33.085      27.819      22.929      18.645      15.156      12.520      10.594    
  9.1707      8.1771      7.5352      7.1773      7.0624      7.1773      7.5352      8.1771      9.1707      10.594    
  12.520      15.156      18.645      22.929      27.819      33.085      38.462      43.586      47.936      50.897    
  42.846      41.944      39.406      35.670      31.284      26.752      22.454      18.645      15.480      13.008    
  11.146      9.7216      8.6665      7.9247      7.4358      7.1570      7.0661      7.1570      7.4358      7.9247    
  8.6665      9.7216      11.146      13.008      15.480      18.645      22.454      26.752      31.284      35.670    
  39.406      41.944      33.312      32.609      30.636      27.742      24.379      20.969      17.832      15.156    
  13.008      11.341      10.029      9.0199      8.2746      7.7437      7.3859      7.1773      7.1085      7.1773    
  7.3859      7.7437      8.2746      9.0199      10.029      11.341      13.008      15.156      17.832      20.969    
  24.379      27.742      30.636      32.609      24.572      24.089      22.736      20.765      18.501      16.247    
  14.219      12.520      11.146      10.029      9.1479      8.4786      7.9835      7.6262      7.3813      7.2365    
  7.1884      7.2365      7.3813      7.6262      7.9835      8.4786      9.1479      10.029      11.146      12.520    
  14.219      16.247      18.501      20.765      22.736      24.089      17.736      17.447      16.640      15.471    
  14.139      12.820      11.628      10.594      9.7216      9.0199      8.4786      8.0731      7.7751      7.5610    
  7.4148      7.3288      7.3003      7.3288      7.4148      7.5610      7.7751      8.0731      8.4786      9.0199    
  9.7216      10.594      11.628      12.820      14.139      15.471      16.640      17.447      13.166      13.012    
  12.583      11.957      11.232      10.488      9.7854      9.1707      8.6665      8.2746      7.9835      7.7751    
  7.6310      7.5353      7.4756      7.4434      7.4332      7.4434      7.4756      7.5353      7.6310      7.7751    
  7.9835      8.2746      8.6665      9.1707      9.7854      10.488      11.232      11.957      12.583      13.012    
  10.383      10.300      10.064      9.7154      9.3053      8.8865      8.5015      8.1771      7.9247      7.7437    
  7.6262      7.5610      7.5353      7.5360      7.5498      7.5642      7.5702      7.5642      7.5498      7.5360    
  7.5353      7.5610      7.6262      7.7437      7.9247      8.1771      8.5015      8.8865      9.3053      9.7154    
  10.064      10.300      8.6771      8.6310      8.5013      8.3113      8.0921      7.8747      7.6838      7.5352    
  7.4358      7.3859      7.3813      7.4148      7.4756      7.5498      7.6208      7.6718      7.6904      7.6718    
  7.6208      7.5498      7.4756      7.4148      7.3813      7.3859      7.4358      7.5352      7.6838      7.8747    
  8.0921      8.3113      8.5013      8.6310      7.7730      7.7463      7.6718      7.5642      7.4434      7.3288    
  7.2365      7.1773      7.1570      7.1773      7.2365      7.3288      7.4434      7.5642      7.6718      7.7463    
  7.7730      7.7463      7.6718      7.5642      7.4434      7.3288      7.2365      7.1773      7.1570      7.1773    
  7.2365      7.3288      7.4434      7.5642      7.6718      7.7463      7.4940      7.4732      7.4154      7.3327    
  7.2414      7.1576      7.0948      7.0624      7.0661      7.1085      7.1884      7.3003      7.4332      7.5702    
  7.6904      7.7730      7.8024      7.7730      7.6904      7.5702      7.4332      7.3003      7.1884      7.1085    
  7.0661      7.0624      7.0948      7.1576      7.2414      7.3327      7.4154      7.4732      7.7730      7.7463    
  7.6718      7.5642      7.4434      7.3288      7.2365      7.1773      7.1570      7.1773      7.2365      7.3288    
  7.4434      7.5642      7.6718      7.7463      7.7730      7.7463      7.6718      7.5642      7.4434      7.3288    
  7.2365      7.1773      7.1570      7.1773      7.2365      7.3288      7.4434      7.5642      7.6718      7.7463    
  8.6771      8.6310      8.5013      8.3113      8.0921      7.8747      7.6838      7.5352      7.4358      7.3859    
  7.3813      7.4148      7.4756      7.5498      7.6208      7.6718      7.6904      7.6718      7.6208      7.5498    
  7.4756      7.4148      7.3813      7.3859      7.4358      7.5352      7.6838      7.8747      8.0921      8.3113    
  8.5013      8.6310      10.383      10.300      10.064      9.7154      9.3053      8.8865      8.5015      8.1771    
  7.9247      7.7437      7.6262      7.5610      7.5353      7.5360      7.5498      7.5642      7.5702      7.5642    
  7.5498      7.5360      7.5353      7.5610      7.6262      7.7437      7.9247      8.1771      8.5015      8.8865    
  9.3053      9.7154      10.064      10.300      13.166      13.012      12.583      11.957      11.232      10.488    
  9.7854      9.1707      8.6665      8.2746      7.9835      7.7751      7.6310      7.5353      7.4756      7.4434    
  7.4332      7.4434      7.4756      7.5353      7.6310      7.7751      7.9835      8.2746      8.6665      9.1707    
  9.7854      10.488      11.232      11.957      12.583      13.012      17.736      17.447      16.640      15.471    
  14.139      12.820      11.628      10.594      9.7216      9.0199      8.4786      8.0731      7.7751      7.5610    
  7.4148      7.3288      7.3003      7.3288      7.4148      7.5610      7.7751      8.0731      8.4786      9.0199    
  9.7216      10.594      11.628      12.820      14.139      15.471      16.640      17.447      24.572      24.089    
  22.736      20.765      18.501      16.247      14.219      12.520      11.146      10.029      9.1479      8.4786    
  7.9835      7.6262      7.3813      7.2365      7.1884      7.2365      7.3813      7.6262      7.9835      8.4786    
  9.1479      10.029      11.146      12.520      14.219      16.247      18.501      20.765      22.736      24.089    
  33.312      32.609      30.636      27.742      24.379      20.969      17.832      15.156      13.008      11.341    
  10.029      9.0199      8.2746      7.7437      7.3859      7.1773      7.1085      7.1773      7.3859      7.7437    
  8.2746      9.0199      10.029      11.341      13.008      15.156      17.832      20.969      24.379      27.742    
  30.636      32.609      42.846      41.944      39.406      35.670      31.284      26.752      22.454      18.645    
  15.480      13.008      11.146      9.7216      8.6665      7.9247      7.4358      7.1570      7.0661      7.1570    
  7.4358      7.9247      8.6665      9.7216      11.146      13.008      15.480      18.645      22.454      26.752    
  31.284      35.670      39.406      41.944      51.953      50.897      47.936      43.586      38.462      33.085    
  27.819      22.929      18.645      15.156      12.520      10.594      9.1707      8.1771      7.5352      7.1773    
  7.0624      7.1773      7.5352      8.1771      9.1707      10.594      12.520      15.156      18.645      22.929    
  27.819      33.085      38.462      43.586      47.936      50.897      60.065      58.892      55.625      50.882    
  45.339      39.486      33.585      27.819      22.454      17.832      14.219      11.628      9.7854      8.5015    
  7.6838      7.2365      7.0948      7.2365      7.6838      8.5015      9.7854      11.628      14.219      17.832    
  22.454      27.819      33.585      39.486      45.339      50.882      55.625      58.892      67.575      66.275    
  62.696      57.611      51.806      45.731      39.486      33.085      26.752      20.969      16.247      12.820    
  10.488      8.8865      7.8747      7.3288      7.1576      7.3288      7.8747      8.8865      10.488      12.820    
  16.247      20.969      26.752      33.085      39.486      45.731      51.806      57.611      62.696      66.275    
  75.345      73.859      69.823      64.239      58.079      51.806      45.339      38.462      31.284      24.379    
  18.501      14.139      11.232      9.3053      8.0921      7.4434      7.2414      7.4434      8.0921      9.3053    
  11.232      14.139      18.501      24.379      31.284      38.462      45.339      51.806      58.079      64.239    
  69.823      73.859      83.749      82.006      77.324      70.989      64.239      57.611      50.882      43.586    
  35.670      27.742      20.765      15.471      11.957      9.7154      8.3113      7.5642      7.3327      7.5642    
  8.3113      9.7154      11.957      15.471      20.765      27.742      35.670      43.586      50.882      57.611    
  64.239      70.989      77.324      82.006      91.973      89.949      84.541      77.324      69.823      62.696    
  55.625      47.936      39.406      30.636      22.736      16.640      12.583      10.064      8.5013      7.6718    
  7.4154      7.6718      8.5013      10.064      12.583      16.640      22.736      30.636      39.406      47.936    
  55.625      62.696      69.823      77.324      84.541      89.949      98.189      95.941      89.949      82.006    
  73.859      66.275      58.892      50.897      41.944      32.609      24.089      17.447      13.012      10.300    
  8.6310      7.7463      7.4732      7.7463      8.6310      10.300      13.012      17.447      24.089      32.609    
  41.944      50.897      58.892      66.275      73.859      82.006      89.949      95.941      94.073      91.973    
  86.369      78.907      71.184      63.895      56.709      48.908      40.231      31.272      23.167      16.894    
  12.715      10.135      8.5376      7.6904      7.4286      7.6904      8.5376      10.135      12.715      16.894    
  23.167      31.272      40.231      48.908      56.709      63.895      71.184      78.907      86.369      91.973    
  91.973      89.949      84.541      77.324      69.823      62.696      55.625      47.936      39.406      30.636    
  22.736      16.640      12.583      10.064      8.5013      7.6718      7.4154      7.6718      8.5013      10.064    
  12.583      16.640      22.736      30.636      39.406      47.936      55.625      62.696      69.823      77.324    
  84.541      89.949      86.369      84.541      79.641      73.056      66.115      59.387      52.599      45.204    
  37.084      28.850      21.528      15.931      12.212      9.8656      8.3998      7.6208      7.3796      7.6208    
  8.3998      9.8656      12.212      15.931      21.528      28.850      37.084      45.204      52.599      59.387    
  66.115      73.056      79.641      84.541      78.907      77.324      73.056      67.233      60.942      54.654    
  48.188      41.184      33.665      26.233      19.770      14.906      11.672      9.5732      8.2535      7.5498    
  7.3313      7.5498      8.2535      9.5732      11.672      14.906      19.770      26.233      33.665      41.184    
  48.188      54.654      60.942      67.233      73.056      77.324      71.184      69.823      66.115      60.942    
  55.167      49.204      43.009      36.439      29.649      23.193      17.754      13.740      11.046      9.2332    
  8.0893      7.4756      7.2841      7.4756      8.0893      9.2332      11.046      13.740      17.754      23.193    
  29.649      36.439      43.009      49.204      55.167      60.942      66.115      69.823      63.895      62.696    
  59.387      54.654      49.204      43.451      37.515      31.450      25.498      20.113      15.749      12.585    
  10.403      8.8916      7.9338      7.4148      7.2515      7.4148      7.9338      8.8916      10.403      12.585    
  15.749      20.113      25.498      31.450      37.515      43.451      49.204      54.654      59.387      62.696    
  56.709      55.625      52.599      48.188      43.009      37.515      31.968      26.563      21.562      17.280    
  13.944      11.538      9.8000      8.5855      7.8086      7.3813      7.2455      7.3813      7.8086      8.5855    
  9.8000      11.538      13.944      17.280      21.562      26.563      31.968      37.515      43.009      48.188    
  52.599      55.625      48.908      47.936      45.204      41.184      36.439      31.450      26.563      22.033    
  18.077      14.862      12.427      10.622      9.2793      8.3390      7.7283      7.3859      7.2756      7.3859    
  7.7283      8.3390      9.2793      10.622      12.427      14.862      18.077      22.033      26.563      31.450    
  36.439      41.184      45.204      47.936      40.231      39.406      37.084      33.665      29.649      25.498    
  21.562      18.077      15.182      12.914      11.187      9.8520      8.8618      8.1632      7.7007      7.4358    
  7.3493      7.4358      7.7007      8.1632      8.8618      9.8520      11.187      12.914      15.182      18.077    
  21.562      25.498      29.649      33.665      37.084      39.406      31.272      30.636      28.850      26.233    
  23.193      20.113      17.280      14.862      12.914      11.387      10.173      9.2394      8.5503      8.0593    
  7.7283      7.5352      7.4715      7.5352      7.7283      8.0593      8.5503      9.2394      10.173      11.387    
  12.914      14.862      17.280      20.113      23.193      26.233      28.850      30.636      23.167      22.736    
  21.528      19.770      17.754      15.749      13.944      12.427      11.187      10.173      9.3764      8.7756    
  8.3355      8.0214      7.8086      7.6838      7.6425      7.6838      7.8086      8.0214      8.3355      8.7756    
  9.3764      10.173      11.187      12.427      13.944      15.749      17.754      19.770      21.528      22.736    
  16.894      16.640      15.931      14.906      13.740      12.585      11.538      10.622      9.8520      9.2394    
  8.7756      8.4383      8.2008      8.0387      7.9338      7.8747      7.8556      7.8747      7.9338      8.0387    
  8.2008      8.4383      8.7756      9.2394      9.8520      10.622      11.538      12.585      13.740      14.906    
  15.931      16.640      12.715      12.583      12.212      11.672      11.046      10.403      9.8000      9.2793    
  8.8618      8.5503      8.3355      8.2008      8.1273      8.0960      8.0893      8.0921      8.0942      8.0921    