unknown system                          
   3.00000000000000     
     1.000000    0.000000    0.000000
     0.000000    1.000000    0.000000
     0.000000    0.000000    1.000000
   Pt
     2
Direct
  0.000000  0.000000  0.000000
  0.500000  0.500000  0.500000
 
   32   32   32
 0.10294814762E+03 0.10052390650E+03 0.94073080474E+02 0.85552105458E+02 0.76879288454E+02
 0.68913206072E+02 0.61270350442E+02 0.53037825423E+02 0.43775926000E+02 0.34037627906E+02
 0.25073351726E+02 0.18037606489E+02 0.13327091472E+02 0.10470449907E+02 0.87265409688E+01
 0.78024290976E+01 0.75173633929E+01 0.78024290976E+01 0.87265409688E+01 0.10470449907E+02
 0.13327091472E+02 0.18037606489E+02 0.25073351726E+02 0.34037627906E+02 0.43775926000E+02
 0.53037825423E+02 0.61270350442E+02 0.68913206072E+02 0.76879288454E+02 0.85552105458E+02
 0.94073080474E+02 0.10052390650E+03 0.10052390650E+03 0.98189382037E+02 0.91973430641E+02
 0.83748587223E+02 0.75345191105E+02 0.67574737233E+02 0.60064854520E+02 0.51952592344E+02
 0.42846263566E+02 0.33311691499E+02 0.24572017365E+02 0.17736169139E+02 0.13166037692E+02
 0.10382810773E+02 0.86770604427E+01 0.77729749359E+01 0.74939882361E+01 0.77729749359E+01
 0.86770604427E+01 0.10382810773E+02 0.13166037692E+02 0.17736169139E+02 0.24572017365E+02
 0.33311691499E+02 0.42846263566E+02 0.51952592344E+02 0.60064854520E+02 0.67574737233E+02
 0.75345191105E+02 0.83748587223E+02 0.91973430641E+02 0.98189382037E+02 0.94073080474E+02
 0.91973430641E+02 0.86369240105E+02 0.78907058326E+02 0.71184214353E+02 0.63894875751E+02
 0.56709137911E+02 0.48908187679E+02 0.40231244836E+02 0.31271555046E+02 0.23167093205E+02
 0.16893839659E+02 0.12715185760E+02 0.10134703752E+02 0.85376141636E+01 0.76903815090E+01
 0.74286250658E+01 0.76903815090E+01 0.85376141636E+01 0.10134703752E+02 0.12715185760E+02
 0.16893839659E+02 0.23167093205E+02 0.31271555046E+02 0.40231244836E+02 0.48908187679E+02
 0.56709137911E+02 0.63894875751E+02 0.71184214353E+02 0.78907058326E+02 0.86369240105E+02
 0.91973430641E+02 0.85552105458E+02 0.83748587223E+02 0.78907058326E+02 0.72371973665E+02
 0.65440476315E+02 0.58676962146E+02 0.51843381034E+02 0.44439709629E+02 0.36382671241E+02
 0.28279712594E+02 0.21120329556E+02 0.15673550385E+02 0.12058303399E+02 0.97662519285E+01
 0.83324734150E+01 0.75701861542E+01 0.73340953424E+01 0.75701861542E+01 0.83324734150E+01
 0.97662519285E+01 0.12058303399E+02 0.15673550385E+02 0.21120329556E+02 0.28279712594E+02
 0.36382671241E+02 0.44439709629E+02 0.51843381034E+02 0.58676962146E+02 0.65440476315E+02
 0.72371973665E+02 0.78907058326E+02 0.83748587223E+02 0.76879288454E+02 0.75345191105E+02
 0.71184214353E+02 0.65440476315E+02 0.59131633800E+02 0.52737804279E+02 0.46168677811E+02
 0.39180827142E+02 0.31865532978E+02 0.24801153662E+02 0.18768458609E+02 0.14281862075E+02
 0.11297895186E+02 0.93317681796E+01 0.80942381552E+01 0.74332074401E+01 0.72275839027E+01
 0.74332074401E+01 0.80942381552E+01 0.93317681796E+01 0.11297895186E+02 0.14281862075E+02
 0.18768458609E+02 0.24801153662E+02 0.31865532978E+02 0.39180827142E+02 0.46168677811E+02
 0.52737804279E+02 0.59131633800E+02 0.65440476315E+02 0.71184214353E+02 0.75345191105E+02
 0.68913206072E+02 0.67574737233E+02 0.63894875751E+02 0.58676962146E+02 0.52737804279E+02
 0.46543356762E+02 0.40185790767E+02 0.33665386713E+02 0.27198119830E+02 0.21274373106E+02
 0.16426257430E+02 0.12904603149E+02 0.10519017691E+02 0.88862392765E+01 0.78555543609E+01
 0.73003061666E+01 0.71263738695E+01 0.73003061666E+01 0.78555543609E+01 0.88862392765E+01
 0.10519017691E+02 0.12904603149E+02 0.16426257430E+02 0.21274373106E+02 0.27198119830E+02
 0.33665386713E+02 0.40185790767E+02 0.46543356762E+02 0.52737804279E+02 0.58676962146E+02
 0.63894875751E+02 0.67574737233E+02 0.61270350442E+02 0.60064854520E+02 0.56709137911E+02
 0.51843381034E+02 0.46168677811E+02 0.40185790767E+02 0.34157632065E+02 0.28265028199E+02
 0.22771436646E+02 0.18029230099E+02 0.14318709717E+02 0.11660934266E+02 0.97820771705E+01
 0.84741674396E+01 0.76425142765E+01 0.71883636057E+01 0.70446427982E+01 0.71883636057E+01
 0.76425142765E+01 0.84741674396E+01 0.97820771705E+01 0.11660934266E+02 0.14318709717E+02
 0.18029230099E+02 0.22771436646E+02 0.28265028199E+02 0.34157632065E+02 0.40185790767E+02
 0.46168677811E+02 0.51843381034E+02 0.56709137911E+02 0.60064854520E+02 0.53037825423E+02
 0.51952592344E+02 0.48908187679E+02 0.44439709629E+02 0.39180827142E+02 0.33665386713E+02
 0.28265028199E+02 0.23247562419E+02 0.18848446191E+02 0.15262125527E+02 0.12555171222E+02
 0.10586668042E+02 0.91354037445E+01 0.81237228610E+01 0.74714743677E+01 0.71084770916E+01
 0.69920781810E+01 0.71084770916E+01 0.74714743677E+01 0.81237228610E+01 0.91354037445E+01
 0.10586668042E+02 0.12555171222E+02 0.15262125527E+02 0.18848446191E+02 0.23247562419E+02
 0.28265028199E+02 0.33665386713E+02 0.39180827142E+02 0.44439709629E+02 0.48908187679E+02
 0.51952592344E+02 0.43775926000E+02 0.42846263566E+02 0.40231244836E+02 0.36382671241E+02
 0.31865532978E+02 0.27198119830E+02 0.22771436646E+02 0.18848446191E+02 0.15587975187E+02
 0.13043204393E+02 0.11134231216E+02 0.96792573615E+01 0.86024658836E+01 0.78465428904E+01
 0.73492740448E+01 0.70661429494E+01 0.69740043316E+01 0.70661429494E+01 0.73492740448E+01
 0.78465428904E+01 0.86024658836E+01 0.96792573615E+01 0.11134231216E+02 0.13043204393E+02
 0.15587975187E+02 0.18848446191E+02 0.22771436646E+02 0.27198119830E+02 0.31865532978E+02
 0.36382671241E+02 0.40231244836E+02 0.42846263566E+02 0.34037627906E+02 0.33311691499E+02
 0.31271555046E+02 0.28279712594E+02 0.24801153662E+02 0.21274373106E+02 0.18029230099E+02
 0.15262125527E+02 0.13043204393E+02 0.11327085481E+02 0.99826844020E+01 0.89481926915E+01
 0.81848994533E+01 0.76414844646E+01 0.72755541494E+01 0.70624000401E+01 0.69920781810E+01
 0.70624000401E+01 0.72755541494E+01 0.76414844646E+01 0.81848994533E+01 0.89481926915E+01
 0.99826844020E+01 0.11327085481E+02 0.13043204393E+02 0.15262125527E+02 0.18029230099E+02
 0.21274373106E+02 0.24801153662E+02 0.28279712594E+02 0.31271555046E+02 0.33311691499E+02
 0.25073351726E+02 0.24572017365E+02 0.23167093205E+02 0.21120329556E+02 0.18768458609E+02
 0.16426257430E+02 0.14318709717E+02 0.12555171222E+02 0.11134231216E+02 0.99826844020E+01
 0.90734304093E+01 0.83822101430E+01 0.78701593542E+01 0.74998426102E+01 0.72454736936E+01
 0.70948071369E+01 0.70446427982E+01 0.70948071369E+01 0.72454736936E+01 0.74998426102E+01
 0.78701593542E+01 0.83822101430E+01 0.90734304093E+01 0.99826844020E+01 0.11134231216E+02
 0.12555171222E+02 0.14318709717E+02 0.16426257430E+02 0.18768458609E+02 0.21120329556E+02
 0.23167093205E+02 0.24572017365E+02 0.18037606489E+02 0.17736169139E+02 0.16893839659E+02
 0.15673550385E+02 0.14281862075E+02 0.12904603149E+02 0.11660934266E+02 0.10586668042E+02
 0.96792573615E+01 0.89481926915E+01 0.83822101430E+01 0.79556484666E+01 0.76395294050E+01
 0.74098725560E+01 0.72515287056E+01 0.71576300927E+01 0.71263738695E+01 0.71576300927E+01
 0.72515287056E+01 0.74098725560E+01 0.76395294050E+01 0.79556484666E+01 0.83822101430E+01
 0.89481926915E+01 0.96792573615E+01 0.10586668042E+02 0.11660934266E+02 0.12904603149E+02
 0.14281862075E+02 0.15673550385E+02 0.16893839659E+02 0.17736169139E+02 0.13327091472E+02
 0.13166037692E+02 0.12715185760E+02 0.12058303399E+02 0.11297895186E+02 0.10519017691E+02
 0.97820771705E+01 0.91354037445E+01 0.86024658836E+01 0.81848994533E+01 0.78701593542E+01
 0.76395294050E+01 0.74743470774E+01 0.73594516280E+01 0.72840944505E+01 0.72414059503E+01
 0.72275839027E+01 0.72414059503E+01 0.72840944505E+01 0.73594516280E+01 0.74743470774E+01
 0.76395294050E+01 0.78701593542E+01 0.81848994533E+01 0.86024658836E+01 0.91354037445E+01
 0.97820771705E+01 0.10519017691E+02 0.11297895186E+02 0.12058303399E+02 0.12715185760E+02
 0.13166037692E+02 0.10470449907E+02 0.10382810773E+02 0.10134703752E+02 0.97662519285E+01
 0.93317681796E+01 0.88862392765E+01 0.84741674396E+01 0.81237228610E+01 0.78465428904E+01
 0.76414844646E+01 0.74998426102E+01 0.74098725560E+01 0.73594516280E+01 0.73369451741E+01
 0.73313213242E+01 0.73327434148E+01 0.73340953424E+01 0.73327434148E+01 0.73313213242E+01
 0.73369451741E+01 0.73594516280E+01 0.74098725560E+01 0.74998426102E+01 0.76414844646E+01
 0.78465428904E+01 0.81237228610E+01 0.84741674396E+01 0.88862392765E+01 0.93317681796E+01
 0.97662519285E+01 0.10134703752E+02 0.10382810773E+02 0.87265409688E+01 0.86770604427E+01
 0.85376141636E+01 0.83324734150E+01 0.80942381552E+01 0.78555543609E+01 0.76425142765E+01
 0.74714743677E+01 0.73492740448E+01 0.72755541494E+01 0.72454736936E+01 0.72515287056E+01
 0.72840944505E+01 0.73313213242E+01 0.73795876967E+01 0.74154127325E+01 0.74286250658E+01
 0.74154127325E+01 0.73795876967E+01 0.73313213242E+01 0.72840944505E+01 0.72515287056E+01
 0.72454736936E+01 0.72755541494E+01 0.73492740448E+01 0.74714743677E+01 0.76425142765E+01
 0.78555543609E+01 0.80942381552E+01 0.83324734150E+01 0.85376141636E+01 0.86770604427E+01
 0.78024290976E+01 0.77729749359E+01 0.76903815090E+01 0.75701861542E+01 0.74332074401E+01
 0.73003061666E+01 0.71883636057E+01 0.71084770916E+01 0.70661429494E+01 0.70624000401E+01
 0.70948071369E+01 0.71576300927E+01 0.72414059503E+01 0.73327434148E+01 0.74154127325E+01
 0.74732120947E+01 0.74939882361E+01 0.74732120947E+01 0.74154127325E+01 0.73327434148E+01
 0.72414059503E+01 0.71576300927E+01 0.70948071369E+01 0.70624000401E+01 0.70661429494E+01
 0.71084770916E+01 0.71883636057E+01 0.73003061666E+01 0.74332074401E+01 0.75701861542E+01
 0.76903815090E+01 0.77729749359E+01 0.75173633929E+01 0.74939882361E+01 0.74286250658E+01
 0.73340953424E+01 0.72275839027E+01 0.71263738695E+01 0.70446427982E+01 0.69920781810E+01
 0.69740043316E+01 0.69920781810E+01 0.70446427982E+01 0.71263738695E+01 0.72275839027E+01
 0.73340953424E+01 0.74286250658E+01 0.74939882361E+01 0.75173633929E+01 0.74939882361E+01
 0.74286250658E+01 0.73340953424E+01 0.72275839027E+01 0.71263738695E+01 0.70446427982E+01
 0.69920781810E+01 0.69740043316E+01 0.69920781810E+01 0.70446427982E+01 0.71263738695E+01
 0.72275839027E+01 0.73340953424E+01 0.74286250658E+01 0.74939882361E+01 0.78024290976E+01
 0.77729749359E+01 0.76903815090E+01 0.75701861542E+01 0.74332074401E+01 0.73003061666E+01
 0.71883636057E+01 0.71084770916E+01 0.70661429494E+01 0.70624000401E+01 0.70948071369E+01
 0.71576300927E+01 0.72414059503E+01 0.73327434148E+01 0.74154127325E+01 0.74732120947E+01
 0.74939882361E+01 0.74732120947E+01 0.74154127325E+01 0.73327434148E+01 0.72414059503E+01
 0.71576300927E+01 0.70948071369E+01 0.70624000401E+01 0.70661429494E+01 0.71084770916E+01
 0.71883636057E+01 0.73003061666E+01 0.74332074401E+01 0.75701861542E+01 0.76903815090E+01
 0.77729749359E+01 0.87265409688E+01 0.86770604427E+01 0.85376141636E+01 0.83324734150E+01
 0.80942381552E+01 0.78555543609E+01 0.76425142765E+01 0.74714743677E+01 0.73492740448E+01
 0.72755541494E+01 0.72454736936E+01 0.72515287056E+01 0.72840944505E+01 0.73313213242E+01
 0.73795876967E+01 0.74154127325E+01 0.74286250658E+01 0.74154127325E+01 0.73795876967E+01
 0.73313213242E+01 0.72840944505E+01 0.72515287056E+01 0.72454736936E+01 0.72755541494E+01
 0.73492740448E+01 0.74714743677E+01 0.76425142765E+01 0.78555543609E+01 0.80942381552E+01
 0.83324734150E+01 0.85376141636E+01 0.86770604427E+01 0.10470449907E+02 0.10382810773E+02
 0.10134703752E+02 0.97662519285E+01 0.93317681796E+01 0.88862392765E+01 0.84741674396E+01
 0.81237228610E+01 0.78465428904E+01 0.76414844646E+01 0.74998426102E+01 0.74098725560E+01
 0.73594516280E+01 0.73369451741E+01 0.73313213242E+01 0.73327434148E+01 0.73340953424E+01
 0.73327434148E+01 0.73313213242E+01 0.73369451741E+01 0.73594516280E+01 0.74098725560E+01
 0.74998426102E+01 0.76414844646E+01 0.78465428904E+01 0.81237228610E+01 0.84741674396E+01
 0.88862392765E+01 0.93317681796E+01 0.97662519285E+01 0.10134703752E+02 0.10382810773E+02
 0.13327091472E+02 0.13166037692E+02 0.12715185760E+02 0.12058303399E+02 0.11297895186E+02
 0.10519017691E+02 0.97820771705E+01 0.91354037445E+01 0.86024658836E+01 0.81848994533E+01
 0.78701593542E+01 0.76395294050E+01 0.74743470774E+01 0.73594516280E+01 0.72840944505E+01
 0.72414059503E+01 0.72275839027E+01 0.72414059503E+01 0.72840944505E+01 0.73594516280E+01
 0.74743470774E+01 0.76395294050E+01 0.78701593542E+01 0.81848994533E+01 0.86024658836E+01
 0.91354037445E+01 0.97820771705E+01 0.10519017691E+02 0.11297895186E+02 0.12058303399E+02
 0.12715185760E+02 0.13166037692E+02 0.18037606489E+02 0.17736169139E+02 0.16893839659E+02
 0.15673550385E+02 0.14281862075E+02 0.12904603149E+02 0.11660934266E+02 0.10586668042E+02
 0.96792573615E+01 0.89481926915E+01 0.83822101430E+01 0.79556484666E+01 0.76395294050E+01
 0.74098725560E+01 0.72515287056E+01 0.71576300927E+01 0.71263738695E+01 0.71576300927E+01
 0.72515287056E+01 0.74098725560E+01 0.76395294050E+01 0.79556484666E+01 0.83822101430E+01
 0.89481926915E+01 0.96792573615E+01 0.10586668042E+02 0.11660934266E+02 0.12904603149E+02
 0.14281862075E+02 0.15673550385E+02 0.16893839659E+02 0.17736169139E+02 0.25073351726E+02
 0.24572017365E+02 0.23167093205E+02 0.21120329556E+02 0.18768458609E+02 0.16426257430E+02
 0.14318709717E+02 0.12555171222E+02 0.11134231216E+02 0.99826844020E+01 0.90734304093E+01
 0.83822101430E+01 0.78701593542E+01 0.74998426102E+01 0.72454736936E+01 0.70948071369E+01
 0.70446427982E+01 0.70948071369E+01 0.72454736936E+01 0.74998426102E+01 0.78701593542E+01
 0.83822101430E+01 0.90734304093E+01 0.99826844020E+01 0.11134231216E+02 0.12555171222E+02
 0.14318709717E+02 0.16426257430E+02 0.18768458609E+02 0.21120329556E+02 0.23167093205E+02
 0.24572017365E+02 0.34037627906E+02 0.33311691499E+02 0.31271555046E+02 0.28279712594E+02
 0.24801153662E+02 0.21274373106E+02 0.18029230099E+02 0.15262125527E+02 0.13043204393E+02
 0.11327085481E+02 0.99826844020E+01 0.89481926915E+01 0.81848994533E+01 0.76414844646E+01
 0.72755541494E+01 0.70624000401E+01 0.69920781810E+01 0.70624000401E+01 0.72755541494E+01
 0.76414844646E+01 0.81848994533E+01 0.89481926915E+01 0.99826844020E+01 0.11327085481E+02
 0.13043204393E+02 0.15262125527E+02 0.18029230099E+02 0.21274373106E+02 0.24801153662E+02
 0.28279712594E+02 0.31271555046E+02 0.33311691499E+02 0.43775926000E+02 0.42846263566E+02
 0.40231244836E+02 0.36382671241E+02 0.31865532978E+02 0.27198119830E+02 0.22771436646E+02
 0.18848446191E+02 0.15587975187E+02 0.13043204393E+02 0.11134231216E+02 0.96792573615E+01
 0.86024658836E+01 0.78465428904E+01 0.73492740448E+01 0.70661429494E+01 0.69740043316E+01
 0.70661429494E+01 0.73492740448E+01 0.78465428904E+01 0.86024658836E+01 0.96792573615E+01
 0.11134231216E+02 0.13043204393E+02 0.15587975187E+02 0.18848446191E+02 0.22771436646E+02
 0.27198119830E+02 0.31865532978E+02 0.36382671241E+02 0.40231244836E+02 0.42846263566E+02
 0.53037825423E+02 0.51952592344E+02 0.48908187679E+02 0.44439709629E+02 0.39180827142E+02
 0.33665386713E+02 0.28265028199E+02 0.23247562419E+02 0.18848446191E+02 0.15262125527E+02
 0.12555171222E+02 0.10586668042E+02 0.91354037445E+01 0.81237228610E+01 0.74714743677E+01
 0.71084770916E+01 0.69920781810E+01 0.71084770916E+01 0.74714743677E+01 0.81237228610E+01
 0.91354037445E+01 0.10586668042E+02 0.12555171222E+02 0.15262125527E+02 0.18848446191E+02
 0.23247562419E+02 0.28265028199E+02 0.33665386713E+02 0.39180827142E+02 0.44439709629E+02
 0.48908187679E+02 0.51952592344E+02 0.61270350442E+02 0.60064854520E+02 0.56709137911E+02
 0.51843381034E+02 0.46168677811E+02 0.40185790767E+02 0.34157632065E+02 0.28265028199E+02
 0.22771436646E+02 0.18029230099E+02 0.14318709717E+02 0.11660934266E+02 0.97820771705E+01
 0.84741674396E+01 0.76425142765E+01 0.71883636057E+01 0.70446427982E+01 0.71883636057E+01
 0.76425142765E+01 0.84741674396E+01 0.97820771705E+01 0.11660934266E+02 0.14318709717E+02
 0.18029230099E+02 0.22771436646E+02 0.28265028199E+02 0.34157632065E+02 0.40185790767E+02
 0.46168677811E+02 0.51843381034E+02 0.56709137911E+02 0.60064854520E+02 0.68913206072E+02
 0.67574737233E+02 0.63894875751E+02 0.58676962146E+02 0.52737804279E+02 0.46543356762E+02
 0.40185790767E+02 0.33665386713E+02 0.27198119830E+02 0.21274373106E+02 0.16426257430E+02
 0.12904603149E+02 0.10519017691E+02 0.88862392765E+01 0.78555543609E+01 0.73003061666E+01
 0.71263738695E+01 0.73003061666E+01 0.78555543609E+01 0.88862392765E+01 0.10519017691E+02
 0.12904603149E+02 0.16426257430E+02 0.21274373106E+02 0.27198119830E+02 0.33665386713E+02
 0.40185790767E+02 0.46543356762E+02 0.52737804279E+02 0.58676962146E+02 0.63894875751E+02
 0.67574737233E+02 0.76879288454E+02 0.75345191105E+02 0.71184214353E+02 0.65440476315E+02
 0.59131633800E+02 0.52737804279E+02 0.46168677811E+02 0.39180827142E+02 0.31865532978E+02
 0.24801153662E+02 0.18768458609E+02 0.14281862075E+02 0.11297895186E+02 0.93317681796E+01
 0.80942381552E+01 0.74332074401E+01 0.72275839027E+01 0.74332074401E+01 0.80942381552E+01
 0.93317681796E+01 0.11297895186E+02 0.14281862075E+02 0.18768458609E+02 0.24801153662E+02
 0.31865532978E+02 0.39180827142E+02 0.46168677811E+02 0.52737804279E+02 0.59131633800E+02
 0.65440476315E+02 0.71184214353E+02 0.75345191105E+02 0.85552105458E+02 0.83748587223E+02
 0.78907058326E+02 0.72371973665E+02 0.65440476315E+02 0.58676962146E+02 0.51843381034E+02
 0.44439709629E+02 0.36382671241E+02 0.28279712594E+02 0.21120329556E+02 0.15673550385E+02
 0.12058303399E+02 0.97662519285E+01 0.83324734150E+01 0.75701861542E+01 0.73340953424E+01
 0.75701861542E+01 0.83324734150E+01 0.97662519285E+01 0.12058303399E+02 0.15673550385E+02
 0.21120329556E+02 0.28279712594E+02 0.36382671241E+02 0.44439709629E+02 0.51843381034E+02
 0.58676962146E+02 0.65440476315E+02 0.72371973665E+02 0.78907058326E+02 0.83748587223E+02
 0.94073080474E+02 0.91973430641E+02 0.86369240105E+02 0.78907058326E+02 0.71184214353E+02
 0.63894875751E+02 0.56709137911E+02 0.48908187679E+02 0.40231244836E+02 0.31271555046E+02
 0.23167093205E+02 0.16893839659E+02 0.12715185760E+02 0.10134703752E+02 0.85376141636E+01
 0.76903815090E+01 0.74286250658E+01 0.76903815090E+01 0.85376141636E+01 0.10134703752E+02
 0.12715185760E+02 0.16893839659E+02 0.23167093205E+02 0.31271555046E+02 0.40231244836E+02
 0.48908187679E+02 0.56709137911E+02 0.63894875751E+02 0.71184214353E+02 0.78907058326E+02
 0.86369240105E+02 0.91973430641E+02 0.10052390650E+03 0.98189382037E+02 0.91973430641E+02
 0.83748587223E+02 0.75345191105E+02 0.67574737233E+02 0.60064854520E+02 0.51952592344E+02
 0.42846263566E+02 0.33311691499E+02 0.24572017365E+02 0.17736169139E+02 0.13166037692E+02
 0.10382810773E+02 0.86770604427E+01 0.77729749359E+01 0.74939882361E+01 0.77729749359E+01
 0.86770604427E+01 0.10382810773E+02 0.13166037692E+02 0.17736169139E+02 0.24572017365E+02
 0.33311691499E+02 0.42846263566E+02 0.51952592344E+02 0.60064854520E+02 0.67574737233E+02
 0.75345191105E+02 0.83748587223E+02 0.91973430641E+02 0.98189382037E+02 0.10052390650E+03
 0.98189382037E+02 0.91973430641E+02 0.83748587223E+02 0.75345191105E+02 0.67574737233E+02
 0.60064854520E+02 0.51952592344E+02 0.42846263566E+02 0.33311691499E+02 0.24572017365E+02
 0.17736169139E+02 0.13166037692E+02 0.10382810773E+02 0.86770604427E+01 0.77729749359E+01
 0.74939882361E+01 0.77729749359E+01 0.86770604427E+01 0.10382810773E+02 0.13166037692E+02
 0.17736169139E+02 0.24572017365E+02 0.33311691499E+02 0.42846263566E+02 0.51952592344E+02
 0.60064854520E+02 0.67574737233E+02 0.75345191105E+02 0.83748587223E+02 0.91973430641E+02
 0.98189382037E+02 0.98189382037E+02 0.95940583257E+02 0.89948858831E+02 0.82006226602E+02
 0.73859024807E+02 0.66274506765E+02 0.58892070723E+02 0.50897252173E+02 0.41944043453E+02
 0.32609404818E+02 0.24088986502E+02 0.17447190023E+02 0.13012469192E+02 0.10299588647E+02
 0.86309509595E+01 0.77463042391E+01 0.74732120947E+01 0.77463042391E+01 0.86309509595E+01
 0.10299588647E+02 0.13012469192E+02 0.17447190023E+02 0.24088986502E+02 0.32609404818E+02
 0.41944043453E+02 0.50897252173E+02 0.58892070723E+02 0.66274506765E+02 0.73859024807E+02
 0.82006226602E+02 0.89948858831E+02 0.95940583257E+02 0.91973430641E+02 0.89948858831E+02
 0.84540623438E+02 0.77324115737E+02 0.69823477722E+02 0.62696113175E+02 0.55625113931E+02
 0.47935661758E+02 0.39405993174E+02 0.30635910454E+02 0.22735646323E+02 0.16639915220E+02
 0.12582668443E+02 0.10064229861E+02 0.85012660918E+01 0.76717992936E+01 0.74154127325E+01
 0.76717992936E+01 0.85012660918E+01 0.10064229861E+02 0.12582668443E+02 0.16639915220E+02
 0.22735646323E+02 0.30635910454E+02 0.39405993174E+02 0.47935661758E+02 0.55625113931E+02
 0.62696113175E+02 0.69823477722E+02 0.77324115737E+02 0.84540623438E+02 0.89948858831E+02
 0.83748587223E+02 0.82006226602E+02 0.77324115737E+02 0.70988713426E+02 0.64238753259E+02
 0.57611308985E+02 0.50881560754E+02 0.43585868134E+02 0.35670101659E+02 0.27742262393E+02
 0.20764778926E+02 0.15470994997E+02 0.11956591754E+02 0.97154172117E+01 0.83112701195E+01
 0.75642471783E+01 0.73327434148E+01 0.75642471783E+01 0.83112701195E+01 0.97154172117E+01
 0.11956591754E+02 0.15470994997E+02 0.20764778926E+02 0.27742262393E+02 0.35670101659E+02
 0.43585868134E+02 0.50881560754E+02 0.57611308985E+02 0.64238753259E+02 0.70988713426E+02
 0.77324115737E+02 0.82006226602E+02 0.75345191105E+02 0.73859024807E+02 0.69823477722E+02
 0.64238753259E+02 0.58079168109E+02 0.51805793343E+02 0.45339316878E+02 0.38462462881E+02
 0.31284401618E+02 0.24378533574E+02 0.18501103181E+02 0.14138516851E+02 0.11231601494E+02
 0.93053233740E+01 0.80920735109E+01 0.74433604754E+01 0.72414059503E+01 0.74433604754E+01
 0.80920735109E+01 0.93053233740E+01 0.11231601494E+02 0.14138516851E+02 0.18501103181E+02
 0.24378533574E+02 0.31284401618E+02 0.38462462881E+02 0.45339316878E+02 0.51805793343E+02
 0.58079168109E+02 0.64238753259E+02 0.69823477722E+02 0.73859024807E+02 0.67574737233E+02
 0.66274506765E+02 0.62696113175E+02 0.57611308985E+02 0.51805793343E+02 0.45731396113E+02
 0.39486249498E+02 0.33085377643E+02 0.26752211323E+02 0.20968794033E+02 0.16247430297E+02
 0.12819858827E+02 0.10488017247E+02 0.88865373615E+01 0.78746816687E+01 0.73288034282E+01
 0.71576300927E+01 0.73288034282E+01 0.78746816687E+01 0.88865373615E+01 0.10488017247E+02
 0.12819858827E+02 0.16247430297E+02 0.20968794033E+02 0.26752211323E+02 0.33085377643E+02
 0.39486249498E+02 0.45731396113E+02 0.51805793343E+02 0.57611308985E+02 0.62696113175E+02
 0.66274506765E+02 0.60064854520E+02 0.58892070723E+02 0.55625113931E+02 0.50881560754E+02
 0.45339316878E+02 0.39486249498E+02 0.33584561898E+02 0.27819369642E+02 0.22453876061E+02
 0.17831590899E+02 0.14219267470E+02 0.11627627746E+02 0.97854323622E+01 0.85014810350E+01
 0.76838361505E+01 0.72365325289E+01 0.70948071369E+01 0.72365325289E+01 0.76838361505E+01
 0.85014810350E+01 0.97854323622E+01 0.11627627746E+02 0.14219267470E+02 0.17831590899E+02
 0.22453876061E+02 0.27819369642E+02 0.33584561898E+02 0.39486249498E+02 0.45339316878E+02
 0.50881560754E+02 0.55625113931E+02 0.58892070723E+02 0.51952592344E+02 0.50897252173E+02
 0.47935661758E+02 0.43585868134E+02 0.38462462881E+02 0.33085377643E+02 0.27819369642E+02
 0.22928976810E+02 0.18645328642E+02 0.15155895377E+02 0.12520136414E+02 0.10594432091E+02
 0.91707052880E+01 0.81770613345E+01 0.75352166293E+01 0.71773088836E+01 0.70624000401E+01
 0.71773088836E+01 0.75352166293E+01 0.81770613345E+01 0.91707052880E+01 0.10594432091E+02
 0.12520136414E+02 0.15155895377E+02 0.18645328642E+02 0.22928976810E+02 0.27819369642E+02
 0.33085377643E+02 0.38462462881E+02 0.43585868134E+02 0.47935661758E+02 0.50897252173E+02
 0.42846263566E+02 0.41944043453E+02 0.39405993174E+02 0.35670101659E+02 0.31284401618E+02
 0.26752211323E+02 0.22453876061E+02 0.18645328642E+02 0.15480252229E+02 0.13007868020E+02
 0.11146368213E+02 0.97216297447E+01 0.86664722132E+01 0.79246634751E+01 0.74357862186E+01
 0.71569679265E+01 0.70661429494E+01 0.71569679265E+01 0.74357862186E+01 0.79246634751E+01
 0.86664722132E+01 0.97216297447E+01 0.11146368213E+02 0.13007868020E+02 0.15480252229E+02
 0.18645328642E+02 0.22453876061E+02 0.26752211323E+02 0.31284401618E+02 0.35670101659E+02
 0.39405993174E+02 0.41944043453E+02 0.33311691499E+02 0.32609404818E+02 0.30635910454E+02
 0.27742262393E+02 0.24378533574E+02 0.20968794033E+02 0.17831590899E+02 0.15155895377E+02
 0.13007868020E+02 0.11340945734E+02 0.10029386981E+02 0.90198785453E+01 0.82746388000E+01
 0.77436870289E+01 0.73858707222E+01 0.71773088836E+01 0.71084770916E+01 0.71773088836E+01
 0.73858707222E+01 0.77436870289E+01 0.82746388000E+01 0.90198785453E+01 0.10029386981E+02
 0.11340945734E+02 0.13007868020E+02 0.15155895377E+02 0.17831590899E+02 0.20968794033E+02
 0.24378533574E+02 0.27742262393E+02 0.30635910454E+02 0.32609404818E+02 0.24572017365E+02
 0.24088986502E+02 0.22735646323E+02 0.20764778926E+02 0.18501103181E+02 0.16247430297E+02
 0.14219267470E+02 0.12520136414E+02 0.11146368213E+02 0.10029386981E+02 0.91479493569E+01
 0.84785738005E+01 0.79835086858E+01 0.76262257509E+01 0.73813374761E+01 0.72365325289E+01
 0.71883636057E+01 0.72365325289E+01 0.73813374761E+01 0.76262257509E+01 0.79835086858E+01
 0.84785738005E+01 0.91479493569E+01 0.10029386981E+02 0.11146368213E+02 0.12520136414E+02
 0.14219267470E+02 0.16247430297E+02 0.18501103181E+02 0.20764778926E+02 0.22735646323E+02
 0.24088986502E+02 0.17736169139E+02 0.17447190023E+02 0.16639915220E+02 0.15470994997E+02
 0.14138516851E+02 0.12819858827E+02 0.11627627746E+02 0.10594432091E+02 0.97216297447E+01
 0.90198785453E+01 0.84785738005E+01 0.80730651771E+01 0.77751403829E+01 0.75609507577E+01
 0.74147855227E+01 0.73288034282E+01 0.73003061666E+01 0.73288034282E+01 0.74147855227E+01
 0.75609507577E+01 0.77751403829E+01 0.80730651771E+01 0.84785738005E+01 0.90198785453E+01
 0.97216297447E+01 0.10594432091E+02 0.11627627746E+02 0.12819858827E+02 0.14138516851E+02
 0.15470994997E+02 0.16639915220E+02 0.17447190023E+02 0.13166037692E+02 0.13012469192E+02
 0.12582668443E+02 0.11956591754E+02 0.11231601494E+02 0.10488017247E+02 0.97854323622E+01
 0.91707052880E+01 0.86664722132E+01 0.82746388000E+01 0.79835086858E+01 0.77751403829E+01
 0.76310256841E+01 0.75352714627E+01 0.74756167460E+01 0.74433604754E+01 0.74332074401E+01
 0.74433604754E+01 0.74756167460E+01 0.75352714627E+01 0.76310256841E+01 0.77751403829E+01
 0.79835086858E+01 0.82746388000E+01 0.86664722132E+01 0.91707052880E+01 0.97854323622E+01
 0.10488017247E+02 0.11231601494E+02 0.11956591754E+02 0.12582668443E+02 0.13012469192E+02
 0.10382810773E+02 0.10299588647E+02 0.10064229861E+02 0.97154172117E+01 0.93053233740E+01
 0.88865373615E+01 0.85014810350E+01 0.81770613345E+01 0.79246634751E+01 0.77436870289E+01
 0.76262257509E+01 0.75609507577E+01 0.75352714627E+01 0.75360239424E+01 0.75498200399E+01
 0.75642471783E+01 0.75701861542E+01 0.75642471783E+01 0.75498200399E+01 0.75360239424E+01
 0.75352714627E+01 0.75609507577E+01 0.76262257509E+01 0.77436870289E+01 0.79246634751E+01
 0.81770613345E+01 0.85014810350E+01 0.88865373615E+01 0.93053233740E+01 0.97154172117E+01
 0.10064229861E+02 0.10299588647E+02 0.86770604427E+01 0.86309509595E+01 0.85012660918E+01
 0.83112701195E+01 0.80920735109E+01 0.78746816687E+01 0.76838361505E+01 0.75352166293E+01
 0.74357862186E+01 0.73858707222E+01 0.73813374761E+01 0.74147855227E+01 0.74756167460E+01
 0.75498200399E+01 0.76207577859E+01 0.76717992936E+01 0.76903815090E+01 0.76717992936E+01
 0.76207577859E+01 0.75498200399E+01 0.74756167460E+01 0.74147855227E+01 0.73813374761E+01
 0.73858707222E+01 0.74357862186E+01 0.75352166293E+01 0.76838361505E+01 0.78746816687E+01
 0.80920735109E+01 0.83112701195E+01 0.85012660918E+01 0.86309509595E+01 0.77729749359E+01
 0.77463042391E+01 0.76717992936E+01 0.75642471783E+01 0.74433604754E+01 0.73288034282E+01
 0.72365325289E+01 0.71773088836E+01 0.71569679265E+01 0.71773088836E+01 0.72365325289E+01
 0.73288034282E+01 0.74433604754E+01 0.75642471783E+01 0.76717992936E+01 0.77463042391E+01
 0.77729749359E+01 0.77463042391E+01 0.76717992936E+01 0.75642471783E+01 0.74433604754E+01
 0.73288034282E+01 0.72365325289E+01 0.71773088836E+01 0.71569679265E+01 0.71773088836E+01
 0.72365325289E+01 0.73288034282E+01 0.74433604754E+01 0.75642471783E+01 0.76717992936E+01
 0.77463042391E+01 0.74939882361E+01 0.74732120947E+01 0.74154127325E+01 0.73327434148E+01
 0.72414059503E+01 0.71576300927E+01 0.70948071369E+01 0.70624000401E+01 0.70661429494E+01
 0.71084770916E+01 0.71883636057E+01 0.73003061666E+01 0.74332074401E+01 0.75701861542E+01
 0.76903815090E+01 0.77729749359E+01 0.78024290976E+01 0.77729749359E+01 0.76903815090E+01
 0.75701861542E+01 0.74332074401E+01 0.73003061666E+01 0.71883636057E+01 0.71084770916E+01
 0.70661429494E+01 0.70624000401E+01 0.70948071369E+01 0.71576300927E+01 0.72414059503E+01
 0.73327434148E+01 0.74154127325E+01 0.74732120947E+01 0.77729749359E+01 0.77463042391E+01
 0.76717992936E+01 0.75642471783E+01 0.74433604754E+01 0.73288034282E+01 0.72365325289E+01
 0.71773088836E+01 0.71569679265E+01 0.71773088836E+01 0.72365325289E+01 0.73288034282E+01
 0.74433604754E+01 0.75642471783E+01 0.76717992936E+01 0.77463042391E+01 0.77729749359E+01
 0.77463042391E+01 0.76717992936E+01 0.75642471783E+01 0.74433604754E+01 0.73288034282E+01
 0.72365325289E+01 0.71773088836E+01 0.71569679265E+01 0.71773088836E+01 0.72365325289E+01
 0.73288034282E+01 0.74433604754E+01 0.75642471783E+01 0.76717992936E+01 0.77463042391E+01
 0.86770604427E+01 0.86309509595E+01 0.85012660918E+01 0.83112701195E+01 0.80920735109E+01
 0.78746816687E+01 0.76838361505E+01 0.75352166293E+01 0.74357862186E+01 0.73858707222E+01
 0.73813374761E+01 0.74147855227E+01 0.74756167460E+01 0.75498200399E+01 0.76207577859E+01
 0.76717992936E+01 0.76903815090E+01 0.76717992936E+01 0.76207577859E+01 0.75498200399E+01
 0.74756167460E+01 0.74147855227E+01 0.73813374761E+01 0.73858707222E+01 0.74357862186E+01
 0.75352166293E+01 0.76838361505E+01 0.78746816687E+01 0.80920735109E+01 0.83112701195E+01