   2   2   0   0
  0.1350000E+02  0.3000000E-09  0.3000000E-09  0.3000000E-09  0.5000000E-15
  1.000000000000000E-004
  CAR 
 unknown system                          
     27.86867580     -3.73340928  301      9.51432729      1.00000000
     -3.733  0.0000E+00  0.0000E+00
     -3.628  0.0000E+00  0.0000E+00
     -3.523  0.0000E+00  0.0000E+00
     -3.417  0.0000E+00  0.0000E+00
     -3.312  0.0000E+00  0.0000E+00
     -3.207  0.0000E+00  0.0000E+00
     -3.101  0.0000E+00  0.0000E+00
     -2.996  0.0000E+00  0.0000E+00
     -2.891  0.0000E+00  0.0000E+00
     -2.785  0.0000E+00  0.0000E+00
     -2.680  0.0000E+00  0.0000E+00
     -2.575  0.0000E+00  0.0000E+00
     -2.469  0.0000E+00  0.0000E+00
     -2.364  0.0000E+00  0.0000E+00
     -2.259  0.0000E+00  0.0000E+00
     -2.153  0.0000E+00  0.0000E+00
     -2.048  0.0000E+00  0.0000E+00
     -1.943  0.0000E+00  0.0000E+00
     -1.837  0.0000E+00  0.0000E+00
     -1.732  0.9534E-06  0.4657E-09
     -1.627  0.5065E-02  0.1803E-03
     -1.521  0.1998E-01  0.1413E-02
     -1.416  0.4469E-01  0.4737E-02
     -1.311  0.6668E-01  0.1069E-01
     -1.205  0.7828E-01  0.1842E-01
     -1.100  0.8123E-01  0.2685E-01
     -0.995  0.8665E-01  0.3565E-01
     -0.889  0.9645E-01  0.4526E-01
     -0.784  0.1089E+00  0.5607E-01
     -0.679  0.1220E+00  0.6823E-01
     -0.573  0.1357E+00  0.8180E-01
     -0.468  0.1461E+00  0.9668E-01
     -0.363  0.1516E+00  0.1124E+00
     -0.257  0.1605E+00  0.1288E+00
     -0.152  0.1718E+00  0.1463E+00
     -0.046  0.1834E+00  0.1650E+00
      0.059  0.1946E+00  0.1849E+00
      0.164  0.2058E+00  0.2060E+00
      0.270  0.2171E+00  0.2283E+00
      0.375  0.2309E+00  0.2519E+00
      0.480  0.2496E+00  0.2771E+00
      0.586  0.2728E+00  0.3046E+00
      0.691  0.2982E+00  0.3347E+00
      0.796  0.3238E+00  0.3674E+00
      0.902  0.3492E+00  0.4029E+00
      1.007  0.3744E+00  0.4410E+00
      1.112  0.4180E+00  0.4821E+00
      1.218  0.5022E+00  0.5305E+00
      1.323  0.7401E+00  0.5913E+00
      1.428  0.1186E+01  0.6908E+00
      1.534  0.1499E+01  0.8350E+00
      1.639  0.1525E+01  0.9958E+00
      1.744  0.1469E+01  0.1150E+01
      1.850  0.1666E+01  0.1315E+01
      1.955  0.1878E+01  0.1502E+01
      2.060  0.2327E+01  0.1750E+01
      2.166  0.1706E+01  0.1934E+01
      2.271  0.1819E+01  0.2119E+01
      2.376  0.2407E+01  0.2327E+01
      2.482  0.2363E+01  0.2561E+01
      2.587  0.2772E+01  0.2833E+01
      2.692  0.2750E+01  0.3128E+01
      2.798  0.2621E+01  0.3411E+01
      2.903  0.3390E+01  0.3694E+01
      3.008  0.1639E+01  0.3949E+01
      3.114  0.1129E+01  0.4092E+01
      3.219  0.9285E+00  0.4199E+01
      3.324  0.1529E+01  0.4346E+01
      3.430  0.2443E+01  0.4585E+01
      3.535  0.3429E+01  0.4886E+01
      3.640  0.3967E+01  0.5326E+01
      3.746  0.3485E+01  0.5714E+01
      3.851  0.4022E+01  0.6105E+01
      3.956  0.4360E+01  0.6553E+01
      4.062  0.2938E+01  0.6972E+01
      4.167  0.1803E+01  0.7208E+01
      4.272  0.1554E+01  0.7383E+01
      4.378  0.1469E+01  0.7546E+01
      4.483  0.1620E+01  0.7708E+01
      4.588  0.1996E+01  0.7900E+01
      4.694  0.2923E+01  0.8167E+01
      4.799  0.3194E+01  0.8478E+01
      4.904  0.3805E+01  0.8847E+01
      5.010  0.5220E+01  0.9295E+01
      5.115  0.3004E+01  0.9748E+01
      5.221  0.2438E+01  0.1003E+02
      5.326  0.2121E+01  0.1026E+02
      5.431  0.1898E+01  0.1048E+02
      5.537  0.1707E+01  0.1067E+02
      5.642  0.1549E+01  0.1084E+02
      5.747  0.1357E+01  0.1099E+02
      5.853  0.1286E+01  0.1113E+02
      5.958  0.1207E+01  0.1126E+02
      6.063  0.1107E+01  0.1138E+02
      6.169  0.1024E+01  0.1150E+02
      6.274  0.9430E+00  0.1160E+02
      6.379  0.1113E+01  0.1171E+02
      6.485  0.8987E+00  0.1182E+02
      6.590  0.9847E+00  0.1192E+02
      6.695  0.1117E+01  0.1202E+02
      6.801  0.1345E+01  0.1215E+02
      6.906  0.1633E+01  0.1231E+02
      7.011  0.1857E+01  0.1250E+02
      7.117  0.2102E+01  0.1270E+02
      7.222  0.2401E+01  0.1294E+02
      7.327  0.2741E+01  0.1321E+02
      7.433  0.3144E+01  0.1352E+02
      7.538  0.3280E+01  0.1386E+02
      7.643  0.3139E+01  0.1420E+02
      7.749  0.3067E+01  0.1453E+02
      7.854  0.3076E+01  0.1485E+02
      7.959  0.3299E+01  0.1522E+02
      8.065  0.3248E+01  0.1556E+02
      8.170  0.3090E+01  0.1589E+02
      8.275  0.2782E+01  0.1620E+02
      8.381  0.2554E+01  0.1647E+02
      8.486  0.2785E+01  0.1676E+02
      8.591  0.4219E+01  0.1719E+02
      8.697  0.1113E+02  0.1779E+02
      8.802  0.4255E+01  0.1855E+02
      8.907  0.3100E+01  0.1890E+02
      9.013  0.2291E+01  0.1917E+02
      9.118  0.1576E+01  0.1939E+02
      9.223  0.1269E+01  0.1953E+02
      9.329  0.2048E+01  0.1970E+02
      9.434  0.1457E+01  0.1988E+02
      9.539  0.1421E+01  0.2004E+02
      9.645  0.1382E+01  0.2018E+02
      9.750  0.1367E+01  0.2033E+02
      9.855  0.1801E+01  0.2050E+02
      9.961  0.1372E+01  0.2066E+02
     10.066  0.1302E+01  0.2080E+02
     10.172  0.1165E+01  0.2094E+02
     10.277  0.8847E+00  0.2105E+02
     10.382  0.7144E+00  0.2113E+02
     10.488  0.6095E+00  0.2120E+02
     10.593  0.6307E+00  0.2126E+02
     10.698  0.6785E+00  0.2133E+02
     10.804  0.5913E+00  0.2140E+02
     10.909  0.5302E+00  0.2146E+02
     11.014  0.5175E+00  0.2151E+02
     11.120  0.5366E+00  0.2157E+02
     11.225  0.5577E+00  0.2163E+02
     11.330  0.5459E+00  0.2168E+02
     11.436  0.5365E+00  0.2174E+02
     11.541  0.5279E+00  0.2180E+02
     11.646  0.5195E+00  0.2185E+02
     11.752  0.5111E+00  0.2191E+02
     11.857  0.5010E+00  0.2196E+02
     11.962  0.4940E+00  0.2201E+02
     12.068  0.4925E+00  0.2206E+02
     12.173  0.4909E+00  0.2211E+02
     12.278  0.4892E+00  0.2217E+02
     12.384  0.4874E+00  0.2222E+02
     12.489  0.4857E+00  0.2227E+02
     12.594  0.4702E+00  0.2232E+02
     12.700  0.4669E+00  0.2237E+02
     12.805  0.4655E+00  0.2242E+02
     12.910  0.4637E+00  0.2247E+02
     13.016  0.4616E+00  0.2252E+02
     13.121  0.4591E+00  0.2256E+02
     13.226  0.4573E+00  0.2261E+02
     13.332  0.4753E+00  0.2266E+02
     13.437  0.4695E+00  0.2271E+02
     13.542  0.4641E+00  0.2276E+02
     13.648  0.4589E+00  0.2281E+02
     13.753  0.4541E+00  0.2286E+02
     13.858  0.4519E+00  0.2291E+02
     13.964  0.4471E+00  0.2295E+02
     14.069  0.4425E+00  0.2300E+02
     14.174  0.4327E+00  0.2305E+02
     14.280  0.4259E+00  0.2309E+02
     14.385  0.4273E+00  0.2314E+02
     14.490  0.4311E+00  0.2318E+02
     14.596  0.4349E+00  0.2323E+02
     14.701  0.4471E+00  0.2327E+02
     14.806  0.4502E+00  0.2332E+02
     14.912  0.4520E+00  0.2337E+02
     15.017  0.4525E+00  0.2342E+02
     15.123  0.4517E+00  0.2346E+02
     15.228  0.6829E+00  0.2351E+02
     15.333  0.5266E+00  0.2358E+02
     15.439  0.4803E+00  0.2363E+02
     15.544  0.5466E+00  0.2368E+02
     15.649  0.5402E+00  0.2374E+02
     15.755  0.4648E+00  0.2379E+02
     15.860  0.2683E+00  0.2383E+02
     15.965  0.2378E+00  0.2385E+02
     16.071  0.2066E+00  0.2388E+02
     16.176  0.1695E+00  0.2390E+02
     16.281  0.1314E+00  0.2391E+02
     16.387  0.1190E+00  0.2393E+02
     16.492  0.1959E+00  0.2394E+02
     16.597  0.2508E+00  0.2396E+02
     16.703  0.3032E+00  0.2399E+02
     16.808  0.3670E+00  0.2403E+02
     16.913  0.4714E+00  0.2407E+02
     17.019  0.5986E+00  0.2413E+02
     17.124  0.7743E+00  0.2420E+02
     17.229  0.8710E+00  0.2429E+02
     17.335  0.1040E+01  0.2438E+02
     17.440  0.9640E+00  0.2449E+02
     17.545  0.9046E+00  0.2459E+02
     17.651  0.9126E+00  0.2469E+02
     17.756  0.9206E+00  0.2479E+02
     17.861  0.9251E+00  0.2488E+02
     17.967  0.9738E+00  0.2499E+02
     18.072  0.8519E+00  0.2509E+02
     18.177  0.8103E+00  0.2517E+02
     18.283  0.7756E+00  0.2526E+02
     18.388  0.7416E+00  0.2534E+02
     18.493  0.6954E+00  0.2541E+02
     18.599  0.6570E+00  0.2549E+02
     18.704  0.6444E+00  0.2555E+02
     18.809  0.6346E+00  0.2562E+02
     18.915  0.6249E+00  0.2569E+02
     19.020  0.6152E+00  0.2575E+02
     19.125  0.5749E+00  0.2582E+02
     19.231  0.5490E+00  0.2588E+02
     19.336  0.5309E+00  0.2594E+02
     19.441  0.5290E+00  0.2599E+02
     19.547  0.5276E+00  0.2605E+02
     19.652  0.5267E+00  0.2610E+02
     19.757  0.5262E+00  0.2616E+02
     19.863  0.5217E+00  0.2621E+02
     19.968  0.5180E+00  0.2627E+02
     20.073  0.5188E+00  0.2632E+02
     20.179  0.5097E+00  0.2638E+02
     20.284  0.5172E+00  0.2643E+02
     20.390  0.5237E+00  0.2649E+02
     20.495  0.5278E+00  0.2654E+02
     20.600  0.5084E+00  0.2660E+02
     20.706  0.5051E+00  0.2665E+02
     20.811  0.4974E+00  0.2671E+02
     20.916  0.4892E+00  0.2676E+02
     21.022  0.4826E+00  0.2681E+02
     21.127  0.4753E+00  0.2686E+02
     21.232  0.4689E+00  0.2691E+02
     21.338  0.4638E+00  0.2696E+02
     21.443  0.4594E+00  0.2701E+02
     21.548  0.4551E+00  0.2706E+02
     21.654  0.4512E+00  0.2710E+02
     21.759  0.4479E+00  0.2715E+02
     21.864  0.4449E+00  0.2720E+02
     21.970  0.4425E+00  0.2725E+02
     22.075  0.4314E+00  0.2729E+02
     22.180  0.4674E+00  0.2734E+02
     22.286  0.4581E+00  0.2739E+02
     22.391  0.4376E+00  0.2744E+02
     22.496  0.4255E+00  0.2748E+02
     22.602  0.3834E+00  0.2752E+02
     22.707  0.3607E+00  0.2756E+02
     22.812  0.3470E+00  0.2760E+02
     22.918  0.3329E+00  0.2764E+02
     23.023  0.3184E+00  0.2767E+02
     23.128  0.3034E+00  0.2770E+02
     23.234  0.2761E+00  0.2773E+02
     23.339  0.2602E+00  0.2776E+02
     23.444  0.2441E+00  0.2779E+02
     23.550  0.2276E+00  0.2781E+02
     23.655  0.2123E+00  0.2784E+02
     23.760  0.2035E+00  0.2786E+02
     23.866  0.1831E+00  0.2788E+02
     23.971  0.1642E+00  0.2790E+02
     24.076  0.1455E+00  0.2791E+02
     24.182  0.1255E+00  0.2793E+02
     24.287  0.1088E+00  0.2794E+02
     24.392  0.9471E-01  0.2795E+02
     24.498  0.8342E-01  0.2796E+02
     24.603  0.7489E-01  0.2797E+02
     24.708  0.5566E-01  0.2797E+02
     24.814  0.4793E-01  0.2798E+02
     24.919  0.4067E-01  0.2798E+02
     25.024  0.3389E-01  0.2799E+02
     25.130  0.2757E-01  0.2799E+02
     25.235  0.2172E-01  0.2799E+02
     25.341  0.1702E-01  0.2800E+02
     25.446  0.1293E-01  0.2800E+02
     25.551  0.9181E-02  0.2800E+02
     25.657  0.5784E-02  0.2800E+02
     25.762  0.2736E-02  0.2800E+02
     25.867  0.3511E-04  0.2800E+02
     25.973  0.0000E+00  0.2800E+02
     26.078  0.0000E+00  0.2800E+02
     26.183  0.0000E+00  0.2800E+02
     26.289  0.0000E+00  0.2800E+02
     26.394  0.0000E+00  0.2800E+02
     26.499  0.0000E+00  0.2800E+02
     26.605  0.0000E+00  0.2800E+02
     26.710  0.0000E+00  0.2800E+02
     26.815  0.0000E+00  0.2800E+02
     26.921  0.0000E+00  0.2800E+02
     27.026  0.0000E+00  0.2800E+02
     27.131  0.0000E+00  0.2800E+02
     27.237  0.0000E+00  0.2800E+02
     27.342  0.0000E+00  0.2800E+02
     27.447  0.0000E+00  0.2800E+02
     27.553  0.0000E+00  0.2800E+02
     27.658  0.0000E+00  0.2800E+02
     27.763  0.0000E+00  0.2800E+02
     27.869  0.0000E+00  0.2800E+02
