    2    2    1    1
  0.1350000E+02  0.3000000E-09  0.3000000E-09  0.3000000E-09  0.5000000E-15
  1.000000000000000E-004
  CAR 
 unknown system                          
     20     35     14
 
  0.0000000E+00  0.0000000E+00  0.0000000E+00  0.1371742E-02
    1       -1.733409   1.000000
    2        1.689071   1.000000
    3        1.689071   1.000000
    4        5.061495   1.000000
    5        5.061495   1.000000
    6        5.061495   1.000000
    7        8.203768   1.000000
    8        8.203768   1.000000
    9       10.225764   0.039832
   10       10.225764  -0.240572
   11       10.225764   0.000000
   12       17.729200   0.000000
   13       17.729200   0.000000
   14       17.729200   0.000000
 
  0.1111111E+00  0.0000000E+00  0.0000000E+00  0.8230453E-02
    1       -1.438990   1.000000
    2        1.835692   1.000000
    3        1.903143   1.000000
    4        5.064613   1.000000
    5        5.064613   1.000000
    6        5.185773   1.000000
    7        7.924253   1.000000
    8        8.307678   1.000000
    9        9.651996   0.784590
   10        9.651996   0.593772
   11       10.023777  -0.000626
   12       16.377750   0.000000
   13       18.642756   0.000000
   14       18.642756   0.000000
 
  0.2222222E+00  0.0000000E+00  0.0000000E+00  0.8230453E-02
    1       -0.595608   1.000000
    2        2.269089   1.000000
    3        2.450654   1.000000
    4        5.109509   1.000000
    5        5.109509   1.000000
    6        5.551585   1.000000
    7        7.167490   1.000000
    8        8.468731   1.000000
    9        8.468731   1.000670
   10        8.582844   1.029158
   11        9.465815   0.267512
   12       13.891930   0.000000
   13       20.828145   0.000000
   14       20.828145   0.000000
 
  0.3333333E+00  0.0000000E+00  0.0000000E+00  0.8230453E-02
    1        0.662211   1.000000
    2        2.968052   1.000000
    3        3.004818   1.000000
    4        5.280087   1.000000
    5        5.280087   1.000000
    6        6.120454   1.000000
    7        6.136071   1.000000
    8        7.283521   1.000000
    9        7.283521   1.000000
   10        8.669708   1.000000
   11        8.931227   1.079928
   12       11.573235   0.000000
   13       23.616636   0.000000
   14       23.616639   0.000000
 
  0.4444444E+00  0.0000000E+00  0.0000000E+00  0.8230453E-02
    1        2.039943   1.000000
    2        2.978372   1.000000
    3        3.893059   1.000000
    4        4.978334   1.000000
    5        5.665832   1.000000
    6        5.665832   1.000000
    7        6.328716   1.000000
    8        6.328716   1.000000
    9        6.898059   1.000000
   10        7.773339   1.000000
   11        9.304280   1.000000
   12       10.008563   0.000000
   13       25.263637   0.000000
   14       25.868676   0.000000
 
  0.1111111E+00  0.1111111E+00  0.0000000E+00  0.1646091E-01
    1       -1.157454   1.000000
    2        1.998641   1.000000
    3        2.092430   1.000000
    4        4.813938   1.000000
    5        5.046868   1.000000
    6        5.567779   1.000000
    7        7.904181   1.000000
    8        8.224292   1.000000
    9        8.802037   1.017092
   10        9.082431   1.008767
   11       10.304543  -0.000973
   12       17.227289   0.000000
   13       17.263086   0.000000
   14       19.338060   0.000000
 
  0.2222222E+00  0.1111111E+00  0.0000000E+00  0.3292181E-01
    1       -0.359790   1.000000
    2        2.389395   1.000000
    3        2.646039   1.000000
    4        4.661043   1.000000
    5        5.039782   1.000000
    6        6.138174   1.000000
    7        7.369853   1.000000
    8        7.592733   1.000000
    9        7.971585   1.000834
   10        8.465123   1.005808
   11       10.085050  -0.063915
   12       14.660080   0.000000
   13       19.210909   0.000000
   14       21.178742   0.000000
 
  0.3333333E+00  0.1111111E+00  0.0000000E+00  0.3292181E-01
    1        0.799490   1.000000
    2        2.899852   1.000000
    3        3.275976   1.000000
    4        4.704479   1.000000
    5        5.066019   1.000000
    6        6.470040   1.000000
    7        6.632106   1.000000
    8        6.848974   1.000000
    9        7.035201   1.000000
   10        8.845540   1.000000
   11        9.431875   0.567920
   12       12.154006   0.000000
   13       21.422284   0.000000
   14       23.720477   0.000000
 
  0.4444444E+00  0.1111111E+00  0.0000000E+00  0.3292181E-01
    1        2.024592   1.000000
    2        2.879876   1.000000
    3        3.978873   1.000000
    4        4.751159   1.000000
    5        5.000543   1.000000
    6        5.588046   1.000000
    7        6.341791   1.000000
    8        6.569533   1.000000
    9        7.679943   1.000000
   10        8.575270   1.000000
   11        9.298965   0.893870
   12       10.266570   0.000000
   13       23.175444   0.000000
   14       24.611485   0.000000
 
  0.2222222E+00  0.2222222E+00  0.0000000E+00  0.1646091E-01
    1        0.270920   1.000000
    2        2.569433   1.000000
    3        3.273973   1.000000
    4        4.233488   1.000000
    5        5.016494   1.000000
    6        6.386815   1.000000
    7        6.991787   1.000000
    8        7.134328   1.000000
    9        7.634458   1.000000
   10        8.314321   1.005625
   11       10.507925  -0.024644
   12       15.747686   0.000000
   13       16.981992   0.000000
   14       22.284068   0.000000
 
  0.3333333E+00  0.2222222E+00  0.0000000E+00  0.3292181E-01
    1        1.075269   1.000000
    2        2.622806   1.000000
    3        4.045367   1.000000
    4        4.071981   1.000000
    5        5.210859   1.000000
    6        5.346638   1.000000
    7        6.757460   1.000000
    8        7.411341   1.000000
    9        7.915808   1.000000
   10        8.623218   1.030146
   11       10.334670  -0.079365
   12       13.287350   0.000000
   13       18.546517   0.000000
   14       24.146747   0.000000
 
  0.4444444E+00  0.2222222E+00  0.0000000E+00  0.3292181E-01
    1        1.805084   1.000000
    2        2.352422   1.000000
    3        4.153581   1.000000
    4        4.587831   1.000000
    5        4.763624   1.000000
    6        5.235976   1.000000
    7        7.027670   1.000000
    8        7.283518   1.000000
    9        8.852580   1.000000
   10        9.272523   0.960544
   11        9.710907   0.036363
   12       10.858525   0.000000
   13       20.410380   0.000000
   14       22.313424   0.000000
 
  0.3333333E+00  0.3333333E+00  0.0000000E+00  0.1646091E-01
    1        1.283750   1.000000
    2        2.192703   1.000000
    3        3.638721   1.000000
    4        4.426951   1.000000
    5        5.150486   1.000000
    6        6.043560   1.000000
    7        6.904705   1.000000
    8        7.894994   1.000000
    9        8.488802   1.000000
   10        8.979995   1.045168
   11       10.746373   0.000000
   12       13.299827   0.000000
   13       17.106678   0.000000
   14       22.205806   0.000000
 
  0.4444444E+00  0.3333333E+00  0.0000000E+00  0.3292181E-01
    1        1.471265   1.000000
    2        1.769593   1.000000
    3        3.552737   1.000000
    4        3.816199   1.000000
    5        6.106072   1.000000
    6        6.597333   1.000000
    7        7.472736   1.000000
    8        7.964200   1.000000
    9        9.162815   1.000000
   10        9.914470   0.024702
   11       10.565472   0.000000
   12       11.209323   0.000000
   13       18.125430   0.000000
   14       19.938950   0.000000
 
  0.4444444E+00  0.4444444E+00  0.0000000E+00  0.1646091E-01
    1        1.294882   1.000000
    2        1.391135   1.000000
    3        3.280828   1.000000
    4        3.368926   1.000000
    5        7.573960   1.000000
    6        7.837033   1.000000
    7        7.882854   1.000000
    8        8.651270   1.000000
    9        8.802561   1.000000
   10       10.450816  -0.130452
   11       10.659000   0.000000
   12       10.906531   0.000000
   13       17.263789   0.000000
   14       18.058445   0.000000
 
  0.1111111E+00  0.1111111E+00  0.1111111E+00  0.1097394E-01
    1       -0.884106   1.000000
    2        2.219108   1.000000
    3        2.219108   1.000000
    4        4.783795   1.000000
    5        4.783795   1.000000
    6        5.970546   1.000000
    7        7.724892   1.000000
    8        8.035905   1.000000
    9        8.035905   1.020218
   10        9.738379   0.791017
   11        9.738379   0.009016
   12       17.526997   0.000000
   13       18.144067   0.000000
   14       18.144067   0.000000
 
  0.2222222E+00  0.1111111E+00  0.1111111E+00  0.3292181E-01
    1       -0.117183   1.000000
    2        2.587269   1.000000
    3        2.768762   1.000000
    4        4.558282   1.000000
    5        4.716457   1.000000
    6        6.516249   1.000000
    7        6.664745   1.000000
    8        7.529878   1.000000
    9        8.369759   1.000215
   10        8.597507   1.008868
   11        9.818642   0.011545
   12       15.356160   0.000000
   13       19.045241   0.000000
   14       20.199642   0.000000
 
  0.3333333E+00  0.1111111E+00  0.1111111E+00  0.3292181E-01
    1        0.969990   1.000000
    2        3.154858   1.000000
    3        3.215007   1.000000
    4        4.621218   1.000000
    5        4.626691   1.000000
    6        5.682224   1.000000
    7        6.898597   1.000000
    8        7.489164   1.000000
    9        7.507616   1.000000
   10        8.782115   1.000000
   11        9.342978   0.567170
   12       12.838028   0.000000
   13       20.736228   0.000000
   14       22.693038   0.000000
 
  0.4444444E+00  0.1111111E+00  0.1111111E+00  0.3292181E-01
    1        2.082105   1.000000
    2        2.934773   1.000000
    3        3.823563   1.000000
    4        4.380376   1.000000
    5        5.002566   1.000000
    6        5.383376   1.000000
    7        6.519422   1.000000
    8        6.748171   1.000000
    9        8.248220   1.000000
   10        8.736834   1.000000
   11        9.405103   0.587788
   12       10.771719   0.000000
   13       22.336809   0.000000
   14       23.932486   0.000000
 
  0.2222222E+00  0.2222222E+00  0.1111111E+00  0.3292181E-01
    1        0.528616   1.000000
    2        2.830297   1.000000
    3        3.338055   1.000000
    4        4.180921   1.000000
    5        4.602476   1.000000
    6        5.401727   1.000000
    7        7.580095   1.000000
    8        7.763123   1.000000
    9        8.058668   1.000000
   10        8.259940   1.005241
   11        9.936400  -0.012541
   12       16.594960   0.000000
   13       16.946862   0.000000
   14       20.857583   0.000000
 
  0.3333333E+00  0.2222222E+00  0.1111111E+00  0.6584362E-01
    1        1.325777   1.000000
    2        2.878654   1.000000
    3        3.951638   1.000000
    4        3.998385   1.000000
    5        4.746407   1.000000
    6        4.866128   1.000000
    7        7.369898   1.000000
    8        7.493376   1.000000
    9        8.489338   1.000000
   10        8.730830   1.025713
   11        9.760725   0.015502
   12       14.066906   0.000000
   13       18.437801   0.000000
   14       22.506801   0.000000
 
  0.4444444E+00  0.2222222E+00  0.1111111E+00  0.6584362E-01
    1        1.999676   1.000000
    2        2.536236   1.000000
    3        4.021549   1.000000
    4        4.066425   1.000000
    5        5.049408   1.000000
    6        5.060292   1.000000
    7        7.193596   1.000000
    8        7.261407   1.000000
    9        8.774377   1.000000
   10        9.193177   1.002708
   11       10.028365  -0.051229
   12       11.778448   0.000000
   13       20.139575   0.000000
   14       22.069982   0.000000
 
  0.3333333E+00  0.3333333E+00  0.1111111E+00  0.3292181E-01
    1        1.572908   1.000000
    2        2.410255   1.000000
    3        3.608780   1.000000
    4        4.165682   1.000000
    5        5.092820   1.000000
    6        5.451806   1.000000
    7        7.291673   1.000000
    8        7.910403   1.000000
    9        8.493690   1.000000
   10        9.806748   0.495787
   11       10.024352  -0.000627
   12       14.340145   0.000000
   13       16.914959   0.000000
   14       22.107814   0.000000
 
  0.4444444E+00  0.3333333E+00  0.1111111E+00  0.6584362E-01
    1        1.729743   1.000000
    2        1.989034   1.000000
    3        3.527394   1.000000
    4        3.738827   1.000000
    5        5.975466   1.000000
    6        6.193340   1.000000
    7        7.613384   1.000000
    8        7.904209   1.000000
    9        8.807812   1.000000
   10        9.585675   0.563999
   11       11.025615   0.000000
   12       12.582667   0.000000
   13       17.941935   0.000000
   14       19.776275   0.000000
 
  0.4444444E+00  0.4444444E+00  0.1111111E+00  0.3292181E-01
    1        1.563896   1.000000
    2        1.642124   1.000000
    3        3.277190   1.000000
    4        3.359629   1.000000
    5        7.254557   1.000000
    6        7.556929   1.000000
    7        7.946940   1.000000
    8        8.158247   1.000000
    9        8.662971   1.000000
   10        9.340762   0.736171
   11       11.894778   0.000000
   12       12.565039   0.000000
   13       17.034756   0.000000
   14       17.863773   0.000000
 
  0.2222222E+00  0.2222222E+00  0.2222222E+00  0.1097394E-01
    1        1.207292   1.000000
    2        3.505896   1.000000
    3        3.505896   1.000000
    4        4.063646   1.000000
    5        4.063646   1.000000
    6        4.302438   1.000000
    7        8.093113   1.000000
    8        8.093113   1.000000
    9        8.700591   1.000000
   10        8.893330   1.004495
   11        8.893330   0.823749
   12       16.891693   0.000000
   13       18.438291   0.000000
   14       18.438291   0.000000
 
  0.3333333E+00  0.2222222E+00  0.2222222E+00  0.3292181E-01
    1        1.940891   1.000000
    2        3.291499   1.000000
    3        3.705033   1.000000
    4        3.959383   1.000000
    5        4.036635   1.000000
    6        4.518227   1.000000
    7        7.840380   1.000000
    8        8.042543   1.000000
    9        8.493887   1.000000
   10        9.096471   1.003771
   11        9.935908  -0.000155
   12       15.355388   0.000000
   13       17.991746   0.000000
   14       20.528962   0.000000
 
  0.4444444E+00  0.2222222E+00  0.2222222E+00  0.3292181E-01
    1        2.337285   1.000000
    2        2.700141   1.000000
    3        3.843767   1.000000
    4        3.903077   1.000000
    5        4.662837   1.000000
    6        5.024573   1.000000
    7        7.615231   1.000000
    8        7.620024   1.000000
    9        8.734970   1.000000
   10        8.886471   1.020872
   11       11.353238  -0.015753
   12       13.150441   0.000000
   13       19.200665   0.000000
   14       21.151361   0.000000
 
  0.3333333E+00  0.3333333E+00  0.2222222E+00  0.3292181E-01
    1        2.384507   1.000000
    2        2.799641   1.000000
    3        3.560285   1.000000
    4        3.962577   1.000000
    5        4.434521   1.000000
    6        4.888850   1.000000
    7        8.009531   1.000000
    8        8.137225   1.000000
    9        8.491634   1.000000
   10        9.085065   1.015765
   11       11.281165  -0.012668
   12       16.233113   0.000000
   13       16.478403   0.000000
   14       20.578735   0.000000
 
  0.4444444E+00  0.3333333E+00  0.2222222E+00  0.6584362E-01
    1        2.388697   1.000000
    2        2.460970   1.000000
    3        3.549963   1.000000
    4        3.748922   1.000000
    5        5.255896   1.000000
    6        5.494889   1.000000
    7        7.994622   1.000000
    8        8.084933   1.000000
    9        8.696626   1.000000
   10        8.924394   1.025486
   11       12.656853   0.000000
   12       14.296835   0.000000
   13       17.542296   0.000000
   14       19.322142   0.000000
 
  0.4444444E+00  0.4444444E+00  0.2222222E+00  0.3292181E-01
    1        2.291310   1.000000
    2        2.301805   1.000000
    3        3.301917   1.000000
    4        3.415983   1.000000
    5        6.230530   1.000000
    6        6.310300   1.000000
    7        8.224617   1.000000
    8        8.293867   1.000000
    9        8.691093   1.000000
   10        8.841463   1.025740
   11       13.781552   0.000000
   12       14.678048   0.000000
   13       16.450392   0.000000
   14       17.414457   0.000000
 
  0.3333333E+00  0.3333333E+00  0.3333333E+00  0.1097394E-01
    1        2.768106   1.000000
    2        3.507920   1.000000
    3        3.583601   1.000000
    4        3.583601   1.000000
    5        4.520004   1.000000
    6        4.520004   1.000000
    7        8.456816   1.000000
    8        8.456816   1.000000
    9        8.548267   1.000000
   10        8.548267   1.000000
   11       12.764295  -0.005890
   12       16.116845   0.000000
   13       18.288084   0.000000
   14       18.288085   0.000000
 
  0.4444444E+00  0.3333333E+00  0.3333333E+00  0.3292181E-01
    1        2.733539   1.000000
    2        2.983426   1.000000
    3        3.755230   1.000000
    4        4.091762   1.000000
    5        4.606316   1.000000
    6        5.000892   1.000000
    7        8.379510   1.000000
    8        8.396638   1.000000
    9        8.680816   1.000000
   10        8.725505   1.000000
   11       14.136079   0.000000
   12       15.494600   0.000000
   13       17.312801   0.000000
   14       18.498611   0.000000
 
  0.4444444E+00  0.4444444E+00  0.3333333E+00  0.3292181E-01
    1        2.939095   1.000000
    2        3.262459   1.000000
    3        3.438845   1.000000
    4        3.806696   1.000000
    5        5.083539   1.000000
    6        5.241289   1.000000
    7        8.537750   1.000000
    8        8.554513   1.000000
    9        8.719577   1.000000
   10        8.739784   1.000000
   11       15.220136   0.000000
   12       15.773788   0.000000
   13       16.903783   0.000000
   14       17.311648   0.000000
 
  0.4444444E+00  0.4444444E+00  0.4444444E+00  0.1097394E-01
    1        3.376547   1.000000
    2        3.775731   1.000000
    3        3.775731   1.000000
    4        4.372202   1.000000
    5        4.372202   1.000000
    6        4.484030   1.000000
    7        8.732778   1.000000
    8        8.732778   1.000000
    9        8.734016   1.000000
   10        8.734016   1.000000
   11       15.341187   0.000000
   12       15.345446   0.000000
   13       18.214876   0.000000
   14       19.120790   0.000000
