       N       E                     dE             d eps       ncg     rms          rms(c)
DAV:   1     0.203015445430E+03    0.20302E+03   -0.96630E+03   996   0.142E+03
DAV:   2    -0.484786718470E+01   -0.20786E+03   -0.19411E+03   980   0.430E+02
DAV:   3    -0.117046662854E+02   -0.68568E+01   -0.65125E+01  1240   0.890E+01
DAV:   4    -0.117943054590E+02   -0.89639E-01   -0.89680E-01  1090   0.937E+00
DAV:   5    -0.117967561510E+02   -0.24507E-02   -0.24525E-02  1232   0.147E+00    0.494E+00
RMM:   6    -0.112575120560E+02    0.53924E+00   -0.72070E-01   985   0.116E+01    0.194E+00
RMM:   7    -0.111654821062E+02    0.92030E-01   -0.31837E-01  1002   0.595E+00    0.377E-01
RMM:   8    -0.111562193740E+02    0.92627E-02   -0.11512E-02  1011   0.158E+00    0.691E-02
RMM:   9    -0.111562627681E+02   -0.43394E-04   -0.10945E-03  1068   0.257E-01    0.242E-02
RMM:  10    -0.111562726522E+02   -0.98842E-05   -0.99539E-05   929   0.146E-01
   1 F= -.11156273E+02 E0= -.11156273E+02  d E =0.000000E+00
