Starting job 28218130 ("jobfile") on c16-33 at Fri Sep 20 10:38:14 CEST 2019
 running on    4 total cores
 distrk:  each k-point on    4 cores,    1 groups
 distr:  one band on    2 cores,    2 groups
 using from now: INCAR     
 vasp.5.4.1 05Feb16 (build Mar 02 2016 14:09:44) complex                        
  
 POSCAR found type information on POSCAR  Pt
 POSCAR found :  1 types and       2 ions

 ----------------------------------------------------------------------------- 
|                                                                             |
|  ADVICE TO THIS USER RUNNING 'VASP/VAMP'   (HEAR YOUR MASTER'S VOICE ...):  |
|                                                                             |
|      You have a (more or less) 'small supercell' and for smaller cells      |
|      it is recommended  to use the reciprocal-space projection scheme!      |
|      The real space optimization is not  efficient for small cells and it   |
|      is also less accurate ...                                              |
|      Therefore set LREAL=.FALSE. in the  INCAR file                         |
|                                                                             |
 ----------------------------------------------------------------------------- 

 LDA part: xc-table for Pade appr. of Perdew
 POSCAR, INCAR and KPOINTS ok, starting setup
 WARNING: small aliasing (wrap around) errors must be expected
 FFT: planning ...
 WAVECAR not read
 entering main loop
       N       E                     dE             d eps       ncg     rms          rms(c)
DAV:   1     0.203015445430E+03    0.20302E+03   -0.96630E+03   996   0.142E+03
DAV:   2    -0.484786718470E+01   -0.20786E+03   -0.19411E+03   980   0.430E+02
DAV:   3    -0.117046662854E+02   -0.68568E+01   -0.65125E+01  1240   0.890E+01
DAV:   4    -0.117943054590E+02   -0.89639E-01   -0.89680E-01  1090   0.937E+00
DAV:   5    -0.117967561510E+02   -0.24507E-02   -0.24525E-02  1232   0.147E+00    0.494E+00
RMM:   6    -0.112575120560E+02    0.53924E+00   -0.72070E-01   985   0.116E+01    0.194E+00
RMM:   7    -0.111654821062E+02    0.92030E-01   -0.31837E-01  1002   0.595E+00    0.377E-01
RMM:   8    -0.111562193740E+02    0.92627E-02   -0.11512E-02  1011   0.158E+00    0.691E-02
RMM:   9    -0.111562627681E+02   -0.43394E-04   -0.10945E-03  1068   0.257E-01    0.242E-02
RMM:  10    -0.111562726522E+02   -0.98842E-05   -0.99539E-05   929   0.146E-01
   1 F= -.11156273E+02 E0= -.11156273E+02  d E =0.000000E+00

Currently Loaded Modulefiles:
  1) intel/2016.1       2) vasp/5.4.1.Feb16

Job script resource usage:
       JobID  MaxVMSize     MaxRSS 
------------ ---------- ---------- 
28218130.ba+    216752K      2572K 

Job step resource usage:
       JobID    JobName  AllocCPUS  MaxVMSize     MaxRSS    Elapsed ExitCode 
------------ ---------- ---------- ---------- ---------- ---------- -------- 
28218130        jobfile          4                         00:00:05      0:0 
28218130.0    pmi_proxy          1    279832K       524K   00:00:03      0:0 

Job 28218130 ("jobfile") completed on c16-33 at Fri Sep 20 10:38:17 CEST 2019
