<?xml version="1.0" encoding="ISO-8859-1"?>
<modeling>
 <generator>
  <i name="program" type="string">vasp </i>
  <i name="version" type="string">5.4.1  </i>
  <i name="subversion" type="string">05Feb16 (build Mar 02 2016 14:09:44) complex                          parallel </i>
  <i name="platform" type="string">Abel-impi-ifc-cuda </i>
  <i name="date" type="string">2019 09 20 </i>
  <i name="time" type="string">10:38:14 </i>
 </generator>
 <incar>
  <i type="string" name="PREC">normal    ! low/normal/accurate</i>
  <i type="string" name="ALGO"> Fast      ! Algorithm for electronic re</i>
  <i type="int" name="ISPIN">     1</i>
  <i type="int" name="NELMIN">     4</i>
  <i name="EDIFF">      0.00001000</i>
  <i type="int" name="NSW">     0</i>
  <i name="ENCUT">    500.00000000</i>
  <i type="string" name="LREAL"> Auto      ! Projection in reciprocal sp</i>
  <i type="int" name="ISMEAR">    -5</i>
  <i name="SIGMA">      0.20000000</i>
  <i type="logical" name="LWAVE"> F  </i>
  <v type="int" name="KPOINT_BSE">    -1     0     0     0</v>
 </incar>
 <kpoints>
  <generation param="Gamma">
   <v type="int" name="divisions">       9        9        9 </v>
   <v name="usershift">      0.00000000       0.00000000       0.00000000 </v>
   <v name="genvec1">      0.11111111       0.00000000       0.00000000 </v>
   <v name="genvec2">      0.00000000       0.11111111       0.00000000 </v>
   <v name="genvec3">      0.00000000       0.00000000       0.11111111 </v>
   <v name="shift">      0.00000000       0.00000000       0.00000000 </v>
  </generation>
  <varray name="kpointlist" >
   <v>       0.00000000       0.00000000       0.00000000 </v>
   <v>       0.11111111       0.00000000       0.00000000 </v>
   <v>       0.22222222       0.00000000       0.00000000 </v>
   <v>       0.33333333       0.00000000       0.00000000 </v>
   <v>       0.44444444       0.00000000       0.00000000 </v>
   <v>       0.11111111       0.11111111       0.00000000 </v>
   <v>       0.22222222       0.11111111       0.00000000 </v>
   <v>       0.33333333       0.11111111       0.00000000 </v>
   <v>       0.44444444       0.11111111       0.00000000 </v>
   <v>       0.22222222       0.22222222       0.00000000 </v>
   <v>       0.33333333       0.22222222       0.00000000 </v>
   <v>       0.44444444       0.22222222       0.00000000 </v>
   <v>       0.33333333       0.33333333       0.00000000 </v>
   <v>       0.44444444       0.33333333       0.00000000 </v>
   <v>       0.44444444       0.44444444       0.00000000 </v>
   <v>       0.11111111       0.11111111       0.11111111 </v>
   <v>       0.22222222       0.11111111       0.11111111 </v>
   <v>       0.33333333       0.11111111       0.11111111 </v>
   <v>       0.44444444       0.11111111       0.11111111 </v>
   <v>       0.22222222       0.22222222       0.11111111 </v>
   <v>       0.33333333       0.22222222       0.11111111 </v>
   <v>       0.44444444       0.22222222       0.11111111 </v>
   <v>       0.33333333       0.33333333       0.11111111 </v>
   <v>       0.44444444       0.33333333       0.11111111 </v>
   <v>       0.44444444       0.44444444       0.11111111 </v>
   <v>       0.22222222       0.22222222       0.22222222 </v>
   <v>       0.33333333       0.22222222       0.22222222 </v>
   <v>       0.44444444       0.22222222       0.22222222 </v>
   <v>       0.33333333       0.33333333       0.22222222 </v>
   <v>       0.44444444       0.33333333       0.22222222 </v>
   <v>       0.44444444       0.44444444       0.22222222 </v>
   <v>       0.33333333       0.33333333       0.33333333 </v>
   <v>       0.44444444       0.33333333       0.33333333 </v>
   <v>       0.44444444       0.44444444       0.33333333 </v>
   <v>       0.44444444       0.44444444       0.44444444 </v>
  </varray>
  <varray name="weights" >
   <v>       0.00137174 </v>
   <v>       0.00823045 </v>
   <v>       0.00823045 </v>
   <v>       0.00823045 </v>
   <v>       0.00823045 </v>
   <v>       0.01646091 </v>
   <v>       0.03292181 </v>
   <v>       0.03292181 </v>
   <v>       0.03292181 </v>
   <v>       0.01646091 </v>
   <v>       0.03292181 </v>
   <v>       0.03292181 </v>
   <v>       0.01646091 </v>
   <v>       0.03292181 </v>
   <v>       0.01646091 </v>
   <v>       0.01097394 </v>
   <v>       0.03292181 </v>
   <v>       0.03292181 </v>
   <v>       0.03292181 </v>
   <v>       0.03292181 </v>
   <v>       0.06584362 </v>
   <v>       0.06584362 </v>
   <v>       0.03292181 </v>
   <v>       0.06584362 </v>
   <v>       0.03292181 </v>
   <v>       0.01097394 </v>
   <v>       0.03292181 </v>
   <v>       0.03292181 </v>
   <v>       0.03292181 </v>
   <v>       0.06584362 </v>
   <v>       0.03292181 </v>
   <v>       0.01097394 </v>
   <v>       0.03292181 </v>
   <v>       0.03292181 </v>
   <v>       0.01097394 </v>
  </varray>
  <varray name="tetrahedronlist"  type="int" >
   <v type="int" >       12        1        2        2        6 </v>
   <v type="int" >       12        2        2        6        6 </v>
   <v type="int" >       12        2        6        6       16 </v>
   <v type="int" >       12        2        3        6        7 </v>
   <v type="int" >       12        2        6        6        7 </v>
   <v type="int" >       12        6        6        7       16 </v>
   <v type="int" >       12        3        6        7        7 </v>
   <v type="int" >       24        6        7        7       17 </v>
   <v type="int" >       24        6        7       16       17 </v>
   <v type="int" >       12        3        4        7        8 </v>
   <v type="int" >       12        3        7        7        8 </v>
   <v type="int" >       12        7        7        8       17 </v>
   <v type="int" >       12        4        7        8        8 </v>
   <v type="int" >       12        7        8        8       18 </v>
   <v type="int" >       12        7        8       17       18 </v>
   <v type="int" >       12        4        5        8        9 </v>
   <v type="int" >       12        4        8        8        9 </v>
   <v type="int" >       12        8        8        9       18 </v>
   <v type="int" >       12        5        8        9        9 </v>
   <v type="int" >       12        8        9        9       19 </v>
   <v type="int" >       12        8        9       18       19 </v>
   <v type="int" >        6        5        5        9        9 </v>
   <v type="int" >       12        5        9        9        9 </v>
   <v type="int" >       12        9        9        9       19 </v>
   <v type="int" >        6        9        9       19       19 </v>
   <v type="int" >       12        6        7       10       16 </v>
   <v type="int" >       12        7       10       16       17 </v>
   <v type="int" >       12       10       16       17       20 </v>
   <v type="int" >       12        7        8       11       17 </v>
   <v type="int" >       12        7       10       11       17 </v>
   <v type="int" >       12       10       11       17       20 </v>
   <v type="int" >       12        8       11       17       18 </v>
   <v type="int" >       12       11       17       18       21 </v>
   <v type="int" >       12       11       17       20       21 </v>
   <v type="int" >       12        8        9       12       18 </v>
   <v type="int" >       12        8       11       12       18 </v>
   <v type="int" >       12       11       12       18       21 </v>
   <v type="int" >       12        9       12       18       19 </v>
   <v type="int" >       12       12       18       19       22 </v>
   <v type="int" >       12       12       18       21       22 </v>
   <v type="int" >       12        9        9       12       19 </v>
   <v type="int" >       12        9       12       12       19 </v>
   <v type="int" >       12       12       12       19       22 </v>
   <v type="int" >       12        9       12       19       19 </v>
   <v type="int" >       12       12       19       19       22 </v>
   <v type="int" >       12       12       19       22       22 </v>
   <v type="int" >       12        8        9       11       19 </v>
   <v type="int" >       12        9       11       12       19 </v>
   <v type="int" >       12       11       12       19       22 </v>
   <v type="int" >       12        8       11       18       19 </v>
   <v type="int" >       12       11       18       19       21 </v>
   <v type="int" >       12       11       19       21       22 </v>
   <v type="int" >       12        7        8       10       18 </v>
   <v type="int" >       12        8       10       11       18 </v>
   <v type="int" >       12       10       11       18       21 </v>
   <v type="int" >       12        7       10       17       18 </v>
   <v type="int" >       12       10       17       18       20 </v>
   <v type="int" >       12       10       18       20       21 </v>
   <v type="int" >       12        7        7       10       17 </v>
   <v type="int" >       12        7       10       17       20 </v>
   <v type="int" >       12        7       16       17       17 </v>
   <v type="int" >       12        7       17       17       20 </v>
   <v type="int" >       12        2        3        6       16 </v>
   <v type="int" >       12        3        6        7       16 </v>
   <v type="int" >       12        3        7       16       17 </v>
   <v type="int" >       12       10       11       13       20 </v>
   <v type="int" >       12       11       13       20       21 </v>
   <v type="int" >       12       13       20       21       23 </v>
   <v type="int" >       12       11       12       14       21 </v>
   <v type="int" >       12       11       13       14       21 </v>
   <v type="int" >       12       13       14       21       23 </v>
   <v type="int" >       12       12       14       21       22 </v>
   <v type="int" >       12       14       21       22       24 </v>
   <v type="int" >       12       14       21       23       24 </v>
   <v type="int" >       12       12       12       14       22 </v>
   <v type="int" >       12       12       14       14       22 </v>
   <v type="int" >       12       14       14       22       24 </v>
   <v type="int" >       12       12       14       22       22 </v>
   <v type="int" >       12       14       22       22       24 </v>
   <v type="int" >       12       14       22       24       24 </v>
   <v type="int" >       12       11       12       13       22 </v>
   <v type="int" >       12       12       13       14       22 </v>
   <v type="int" >       12       13       14       22       24 </v>
   <v type="int" >       12       11       13       21       22 </v>
   <v type="int" >       12       13       21       22       23 </v>
   <v type="int" >       12       13       22       23       24 </v>
   <v type="int" >       12       10       11       11       21 </v>
   <v type="int" >       12       11       11       13       21 </v>
   <v type="int" >       12       11       13       21       23 </v>
   <v type="int" >       12       10       11       20       21 </v>
   <v type="int" >       12       11       20       21       21 </v>
   <v type="int" >       12       11       21       21       23 </v>
   <v type="int" >       12        7        8       10       20 </v>
   <v type="int" >       12        8       10       11       20 </v>
   <v type="int" >       12        8       11       20       21 </v>
   <v type="int" >       12        7        8       17       20 </v>
   <v type="int" >       12        8       17       18       20 </v>
   <v type="int" >       12        8       18       20       21 </v>
   <v type="int" >       12        3        4        7       17 </v>
   <v type="int" >       12        4        7        8       17 </v>
   <v type="int" >       12        4        8       17       18 </v>
   <v type="int" >       12       13       14       15       23 </v>
   <v type="int" >       12       14       15       23       24 </v>
   <v type="int" >       12       15       23       24       25 </v>
   <v type="int" >       24       14       14       15       24 </v>
   <v type="int" >       12       14       15       15       24 </v>
   <v type="int" >       12       15       15       24       25 </v>
   <v type="int" >       12       14       15       24       24 </v>
   <v type="int" >       12       15       24       24       25 </v>
   <v type="int" >       12       15       24       25       25 </v>
   <v type="int" >       12       13       14       14       24 </v>
   <v type="int" >       12       14       15       24       25 </v>
   <v type="int" >       12       13       14       23       24 </v>
   <v type="int" >       12       14       23       24       24 </v>
   <v type="int" >       24       14       24       24       25 </v>
   <v type="int" >       12       11       12       13       23 </v>
   <v type="int" >       12       12       13       14       23 </v>
   <v type="int" >       12       12       14       23       24 </v>
   <v type="int" >       12       11       12       21       23 </v>
   <v type="int" >       12       12       21       22       23 </v>
   <v type="int" >       12       12       22       23       24 </v>
   <v type="int" >       12        8        9       11       21 </v>
   <v type="int" >       12        9       11       12       21 </v>
   <v type="int" >       12        9       12       21       22 </v>
   <v type="int" >       12        8        9       18       21 </v>
   <v type="int" >       12        9       18       19       21 </v>
   <v type="int" >       12        9       19       21       22 </v>
   <v type="int" >       12        4        5        8       18 </v>
   <v type="int" >       12        5        8        9       18 </v>
   <v type="int" >       12        5        9       18       19 </v>
   <v type="int" >       12       15       15       15       25 </v>
   <v type="int" >       12       15       15       25       25 </v>
   <v type="int" >       12       15       25       25       25 </v>
   <v type="int" >       12       14       14       15       25 </v>
   <v type="int" >       12       14       15       15       25 </v>
   <v type="int" >       12       14       15       25       25 </v>
   <v type="int" >       12       14       14       24       25 </v>
   <v type="int" >       12       14       24       25       25 </v>
   <v type="int" >       12       12       12       14       24 </v>
   <v type="int" >       12       12       14       14       24 </v>
   <v type="int" >       12       12       14       24       24 </v>
   <v type="int" >       12       12       12       22       24 </v>
   <v type="int" >       12       12       22       22       24 </v>
   <v type="int" >       12       12       22       24       24 </v>
   <v type="int" >       12        9        9       12       22 </v>
   <v type="int" >       12        9       12       12       22 </v>
   <v type="int" >       12        9       12       22       22 </v>
   <v type="int" >       12        9        9       19       22 </v>
   <v type="int" >       12        9       19       19       22 </v>
   <v type="int" >       12        9       19       22       22 </v>
   <v type="int" >       12        5        5        9       19 </v>
   <v type="int" >       12        5        9        9       19 </v>
   <v type="int" >       12        5        9       19       19 </v>
   <v type="int" >       12       13       14       15       25 </v>
   <v type="int" >       12       13       14       24       25 </v>
   <v type="int" >       12       13       23       24       25 </v>
   <v type="int" >       12       11       12       14       24 </v>
   <v type="int" >       12       11       13       14       24 </v>
   <v type="int" >       12       11       13       23       24 </v>
   <v type="int" >       12       11       12       22       24 </v>
   <v type="int" >       12       11       21       22       24 </v>
   <v type="int" >       12       11       21       23       24 </v>
   <v type="int" >       12        8        9       12       22 </v>
   <v type="int" >       12        8       11       12       22 </v>
   <v type="int" >       12        8       11       21       22 </v>
   <v type="int" >       12        8        9       19       22 </v>
   <v type="int" >       12        8       18       19       22 </v>
   <v type="int" >       12        8       18       21       22 </v>
   <v type="int" >       12        4        5        9       19 </v>
   <v type="int" >       12        4        8        9       19 </v>
   <v type="int" >       12        4        8       18       19 </v>
   <v type="int" >       12       10       11       13       23 </v>
   <v type="int" >       12       10       11       21       23 </v>
   <v type="int" >       12       10       20       21       23 </v>
   <v type="int" >       12        7        8       11       21 </v>
   <v type="int" >       12        7       10       11       21 </v>
   <v type="int" >       12        7       10       20       21 </v>
   <v type="int" >       12        7        8       18       21 </v>
   <v type="int" >       12        7       17       18       21 </v>
   <v type="int" >       12        7       17       20       21 </v>
   <v type="int" >       12        3        4        8       18 </v>
   <v type="int" >       12        3        7        8       18 </v>
   <v type="int" >       12        3        7       17       18 </v>
   <v type="int" >       12        6        7       10       20 </v>
   <v type="int" >       12        6        7       17       20 </v>
   <v type="int" >       12        6       16       17       20 </v>
   <v type="int" >       12        2        3        7       17 </v>
   <v type="int" >       12        2        6        7       17 </v>
   <v type="int" >       12        2        6       16       17 </v>
   <v type="int" >       12        1        2        6       16 </v>
   <v type="int" >       12       16       17       17       20 </v>
   <v type="int" >       12       17       17       20       20 </v>
   <v type="int" >       12       17       20       20       26 </v>
   <v type="int" >       12       17       18       20       21 </v>
   <v type="int" >       12       17       20       20       21 </v>
   <v type="int" >       12       20       20       21       26 </v>
   <v type="int" >       12       18       20       21       21 </v>
   <v type="int" >       24       20       21       21       27 </v>
   <v type="int" >       24       20       21       26       27 </v>
   <v type="int" >       12       18       19       21       22 </v>
   <v type="int" >       12       18       21       21       22 </v>
   <v type="int" >       12       21       21       22       27 </v>
   <v type="int" >       12       19       21       22       22 </v>
   <v type="int" >       12       21       22       22       28 </v>
   <v type="int" >       12       21       22       27       28 </v>
   <v type="int" >        6       19       19       22       22 </v>
   <v type="int" >       12       19       22       22       22 </v>
   <v type="int" >       12       22       22       22       28 </v>
   <v type="int" >        6       22       22       28       28 </v>
   <v type="int" >       12       20       21       23       26 </v>
   <v type="int" >       12       21       23       26       27 </v>
   <v type="int" >       12       23       26       27       29 </v>
   <v type="int" >       12       21       22       24       27 </v>
   <v type="int" >       12       21       23       24       27 </v>
   <v type="int" >       12       23       24       27       29 </v>
   <v type="int" >       12       22       24       27       28 </v>
   <v type="int" >       12       24       27       28       30 </v>
   <v type="int" >       12       24       27       29       30 </v>
   <v type="int" >       12       22       22       24       28 </v>
   <v type="int" >       12       22       24       24       28 </v>
   <v type="int" >       12       24       24       28       30 </v>
   <v type="int" >       12       22       24       28       28 </v>
   <v type="int" >       12       24       28       28       30 </v>
   <v type="int" >       12       24       28       30       30 </v>
   <v type="int" >       12       21       22       23       28 </v>
   <v type="int" >       12       22       23       24       28 </v>
   <v type="int" >       12       23       24       28       30 </v>
   <v type="int" >       12       21       23       27       28 </v>
   <v type="int" >       12       23       27       28       29 </v>
   <v type="int" >       12       23       28       29       30 </v>
   <v type="int" >       12       21       21       23       27 </v>
   <v type="int" >       12       21       23       27       29 </v>
   <v type="int" >       12       21       26       27       27 </v>
   <v type="int" >       12       21       27       27       29 </v>
   <v type="int" >       12       17       18       20       26 </v>
   <v type="int" >       12       18       20       21       26 </v>
   <v type="int" >       12       18       21       26       27 </v>
   <v type="int" >       12       23       24       25       29 </v>
   <v type="int" >       12       24       25       29       30 </v>
   <v type="int" >       12       25       29       30       31 </v>
   <v type="int" >       24       24       24       25       30 </v>
   <v type="int" >       12       24       25       25       30 </v>
   <v type="int" >       12       25       25       30       31 </v>
   <v type="int" >       12       24       25       30       30 </v>
   <v type="int" >       12       25       30       30       31 </v>
   <v type="int" >       12       25       30       31       31 </v>
   <v type="int" >       12       23       24       24       30 </v>
   <v type="int" >       12       24       25       30       31 </v>
   <v type="int" >       12       23       24       29       30 </v>
   <v type="int" >       12       24       29       30       30 </v>
   <v type="int" >       24       24       30       30       31 </v>
   <v type="int" >       12       21       22       23       29 </v>
   <v type="int" >       12       22       23       24       29 </v>
   <v type="int" >       12       22       24       29       30 </v>
   <v type="int" >       12       21       22       27       29 </v>
   <v type="int" >       12       22       27       28       29 </v>
   <v type="int" >       12       22       28       29       30 </v>
   <v type="int" >       12       18       19       21       27 </v>
   <v type="int" >       12       19       21       22       27 </v>
   <v type="int" >       12       19       22       27       28 </v>
   <v type="int" >       12       25       25       25       31 </v>
   <v type="int" >       12       25       25       31       31 </v>
   <v type="int" >       12       25       31       31       31 </v>
   <v type="int" >       12       24       24       25       31 </v>
   <v type="int" >       12       24       25       25       31 </v>
   <v type="int" >       12       24       25       31       31 </v>
   <v type="int" >       12       24       24       30       31 </v>
   <v type="int" >       12       24       30       31       31 </v>
   <v type="int" >       12       22       22       24       30 </v>
   <v type="int" >       12       22       24       24       30 </v>
   <v type="int" >       12       22       24       30       30 </v>
   <v type="int" >       12       22       22       28       30 </v>
   <v type="int" >       12       22       28       28       30 </v>
   <v type="int" >       12       22       28       30       30 </v>
   <v type="int" >       12       19       19       22       28 </v>
   <v type="int" >       12       19       22       22       28 </v>
   <v type="int" >       12       19       22       28       28 </v>
   <v type="int" >       12       23       24       25       31 </v>
   <v type="int" >       12       23       24       30       31 </v>
   <v type="int" >       12       23       29       30       31 </v>
   <v type="int" >       12       21       22       24       30 </v>
   <v type="int" >       12       21       23       24       30 </v>
   <v type="int" >       12       21       23       29       30 </v>
   <v type="int" >       12       21       22       28       30 </v>
   <v type="int" >       12       21       27       28       30 </v>
   <v type="int" >       12       21       27       29       30 </v>
   <v type="int" >       12       18       19       22       28 </v>
   <v type="int" >       12       18       21       22       28 </v>
   <v type="int" >       12       18       21       27       28 </v>
   <v type="int" >       12       20       21       23       29 </v>
   <v type="int" >       12       20       21       27       29 </v>
   <v type="int" >       12       20       26       27       29 </v>
   <v type="int" >       12       17       18       21       27 </v>
   <v type="int" >       12       17       20       21       27 </v>
   <v type="int" >       12       17       20       26       27 </v>
   <v type="int" >       12       16       17       20       26 </v>
   <v type="int" >       12       26       27       27       29 </v>
   <v type="int" >       12       27       27       29       29 </v>
   <v type="int" >       12       27       29       29       32 </v>
   <v type="int" >       12       27       28       29       30 </v>
   <v type="int" >       12       27       29       29       30 </v>
   <v type="int" >       12       29       29       30       32 </v>
   <v type="int" >       12       28       29       30       30 </v>
   <v type="int" >       24       29       30       30       33 </v>
   <v type="int" >       24       29       30       32       33 </v>
   <v type="int" >        6       28       28       30       30 </v>
   <v type="int" >       12       28       30       30       30 </v>
   <v type="int" >       12       30       30       30       33 </v>
   <v type="int" >        6       30       30       33       33 </v>
   <v type="int" >       12       29       30       31       32 </v>
   <v type="int" >       12       30       31       32       33 </v>
   <v type="int" >       12       31       32       33       34 </v>
   <v type="int" >       24       30       30       31       33 </v>
   <v type="int" >       12       30       31       31       33 </v>
   <v type="int" >       12       31       31       33       34 </v>
   <v type="int" >       12       30       31       33       33 </v>
   <v type="int" >       12       31       33       33       34 </v>
   <v type="int" >       12       31       33       34       34 </v>
   <v type="int" >       12       30       31       33       34 </v>
   <v type="int" >       12       30       32       33       33 </v>
   <v type="int" >       24       30       33       33       34 </v>
   <v type="int" >       12       27       28       29       32 </v>
   <v type="int" >       12       28       29       30       32 </v>
   <v type="int" >       12       28       30       32       33 </v>
   <v type="int" >       12       31       31       31       34 </v>
   <v type="int" >       12       31       31       34       34 </v>
   <v type="int" >       12       31       34       34       34 </v>
   <v type="int" >       12       30       30       31       34 </v>
   <v type="int" >       12       30       31       31       34 </v>
   <v type="int" >       12       30       31       34       34 </v>
   <v type="int" >       12       30       30       33       34 </v>
   <v type="int" >       12       30       33       34       34 </v>
   <v type="int" >       12       28       28       30       33 </v>
   <v type="int" >       12       28       30       30       33 </v>
   <v type="int" >       12       28       30       33       33 </v>
   <v type="int" >       12       29       30       31       34 </v>
   <v type="int" >       12       29       30       33       34 </v>
   <v type="int" >       12       29       32       33       34 </v>
   <v type="int" >       12       27       28       30       33 </v>
   <v type="int" >       12       27       29       30       33 </v>
   <v type="int" >       12       27       29       32       33 </v>
   <v type="int" >       12       26       27       29       32 </v>
   <v type="int" >       12       32       33       33       34 </v>
   <v type="int" >       18       33       33       34       34 </v>
   <v type="int" >       24       33       34       34       35 </v>
   <v type="int" >       12       33       34       34       34 </v>
   <v type="int" >       24       34       34       34       35 </v>
   <v type="int" >       18       34       34       35       35 </v>
   <v type="int" >       12       34       35       35       35 </v>
   <v type="int" >       12       33       33       34       35 </v>
   <v type="int" >       12       33       34       35       35 </v>
   <v type="int" >       12       32       33       34       35 </v>
   <v type="int" >        6       35       35       35       35 </v>
  </varray>
  <i name="volumeweight">      0.00022862 </i>
 </kpoints>
 <parameters>
  <separator name="general" >
   <i type="string" name="SYSTEM">unknown system</i>
   <i type="logical" name="LCOMPAT"> F  </i>
  </separator>
  <separator name="electronic" >
   <i type="string" name="PREC">normal</i>
   <i name="ENMAX">    500.00000000</i>
   <i name="ENAUG">    358.96600000</i>
   <i name="EDIFF">      0.00001000</i>
   <i type="int" name="IALGO">    68</i>
   <i type="int" name="IWAVPR">    10</i>
   <i type="int" name="NBANDS">    14</i>
   <i name="NELECT">     20.00000000</i>
   <i type="int" name="TURBO">     0</i>
   <i type="int" name="IRESTART">     0</i>
   <i type="int" name="NREBOOT">     0</i>
   <i type="int" name="NMIN">     0</i>
   <i name="EREF">      0.00000000</i>
   <separator name="electronic smearing" >
    <i type="int" name="ISMEAR">    -5</i>
    <i name="SIGMA">      0.20000000</i>
    <i name="KSPACING">      0.50000000</i>
    <i type="logical" name="KGAMMA"> T  </i>
   </separator>
   <separator name="electronic projectors" >
    <i type="logical" name="LREAL"> T  </i>
    <v name="ROPT">     -0.00050000</v>
    <i type="int" name="LMAXPAW">  -100</i>
    <i type="int" name="LMAXMIX">     2</i>
    <i type="logical" name="NLSPLINE"> F  </i>
   </separator>
   <separator name="electronic startup" >
    <i type="int" name="ISTART">     0</i>
    <i type="int" name="ICHARG">     2</i>
    <i type="int" name="INIWAV">     1</i>
   </separator>
   <separator name="electronic spin" >
    <i type="int" name="ISPIN">     1</i>
    <i type="logical" name="LNONCOLLINEAR"> F  </i>
    <v name="MAGMOM">      1.00000000      1.00000000</v>
    <i name="NUPDOWN">     -1.00000000</i>
    <i type="logical" name="LSORBIT"> F  </i>
    <v name="SAXIS">      0.00000000      0.00000000      1.00000000</v>
    <i type="logical" name="LSPIRAL"> F  </i>
    <v name="QSPIRAL">      0.00000000      0.00000000      0.00000000</v>
    <i type="logical" name="LZEROZ"> F  </i>
   </separator>
   <separator name="electronic exchange-correlation" >
    <i type="logical" name="LASPH"> F  </i>
    <i type="logical" name="LMETAGGA"> F  </i>
   </separator>
   <separator name="electronic convergence" >
    <i type="int" name="NELM">    60</i>
    <i type="int" name="NELMDL">    -5</i>
    <i type="int" name="NELMIN">     4</i>
    <i name="ENINI">    500.00000000</i>
    <separator name="electronic convergence detail" >
     <i type="logical" name="LDIAG"> T  </i>
     <i type="logical" name="LSUBROT"> F  </i>
     <i name="WEIMIN">      0.00000000</i>
     <i name="EBREAK">      0.00000018</i>
     <i name="DEPER">      0.30000000</i>
     <i type="int" name="NRMM">     4</i>
     <i name="TIME">      0.40000000</i>
    </separator>
   </separator>
   <separator name="electronic mixer" >
    <i name="AMIX">      0.40000000</i>
    <i name="BMIX">      1.00000000</i>
    <i name="AMIN">      0.10000000</i>
    <i name="AMIX_MAG">      1.60000000</i>
    <i name="BMIX_MAG">      1.00000000</i>
    <separator name="electronic mixer details" >
     <i type="int" name="IMIX">     4</i>
     <i type="logical" name="MIXFIRST"> F  </i>
     <i type="int" name="MAXMIX">   -45</i>
     <i name="WC">    100.00000000</i>
     <i type="int" name="INIMIX">     1</i>
     <i type="int" name="MIXPRE">     1</i>
     <i type="int" name="MREMOVE">     5</i>
    </separator>
   </separator>
   <separator name="electronic dipolcorrection" >
    <i type="logical" name="LDIPOL"> F  </i>
    <i type="logical" name="LMONO"> F  </i>
    <i type="int" name="IDIPOL">     0</i>
    <i name="EPSILON">      1.00000000</i>
    <v name="DIPOL">   -100.00000000   -100.00000000   -100.00000000</v>
    <i name="EFIELD">      0.00000000</i>
   </separator>
  </separator>
  <separator name="grids" >
   <i type="int" name="NGX">    16</i>
   <i type="int" name="NGY">    16</i>
   <i type="int" name="NGZ">    16</i>
   <i type="int" name="NGXF">    32</i>
   <i type="int" name="NGYF">    32</i>
   <i type="int" name="NGZF">    32</i>
   <i type="logical" name="ADDGRID"> F  </i>
  </separator>
  <separator name="ionic" >
   <i type="int" name="NSW">     0</i>
   <i type="int" name="IBRION">    -1</i>
   <i type="int" name="ISIF">     2</i>
   <i name="PSTRESS">      0.00000000</i>
   <i name="EDIFFG">      0.00010000</i>
   <i type="int" name="NFREE">     0</i>
   <i name="POTIM">      0.50000000</i>
   <i name="SMASS">     -3.00000000</i>
   <i name="SCALEE">      1.00000000</i>
  </separator>
  <separator name="ionic md" >
   <i name="TEBEG">      0.00010000</i>
   <i name="TEEND">      0.00010000</i>
   <i type="int" name="NBLOCK">     1</i>
   <i type="int" name="KBLOCK">     1</i>
   <i type="int" name="NPACO">   256</i>
   <i name="APACO">     16.00000000</i>
  </separator>
  <separator name="symmetry" >
   <i type="int" name="ISYM">     2</i>
   <i name="SYMPREC">      0.00001000</i>
  </separator>
  <separator name="dos" >
   <i type="logical" name="LORBIT"> F  </i>
   <v name="RWIGS">     -1.00000000</v>
   <i type="int" name="NEDOS">   301</i>
   <i name="EMIN">     10.00000000</i>
   <i name="EMAX">    -10.00000000</i>
   <i name="EFERMI">      0.00000000</i>
  </separator>
  <separator name="writing" >
   <i type="int" name="NWRITE">     2</i>
   <i type="logical" name="LWAVE"> F  </i>
   <i type="logical" name="LCHARG"> T  </i>
   <i type="logical" name="LPARD"> F  </i>
   <i type="logical" name="LVTOT"> F  </i>
   <i type="logical" name="LVHAR"> F  </i>
   <i type="logical" name="LELF"> F  </i>
   <i type="logical" name="LOPTICS"> F  </i>
   <v name="STM">      0.00000000      0.00000000      0.00000000      0.00000000      0.00000000      0.00000000      0.00000000</v>
  </separator>
  <separator name="performance" >
   <i type="int" name="NPAR">     2</i>
   <i type="int" name="NSIM">     4</i>
   <i type="int" name="NBLK">    -1</i>
   <i type="logical" name="LPLANE"> T  </i>
   <i type="logical" name="LSCALAPACK"> F  </i>
   <i type="logical" name="LSCAAWARE"> F  </i>
   <i type="logical" name="LSCALU"> F  </i>
   <i type="logical" name="LASYNC"> F  </i>
   <i type="logical" name="LORBITALREAL"> F  </i>
  </separator>
  <separator name="miscellaneous" >
   <i type="int" name="IDIOT">     3</i>
   <i type="logical" name="LMUSIC"> F  </i>
   <v name="POMASS">    195.08000000</v>
   <v name="DARWINR">      0.00000000</v>
   <v name="DARWINV">      1.00000000</v>
   <i type="logical" name="LCORR"> T  </i>
  </separator>
  <i type="logical" name="GGA_COMPAT"> T  </i>
  <i type="logical" name="LBERRY"> F  </i>
  <i type="int" name="ICORELEVEL">     0</i>
  <i type="logical" name="LDAU"> F  </i>
  <i type="int" name="I_CONSTRAINED_M">     0</i>
  <separator name="electronic exchange-correlation" >
   <i type="string" name="GGA">--</i>
   <i type="int" name="VOSKOWN">     0</i>
   <i type="logical" name="LHFCALC"> F  </i>
   <i type="string" name="PRECFOCK"></i>
   <i type="logical" name="LSYMGRAD"> F  </i>
   <i type="logical" name="LHFONE"> F  </i>
   <i type="logical" name="LRHFCALC"> F  </i>
   <i type="logical" name="LTHOMAS"> F  </i>
   <i type="logical" name="LMODELHF"> F  </i>
   <i name="ENCUT4O">     -1.00000000</i>
   <i type="int" name="EXXOEP">     0</i>
   <i type="int" name="FOURORBIT">     0</i>
   <i name="AEXX">      0.00000000</i>
   <i name="HFALPHA">      0.00000000</i>
   <i name="MCALPHA">      0.00000000</i>
   <i name="ALDAX">      1.00000000</i>
   <i name="AGGAX">      1.00000000</i>
   <i name="ALDAC">      1.00000000</i>
   <i name="AGGAC">      1.00000000</i>
   <i type="int" name="NKREDX">     1</i>
   <i type="int" name="NKREDY">     1</i>
   <i type="int" name="NKREDZ">     1</i>
   <i type="logical" name="SHIFTRED"> F  </i>
   <i type="logical" name="ODDONLY"> F  </i>
   <i type="logical" name="EVENONLY"> F  </i>
   <i type="int" name="LMAXFOCK">     0</i>
   <i type="int" name="NMAXFOCKAE">     0</i>
   <i type="logical" name="LFOCKAEDFT"> F  </i>
   <i name="HFSCREEN">      0.00000000</i>
   <i name="HFSCREENC">      0.00000000</i>
   <i type="int" name="NBANDSGWLOW">     0</i>
  </separator>
  <separator name="vdW DFT" >
   <i type="logical" name="LUSE_VDW"> F  </i>
   <i name="Zab_VDW">     -0.84910000</i>
   <i name="PARAM1">      0.12340000</i>
   <i name="PARAM2">      1.00000000</i>
   <i name="PARAM3">      0.00000000</i>
  </separator>
  <separator name="model GW" >
   <i type="int" name="MODEL_GW">     0</i>
   <i name="MODEL_EPS0">      8.10000000</i>
   <i name="MODEL_ALPHA">      1.00000000</i>
  </separator>
  <separator name="linear response parameters" >
   <i type="logical" name="LEPSILON"> F  </i>
   <i type="logical" name="LRPA"> F  </i>
   <i type="logical" name="LNABLA"> F  </i>
   <i type="logical" name="LVEL"> F  </i>
   <i type="int" name="KINTER">     0</i>
   <i name="CSHIFT">      0.10000000</i>
   <i name="OMEGAMAX">     -1.00000000</i>
   <i name="DEG_THRESHOLD">      0.00200000</i>
  </separator>
  <separator name="orbital magnetization" >
   <i type="logical" name="NUCIND"> F  </i>
   <v name="MAGPOS">      0.00000000      0.00000000      0.00000000</v>
   <i type="logical" name="LNICSALL"> T  </i>
   <i type="logical" name="ORBITALMAG"> F  </i>
   <i type="logical" name="LMAGBLOCH"> F  </i>
   <i type="logical" name="LCHIMAG"> F  </i>
   <i type="logical" name="LGAUGE"> T  </i>
   <i type="int" name="MAGATOM">     0</i>
   <v name="MAGDIPOL">      0.00000000      0.00000000      0.00000000</v>
   <v name="AVECCONST">      0.00000000      0.00000000      0.00000000</v>
  </separator>
  <separator name="response functions" >
   <i type="logical" name="LADDER"> F  </i>
   <i type="logical" name="LFXC"> F  </i>
   <i type="logical" name="LHARTREE"> T  </i>
   <i type="int" name="IBSE">     0</i>
   <v type="int" name="KPOINT">    -1     0     0     0</v>
   <i type="logical" name="LTCTE"> F  </i>
   <i type="logical" name="LTETE"> F  </i>
   <i type="logical" name="LTRIPLET"> F  </i>
   <i type="logical" name="LFXCEPS"> F  </i>
   <i type="logical" name="LFXHEG"> F  </i>
   <i type="int" name="NATURALO">     0</i>
   <i type="logical" name="L2ORDER"> F  </i>
   <i type="logical" name="LUSEW"> F  </i>
   <i name="ENCUTGW">     -2.00000000</i>
   <i name="ENCUTGWSOFT">     -2.00000000</i>
   <i name="ENCUTLF">     -1.00000000</i>
   <i type="int" name="LMAXMP2">    -1</i>
   <i name="SCISSOR">      0.00000000</i>
   <i type="int" name="NOMEGA">     0</i>
   <i type="int" name="NOMEGAR">     0</i>
   <i type="int" name="NBANDSGW">    -1</i>
   <i type="int" name="NBANDSO">    -1</i>
   <i type="int" name="NBANDSV">    -1</i>
   <i type="int" name="NELM">     1</i>
   <i type="int" name="NELMHF">     1</i>
   <i type="int" name="DIM">     3</i>
   <i type="int" name="ANTIRES">     0</i>
   <i name="OMEGAMAX">    -30.00000000</i>
   <i name="OMEGAMIN">    -30.00000000</i>
   <i name="OMEGATL">   -200.00000000</i>
   <i type="int" name="OMEGAGRID">     0</i>
   <i name="CSHIFT">     -0.10000000</i>
   <i type="logical" name="SELFENERGY"> F  </i>
   <i type="logical" name="LSPECTRAL"> F  </i>
   <i type="logical" name="LSPECTRALGW"> F  </i>
   <i type="logical" name="LSINGLES"> F  </i>
   <i type="logical" name="LFERMIGW"> F  </i>
   <i type="logical" name="ODDONLYGW"> F  </i>
   <i type="logical" name="EVENONLYGW"> F  </i>
   <i type="int" name="NKREDLFX">     1</i>
   <i type="int" name="NKREDLFY">     1</i>
   <i type="int" name="NKREDLFZ">     1</i>
   <i type="int" name="MAXMEM">  1800</i>
   <i type="int" name="TELESCOPE">     0</i>
   <i type="int" name="TAUPAR">     1</i>
   <i type="int" name="OMEGAPAR">    -1</i>
   <i name="LAMBDA">      1.00000000</i>
  </separator>
  <separator name="External order field" >
   <i name="OFIELD_KAPPA">      0.00000000</i>
   <v name="OFIELD_K">      0.00000000      0.00000000      0.00000000</v>
   <i name="OFIELD_Q6_NEAR">      0.00000000</i>
   <i name="OFIELD_Q6_FAR">      0.00000000</i>
   <i name="OFIELD_A">      0.00000000</i>
  </separator>
 </parameters>
 <atominfo>
  <atoms>       2 </atoms>
  <types>       1 </types>
  <array name="atoms" >
   <dimension dim="1">ion</dimension>
   <field type="string">element</field>
   <field type="int">atomtype</field>
   <set>
    <rc><c>Pt</c><c>   1</c></rc>
    <rc><c>Pt</c><c>   1</c></rc>
   </set>
  </array>
  <array name="atomtypes" >
   <dimension dim="1">type</dimension>
   <field type="int">atomspertype</field>
   <field type="string">element</field>
   <field>mass</field>
   <field>valence</field>
   <field type="string">pseudopotential</field>
   <set>
    <rc><c>   2</c><c>Pt</c><c>    195.08000000</c><c>     10.00000000</c><c> PAW_PBE Pt 05Jan2001                   </c></rc>
   </set>
  </array>
 </atominfo>
 <structure name="initialpos" >
  <crystal>
   <varray name="basis" >
    <v>       3.00000000       0.00000000       0.00000000 </v>
    <v>       0.00000000       3.00000000       0.00000000 </v>
    <v>       0.00000000       0.00000000       3.00000000 </v>
   </varray>
   <i name="volume">     27.00000000 </i>
   <varray name="rec_basis" >
    <v>       0.33333333       0.00000000       0.00000000 </v>
    <v>       0.00000000       0.33333333       0.00000000 </v>
    <v>       0.00000000       0.00000000       0.33333333 </v>
   </varray>
  </crystal>
  <varray name="positions" >
   <v>       0.00000000       0.00000000       0.00000000 </v>
   <v>       0.50000000       0.50000000       0.50000000 </v>
  </varray>
 </structure>
 <calculation>
  <scstep>
   <time name="dav">    0.17    0.17</time>
   <time name="total">    0.19    0.21</time>
   <energy>
    <i name="alphaZ">    215.54856296 </i>
    <i name="ewald">  -1746.80624722 </i>
    <i name="hartreedc">   -123.90370025 </i>
    <i name="XCdc">      8.61393236 </i>
    <i name="pawpsdc">   1146.49098650 </i>
    <i name="pawaedc">  -1089.92424116 </i>
    <i name="eentropy">      0.00000000 </i>
    <i name="bandstr">    334.76981862 </i>
    <i name="atom">   1458.22633362 </i>
    <i name="e_fr_energy">    203.01544543 </i>
    <i name="e_wo_entrp">    203.01544543 </i>
    <i name="e_0_energy">    203.01544543 </i>
   </energy>
  </scstep>
  <scstep>
   <time name="dav">    0.16    0.16</time>
   <time name="total">    0.17    0.18</time>
   <energy>
    <i name="e_fr_energy">     -4.84786718 </i>
    <i name="e_wo_entrp">     -4.84786718 </i>
    <i name="e_0_energy">     -4.84786718 </i>
   </energy>
  </scstep>
  <scstep>
   <time name="dav">    0.20    0.20</time>
   <time name="total">    0.21    0.21</time>
   <energy>
    <i name="e_fr_energy">    -11.70466629 </i>
    <i name="e_wo_entrp">    -11.70466629 </i>
    <i name="e_0_energy">    -11.70466629 </i>
   </energy>
  </scstep>
  <scstep>
   <time name="dav">    0.18    0.18</time>
   <time name="total">    0.19    0.19</time>
   <energy>
    <i name="e_fr_energy">    -11.79430546 </i>
    <i name="e_wo_entrp">    -11.79430546 </i>
    <i name="e_0_energy">    -11.79430546 </i>
   </energy>
  </scstep>
  <scstep>
   <time name="dav">    0.20    0.20</time>
   <time name="total">    0.22    0.22</time>
   <energy>
    <i name="e_fr_energy">    -11.79675615 </i>
    <i name="e_wo_entrp">    -11.79675615 </i>
    <i name="e_0_energy">    -11.79675615 </i>
   </energy>
  </scstep>
  <scstep>
   <time name="diag">    0.02    0.02</time>
   <time name="diis">    0.09    0.09</time>
   <time name="orth">    0.00    0.00</time>
   <time name="total">    0.15    0.15</time>
   <energy>
    <i name="e_fr_energy">    -11.25751206 </i>
    <i name="e_wo_entrp">    -11.25751206 </i>
    <i name="e_0_energy">    -11.25751206 </i>
   </energy>
  </scstep>
  <scstep>
   <time name="diag">    0.02    0.02</time>
   <time name="diis">    0.10    0.09</time>
   <time name="orth">    0.00    0.00</time>
   <time name="total">    0.15    0.15</time>
   <energy>
    <i name="e_fr_energy">    -11.16548211 </i>
    <i name="e_wo_entrp">    -11.16548211 </i>
    <i name="e_0_energy">    -11.16548211 </i>
   </energy>
  </scstep>
  <scstep>
   <time name="diag">    0.02    0.02</time>
   <time name="diis">    0.10    0.10</time>
   <time name="orth">    0.00    0.00</time>
   <time name="total">    0.15    0.15</time>
   <energy>
    <i name="e_fr_energy">    -11.15621937 </i>
    <i name="e_wo_entrp">    -11.15621937 </i>
    <i name="e_0_energy">    -11.15621937 </i>
   </energy>
  </scstep>
  <scstep>
   <time name="diag">    0.02    0.02</time>
   <time name="diis">    0.10    0.10</time>
   <time name="orth">    0.00    0.00</time>
   <time name="total">    0.16    0.16</time>
   <energy>
    <i name="e_fr_energy">    -11.15626277 </i>
    <i name="e_wo_entrp">    -11.15626277 </i>
    <i name="e_0_energy">    -11.15626277 </i>
   </energy>
  </scstep>
  <scstep>
   <time name="diag">    0.02    0.02</time>
   <time name="diis">    0.09    0.09</time>
   <time name="orth">    0.00    0.00</time>
   <time name="total">    0.13    0.14</time>
   <energy>
    <i name="alphaZ">    215.54856296 </i>
    <i name="ewald">  -1746.80624722 </i>
    <i name="hartreedc">   -106.24136911 </i>
    <i name="XCdc">      8.01417870 </i>
    <i name="pawpsdc">   1266.55228328 </i>
    <i name="pawaedc">  -1216.53098394 </i>
    <i name="eentropy">      0.00000000 </i>
    <i name="bandstr">    110.08096906 </i>
    <i name="atom">   1458.22633362 </i>
    <i name="e_fr_energy">    -11.15627265 </i>
    <i name="e_wo_entrp">    -11.15627265 </i>
    <i name="e_0_energy">    -11.15627265 </i>
   </energy>
  </scstep>
  <structure>
   <crystal>
    <varray name="basis" >
     <v>       3.00000000       0.00000000       0.00000000 </v>
     <v>       0.00000000       3.00000000       0.00000000 </v>
     <v>       0.00000000       0.00000000       3.00000000 </v>
    </varray>
    <i name="volume">     27.00000000 </i>
    <varray name="rec_basis" >
     <v>       0.33333333       0.00000000       0.00000000 </v>
     <v>       0.00000000       0.33333333       0.00000000 </v>
     <v>       0.00000000       0.00000000       0.33333333 </v>
    </varray>
   </crystal>
   <varray name="positions" >
    <v>       0.00000000       0.00000000       0.00000000 </v>
    <v>       0.50000000       0.50000000       0.50000000 </v>
   </varray>
  </structure>
  <varray name="forces" >
   <v>      -0.00000000      -0.00000000      -0.00000000 </v>
   <v>       0.00000000       0.00000000       0.00000000 </v>
  </varray>
  <varray name="stress" >
   <v>     611.26436108       0.00000000      -0.00000000 </v>
   <v>       0.00000000     611.26436108       0.00000000 </v>
   <v>      -0.00000000       0.00000000     611.26436108 </v>
  </varray>
  <energy>
   <i name="e_fr_energy">    -11.15627265 </i>
   <i name="e_wo_entrp">    -11.15627265 </i>
   <i name="e_0_energy">      0.00000000 </i>
  </energy>
  <time name="totalsc">    1.99    2.09</time>
  <eigenvalues>
   <array>
    <dimension dim="1">band</dimension>
    <dimension dim="2">kpoint</dimension>
    <dimension dim="3">spin</dimension>
    <field>eigene</field>
    <field>occ</field>
    <set>
     <set comment="spin 1">
      <set comment="kpoint 1">
       <r>   -1.7334    1.0000 </r>
       <r>    1.6891    1.0000 </r>
       <r>    1.6891    1.0000 </r>
       <r>    5.0615    1.0000 </r>
       <r>    5.0615    1.0000 </r>
       <r>    5.0615    1.0000 </r>
       <r>    8.2038    1.0000 </r>
       <r>    8.2038    1.0000 </r>
       <r>   10.2258    0.0398 </r>
       <r>   10.2258   -0.2406 </r>
       <r>   10.2258    0.0000 </r>
       <r>   17.7292    0.0000 </r>
       <r>   17.7292    0.0000 </r>
       <r>   17.7292    0.0000 </r>
      </set>
      <set comment="kpoint 2">
       <r>   -1.4390    1.0000 </r>
       <r>    1.8357    1.0000 </r>
       <r>    1.9031    1.0000 </r>
       <r>    5.0646    1.0000 </r>
       <r>    5.0646    1.0000 </r>
       <r>    5.1858    1.0000 </r>
       <r>    7.9243    1.0000 </r>
       <r>    8.3077    1.0000 </r>
       <r>    9.6520    0.7846 </r>
       <r>    9.6520    0.5938 </r>
       <r>   10.0238   -0.0006 </r>
       <r>   16.3778    0.0000 </r>
       <r>   18.6428    0.0000 </r>
       <r>   18.6428    0.0000 </r>
      </set>
      <set comment="kpoint 3">
       <r>   -0.5956    1.0000 </r>
       <r>    2.2691    1.0000 </r>
       <r>    2.4507    1.0000 </r>
       <r>    5.1095    1.0000 </r>
       <r>    5.1095    1.0000 </r>
       <r>    5.5516    1.0000 </r>
       <r>    7.1675    1.0000 </r>
       <r>    8.4687    1.0000 </r>
       <r>    8.4687    1.0007 </r>
       <r>    8.5828    1.0292 </r>
       <r>    9.4658    0.2675 </r>
       <r>   13.8919    0.0000 </r>
       <r>   20.8281    0.0000 </r>
       <r>   20.8281    0.0000 </r>
      </set>
      <set comment="kpoint 4">
       <r>    0.6622    1.0000 </r>
       <r>    2.9681    1.0000 </r>
       <r>    3.0048    1.0000 </r>
       <r>    5.2801    1.0000 </r>
       <r>    5.2801    1.0000 </r>
       <r>    6.1205    1.0000 </r>
       <r>    6.1361    1.0000 </r>
       <r>    7.2835    1.0000 </r>
       <r>    7.2835    1.0000 </r>
       <r>    8.6697    1.0000 </r>
       <r>    8.9312    1.0799 </r>
       <r>   11.5732    0.0000 </r>
       <r>   23.6166    0.0000 </r>
       <r>   23.6166    0.0000 </r>
      </set>
      <set comment="kpoint 5">
       <r>    2.0399    1.0000 </r>
       <r>    2.9784    1.0000 </r>
       <r>    3.8931    1.0000 </r>
       <r>    4.9783    1.0000 </r>
       <r>    5.6658    1.0000 </r>
       <r>    5.6658    1.0000 </r>
       <r>    6.3287    1.0000 </r>
       <r>    6.3287    1.0000 </r>
       <r>    6.8981    1.0000 </r>
       <r>    7.7733    1.0000 </r>
       <r>    9.3043    1.0000 </r>
       <r>   10.0086    0.0000 </r>
       <r>   25.2636    0.0000 </r>
       <r>   25.8687    0.0000 </r>
      </set>
      <set comment="kpoint 6">
       <r>   -1.1575    1.0000 </r>
       <r>    1.9986    1.0000 </r>
       <r>    2.0924    1.0000 </r>
       <r>    4.8139    1.0000 </r>
       <r>    5.0469    1.0000 </r>
       <r>    5.5678    1.0000 </r>
       <r>    7.9042    1.0000 </r>
       <r>    8.2243    1.0000 </r>
       <r>    8.8020    1.0171 </r>
       <r>    9.0824    1.0088 </r>
       <r>   10.3045   -0.0010 </r>
       <r>   17.2273    0.0000 </r>
       <r>   17.2631    0.0000 </r>
       <r>   19.3381    0.0000 </r>
      </set>
      <set comment="kpoint 7">
       <r>   -0.3598    1.0000 </r>
       <r>    2.3894    1.0000 </r>
       <r>    2.6460    1.0000 </r>
       <r>    4.6610    1.0000 </r>
       <r>    5.0398    1.0000 </r>
       <r>    6.1382    1.0000 </r>
       <r>    7.3699    1.0000 </r>
       <r>    7.5927    1.0000 </r>
       <r>    7.9716    1.0008 </r>
       <r>    8.4651    1.0058 </r>
       <r>   10.0850   -0.0639 </r>
       <r>   14.6601    0.0000 </r>
       <r>   19.2109    0.0000 </r>
       <r>   21.1787    0.0000 </r>
      </set>
      <set comment="kpoint 8">
       <r>    0.7995    1.0000 </r>
       <r>    2.8999    1.0000 </r>
       <r>    3.2760    1.0000 </r>
       <r>    4.7045    1.0000 </r>
       <r>    5.0660    1.0000 </r>
       <r>    6.4700    1.0000 </r>
       <r>    6.6321    1.0000 </r>
       <r>    6.8490    1.0000 </r>
       <r>    7.0352    1.0000 </r>
       <r>    8.8455    1.0000 </r>
       <r>    9.4319    0.5679 </r>
       <r>   12.1540    0.0000 </r>
       <r>   21.4223    0.0000 </r>
       <r>   23.7205    0.0000 </r>
      </set>
      <set comment="kpoint 9">
       <r>    2.0246    1.0000 </r>
       <r>    2.8799    1.0000 </r>
       <r>    3.9789    1.0000 </r>
       <r>    4.7512    1.0000 </r>
       <r>    5.0005    1.0000 </r>
       <r>    5.5880    1.0000 </r>
       <r>    6.3418    1.0000 </r>
       <r>    6.5695    1.0000 </r>
       <r>    7.6799    1.0000 </r>
       <r>    8.5753    1.0000 </r>
       <r>    9.2990    0.8939 </r>
       <r>   10.2666    0.0000 </r>
       <r>   23.1754    0.0000 </r>
       <r>   24.6115    0.0000 </r>
      </set>
      <set comment="kpoint 10">
       <r>    0.2709    1.0000 </r>
       <r>    2.5694    1.0000 </r>
       <r>    3.2740    1.0000 </r>
       <r>    4.2335    1.0000 </r>
       <r>    5.0165    1.0000 </r>
       <r>    6.3868    1.0000 </r>
       <r>    6.9918    1.0000 </r>
       <r>    7.1343    1.0000 </r>
       <r>    7.6345    1.0000 </r>
       <r>    8.3143    1.0056 </r>
       <r>   10.5079   -0.0246 </r>
       <r>   15.7477    0.0000 </r>
       <r>   16.9820    0.0000 </r>
       <r>   22.2841    0.0000 </r>
      </set>
      <set comment="kpoint 11">
       <r>    1.0753    1.0000 </r>
       <r>    2.6228    1.0000 </r>
       <r>    4.0454    1.0000 </r>
       <r>    4.0720    1.0000 </r>
       <r>    5.2109    1.0000 </r>
       <r>    5.3466    1.0000 </r>
       <r>    6.7575    1.0000 </r>
       <r>    7.4113    1.0000 </r>
       <r>    7.9158    1.0000 </r>
       <r>    8.6232    1.0301 </r>
       <r>   10.3347   -0.0794 </r>
       <r>   13.2874    0.0000 </r>
       <r>   18.5465    0.0000 </r>
       <r>   24.1467    0.0000 </r>
      </set>
      <set comment="kpoint 12">
       <r>    1.8051    1.0000 </r>
       <r>    2.3524    1.0000 </r>
       <r>    4.1536    1.0000 </r>
       <r>    4.5878    1.0000 </r>
       <r>    4.7636    1.0000 </r>
       <r>    5.2360    1.0000 </r>
       <r>    7.0277    1.0000 </r>
       <r>    7.2835    1.0000 </r>
       <r>    8.8526    1.0000 </r>
       <r>    9.2725    0.9605 </r>
       <r>    9.7109    0.0364 </r>
       <r>   10.8585    0.0000 </r>
       <r>   20.4104    0.0000 </r>
       <r>   22.3134    0.0000 </r>
      </set>
      <set comment="kpoint 13">
       <r>    1.2838    1.0000 </r>
       <r>    2.1927    1.0000 </r>
       <r>    3.6387    1.0000 </r>
       <r>    4.4270    1.0000 </r>
       <r>    5.1505    1.0000 </r>
       <r>    6.0436    1.0000 </r>
       <r>    6.9047    1.0000 </r>
       <r>    7.8950    1.0000 </r>
       <r>    8.4888    1.0000 </r>
       <r>    8.9800    1.0452 </r>
       <r>   10.7464    0.0000 </r>
       <r>   13.2998    0.0000 </r>
       <r>   17.1067    0.0000 </r>
       <r>   22.2058    0.0000 </r>
      </set>
      <set comment="kpoint 14">
       <r>    1.4713    1.0000 </r>
       <r>    1.7696    1.0000 </r>
       <r>    3.5527    1.0000 </r>
       <r>    3.8162    1.0000 </r>
       <r>    6.1061    1.0000 </r>
       <r>    6.5973    1.0000 </r>
       <r>    7.4727    1.0000 </r>
       <r>    7.9642    1.0000 </r>
       <r>    9.1628    1.0000 </r>
       <r>    9.9145    0.0247 </r>
       <r>   10.5655    0.0000 </r>
       <r>   11.2093    0.0000 </r>
       <r>   18.1254    0.0000 </r>
       <r>   19.9390    0.0000 </r>
      </set>
      <set comment="kpoint 15">
       <r>    1.2949    1.0000 </r>
       <r>    1.3911    1.0000 </r>
       <r>    3.2808    1.0000 </r>
       <r>    3.3689    1.0000 </r>
       <r>    7.5740    1.0000 </r>
       <r>    7.8370    1.0000 </r>
       <r>    7.8829    1.0000 </r>
       <r>    8.6513    1.0000 </r>
       <r>    8.8026    1.0000 </r>
       <r>   10.4508   -0.1305 </r>
       <r>   10.6590    0.0000 </r>
       <r>   10.9065    0.0000 </r>
       <r>   17.2638    0.0000 </r>
       <r>   18.0584    0.0000 </r>
      </set>
      <set comment="kpoint 16">
       <r>   -0.8841    1.0000 </r>
       <r>    2.2191    1.0000 </r>
       <r>    2.2191    1.0000 </r>
       <r>    4.7838    1.0000 </r>
       <r>    4.7838    1.0000 </r>
       <r>    5.9705    1.0000 </r>
       <r>    7.7249    1.0000 </r>
       <r>    8.0359    1.0000 </r>
       <r>    8.0359    1.0202 </r>
       <r>    9.7384    0.7910 </r>
       <r>    9.7384    0.0090 </r>
       <r>   17.5270    0.0000 </r>
       <r>   18.1441    0.0000 </r>
       <r>   18.1441    0.0000 </r>
      </set>
      <set comment="kpoint 17">
       <r>   -0.1172    1.0000 </r>
       <r>    2.5873    1.0000 </r>
       <r>    2.7688    1.0000 </r>
       <r>    4.5583    1.0000 </r>
       <r>    4.7165    1.0000 </r>
       <r>    6.5162    1.0000 </r>
       <r>    6.6647    1.0000 </r>
       <r>    7.5299    1.0000 </r>
       <r>    8.3698    1.0002 </r>
       <r>    8.5975    1.0089 </r>
       <r>    9.8186    0.0115 </r>
       <r>   15.3562    0.0000 </r>
       <r>   19.0452    0.0000 </r>
       <r>   20.1996    0.0000 </r>
      </set>
      <set comment="kpoint 18">
       <r>    0.9700    1.0000 </r>
       <r>    3.1549    1.0000 </r>
       <r>    3.2150    1.0000 </r>
       <r>    4.6212    1.0000 </r>
       <r>    4.6267    1.0000 </r>
       <r>    5.6822    1.0000 </r>
       <r>    6.8986    1.0000 </r>
       <r>    7.4892    1.0000 </r>
       <r>    7.5076    1.0000 </r>
       <r>    8.7821    1.0000 </r>
       <r>    9.3430    0.5672 </r>
       <r>   12.8380    0.0000 </r>
       <r>   20.7362    0.0000 </r>
       <r>   22.6930    0.0000 </r>
      </set>
      <set comment="kpoint 19">
       <r>    2.0821    1.0000 </r>
       <r>    2.9348    1.0000 </r>
       <r>    3.8236    1.0000 </r>
       <r>    4.3804    1.0000 </r>
       <r>    5.0026    1.0000 </r>
       <r>    5.3834    1.0000 </r>
       <r>    6.5194    1.0000 </r>
       <r>    6.7482    1.0000 </r>
       <r>    8.2482    1.0000 </r>
       <r>    8.7368    1.0000 </r>
       <r>    9.4051    0.5878 </r>
       <r>   10.7717    0.0000 </r>
       <r>   22.3368    0.0000 </r>
       <r>   23.9325    0.0000 </r>
      </set>
      <set comment="kpoint 20">
       <r>    0.5286    1.0000 </r>
       <r>    2.8303    1.0000 </r>
       <r>    3.3381    1.0000 </r>
       <r>    4.1809    1.0000 </r>
       <r>    4.6025    1.0000 </r>
       <r>    5.4017    1.0000 </r>
       <r>    7.5801    1.0000 </r>
       <r>    7.7631    1.0000 </r>
       <r>    8.0587    1.0000 </r>
       <r>    8.2599    1.0052 </r>
       <r>    9.9364   -0.0125 </r>
       <r>   16.5950    0.0000 </r>
       <r>   16.9469    0.0000 </r>
       <r>   20.8576    0.0000 </r>
      </set>
      <set comment="kpoint 21">
       <r>    1.3258    1.0000 </r>
       <r>    2.8787    1.0000 </r>
       <r>    3.9516    1.0000 </r>
       <r>    3.9984    1.0000 </r>
       <r>    4.7464    1.0000 </r>
       <r>    4.8661    1.0000 </r>
       <r>    7.3699    1.0000 </r>
       <r>    7.4934    1.0000 </r>
       <r>    8.4893    1.0000 </r>
       <r>    8.7308    1.0257 </r>
       <r>    9.7607    0.0155 </r>
       <r>   14.0669    0.0000 </r>
       <r>   18.4378    0.0000 </r>
       <r>   22.5068    0.0000 </r>
      </set>
      <set comment="kpoint 22">
       <r>    1.9997    1.0000 </r>
       <r>    2.5362    1.0000 </r>
       <r>    4.0215    1.0000 </r>
       <r>    4.0664    1.0000 </r>
       <r>    5.0494    1.0000 </r>
       <r>    5.0603    1.0000 </r>
       <r>    7.1936    1.0000 </r>
       <r>    7.2614    1.0000 </r>
       <r>    8.7744    1.0000 </r>
       <r>    9.1932    1.0027 </r>
       <r>   10.0284   -0.0512 </r>
       <r>   11.7784    0.0000 </r>
       <r>   20.1396    0.0000 </r>
       <r>   22.0700    0.0000 </r>
      </set>
      <set comment="kpoint 23">
       <r>    1.5729    1.0000 </r>
       <r>    2.4103    1.0000 </r>
       <r>    3.6088    1.0000 </r>
       <r>    4.1657    1.0000 </r>
       <r>    5.0928    1.0000 </r>
       <r>    5.4518    1.0000 </r>
       <r>    7.2917    1.0000 </r>
       <r>    7.9104    1.0000 </r>
       <r>    8.4937    1.0000 </r>
       <r>    9.8067    0.4958 </r>
       <r>   10.0244   -0.0006 </r>
       <r>   14.3401    0.0000 </r>
       <r>   16.9150    0.0000 </r>
       <r>   22.1078    0.0000 </r>
      </set>
      <set comment="kpoint 24">
       <r>    1.7297    1.0000 </r>
       <r>    1.9890    1.0000 </r>
       <r>    3.5274    1.0000 </r>
       <r>    3.7388    1.0000 </r>
       <r>    5.9755    1.0000 </r>
       <r>    6.1933    1.0000 </r>
       <r>    7.6134    1.0000 </r>
       <r>    7.9042    1.0000 </r>
       <r>    8.8078    1.0000 </r>
       <r>    9.5857    0.5640 </r>
       <r>   11.0256    0.0000 </r>
       <r>   12.5827    0.0000 </r>
       <r>   17.9419    0.0000 </r>
       <r>   19.7763    0.0000 </r>
      </set>
      <set comment="kpoint 25">
       <r>    1.5639    1.0000 </r>
       <r>    1.6421    1.0000 </r>
       <r>    3.2772    1.0000 </r>
       <r>    3.3596    1.0000 </r>
       <r>    7.2546    1.0000 </r>
       <r>    7.5569    1.0000 </r>
       <r>    7.9469    1.0000 </r>
       <r>    8.1582    1.0000 </r>
       <r>    8.6630    1.0000 </r>
       <r>    9.3408    0.7362 </r>
       <r>   11.8948    0.0000 </r>
       <r>   12.5650    0.0000 </r>
       <r>   17.0348    0.0000 </r>
       <r>   17.8638    0.0000 </r>
      </set>
      <set comment="kpoint 26">
       <r>    1.2073    1.0000 </r>
       <r>    3.5059    1.0000 </r>
       <r>    3.5059    1.0000 </r>
       <r>    4.0636    1.0000 </r>
       <r>    4.0636    1.0000 </r>
       <r>    4.3024    1.0000 </r>
       <r>    8.0931    1.0000 </r>
       <r>    8.0931    1.0000 </r>
       <r>    8.7006    1.0000 </r>
       <r>    8.8933    1.0045 </r>
       <r>    8.8933    0.8237 </r>
       <r>   16.8917    0.0000 </r>
       <r>   18.4383    0.0000 </r>
       <r>   18.4383    0.0000 </r>
      </set>
      <set comment="kpoint 27">
       <r>    1.9409    1.0000 </r>
       <r>    3.2915    1.0000 </r>
       <r>    3.7050    1.0000 </r>
       <r>    3.9594    1.0000 </r>
       <r>    4.0366    1.0000 </r>
       <r>    4.5182    1.0000 </r>
       <r>    7.8404    1.0000 </r>
       <r>    8.0425    1.0000 </r>
       <r>    8.4939    1.0000 </r>
       <r>    9.0965    1.0038 </r>
       <r>    9.9359   -0.0002 </r>
       <r>   15.3554    0.0000 </r>
       <r>   17.9917    0.0000 </r>
       <r>   20.5290    0.0000 </r>
      </set>
      <set comment="kpoint 28">
       <r>    2.3373    1.0000 </r>
       <r>    2.7001    1.0000 </r>
       <r>    3.8438    1.0000 </r>
       <r>    3.9031    1.0000 </r>
       <r>    4.6628    1.0000 </r>
       <r>    5.0246    1.0000 </r>
       <r>    7.6152    1.0000 </r>
       <r>    7.6200    1.0000 </r>
       <r>    8.7350    1.0000 </r>
       <r>    8.8865    1.0209 </r>
       <r>   11.3532   -0.0158 </r>
       <r>   13.1504    0.0000 </r>
       <r>   19.2007    0.0000 </r>
       <r>   21.1514    0.0000 </r>
      </set>
      <set comment="kpoint 29">
       <r>    2.3845    1.0000 </r>
       <r>    2.7996    1.0000 </r>
       <r>    3.5603    1.0000 </r>
       <r>    3.9626    1.0000 </r>
       <r>    4.4345    1.0000 </r>
       <r>    4.8889    1.0000 </r>
       <r>    8.0095    1.0000 </r>
       <r>    8.1372    1.0000 </r>
       <r>    8.4916    1.0000 </r>
       <r>    9.0851    1.0158 </r>
       <r>   11.2812   -0.0127 </r>
       <r>   16.2331    0.0000 </r>
       <r>   16.4784    0.0000 </r>
       <r>   20.5787    0.0000 </r>
      </set>
      <set comment="kpoint 30">
       <r>    2.3887    1.0000 </r>
       <r>    2.4610    1.0000 </r>
       <r>    3.5500    1.0000 </r>
       <r>    3.7489    1.0000 </r>
       <r>    5.2559    1.0000 </r>
       <r>    5.4949    1.0000 </r>
       <r>    7.9946    1.0000 </r>
       <r>    8.0849    1.0000 </r>
       <r>    8.6966    1.0000 </r>
       <r>    8.9244    1.0255 </r>
       <r>   12.6569    0.0000 </r>
       <r>   14.2968    0.0000 </r>
       <r>   17.5423    0.0000 </r>
       <r>   19.3221    0.0000 </r>
      </set>
      <set comment="kpoint 31">
       <r>    2.2913    1.0000 </r>
       <r>    2.3018    1.0000 </r>
       <r>    3.3019    1.0000 </r>
       <r>    3.4160    1.0000 </r>
       <r>    6.2305    1.0000 </r>
       <r>    6.3103    1.0000 </r>
       <r>    8.2246    1.0000 </r>
       <r>    8.2939    1.0000 </r>
       <r>    8.6911    1.0000 </r>
       <r>    8.8415    1.0257 </r>
       <r>   13.7816    0.0000 </r>
       <r>   14.6780    0.0000 </r>
       <r>   16.4504    0.0000 </r>
       <r>   17.4145    0.0000 </r>
      </set>
      <set comment="kpoint 32">
       <r>    2.7681    1.0000 </r>
       <r>    3.5079    1.0000 </r>
       <r>    3.5836    1.0000 </r>
       <r>    3.5836    1.0000 </r>
       <r>    4.5200    1.0000 </r>
       <r>    4.5200    1.0000 </r>
       <r>    8.4568    1.0000 </r>
       <r>    8.4568    1.0000 </r>
       <r>    8.5483    1.0000 </r>
       <r>    8.5483    1.0000 </r>
       <r>   12.7643   -0.0059 </r>
       <r>   16.1168    0.0000 </r>
       <r>   18.2881    0.0000 </r>
       <r>   18.2881    0.0000 </r>
      </set>
      <set comment="kpoint 33">
       <r>    2.7335    1.0000 </r>
       <r>    2.9834    1.0000 </r>
       <r>    3.7552    1.0000 </r>
       <r>    4.0918    1.0000 </r>
       <r>    4.6063    1.0000 </r>
       <r>    5.0009    1.0000 </r>
       <r>    8.3795    1.0000 </r>
       <r>    8.3966    1.0000 </r>
       <r>    8.6808    1.0000 </r>
       <r>    8.7255    1.0000 </r>
       <r>   14.1361    0.0000 </r>
       <r>   15.4946    0.0000 </r>
       <r>   17.3128    0.0000 </r>
       <r>   18.4986    0.0000 </r>
      </set>
      <set comment="kpoint 34">
       <r>    2.9391    1.0000 </r>
       <r>    3.2625    1.0000 </r>
       <r>    3.4388    1.0000 </r>
       <r>    3.8067    1.0000 </r>
       <r>    5.0835    1.0000 </r>
       <r>    5.2413    1.0000 </r>
       <r>    8.5378    1.0000 </r>
       <r>    8.5545    1.0000 </r>
       <r>    8.7196    1.0000 </r>
       <r>    8.7398    1.0000 </r>
       <r>   15.2201    0.0000 </r>
       <r>   15.7738    0.0000 </r>
       <r>   16.9038    0.0000 </r>
       <r>   17.3116    0.0000 </r>
      </set>
      <set comment="kpoint 35">
       <r>    3.3765    1.0000 </r>
       <r>    3.7757    1.0000 </r>
       <r>    3.7757    1.0000 </r>
       <r>    4.3722    1.0000 </r>
       <r>    4.3722    1.0000 </r>
       <r>    4.4840    1.0000 </r>
       <r>    8.7328    1.0000 </r>
       <r>    8.7328    1.0000 </r>
       <r>    8.7340    1.0000 </r>
       <r>    8.7340    1.0000 </r>
       <r>   15.3412    0.0000 </r>
       <r>   15.3454    0.0000 </r>
       <r>   18.2149    0.0000 </r>
       <r>   19.1208    0.0000 </r>
      </set>
     </set>
    </set>
   </array>
  </eigenvalues>
  <separator name="orbital magnetization" >
   <v name="MAGDIPOLOUT">      0.00000000      0.00000000      0.00000000</v>
  </separator>
  <dos>
   <i name="efermi">      9.51432729 </i>
   <total>
    <array>
     <dimension dim="1">gridpoints</dimension>
     <dimension dim="2">spin</dimension>
     <field>energy</field>
     <field>total</field>
     <field>integrated</field>
     <set>
      <set comment="spin 1">
       <r>    -3.7334     0.0000     0.0000 </r>
       <r>    -3.6281     0.0000     0.0000 </r>
       <r>    -3.5227     0.0000     0.0000 </r>
       <r>    -3.4174     0.0000     0.0000 </r>
       <r>    -3.3120     0.0000     0.0000 </r>
       <r>    -3.2067     0.0000     0.0000 </r>
       <r>    -3.1014     0.0000     0.0000 </r>
       <r>    -2.9960     0.0000     0.0000 </r>
       <r>    -2.8907     0.0000     0.0000 </r>
       <r>    -2.7853     0.0000     0.0000 </r>
       <r>    -2.6800     0.0000     0.0000 </r>
       <r>    -2.5747     0.0000     0.0000 </r>
       <r>    -2.4693     0.0000     0.0000 </r>
       <r>    -2.3640     0.0000     0.0000 </r>
       <r>    -2.2586     0.0000     0.0000 </r>
       <r>    -2.1533     0.0000     0.0000 </r>
       <r>    -2.0480     0.0000     0.0000 </r>
       <r>    -1.9426     0.0000     0.0000 </r>
       <r>    -1.8373     0.0000     0.0000 </r>
       <r>    -1.7319     0.0000     0.0000 </r>
       <r>    -1.6266     0.0051     0.0002 </r>
       <r>    -1.5213     0.0200     0.0014 </r>
       <r>    -1.4159     0.0447     0.0047 </r>
       <r>    -1.3106     0.0667     0.0107 </r>
       <r>    -1.2052     0.0783     0.0184 </r>
       <r>    -1.0999     0.0812     0.0268 </r>
       <r>    -0.9946     0.0866     0.0357 </r>
       <r>    -0.8892     0.0964     0.0453 </r>
       <r>    -0.7839     0.1089     0.0561 </r>
       <r>    -0.6785     0.1220     0.0682 </r>
       <r>    -0.5732     0.1357     0.0818 </r>
       <r>    -0.4679     0.1461     0.0967 </r>
       <r>    -0.3625     0.1516     0.1124 </r>
       <r>    -0.2572     0.1605     0.1288 </r>
       <r>    -0.1518     0.1718     0.1463 </r>
       <r>    -0.0465     0.1834     0.1650 </r>
       <r>     0.0588     0.1946     0.1849 </r>
       <r>     0.1642     0.2058     0.2060 </r>
       <r>     0.2695     0.2171     0.2283 </r>
       <r>     0.3749     0.2309     0.2519 </r>
       <r>     0.4802     0.2496     0.2771 </r>
       <r>     0.5855     0.2728     0.3046 </r>
       <r>     0.6909     0.2982     0.3347 </r>
       <r>     0.7962     0.3238     0.3674 </r>
       <r>     0.9016     0.3492     0.4029 </r>
       <r>     1.0069     0.3744     0.4410 </r>
       <r>     1.1122     0.4180     0.4821 </r>
       <r>     1.2176     0.5022     0.5305 </r>
       <r>     1.3229     0.7401     0.5913 </r>
       <r>     1.4283     1.1864     0.6908 </r>
       <r>     1.5336     1.4990     0.8350 </r>
       <r>     1.6389     1.5248     0.9958 </r>
       <r>     1.7443     1.4692     1.1501 </r>
       <r>     1.8496     1.6660     1.3145 </r>
       <r>     1.9550     1.8776     1.5015 </r>
       <r>     2.0603     2.3273     1.7497 </r>
       <r>     2.1656     1.7063     1.9342 </r>
       <r>     2.2710     1.8192     2.1191 </r>
       <r>     2.3763     2.4068     2.3269 </r>
       <r>     2.4817     2.3625     2.5605 </r>
       <r>     2.5870     2.7723     2.8331 </r>
       <r>     2.6923     2.7497     3.1283 </r>
       <r>     2.7977     2.6209     3.4114 </r>
       <r>     2.9030     3.3902     3.6941 </r>
       <r>     3.0084     1.6390     3.9495 </r>
       <r>     3.1137     1.1285     4.0919 </r>
       <r>     3.2190     0.9285     4.1991 </r>
       <r>     3.3244     1.5292     4.3457 </r>
       <r>     3.4297     2.4429     4.5849 </r>
       <r>     3.5351     3.4294     4.8859 </r>
       <r>     3.6404     3.9668     5.3262 </r>
       <r>     3.7458     3.4853     5.7139 </r>
       <r>     3.8511     4.0219     6.1050 </r>
       <r>     3.9564     4.3600     6.5529 </r>
       <r>     4.0618     2.9381     6.9723 </r>
       <r>     4.1671     1.8032     7.2083 </r>
       <r>     4.2725     1.5544     7.3829 </r>
       <r>     4.3778     1.4688     7.5464 </r>
       <r>     4.4831     1.6196     7.7080 </r>
       <r>     4.5885     1.9964     7.8996 </r>
       <r>     4.6938     2.9231     8.1673 </r>
       <r>     4.7992     3.1938     8.4781 </r>
       <r>     4.9045     3.8055     8.8468 </r>
       <r>     5.0098     5.2201     9.2948 </r>
       <r>     5.1152     3.0043     9.7478 </r>
       <r>     5.2205     2.4381    10.0280 </r>
       <r>     5.3259     2.1207    10.2650 </r>
       <r>     5.4312     1.8976    10.4760 </r>
       <r>     5.5365     1.7067    10.6655 </r>
       <r>     5.6419     1.5489    10.8433 </r>
       <r>     5.7472     1.3573    10.9914 </r>
       <r>     5.8526     1.2858    11.1307 </r>
       <r>     5.9579     1.2068    11.2620 </r>
       <r>     6.0632     1.1069    11.3841 </r>
       <r>     6.1686     1.0237    11.4956 </r>
       <r>     6.2739     0.9430    11.5996 </r>
       <r>     6.3793     1.1132    11.7142 </r>
       <r>     6.4846     0.8987    11.8191 </r>
       <r>     6.5899     0.9847    11.9159 </r>
       <r>     6.6953     1.1171    12.0246 </r>
       <r>     6.8006     1.3450    12.1532 </r>
       <r>     6.9060     1.6334    12.3100 </r>
       <r>     7.0113     1.8573    12.4952 </r>
       <r>     7.1166     2.1019    12.7029 </r>
       <r>     7.2220     2.4006    12.9393 </r>
       <r>     7.3273     2.7411    13.2101 </r>
       <r>     7.4327     3.1438    13.5207 </r>
       <r>     7.5380     3.2797    13.8639 </r>
       <r>     7.6433     3.1385    14.2030 </r>
       <r>     7.7487     3.0671    14.5290 </r>
       <r>     7.8540     3.0764    14.8533 </r>
       <r>     7.9594     3.2988    15.2224 </r>
       <r>     8.0647     3.2484    15.5610 </r>
       <r>     8.1700     3.0898    15.8917 </r>
       <r>     8.2754     2.7815    16.2019 </r>
       <r>     8.3807     2.5535    16.4714 </r>
       <r>     8.4861     2.7854    16.7577 </r>
       <r>     8.5914     4.2187    17.1926 </r>
       <r>     8.6967    11.1262    17.7905 </r>
       <r>     8.8021     4.2551    18.5515 </r>
       <r>     8.9074     3.1004    18.8974 </r>
       <r>     9.0128     2.2909    19.1719 </r>
       <r>     9.1181     1.5764    19.3884 </r>
       <r>     9.2234     1.2685    19.5348 </r>
       <r>     9.3288     2.0477    19.6977 </r>
       <r>     9.4341     1.4567    19.8842 </r>
       <r>     9.5395     1.4207    20.0358 </r>
       <r>     9.6448     1.3824    20.1834 </r>
       <r>     9.7501     1.3666    20.3278 </r>
       <r>     9.8555     1.8011    20.4955 </r>
       <r>     9.9608     1.3716    20.6650 </r>
       <r>    10.0662     1.3022    20.8037 </r>
       <r>    10.1715     1.1649    20.9357 </r>
       <r>    10.2768     0.8847    21.0454 </r>
       <r>    10.3822     0.7144    21.1283 </r>
       <r>    10.4875     0.6095    21.1975 </r>
       <r>    10.5929     0.6307    21.2606 </r>
       <r>    10.6982     0.6785    21.3320 </r>
       <r>    10.8035     0.5913    21.3991 </r>
       <r>    10.9089     0.5302    21.4570 </r>
       <r>    11.0142     0.5175    21.5119 </r>
       <r>    11.1196     0.5366    21.5673 </r>
       <r>    11.2249     0.5577    21.6251 </r>
       <r>    11.3303     0.5459    21.6833 </r>
       <r>    11.4356     0.5365    21.7403 </r>
       <r>    11.5409     0.5279    21.7963 </r>
       <r>    11.6463     0.5195    21.8515 </r>
       <r>    11.7516     0.5111    21.9058 </r>
       <r>    11.8570     0.5010    21.9589 </r>
       <r>    11.9623     0.4940    22.0112 </r>
       <r>    12.0676     0.4925    22.0632 </r>
       <r>    12.1730     0.4909    22.1150 </r>
       <r>    12.2783     0.4892    22.1666 </r>
       <r>    12.3837     0.4874    22.2180 </r>
       <r>    12.4890     0.4857    22.2693 </r>
       <r>    12.5943     0.4702    22.3201 </r>
       <r>    12.6997     0.4669    22.3694 </r>
       <r>    12.8050     0.4655    22.4185 </r>
       <r>    12.9104     0.4637    22.4675 </r>
       <r>    13.0157     0.4616    22.5162 </r>
       <r>    13.1210     0.4591    22.5647 </r>
       <r>    13.2264     0.4573    22.6130 </r>
       <r>    13.3317     0.4753    22.6619 </r>
       <r>    13.4371     0.4695    22.7116 </r>
       <r>    13.5424     0.4641    22.7608 </r>
       <r>    13.6477     0.4589    22.8094 </r>
       <r>    13.7531     0.4541    22.8575 </r>
       <r>    13.8584     0.4519    22.9053 </r>
       <r>    13.9638     0.4471    22.9526 </r>
       <r>    14.0691     0.4425    22.9995 </r>
       <r>    14.1744     0.4327    23.0456 </r>
       <r>    14.2798     0.4259    23.0908 </r>
       <r>    14.3851     0.4273    23.1356 </r>
       <r>    14.4905     0.4311    23.1808 </r>
       <r>    14.5958     0.4349    23.2264 </r>
       <r>    14.7011     0.4471    23.2727 </r>
       <r>    14.8065     0.4502    23.3199 </r>
       <r>    14.9118     0.4520    23.3675 </r>
       <r>    15.0172     0.4525    23.4151 </r>
       <r>    15.1225     0.4517    23.4628 </r>
       <r>    15.2278     0.6829    23.5121 </r>
       <r>    15.3332     0.5266    23.5756 </r>
       <r>    15.4385     0.4803    23.6285 </r>
       <r>    15.5439     0.5466    23.6832 </r>
       <r>    15.6492     0.5402    23.7411 </r>
       <r>    15.7545     0.4648    23.7946 </r>
       <r>    15.8599     0.2683    23.8275 </r>
       <r>    15.9652     0.2378    23.8542 </r>
       <r>    16.0706     0.2066    23.8776 </r>
       <r>    16.1759     0.1695    23.8975 </r>
       <r>    16.2812     0.1314    23.9128 </r>
       <r>    16.3866     0.1190    23.9260 </r>
       <r>    16.4919     0.1959    23.9412 </r>
       <r>    16.5973     0.2508    23.9647 </r>
       <r>    16.7026     0.3032    23.9938 </r>
       <r>    16.8079     0.3670    24.0290 </r>
       <r>    16.9133     0.4714    24.0718 </r>
       <r>    17.0186     0.5986    24.1278 </r>
       <r>    17.1240     0.7743    24.2019 </r>
       <r>    17.2293     0.8710    24.2889 </r>
       <r>    17.3346     1.0395    24.3826 </r>
       <r>    17.4400     0.9640    24.4920 </r>
       <r>    17.5453     0.9046    24.5936 </r>
       <r>    17.6507     0.9126    24.6893 </r>
       <r>    17.7560     0.9206    24.7859 </r>
       <r>    17.8613     0.9251    24.8832 </r>
       <r>    17.9667     0.9738    24.9860 </r>
       <r>    18.0720     0.8519    25.0857 </r>
       <r>    18.1774     0.8103    25.1725 </r>
       <r>    18.2827     0.7756    25.2587 </r>
       <r>    18.3881     0.7416    25.3387 </r>
       <r>    18.4934     0.6954    25.4145 </r>
       <r>    18.5987     0.6570    25.4852 </r>
       <r>    18.7041     0.6444    25.5536 </r>
       <r>    18.8094     0.6346    25.6210 </r>
       <r>    18.9148     0.6249    25.6873 </r>
       <r>    19.0201     0.6152    25.7526 </r>
       <r>    19.1254     0.5749    25.8187 </r>
       <r>    19.2308     0.5490    25.8777 </r>
       <r>    19.3361     0.5309    25.9350 </r>
       <r>    19.4415     0.5290    25.9908 </r>
       <r>    19.5468     0.5276    26.0465 </r>
       <r>    19.6521     0.5267    26.1020 </r>
       <r>    19.7575     0.5262    26.1575 </r>
       <r>    19.8628     0.5217    26.2127 </r>
       <r>    19.9682     0.5180    26.2674 </r>
       <r>    20.0735     0.5188    26.3220 </r>
       <r>    20.1788     0.5097    26.3763 </r>
       <r>    20.2842     0.5172    26.4303 </r>
       <r>    20.3895     0.5237    26.4852 </r>
       <r>    20.4949     0.5278    26.5406 </r>
       <r>    20.6002     0.5084    26.6010 </r>
       <r>    20.7055     0.5051    26.6544 </r>
       <r>    20.8109     0.4974    26.7073 </r>
       <r>    20.9162     0.4892    26.7592 </r>
       <r>    21.0216     0.4826    26.8103 </r>
       <r>    21.1269     0.4753    26.8608 </r>
       <r>    21.2322     0.4689    26.9105 </r>
       <r>    21.3376     0.4638    26.9596 </r>
       <r>    21.4429     0.4594    27.0083 </r>
       <r>    21.5483     0.4551    27.0564 </r>
       <r>    21.6536     0.4512    27.1041 </r>
       <r>    21.7589     0.4479    27.1515 </r>
       <r>    21.8643     0.4449    27.1985 </r>
       <r>    21.9696     0.4425    27.2453 </r>
       <r>    22.0750     0.4314    27.2917 </r>
       <r>    22.1803     0.4674    27.3392 </r>
       <r>    22.2856     0.4581    27.3882 </r>
       <r>    22.3910     0.4376    27.4353 </r>
       <r>    22.4963     0.4255    27.4807 </r>
       <r>    22.6017     0.3834    27.5233 </r>
       <r>    22.7070     0.3607    27.5623 </r>
       <r>    22.8123     0.3470    27.5995 </r>
       <r>    22.9177     0.3329    27.6354 </r>
       <r>    23.0230     0.3184    27.6697 </r>
       <r>    23.1284     0.3034    27.7024 </r>
       <r>    23.2337     0.2761    27.7329 </r>
       <r>    23.3390     0.2602    27.7611 </r>
       <r>    23.4444     0.2441    27.7877 </r>
       <r>    23.5497     0.2276    27.8125 </r>
       <r>    23.6551     0.2123    27.8356 </r>
       <r>    23.7604     0.2035    27.8577 </r>
       <r>    23.8657     0.1831    27.8781 </r>
       <r>    23.9711     0.1642    27.8964 </r>
       <r>    24.0764     0.1455    27.9127 </r>
       <r>    24.1818     0.1255    27.9269 </r>
       <r>    24.2871     0.1088    27.9393 </r>
       <r>    24.3924     0.0947    27.9499 </r>
       <r>    24.4978     0.0834    27.9593 </r>
       <r>    24.6031     0.0749    27.9676 </r>
       <r>    24.7085     0.0557    27.9740 </r>
       <r>    24.8138     0.0479    27.9795 </r>
       <r>    24.9191     0.0407    27.9841 </r>
       <r>    25.0245     0.0339    27.9880 </r>
       <r>    25.1298     0.0276    27.9913 </r>
       <r>    25.2352     0.0217    27.9939 </r>
       <r>    25.3405     0.0170    27.9959 </r>
       <r>    25.4458     0.0129    27.9975 </r>
       <r>    25.5512     0.0092    27.9986 </r>
       <r>    25.6565     0.0058    27.9994 </r>
       <r>    25.7619     0.0027    27.9999 </r>
       <r>    25.8672     0.0000    28.0000 </r>
       <r>    25.9726     0.0000    28.0000 </r>
       <r>    26.0779     0.0000    28.0000 </r>
       <r>    26.1832     0.0000    28.0000 </r>
       <r>    26.2886     0.0000    28.0000 </r>
       <r>    26.3939     0.0000    28.0000 </r>
       <r>    26.4993     0.0000    28.0000 </r>
       <r>    26.6046     0.0000    28.0000 </r>
       <r>    26.7099     0.0000    28.0000 </r>
       <r>    26.8153     0.0000    28.0000 </r>
       <r>    26.9206     0.0000    28.0000 </r>
       <r>    27.0260     0.0000    28.0000 </r>
       <r>    27.1313     0.0000    28.0000 </r>
       <r>    27.2366     0.0000    28.0000 </r>
       <r>    27.3420     0.0000    28.0000 </r>
       <r>    27.4473     0.0000    28.0000 </r>
       <r>    27.5527     0.0000    28.0000 </r>
       <r>    27.6580     0.0000    28.0000 </r>
       <r>    27.7633     0.0000    28.0000 </r>
       <r>    27.8687     0.0000    28.0000 </r>
      </set>
     </set>
    </array>
   </total>
  </dos>
 </calculation>
 <structure name="finalpos" >
  <crystal>
   <varray name="basis" >
    <v>       3.00000000       0.00000000       0.00000000 </v>
    <v>       0.00000000       3.00000000       0.00000000 </v>
    <v>       0.00000000       0.00000000       3.00000000 </v>
   </varray>
   <i name="volume">     27.00000000 </i>
   <varray name="rec_basis" >
    <v>       0.33333333       0.00000000       0.00000000 </v>
    <v>       0.00000000       0.33333333       0.00000000 </v>
    <v>       0.00000000       0.00000000       0.33333333 </v>
   </varray>
  </crystal>
  <varray name="positions" >
   <v>       0.00000000       0.00000000       0.00000000 </v>
   <v>       0.50000000       0.50000000       0.50000000 </v>
  </varray>
 </structure>
</modeling>
