unknown system                          
   1.00000000000000     
     0.000000    2.715400    2.715400
     2.715400    0.000000    2.715400
     2.715400    2.715400    0.000000
   Si
     2
Direct
  0.000000  0.000000  0.000000
  0.250000  0.250000  0.250000
 
   32   32   32
 -7.6343     -5.8985     -1.2568      4.8384      10.651      14.811      16.729      16.627      15.270      13.521    
  11.801      10.263      8.9855      7.9957      7.2950      6.8778      6.7393      6.8778      7.2950      7.9957    
  8.9855      10.263      11.801      13.521      15.270      16.627      16.729      14.811      10.651      4.8385    
 -1.2568     -5.8985     -5.8985     -2.5015      3.1777      9.4010      14.516      17.529      18.309      17.428    
  15.775      14.010      12.356      10.920      9.7500      8.8639      8.2685      7.9692      7.9691      8.2685    
  8.8639      9.7500      10.920      12.356      14.010      15.775      17.428      18.309      17.529      14.516    
  9.4010      3.1776     -2.5017     -5.8986     -1.2568      3.1777      8.9211      14.276      17.966      19.508    
  19.197      17.801      16.101      14.426      12.907      11.611      10.567      9.7971      9.3234      9.1632    
  9.3234      9.7971      10.567      11.611      12.907      14.426      16.101      17.801      19.197      19.508    
  17.966      14.276      8.9211      3.1776     -1.2568     -2.9263      4.8384      9.4010      14.276      18.103    
  20.132      20.359      19.347      17.845      16.269      14.775      13.438      12.296      11.383      10.738    
  10.403      10.403      10.739      11.383      12.296      13.438      14.775      16.269      17.844      19.347    
  20.359      20.132      18.103      14.276      9.4010      4.8385      2.0728      2.0728      10.651      14.516    
  17.966      20.132      20.765      20.186      19.008      17.665      16.319      15.053      13.906      12.913    
  12.127      11.617      11.439      11.617      12.127      12.913      13.906      15.053      16.319      17.665    
  19.008      20.186      20.765      20.132      17.966      14.516      10.651      7.5964      6.4347      7.5964    
  14.811      17.529      19.508      20.359      20.186      19.418      18.419      17.343      16.269      15.228    
  14.247      13.382      12.721      12.360      12.360      12.721      13.382      14.247      15.228      16.269    
  17.343      18.419      19.418      20.186      20.359      19.508      17.529      14.811      12.171      10.541    
  10.541      12.171      16.729      18.309      19.197      19.347      19.008      18.419      17.702      16.924    
  16.101      15.242      14.389      13.634      13.099      12.904      13.099      13.634      14.389      15.242    
  16.101      16.924      17.702      18.419      19.008      19.347      19.197      18.309      16.729      14.864    
  13.349      12.766      13.349      14.864      16.627      17.428      17.801      17.845      17.665      17.343    
  16.924      16.407      15.775      15.043      14.275      13.600      13.200      13.200      13.600      14.275    
  15.043      15.775      16.407      16.924      17.343      17.665      17.844      17.801      17.428      16.627    
  15.507      14.397      13.702      13.702      14.397      15.507      15.270      15.775      16.101      16.269    
  16.319      16.269      16.101      15.775      15.270      14.601      13.874      13.297      13.077      13.297    
  13.874      14.601      15.270      15.775      16.101      16.269      16.319      16.269      16.101      15.775    
  15.270      14.601      13.874      13.297      13.077      13.297      13.874      14.601      13.521      14.010    
  14.426      14.775      15.053      15.228      15.242      15.043      14.601      13.958      13.304      12.889    
  12.889      13.304      13.958      14.601      15.043      15.242      15.228      15.053      14.775      14.426    
  14.010      13.521      12.974      12.424      11.963      11.696      11.696      11.963      12.424      12.974    
  11.801      12.356      12.907      13.438      13.906      14.247      14.389      14.275      13.874      13.304    
  12.803      12.603      12.803      13.304      13.874      14.275      14.389      14.247      13.906      13.438    
  12.907      12.356      11.801      11.255      10.744      10.314      10.023      9.9194      10.023      10.314    
  10.744      11.255      10.263      10.920      11.611      12.296      12.913      13.382      13.634      13.600    
  13.297      12.889      12.603      12.603      12.889      13.297      13.600      13.634      13.382      12.913    
  12.296      11.611      10.920      10.263      9.6620      9.1339      8.6997      8.3865      8.2215      8.2215    
  8.3866      8.6997      9.1339      9.6619      8.9855      9.7500      10.567      11.383      12.127      12.721    
  13.099      13.200      13.077      12.889      12.803      12.889      13.077      13.200      13.099      12.721    
  12.127      11.383      10.567      9.7500      8.9855      8.3048      7.7251      7.2572      6.9115      6.6983    
  6.6262      6.6983      6.9115      7.2572      7.7251      8.3048      7.9957      8.8639      9.7971      10.738    
  11.617      12.360      12.904      13.200      13.297      13.304      13.304      13.297      13.200      12.904    
  12.360      11.617      10.739      9.7971      8.8639      7.9957      7.2291      6.5830      6.0644      5.6752    
  5.4155      5.2855      5.2855      5.4154      5.6752      6.0644      6.5830      7.2291      7.2950      8.2685    
  9.3234      10.403      11.439      12.360      13.099      13.600      13.874      13.958      13.874      13.600    
  13.099      12.360      11.439      10.403      9.3234      8.2685      7.2950      6.4400      5.7220      5.1455    
  4.7070      4.4001      4.2186      4.1585      4.2186      4.4001      4.7070      5.1455      5.7220      6.4400    
  6.8778      7.9692      9.1632      10.403      11.617      12.721      13.634      14.275      14.601      14.601    
  14.275      13.634      12.721      11.617      10.403      9.1631      7.9691      6.8778      5.9255      5.1289    
  4.4892      3.9981      3.6437      3.4144      3.3020      3.3020      3.4145      3.6437      3.9981      4.4892    
  5.1288      5.9254      6.7393      7.9691      9.3234      10.739      12.127      13.382      14.389      15.043    
  15.270      15.043      14.389      13.382      12.127      10.739      9.3234      7.9691      6.7393      5.6721    
  4.7833      4.0706      3.5211      3.1171      2.8417      2.6818      2.6294      2.6818      2.8417      3.1171    
  3.5211      4.0706      4.7833      5.6721      6.8778      8.2685      9.7971      11.383      12.913      14.247    
  15.242      15.775      15.775      15.242      14.247      12.913      11.383      9.7971      8.2685      6.8778    
  5.6721      4.6699      3.8675      3.2477      2.7873      2.4634      2.2577      2.1578      2.1578      2.2577    
  2.4634      2.7873      3.2477      3.8675      4.6699      5.6721      7.2950      8.8639      10.567      12.296    
  13.906      15.228      16.101      16.407      16.101      15.228      13.906      12.296      10.567      8.8639    
  7.2950      5.9255      4.7833      3.8675      3.1588      2.6289      2.2490      1.9947      1.8488      1.8012    
  1.8488      1.9947      2.2490      2.6289      3.1588      3.8675      4.7833      5.9255      7.9957      9.7500    
  11.611      13.438      15.053      16.269      16.924      16.924      16.269      15.053      13.438      11.611    
  9.7500      7.9957      6.4400      5.1289      4.0706      3.2477      2.6289      2.1796      1.8690      1.6740    
  1.5800      1.5800      1.6740      1.8690      2.1796      2.6289      3.2477      4.0706      5.1288      6.4399    
  8.9855      10.920      12.907      14.775      16.319      17.343      17.702      17.343      16.319      14.775    
  12.907      10.920      8.9855      7.2291      5.7220      4.4892      3.5211      2.7873      2.2490      1.8690    
  1.6174      1.4740      1.4274      1.4740      1.6174      1.8690      2.2490      2.7873      3.5211      4.4892    
  5.7220      7.2291      10.263      12.356      14.426      16.269      17.665      18.419      18.419      17.665    
  16.269      14.426      12.356      10.263      8.3048      6.5830      5.1455      3.9981      3.1171      2.4634    
  1.9947      1.6740      1.4740      1.3779      1.3779      1.4740      1.6740      1.9947      2.4634      3.1171    
  3.9981      5.1456      6.5830      8.3048      11.801      14.010      16.101      17.844      19.008      19.418    
  19.008      17.844      16.101      14.010      11.801      9.6620      7.7251      6.0644      4.7070      3.6437    
  2.8417      2.2577      1.8488      1.5800      1.4274      1.3779      1.4274      1.5800      1.8488      2.2577    
  2.8417      3.6437      4.7070      6.0644      7.7251      9.6620      13.521      15.775      17.801      19.347    
  20.186      20.186      19.347      17.801      15.775      13.521      11.255      9.1339      7.2572      5.6752    
  4.4001      3.4144      2.6818      2.1578      1.8012      1.5800      1.4740      1.4740      1.5800      1.8012    
  2.1578      2.6818      3.4145      4.4001      5.6752      7.2571      9.1339      11.255      15.270      17.428    
  19.197      20.359      20.765      20.359      19.197      17.428      15.270      12.974      10.744      8.6997    
  6.9115      5.4155      4.2186      3.3020      2.6294      2.1578      1.8488      1.6740      1.6174      1.6740    
  1.8488      2.1578      2.6294      3.3020      4.2186      5.4155      6.9115      8.6997      10.744      12.974    
  16.627      18.309      19.508      20.132      20.132      19.508      18.309      16.627      14.601      12.424    
  10.314      8.3865      6.6983      5.2855      4.1585      3.3020      2.6818      2.2577      1.9947      1.8690    
  1.8690      1.9947      2.2577      2.6818      3.3020      4.1585      5.2855      6.6984      8.3866      10.314    
  12.424      14.601      16.729      17.529      17.966      18.103      17.966      17.529      16.729      15.507    
  13.874      11.963      10.023      8.2215      6.6262      5.2855      4.2186      3.4145      2.8417      2.4634    
  2.2490      2.1796      2.2490      2.4634      2.8417      3.4145      4.2186      5.2855      6.6262      8.2215    
  10.023      11.963      13.874      15.507      14.811      14.516      14.276      14.276      14.516      14.811    
  14.864      14.397      13.297      11.696      9.9194      8.2215      6.6983      5.4154      4.4001      3.6437    
  3.1171      2.7873      2.6289      2.6289      2.7873      3.1171      3.6437      4.4001      5.4155      6.6984    
  8.2215      9.9194      11.696      13.297      14.397      14.864      10.651      9.4010      8.9211      9.4010    
  10.651      12.171      13.349      13.702      13.077      11.696      10.023      8.3866      6.9115      5.6752    
  4.7070      3.9981      3.5211      3.2477      3.1588      3.2477      3.5211      3.9981      4.7070      5.6752    
  6.9115      8.3866      10.023      11.696      13.077      13.702      13.349      12.171      4.8385      3.1776    
  3.1776      4.8385      7.5964      10.541      12.766      13.702      13.297      11.963      10.314      8.6997    
  7.2572      6.0644      5.1455      4.4892      4.0706      3.8675      3.8675      4.0706      4.4892      5.1456    
  6.0644      7.2571      8.6997      10.314      11.963      13.297      13.702      12.766      10.541      7.5963    
 -1.2568     -2.5017     -1.2568      2.0728      6.4347      10.541      13.349      14.397      13.874      12.424    
  10.744      9.1339      7.7251      6.5830      5.7220      5.1288      4.7833      4.6699      4.7833      5.1288    
  5.7220      6.5830      7.7251      9.1339      10.744      12.424      13.874      14.397      13.349      10.541    
  6.4347      2.0729     -5.8985     -5.8986     -2.9263      2.0728      7.5964      12.171      14.864      15.507    
  14.601      12.974      11.255      9.6619      8.3048      7.2291      6.4400      5.9254      5.6721      5.6721    
  5.9255      6.4399      7.2291      8.3048      9.6620      11.255      12.974      14.601      15.507      14.864    
  12.171      7.5963      2.0729     -2.9262     -5.8985     -2.5015      3.1777      9.4010      14.516      17.529    
  18.309      17.428      15.775      14.010      12.356      10.920      9.7500      8.8639      8.2685      7.9692    
  7.9691      8.2685      8.8639      9.7500      10.920      12.356      14.010      15.775      17.428      18.309    
  17.529      14.516      9.4010      3.1776     -2.5017     -5.8986     -2.5015      2.1994      8.3019      14.020    
  18.006      19.740      19.518      18.132      16.407      14.702      13.155      11.833      10.767      9.9798    
  9.4950      9.3310      9.4950      9.9798      10.767      11.833      13.155      14.702      16.407      18.132    
  19.518      19.740      18.006      14.020      8.3018      2.1992     -2.5017     -4.2697      3.1777      8.3019    
  13.814      18.207      20.636      21.073      20.109      18.560      16.924      15.369      13.975      12.782    
  11.825      11.147      10.793      10.793      11.147      11.825      12.782      13.975      15.369      16.924    
  18.560      20.109      21.073      20.636      18.207      13.814      8.3018      3.1776     0.80955E-01 0.80972E-01
  9.4010      14.020      18.207      20.941      21.903      21.429      20.203      18.776      17.343      15.992    
  14.763      13.691      12.838      12.281      12.087      12.281      12.838      13.691      14.763      15.992    
  17.343      18.776      20.203      21.429      21.903      20.941      18.207      14.020      9.4010      5.7781    
  4.4041      5.7780      14.516      18.006      20.636      21.903      21.893      21.097      20.011      18.839    
  17.665      16.519      15.428      14.455      13.704      13.290      13.290      13.704      14.455      15.428    
  16.519      17.665      18.838      20.011      21.097      21.893      21.903      20.636      18.006      14.516    
  11.178      9.1313      9.1312      11.178      17.529      19.740      21.073      21.429      21.097      20.446    
  19.647      18.776      17.845      16.856      15.855      14.940      14.278      14.035      14.278      14.940    
  15.855      16.856      17.844      18.776      19.647      20.446      21.097      21.429      21.073      19.740    
  17.529      14.991      12.957      12.178      12.957      14.991      18.309      19.518      20.109      20.203    
  20.011      19.647      19.166      18.560      17.801      16.884      15.870      14.960      14.413      14.413    
  14.960      15.870      16.884      17.801      18.560      19.166      19.647      20.011      20.203      20.109    
  19.518      18.309      16.668      15.067      14.075      14.075      15.067      16.668      17.428      18.132    
  18.560      18.776      18.839      18.776      18.560      18.132      17.428      16.438      15.345      14.478    
  14.147      14.478      15.346      16.438      17.428      18.132      18.560      18.776      18.838      18.776    
  18.560      18.132      17.428      16.438      15.346      14.478      14.147      14.478      15.345      16.438    
  15.775      16.407      16.924      17.343      17.665      17.845      17.801      17.428      16.627      15.507    
  14.397      13.702      13.702      14.397      15.507      16.627      17.428      17.801      17.844      17.665    
  17.343      16.924      16.407      15.775      15.043      14.275      13.600      13.200      13.200      13.600    
  14.275      15.043      14.010      14.702      15.369      15.992      16.519      16.856      16.884      16.438    
  15.507      14.345      13.377      13.000      13.376      14.345      15.507      16.438      16.884      16.856    
  16.519      15.992      15.369      14.702      14.010      13.305      12.623      12.034      11.627      11.481    
  11.627      12.034      12.623      13.305      12.356      13.155      13.975      14.763      15.428      15.855    
  15.870      15.345      14.397      13.377      12.718      12.718      13.376      14.397      15.345      15.870    
  15.855      15.428      14.763      13.975      13.155      12.356      11.605      10.925      10.350      9.9246    
  9.6970      9.6970      9.9246      10.350      10.925      11.605      10.920      11.833      12.782      13.691    
  14.455      14.940      14.960      14.478      13.702      13.000      12.718      13.000      13.702      14.478    
  14.960      14.940      14.455      13.691      12.782      11.833      10.920      10.089      9.3656      8.7679    
  8.3164      8.0333      7.9366      8.0333      8.3164      8.7679      9.3656      10.089      9.7500      10.767    
  11.825      12.838      13.704      14.278      14.413      14.147      13.702      13.376      13.376      13.702    
  14.147      14.413      14.278      13.704      12.838      11.825      10.767      9.7500      8.8320      8.0437    
  7.3999      6.9084      6.5758      6.4077      6.4077      6.5758      6.9084      7.3999      8.0437      8.8320    
  8.8639      9.9798      11.147      12.281      13.290      14.035      14.413      14.478      14.397      14.345    
  14.397      14.478      14.413      14.035      13.290      12.281      11.147      9.9798      8.8639      7.8588    
  6.9989      6.2981      5.7583      5.3765      5.1489      5.0733      5.1489      5.3764      5.7583      6.2982    
  6.9989      7.8588      8.2685      9.4950      10.793      12.087      13.290      14.278      14.960      15.346    
  15.507      15.507      15.345      14.960      14.278      13.290      12.087      10.793      9.4950      8.2685    
  7.1704      6.2338      5.4707      4.8784      4.4474      4.1671      4.0291      4.0291      4.1671      4.4474    
  4.8784      5.4707      6.2338      7.1704      7.9692      9.3310      10.793      12.281      13.704      14.940    
  15.870      16.438      16.627      16.438      15.870      14.940      13.704      12.281      10.793      9.3309    
  7.9691      6.7608      5.7356      4.9018      4.2522      3.7712      3.4419      3.2502      3.1873      3.2502    
  3.4419      3.7713      4.2522      4.9018      5.7356      6.7608      7.9691      9.4950      11.147      12.838    
  14.455      15.855      16.884      17.428      17.428      16.884      15.855      14.455      12.838      11.147    
  9.4950      7.9691      6.6248      5.4904      4.5707      3.8536      3.3176      2.9392      2.6984      2.5814    
  2.5814      2.6984      2.9392      3.3176      3.8536      4.5707      5.4904      6.6248      8.2685      9.9798    
  11.825      13.691      15.428      16.856      17.801      18.132      17.801      16.856      15.428      13.691    
  11.825      9.9798      8.2685      6.7608      5.4904      4.4621      3.6603      3.0578      2.6248      2.3347    
  2.1682      2.1139      2.1682      2.3347      2.6247      3.0578      3.6603      4.4622      5.4904      6.7608    
  8.8639      10.767      12.782      14.763      16.519      17.844      18.560      18.560      17.844      16.519    
  14.763      12.782      10.767      8.8639      7.1704      5.7356      4.5707      3.6603      2.9733      2.4738    
  2.1286      1.9121      1.8077      1.8077      1.9121      2.1286      2.4738      2.9734      3.6603      4.5707    
  5.7356      7.1704      9.7500      11.833      13.975      15.992      17.665      18.776      19.166      18.776    
  17.665      15.992      13.975      11.833      9.7500      7.8588      6.2338      4.9018      3.8536      3.0578    
  2.4738      2.0619      1.7896      1.6345      1.5842      1.6345      1.7896      2.0619      2.4738      3.0578    
  3.8536      4.9018      6.2338      7.8588      10.920      13.155      15.369      17.343      18.838      19.647    
  19.647      18.838      17.343      15.369      13.155      10.920      8.8320      6.9989      5.4707      4.2522    
  3.3176      2.6248      2.1286      1.7896      1.5785      1.4771      1.4771      1.5785      1.7896      2.1286    
  2.6248      3.3176      4.2522      5.4707      6.9989      8.8320      12.356      14.702      16.924      18.776    
  20.011      20.446      20.011      18.776      16.924      14.702      12.356      10.089      8.0437      6.2981    
  4.8784      3.7712      2.9392      2.3347      1.9121      1.6345      1.4771      1.4261      1.4771      1.6345    
  1.9120      2.3347      2.9391      3.7713      4.8785      6.2982      8.0437      10.089      14.010      16.407    
  18.560      20.203      21.097      21.097      20.203      18.560      16.407      14.010      11.605      9.3656    
  7.3999      5.7583      4.4474      3.4419      2.6984      2.1682      1.8077      1.5842      1.4771      1.4771    
  1.5842      1.8077      2.1682      2.6984      3.4419      4.4474      5.7583      7.3998      9.3656      11.605    
  15.775      18.132      20.109      21.429      21.893      21.429      20.109      18.132      15.775      13.305    
  10.925      8.7679      6.9084      5.3765      4.1671      3.2502      2.5814      2.1139      1.8077      1.6345    
  1.5785      1.6345      1.8077      2.1140      2.5814      3.2502      4.1671      5.3764      6.9084      8.7679    
  10.925      13.305      17.428      19.518      21.073      21.903      21.903      21.073      19.518      17.428    
  15.043      12.623      10.350      8.3164      6.5758      5.1489      4.0291      3.1873      2.5814      2.1682    
  1.9121      1.7896      1.7896      1.9120      2.1682      2.5814      3.1873      4.0291      5.1489      6.5758    
  8.3164      10.350      12.623      15.043      18.309      19.740      20.636      20.941      20.636      19.740    
  18.309      16.438      14.275      12.034      9.9246      8.0333      6.4077      5.0733      4.0291      3.2502    
  2.6984      2.3347      2.1286      2.0619      2.1286      2.3347      2.6984      3.2502      4.0291      5.0733    
  6.4077      8.0333      9.9246      12.034      14.274      16.438      17.529      18.006      18.207      18.207    
  18.006      17.529      16.668      15.346      13.600      11.627      9.6970      7.9366      6.4077      5.1489    
  4.1671      3.4419      2.9392      2.6247      2.4738      2.4738      2.6248      2.9391      3.4419      4.1671    
  5.1489      6.4077      7.9366      9.6970      11.627      13.600      15.345      16.668      14.516      14.020    
  13.814      14.020      14.516      14.991      15.067      14.478      13.200      11.481      9.6970      8.0333    
  6.5758      5.3764      4.4474      3.7713      3.3176      3.0578      2.9734      3.0578      3.3176      3.7713    
  4.4474      5.3764      6.5758      8.0333      9.6970      11.481      13.200      14.478      15.067      14.991    
  9.4010      8.3018      8.3018      9.4010      11.178      12.957      14.075      14.147      13.200      11.627    
  9.9246      8.3164      6.9084      5.7583      4.8784      4.2522      3.8536      3.6603      3.6603      3.8536    
  4.2522      4.8785      5.7583      6.9084      8.3164      9.9246      11.627      13.200      14.147      14.075    
  12.957      11.178      3.1776      2.1992      3.1776      5.7781      9.1313      12.178      14.075      14.478    
  13.600      12.034      10.350      8.7679      7.3999      6.2982      5.4707      4.9018      4.5707      4.4622    
  4.5707      4.9018      5.4707      6.2982      7.3998      8.7679      10.350      12.034      13.600      14.478    
  14.075      12.178      9.1312      5.7781     -2.5017     -2.5017     0.80955E-01  4.4041      9.1312      12.957    
  15.067      15.345      14.275      12.623      10.925      9.3656      8.0437      6.9989      6.2338      5.7356    
  5.4904      5.4904      5.7356      6.2338      6.9989      8.0437      9.3656      10.925      12.623      14.274    
  15.345      15.067      12.957      9.1312      4.4041     0.80948E-01 -5.8986     -4.2697     0.80972E-01  5.7780    
  11.178      14.991      16.668      16.438      15.043      13.305      11.605      10.089      8.8320      7.8588    
  7.1704      6.7608      6.6248      6.7608      7.1704      7.8588      8.8320      10.089      11.605      13.305    
  15.043      16.438      16.668      14.991      11.178      5.7781     0.80948E-01 -4.2698     -1.2568      3.1777    
  8.9211      14.276      17.966      19.508      19.197      17.801      16.101      14.426      12.907      11.611    
  10.567      9.7971      9.3234      9.1632      9.3234      9.7971      10.567      11.611      12.907      14.426    
  16.101      17.801      19.197      19.508      17.966      14.276      8.9211      3.1776     -1.2568     -2.9263    
  3.1777      8.3019      13.814      18.207      20.636      21.073      20.109      18.560      16.924      15.369    
  13.975      12.782      11.825      11.147      10.793      10.793      11.147      11.825      12.782      13.975    
  15.369      16.924      18.560      20.109      21.073      20.636      18.207      13.814      8.3018      3.1776    
 0.80954E-01 0.80971E-01  8.9211      13.814      18.271      21.213      22.298      21.865      20.624      19.166    
  17.702      16.322      15.063      13.964      13.087      12.514      12.313      12.514      13.087      13.964    
  15.063      16.322      17.702      19.166      20.624      21.865      22.298      21.213      18.271      13.814    
  8.9211      5.0910      3.6398      5.0910      14.276      18.207      21.213      22.724      22.815      22.009    
  20.873      19.647      18.419      17.217      16.066      15.034      14.232      13.786      13.786      14.232    
  15.034      16.066      17.217      18.419      19.647      20.873      22.009      22.815      22.724      21.213    
  18.207      14.276      10.539      8.2537      8.2537      10.539      17.966      20.636      22.298      22.815    
  22.498      21.800      20.945      20.011      19.008      17.934      16.826      15.793      15.038      14.758    
  15.038      15.793      16.826      17.934      19.008      20.011      20.945      21.800      22.498      22.815    
  22.298      20.636      17.966      14.942      12.535      11.615      12.535      14.942      19.508      21.073    
  21.865      22.009      21.800      21.401      20.873      20.203      19.347      18.267      17.039      15.924    
  15.252      15.252      15.924      17.039      18.267      19.347      20.203      20.873      21.401      21.800    
  22.009      21.865      21.073      19.508      17.421      15.406      14.162      14.162      15.406      17.421    
  19.197      20.109      20.624      20.873      20.945      20.873      20.624      20.109      19.197      17.886    
  16.436      15.287      14.848      15.287      16.436      17.886      19.197      20.109      20.624      20.873    
  20.945      20.873      20.624      20.109      19.197      17.886      16.436      15.287      14.848      15.287    
  16.436      17.886      17.801      18.560      19.166      19.647      20.011      20.203      20.109      19.518    
  18.309      16.668      15.067      14.075      14.075      15.067      16.668      18.309      19.518      20.109    
  20.203      20.011      19.647      19.166      18.560      17.801      16.884      15.870      14.960      14.413    
  14.413      14.960      15.870      16.884      16.101      16.924      17.702      18.419      19.008      19.347    
  19.197      18.309      16.729      14.864      13.349      12.766      13.349      14.864      16.729      18.309    
  19.197      19.347      19.008      18.419      17.702      16.924      16.101      15.242      14.389      13.634    
  13.099      12.904      13.099      13.634      14.389      15.242      14.426      15.369      16.322      17.217    
  17.934      18.267      17.886      16.668      14.864      13.055      11.922      11.922      13.055      14.864    
  16.668      17.886      18.267      17.934      17.217      16.322      15.369      14.426      13.522      12.685    
  11.960      11.413      11.117      11.117      11.413      11.960      12.685      13.522      12.907      13.975    
  15.063      16.066      16.826      17.039      16.436      15.067      13.349      11.922      11.369      11.922    
  13.349      15.067      16.436      17.039      16.826      16.066      15.063      13.975      12.907      11.919    
  11.043      10.304      9.7344      9.3722      9.2475      9.3722      9.7345      10.304      11.043      11.919    
  11.611      12.782      13.964      15.034      15.793      15.924      15.287      14.075      12.766      11.922    
  11.922      12.766      14.075      15.287      15.924      15.793      15.034      13.964      12.782      11.611    
  10.532      9.5900      8.8083      8.2019      7.7857      7.5733      7.5733      7.7857      8.2019      8.8083    
  9.5900      10.532      10.567      11.825      13.087      14.232      15.038      15.252      14.848      14.075    
  13.349      13.055      13.349      14.075      14.848      15.252      15.038      14.232      13.087      11.825    