   2   2   1   0
  0.2002172E+02  0.3840156E-09  0.3840156E-09  0.3840156E-09  0.5000000E-15
  1.000000000000000E-004
  CAR 
 unknown system                          
     18.00000000    -10.00000000 2801      5.52015625      1.00000000
    -10.000  0.0000E+00  0.0000E+00
     -9.990  0.0000E+00  0.0000E+00
     -9.980  0.0000E+00  0.0000E+00
     -9.970  0.0000E+00  0.0000E+00
     -9.960  0.0000E+00  0.0000E+00
     -9.950  0.0000E+00  0.0000E+00
     -9.940  0.0000E+00  0.0000E+00
     -9.930  0.0000E+00  0.0000E+00
     -9.920  0.0000E+00  0.0000E+00
     -9.910  0.0000E+00  0.0000E+00
     -9.900  0.0000E+00  0.0000E+00
     -9.890  0.0000E+00  0.0000E+00
     -9.880  0.0000E+00  0.0000E+00
     -9.870  0.0000E+00  0.0000E+00
     -9.860  0.0000E+00  0.0000E+00
     -9.850  0.0000E+00  0.0000E+00
     -9.840  0.0000E+00  0.0000E+00
     -9.830  0.0000E+00  0.0000E+00
     -9.820  0.0000E+00  0.0000E+00
     -9.810  0.0000E+00  0.0000E+00
     -9.800  0.0000E+00  0.0000E+00
     -9.790  0.0000E+00  0.0000E+00
     -9.780  0.0000E+00  0.0000E+00
     -9.770  0.0000E+00  0.0000E+00
     -9.760  0.0000E+00  0.0000E+00
     -9.750  0.0000E+00  0.0000E+00
     -9.740  0.0000E+00  0.0000E+00
     -9.730  0.0000E+00  0.0000E+00
     -9.720  0.0000E+00  0.0000E+00
     -9.710  0.0000E+00  0.0000E+00
     -9.700  0.0000E+00  0.0000E+00
     -9.690  0.0000E+00  0.0000E+00
     -9.680  0.0000E+00  0.0000E+00
     -9.670  0.0000E+00  0.0000E+00
     -9.660  0.0000E+00  0.0000E+00
     -9.650  0.0000E+00  0.0000E+00
     -9.640  0.0000E+00  0.0000E+00
     -9.630  0.0000E+00  0.0000E+00
     -9.620  0.0000E+00  0.0000E+00
     -9.610  0.0000E+00  0.0000E+00
     -9.600  0.0000E+00  0.0000E+00
     -9.590  0.0000E+00  0.0000E+00
     -9.580  0.0000E+00  0.0000E+00
     -9.570  0.0000E+00  0.0000E+00
     -9.560  0.0000E+00  0.0000E+00
     -9.550  0.0000E+00  0.0000E+00
     -9.540  0.0000E+00  0.0000E+00
     -9.530  0.0000E+00  0.0000E+00
     -9.520  0.0000E+00  0.0000E+00
     -9.510  0.0000E+00  0.0000E+00
     -9.500  0.0000E+00  0.0000E+00
     -9.490  0.0000E+00  0.0000E+00
     -9.480  0.0000E+00  0.0000E+00
     -9.470  0.0000E+00  0.0000E+00
     -9.460  0.0000E+00  0.0000E+00
     -9.450  0.0000E+00  0.0000E+00
     -9.440  0.0000E+00  0.0000E+00
     -9.430  0.0000E+00  0.0000E+00
     -9.420  0.0000E+00  0.0000E+00
     -9.410  0.0000E+00  0.0000E+00
     -9.400  0.0000E+00  0.0000E+00
     -9.390  0.0000E+00  0.0000E+00
     -9.380  0.0000E+00  0.0000E+00
     -9.370  0.0000E+00  0.0000E+00
     -9.360  0.0000E+00  0.0000E+00
     -9.350  0.0000E+00  0.0000E+00
     -9.340  0.0000E+00  0.0000E+00
     -9.330  0.0000E+00  0.0000E+00
     -9.320  0.0000E+00  0.0000E+00
     -9.310  0.0000E+00  0.0000E+00
     -9.300  0.0000E+00  0.0000E+00
     -9.290  0.0000E+00  0.0000E+00
     -9.280  0.0000E+00  0.0000E+00
     -9.270  0.0000E+00  0.0000E+00
     -9.260  0.0000E+00  0.0000E+00
     -9.250  0.0000E+00  0.0000E+00
     -9.240  0.0000E+00  0.0000E+00
     -9.230  0.0000E+00  0.0000E+00
     -9.220  0.0000E+00  0.0000E+00
     -9.210  0.0000E+00  0.0000E+00
     -9.200  0.0000E+00  0.0000E+00
     -9.190  0.0000E+00  0.0000E+00
     -9.180  0.0000E+00  0.0000E+00
     -9.170  0.0000E+00  0.0000E+00
     -9.160  0.0000E+00  0.0000E+00
     -9.150  0.0000E+00  0.0000E+00
     -9.140  0.0000E+00  0.0000E+00
     -9.130  0.0000E+00  0.0000E+00
     -9.120  0.0000E+00  0.0000E+00
     -9.110  0.0000E+00  0.0000E+00
     -9.100  0.0000E+00  0.0000E+00
     -9.090  0.0000E+00  0.0000E+00
     -9.080  0.0000E+00  0.0000E+00
     -9.070  0.0000E+00  0.0000E+00
     -9.060  0.0000E+00  0.0000E+00
     -9.050  0.0000E+00  0.0000E+00
     -9.040  0.0000E+00  0.0000E+00
     -9.030  0.0000E+00  0.0000E+00
     -9.020  0.0000E+00  0.0000E+00
     -9.010  0.0000E+00  0.0000E+00
     -9.000  0.0000E+00  0.0000E+00
     -8.990  0.0000E+00  0.0000E+00
     -8.980  0.0000E+00  0.0000E+00
     -8.970  0.0000E+00  0.0000E+00
     -8.960  0.0000E+00  0.0000E+00
     -8.950  0.0000E+00  0.0000E+00
     -8.940  0.0000E+00  0.0000E+00
     -8.930  0.0000E+00  0.0000E+00
     -8.920  0.0000E+00  0.0000E+00
     -8.910  0.0000E+00  0.0000E+00
     -8.900  0.0000E+00  0.0000E+00
     -8.890  0.0000E+00  0.0000E+00
     -8.880  0.0000E+00  0.0000E+00
     -8.870  0.0000E+00  0.0000E+00
     -8.860  0.0000E+00  0.0000E+00
     -8.850  0.0000E+00  0.0000E+00
     -8.840  0.0000E+00  0.0000E+00
     -8.830  0.0000E+00  0.0000E+00
     -8.820  0.0000E+00  0.0000E+00
     -8.810  0.0000E+00  0.0000E+00
     -8.800  0.0000E+00  0.0000E+00
     -8.790  0.0000E+00  0.0000E+00
     -8.780  0.0000E+00  0.0000E+00
     -8.770  0.0000E+00  0.0000E+00
     -8.760  0.0000E+00  0.0000E+00
     -8.750  0.0000E+00  0.0000E+00
     -8.740  0.0000E+00  0.0000E+00
     -8.730  0.0000E+00  0.0000E+00
     -8.720  0.0000E+00  0.0000E+00
     -8.710  0.0000E+00  0.0000E+00
     -8.700  0.0000E+00  0.0000E+00
     -8.690  0.0000E+00  0.0000E+00
     -8.680  0.0000E+00  0.0000E+00
     -8.670  0.0000E+00  0.0000E+00
     -8.660  0.0000E+00  0.0000E+00
     -8.650  0.0000E+00  0.0000E+00
     -8.640  0.0000E+00  0.0000E+00
     -8.630  0.0000E+00  0.0000E+00
     -8.620  0.0000E+00  0.0000E+00
     -8.610  0.0000E+00  0.0000E+00
     -8.600  0.0000E+00  0.0000E+00
     -8.590  0.0000E+00  0.0000E+00
     -8.580  0.0000E+00  0.0000E+00
     -8.570  0.0000E+00  0.0000E+00
     -8.560  0.0000E+00  0.0000E+00
     -8.550  0.0000E+00  0.0000E+00
     -8.540  0.0000E+00  0.0000E+00
     -8.530  0.0000E+00  0.0000E+00
     -8.520  0.0000E+00  0.0000E+00
     -8.510  0.0000E+00  0.0000E+00
     -8.500  0.0000E+00  0.0000E+00
     -8.490  0.0000E+00  0.0000E+00
     -8.480  0.0000E+00  0.0000E+00
     -8.470  0.0000E+00  0.0000E+00
     -8.460  0.0000E+00  0.0000E+00
     -8.450  0.0000E+00  0.0000E+00
     -8.440  0.0000E+00  0.0000E+00
     -8.430  0.0000E+00  0.0000E+00
     -8.420  0.0000E+00  0.0000E+00
     -8.410  0.0000E+00  0.0000E+00
     -8.400  0.0000E+00  0.0000E+00
     -8.390  0.0000E+00  0.0000E+00
     -8.380  0.0000E+00  0.0000E+00
     -8.370  0.0000E+00  0.0000E+00
     -8.360  0.0000E+00  0.0000E+00
     -8.350  0.0000E+00  0.0000E+00
     -8.340  0.0000E+00  0.0000E+00
     -8.330  0.0000E+00  0.0000E+00
     -8.320  0.0000E+00  0.0000E+00
     -8.310  0.0000E+00  0.0000E+00
     -8.300  0.0000E+00  0.0000E+00
     -8.290  0.0000E+00  0.0000E+00
     -8.280  0.0000E+00  0.0000E+00
     -8.270  0.0000E+00  0.0000E+00
     -8.260  0.0000E+00  0.0000E+00
     -8.250  0.0000E+00  0.0000E+00
     -8.240  0.0000E+00  0.0000E+00
     -8.230  0.0000E+00  0.0000E+00
     -8.220  0.0000E+00  0.0000E+00
     -8.210  0.0000E+00  0.0000E+00
     -8.200  0.0000E+00  0.0000E+00
     -8.190  0.0000E+00  0.0000E+00
     -8.180  0.0000E+00  0.0000E+00
     -8.170  0.0000E+00  0.0000E+00
     -8.160  0.0000E+00  0.0000E+00
     -8.150  0.0000E+00  0.0000E+00
     -8.140  0.0000E+00  0.0000E+00
     -8.130  0.0000E+00  0.0000E+00
     -8.120  0.0000E+00  0.0000E+00
     -8.110  0.0000E+00  0.0000E+00
     -8.100  0.0000E+00  0.0000E+00
     -8.090  0.0000E+00  0.0000E+00
     -8.080  0.0000E+00  0.0000E+00
     -8.070  0.0000E+00  0.0000E+00
     -8.060  0.0000E+00  0.0000E+00
     -8.050  0.0000E+00  0.0000E+00
     -8.040  0.0000E+00  0.0000E+00
     -8.030  0.0000E+00  0.0000E+00
     -8.020  0.0000E+00  0.0000E+00
     -8.010  0.0000E+00  0.0000E+00
     -8.000  0.0000E+00  0.0000E+00
     -7.990  0.0000E+00  0.0000E+00
     -7.980  0.0000E+00  0.0000E+00
     -7.970  0.0000E+00  0.0000E+00
     -7.960  0.0000E+00  0.0000E+00
     -7.950  0.0000E+00  0.0000E+00
     -7.940  0.0000E+00  0.0000E+00
     -7.930  0.0000E+00  0.0000E+00
     -7.920  0.0000E+00  0.0000E+00
     -7.910  0.0000E+00  0.0000E+00
     -7.900  0.0000E+00  0.0000E+00
     -7.890  0.0000E+00  0.0000E+00
     -7.880  0.0000E+00  0.0000E+00
     -7.870  0.3852E-14  0.3852E-16
     -7.860  0.9268E-10  0.9269E-12
     -7.850  0.3162E-06  0.3163E-08
     -7.840  0.1564E-03  0.1567E-05
     -7.830  0.1169E-01  0.1185E-03
     -7.820  0.1417E+00  0.1536E-02
     -7.810  0.3028E+00  0.4564E-02
     -7.800  0.1185E+00  0.5749E-02
     -7.790  0.8111E-02  0.5830E-02
     -7.780  0.8922E-04  0.5831E-02
     -7.770  0.1476E-06  0.5831E-02
     -7.760  0.3526E-10  0.5831E-02
     -7.750  0.1165E-14  0.5831E-02
     -7.740  0.0000E+00  0.5831E-02
     -7.730  0.0000E+00  0.5831E-02
     -7.720  0.0000E+00  0.5831E-02
     -7.710  0.0000E+00  0.5831E-02
     -7.700  0.0000E+00  0.5831E-02
     -7.690  0.0000E+00  0.5831E-02
     -7.680  0.0000E+00  0.5831E-02
     -7.670  0.0000E+00  0.5831E-02
     -7.660  0.0000E+00  0.5831E-02
     -7.650  0.0000E+00  0.5831E-02
     -7.640  0.0000E+00  0.5831E-02
     -7.630  0.0000E+00  0.5831E-02
     -7.620  0.0000E+00  0.5831E-02
     -7.610  0.0000E+00  0.5831E-02
     -7.600  0.0000E+00  0.5831E-02
     -7.590  0.0000E+00  0.5831E-02
     -7.580  0.0000E+00  0.5831E-02
     -7.570  0.6340E-11  0.5831E-02
     -7.560  0.5695E-07  0.5831E-02
     -7.550  0.7315E-04  0.5832E-02
     -7.540  0.1387E-01  0.5970E-02
     -7.530  0.4105E+00  0.1008E-01
     -7.520  0.2056E+01  0.3063E-01
     -7.510  0.1869E+01  0.4932E-01
     -7.500  0.3070E+00  0.5239E-01
     -7.490  0.8450E-02  0.5248E-01
     -7.480  0.3602E-04  0.5248E-01
     -7.470  0.2257E-07  0.5248E-01
     -7.460  0.5066E-07  0.5248E-01
     -7.450  0.6248E-04  0.5248E-01
     -7.440  0.1139E-01  0.5259E-01
     -7.430  0.3243E+00  0.5584E-01
     -7.420  0.1566E+01  0.7149E-01
     -7.410  0.1374E+01  0.8523E-01
     -7.400  0.2175E+00  0.8741E-01
     -7.390  0.5761E-02  0.8746E-01
     -7.380  0.2359E-04  0.8746E-01
     -7.370  0.1419E-07  0.8746E-01
     -7.360  0.1217E-11  0.8746E-01
     -7.350  0.0000E+00  0.8746E-01
     -7.340  0.0000E+00  0.8746E-01
     -7.330  0.0000E+00  0.8746E-01
     -7.320  0.0000E+00  0.8746E-01
     -7.310  0.0000E+00  0.8746E-01
     -7.300  0.0000E+00  0.8746E-01
     -7.290  0.0000E+00  0.8746E-01
     -7.280  0.0000E+00  0.8746E-01
     -7.270  0.0000E+00  0.8746E-01
     -7.260  0.0000E+00  0.8746E-01
     -7.250  0.0000E+00  0.8746E-01
     -7.240  0.0000E+00  0.8746E-01
     -7.230  0.0000E+00  0.8746E-01
     -7.220  0.0000E+00  0.8746E-01
     -7.210  0.0000E+00  0.8746E-01
     -7.200  0.0000E+00  0.8746E-01
     -7.190  0.0000E+00  0.8746E-01
     -7.180  0.0000E+00  0.8746E-01
     -7.170  0.0000E+00  0.8746E-01
     -7.160  0.0000E+00  0.8746E-01
     -7.150  0.0000E+00  0.8746E-01
     -7.140  0.0000E+00  0.8746E-01
     -7.130  0.0000E+00  0.8746E-01
     -7.120  0.0000E+00  0.8746E-01
     -7.110  0.0000E+00  0.8746E-01
     -7.100  0.0000E+00  0.8746E-01
     -7.090  0.1041E-12  0.8746E-01
     -7.080  0.2172E-08  0.8746E-01
     -7.070  0.6417E-05  0.8746E-01
     -7.060  0.2754E-02  0.8749E-01
     -7.050  0.1795E+00  0.8929E-01
     -7.040  0.1908E+01  0.1084E+00
     -7.030  0.3593E+01  0.1443E+00
     -7.020  0.1239E+01  0.1567E+00
     -7.010  0.7427E-01  0.1574E+00
     -7.000  0.7114E-03  0.1574E+00
     -6.990  0.1021E-05  0.1574E+00
     -6.980  0.2111E-09  0.1574E+00
     -6.970  0.6215E-14  0.1574E+00
     -6.960  0.0000E+00  0.1574E+00
     -6.950  0.0000E+00  0.1574E+00
     -6.940  0.0000E+00  0.1574E+00
     -6.930  0.0000E+00  0.1574E+00
     -6.920  0.0000E+00  0.1574E+00
     -6.910  0.0000E+00  0.1574E+00
     -6.900  0.0000E+00  0.1574E+00
     -6.890  0.0000E+00  0.1574E+00
     -6.880  0.0000E+00  0.1574E+00
     -6.870  0.0000E+00  0.1574E+00
     -6.860  0.0000E+00  0.1574E+00
     -6.850  0.0000E+00  0.1574E+00
     -6.840  0.0000E+00  0.1574E+00
     -6.830  0.0000E+00  0.1574E+00
     -6.820  0.0000E+00  0.1574E+00
     -6.810  0.0000E+00  0.1574E+00
     -6.800  0.2758E-12  0.1574E+00
     -6.790  0.5466E-08  0.1574E+00
     -6.780  0.1536E-04  0.1574E+00
     -6.770  0.6277E-02  0.1575E+00
     -6.760  0.3900E+00  0.1614E+00
     -6.750  0.3962E+01  0.2010E+00
     -6.740  0.7143E+01  0.2724E+00
     -6.730  0.2357E+01  0.2960E+00
     -6.720  0.1349E+00  0.2974E+00
     -6.710  0.1232E-02  0.2974E+00
     -6.700  0.2702E-04  0.2974E+00
     -6.690  0.6591E-02  0.2974E+00
     -6.680  0.2645E+00  0.3001E+00
     -6.670  0.1771E+01  0.3178E+00
     -6.660  0.2136E+01  0.3392E+00
     -6.650  0.4687E+00  0.3438E+00
     -6.640  0.1749E-01  0.3440E+00
     -6.630  0.1022E-03  0.3440E+00
     -6.620  0.8838E-07  0.3440E+00
     -6.610  0.1094E-10  0.3440E+00
     -6.600  0.0000E+00  0.3440E+00
     -6.590  0.0000E+00  0.3440E+00
     -6.580  0.0000E+00  0.3440E+00
     -6.570  0.0000E+00  0.3440E+00
     -6.560  0.0000E+00  0.3440E+00
     -6.550  0.0000E+00  0.3440E+00
     -6.540  0.0000E+00  0.3440E+00
     -6.530  0.0000E+00  0.3440E+00
     -6.520  0.0000E+00  0.3440E+00
     -6.510  0.0000E+00  0.3440E+00
     -6.500  0.0000E+00  0.3440E+00
     -6.490  0.0000E+00  0.3440E+00
     -6.480  0.0000E+00  0.3440E+00
     -6.470  0.0000E+00  0.3440E+00
     -6.460  0.0000E+00  0.3440E+00
     -6.450  0.0000E+00  0.3440E+00
     -6.440  0.0000E+00  0.3440E+00
     -6.430  0.0000E+00  0.3440E+00
     -6.420  0.0000E+00  0.3440E+00
     -6.410  0.0000E+00  0.3440E+00
     -6.400  0.0000E+00  0.3440E+00
     -6.390  0.0000E+00  0.3440E+00
     -6.380  0.0000E+00  0.3440E+00
     -6.370  0.0000E+00  0.3440E+00
     -6.360  0.0000E+00  0.3440E+00
     -6.350  0.0000E+00  0.3440E+00
     -6.340  0.0000E+00  0.3440E+00
     -6.330  0.0000E+00  0.3440E+00
     -6.320  0.0000E+00  0.3440E+00
     -6.310  0.9710E-15  0.3440E+00
     -6.300  0.3734E-10  0.3440E+00
     -6.290  0.2231E-06  0.3440E+00
     -6.280  0.1917E-03  0.3440E+00
     -6.270  0.2453E-01  0.3443E+00
     -6.260  0.4974E+00  0.3492E+00
     -6.250  0.1738E+01  0.3666E+00
     -6.240  0.1110E+01  0.3777E+00
     -6.230  0.1265E+00  0.3790E+00
     -6.220  0.2372E-02  0.3790E+00
     -6.210  0.6800E-05  0.3790E+00
     -6.200  0.2843E-08  0.3790E+00
     -6.190  0.1686E-12  0.3790E+00
     -6.180  0.0000E+00  0.3790E+00
     -6.170  0.0000E+00  0.3790E+00
     -6.160  0.0000E+00  0.3790E+00
     -6.150  0.0000E+00  0.3790E+00
     -6.140  0.0000E+00  0.3790E+00
     -6.130  0.0000E+00  0.3790E+00
     -6.120  0.0000E+00  0.3790E+00
     -6.110  0.0000E+00  0.3790E+00
     -6.100  0.0000E+00  0.3790E+00
     -6.090  0.4661E-14  0.3790E+00
     -6.080  0.1878E-09  0.3790E+00
     -6.070  0.1071E-05  0.3790E+00
     -6.060  0.8792E-03  0.3790E+00
     -6.050  0.1076E+00  0.3801E+00
     -6.040  0.2091E+01  0.4010E+00
     -6.030  0.7014E+01  0.4711E+00
     -6.020  0.4302E+01  0.5142E+00
     -6.010  0.4702E+00  0.5189E+00
     -6.000  0.8443E-02  0.5190E+00
     -5.990  0.2313E-04  0.5190E+00
     -5.980  0.9235E-08  0.5190E+00
     -5.970  0.5236E-12  0.5190E+00
     -5.960  0.1579E-11  0.5190E+00
     -5.950  0.2275E-07  0.5190E+00
     -5.940  0.4660E-04  0.5190E+00
     -5.930  0.1396E-01  0.5191E+00
     -5.920  0.6423E+00  0.5255E+00
     -5.910  0.4897E+01  0.5745E+00
     -5.900  0.6698E+01  0.6415E+00
     -5.890  0.1671E+01  0.6582E+00
     -5.880  0.7132E-01  0.6589E+00
     -5.870  0.4795E-03  0.6589E+00
     -5.860  0.4785E-06  0.6589E+00
     -5.850  0.6851E-10  0.6589E+00
     -5.840  0.1554E-14  0.6589E+00
     -5.830  0.0000E+00  0.6589E+00
     -5.820  0.0000E+00  0.6589E+00
     -5.810  0.0000E+00  0.6589E+00
     -5.800  0.0000E+00  0.6589E+00
     -5.790  0.0000E+00  0.6589E+00
     -5.780  0.0000E+00  0.6589E+00
     -5.770  0.0000E+00  0.6589E+00
     -5.760  0.0000E+00  0.6589E+00
     -5.750  0.0000E+00  0.6589E+00
     -5.740  0.0000E+00  0.6589E+00
     -5.730  0.0000E+00  0.6589E+00
     -5.720  0.0000E+00  0.6589E+00
     -5.710  0.0000E+00  0.6589E+00
     -5.700  0.0000E+00  0.6589E+00
     -5.690  0.0000E+00  0.6589E+00
     -5.680  0.7768E-15  0.6589E+00
     -5.670  0.4301E-10  0.6589E+00
     -5.660  0.3294E-06  0.6589E+00
     -5.650  0.3615E-03  0.6589E+00
     -5.640  0.5876E-01  0.6595E+00
     -5.630  0.1499E+01  0.6745E+00
     -5.620  0.6520E+01  0.7397E+00
     -5.610  0.5163E+01  0.7913E+00
     -5.600  0.7354E+00  0.7987E+00
     -5.590  0.1743E-01  0.7988E+00
     -5.580  0.6364E-04  0.7988E+00
     -5.570  0.3404E-07  0.7988E+00
     -5.560  0.2776E-11  0.7988E+00
     -5.550  0.3221E-08  0.7988E+00
     -5.540  0.7988E-05  0.7988E+00
     -5.530  0.2887E-02  0.7989E+00
     -5.520  0.1593E+00  0.8005E+00
     -5.510  0.1444E+01  0.8149E+00
     -5.500  0.2334E+01  0.8382E+00
     -5.490  0.6896E+00  0.8451E+00
     -5.480  0.3516E-01  0.8455E+00
     -5.470  0.2845E-03  0.8455E+00
     -5.460  0.3432E-06  0.8455E+00
     -5.450  0.5956E-10  0.8455E+00
     -5.440  0.1554E-14  0.8455E+00
     -5.430  0.0000E+00  0.8455E+00
     -5.420  0.0000E+00  0.8455E+00
     -5.410  0.0000E+00  0.8455E+00
     -5.400  0.0000E+00  0.8455E+00
     -5.390  0.0000E+00  0.8455E+00
     -5.380  0.0000E+00  0.8455E+00
     -5.370  0.0000E+00  0.8455E+00
     -5.360  0.0000E+00  0.8455E+00
     -5.350  0.0000E+00  0.8455E+00
     -5.340  0.0000E+00  0.8455E+00
     -5.330  0.0000E+00  0.8455E+00
     -5.320  0.0000E+00  0.8455E+00
     -5.310  0.0000E+00  0.8455E+00
     -5.300  0.9011E-13  0.8455E+00
     -5.290  0.2174E-08  0.8455E+00
     -5.280  0.7453E-05  0.8455E+00
     -5.270  0.3704E-02  0.8455E+00
     -5.260  0.2782E+00  0.8483E+00
     -5.250  0.3388E+01  0.8822E+00
     -5.240  0.7269E+01  0.9549E+00
     -5.230  0.2857E+01  0.9834E+00
     -5.220  0.1964E+00  0.9854E+00
     -5.210  0.2171E-02  0.9854E+00
     -5.200  0.3608E-05  0.9854E+00
     -5.190  0.8663E-09  0.9854E+00
     -5.180  0.2952E-13  0.9854E+00
     -5.170  0.0000E+00  0.9854E+00
     -5.160  0.0000E+00  0.9854E+00
     -5.150  0.0000E+00  0.9854E+00
     -5.140  0.0000E+00  0.9854E+00
     -5.130  0.0000E+00  0.9854E+00
     -5.120  0.0000E+00  0.9854E+00
     -5.110  0.0000E+00  0.9854E+00
     -5.100  0.0000E+00  0.9854E+00
     -5.090  0.0000E+00  0.9854E+00
     -5.080  0.0000E+00  0.9854E+00
     -5.070  0.0000E+00  0.9854E+00
     -5.060  0.0000E+00  0.9854E+00
     -5.050  0.3496E-13  0.9854E+00
     -5.040  0.9960E-09  0.9854E+00
     -5.030  0.4028E-05  0.9854E+00
     -5.020  0.2355E-02  0.9854E+00
     -5.010  0.2072E+00  0.9875E+00
     -5.000  0.2935E+01  0.1017E+01
     -4.990  0.7276E+01  0.1090E+01
     -4.980  0.3306E+01  0.1123E+01
     -4.970  0.2654E+00  0.1125E+01
     -4.960  0.9975E-01  0.1126E+01
     -4.950  0.1415E+01  0.1140E+01
     -4.940  0.3633E+01  0.1177E+01
     -4.930  0.1709E+01  0.1194E+01
     -4.920  0.1417E+00  0.1195E+01
     -4.910  0.1905E-02  0.1195E+01
     -4.900  0.3874E-05  0.1195E+01
     -4.890  0.1142E-08  0.1195E+01
     -4.880  0.4816E-13  0.1195E+01
     -4.870  0.0000E+00  0.1195E+01
     -4.860  0.0000E+00  0.1195E+01
     -4.850  0.0000E+00  0.1195E+01
     -4.840  0.0000E+00  0.1195E+01
     -4.830  0.0000E+00  0.1195E+01
     -4.820  0.0000E+00  0.1195E+01
     -4.810  0.0000E+00  0.1195E+01
     -4.800  0.3107E-14  0.1195E+01
     -4.790  0.1615E-09  0.1195E+01
     -4.780  0.1092E-05  0.1195E+01
     -4.770  0.1059E-02  0.1195E+01
     -4.760  0.1527E+00  0.1197E+01
     -4.750  0.3469E+01  0.1232E+01
     -4.740  0.1351E+02  0.1367E+01
     -4.730  0.9603E+01  0.1463E+01
     -4.720  0.1223E+01  0.1475E+01
     -4.710  0.2577E-01  0.1475E+01
     -4.700  0.8334E-04  0.1475E+01
     -4.690  0.3938E-07  0.1475E+01
     -4.680  0.2647E-11  0.1475E+01
     -4.670  0.0000E+00  0.1475E+01
     -4.660  0.0000E+00  0.1475E+01
     -4.650  0.0000E+00  0.1475E+01
     -4.640  0.0000E+00  0.1475E+01
     -4.630  0.0000E+00  0.1475E+01
     -4.620  0.0000E+00  0.1475E+01
     -4.610  0.0000E+00  0.1475E+01
     -4.600  0.0000E+00  0.1475E+01
     -4.590  0.0000E+00  0.1475E+01
     -4.580  0.0000E+00  0.1475E+01
     -4.570  0.0000E+00  0.1475E+01
     -4.560  0.0000E+00  0.1475E+01
     -4.550  0.0000E+00  0.1475E+01
     -4.540  0.0000E+00  0.1475E+01
     -4.530  0.0000E+00  0.1475E+01
     -4.520  0.0000E+00  0.1475E+01
     -4.510  0.0000E+00  0.1475E+01
     -4.500  0.0000E+00  0.1475E+01
     -4.490  0.0000E+00  0.1475E+01
     -4.480  0.0000E+00  0.1475E+01
     -4.470  0.0000E+00  0.1475E+01
     -4.460  0.0000E+00  0.1475E+01
     -4.450  0.0000E+00  0.1475E+01
     -4.440  0.0000E+00  0.1475E+01
     -4.430  0.0000E+00  0.1475E+01
     -4.420  0.9281E-12  0.1475E+01
     -4.410  0.1139E-07  0.1475E+01
     -4.400  0.1993E-04  0.1475E+01
     -4.390  0.5112E-02  0.1475E+01
     -4.380  0.2025E+00  0.1477E+01
     -4.370  0.1338E+01  0.1491E+01
     -4.360  0.1594E+01  0.1507E+01
     -4.350  0.3454E+00  0.1510E+01
     -4.340  0.1272E-01  0.1510E+01
     -4.330  0.7332E-04  0.1510E+01
     -4.320  0.6251E-07  0.1510E+01
     -4.310  0.7631E-11  0.1510E+01
     -4.300  0.0000E+00  0.1510E+01
     -4.290  0.0000E+00  0.1510E+01
     -4.280  0.0000E+00  0.1510E+01
     -4.270  0.8545E-13  0.1510E+01
     -4.260  0.2081E-08  0.1510E+01
     -4.250  0.7201E-05  0.1510E+01
     -4.240  0.3611E-02  0.1510E+01
     -4.230  0.2737E+00  0.1513E+01
     -4.220  0.3361E+01  0.1547E+01
     -4.210  0.7271E+01  0.1619E+01
     -4.200  0.2882E+01  0.1648E+01
     -4.190  0.1998E+00  0.1650E+01
     -4.180  0.2228E-02  0.1650E+01
     -4.170  0.4152E-04  0.1650E+01
     -4.160  0.1201E-01  0.1650E+01
     -4.150  0.5856E+00  0.1656E+01
     -4.140  0.4718E+01  0.1703E+01
     -4.130  0.6805E+01  0.1771E+01
     -4.120  0.1792E+01  0.1789E+01
     -4.110  0.8095E-01  0.1790E+01
     -4.100  0.5773E-03  0.1790E+01
     -4.090  0.6121E-06  0.1790E+01
     -4.080  0.9316E-10  0.1790E+01
     -4.070  0.3107E-14  0.1790E+01
     -4.060  0.0000E+00  0.1790E+01
     -4.050  0.0000E+00  0.1790E+01
     -4.040  0.0000E+00  0.1790E+01
     -4.030  0.0000E+00  0.1790E+01
     -4.020  0.0000E+00  0.1790E+01
     -4.010  0.0000E+00  0.1790E+01
     -4.000  0.0000E+00  0.1790E+01
     -3.990  0.0000E+00  0.1790E+01
     -3.980  0.0000E+00  0.1790E+01
     -3.970  0.0000E+00  0.1790E+01
     -3.960  0.0000E+00  0.1790E+01
     -3.950  0.0000E+00  0.1790E+01
     -3.940  0.0000E+00  0.1790E+01
     -3.930  0.0000E+00  0.1790E+01
     -3.920  0.0000E+00  0.1790E+01
     -3.910  0.0000E+00  0.1790E+01
     -3.900  0.0000E+00  0.1790E+01
     -3.890  0.0000E+00  0.1790E+01
     -3.880  0.0000E+00  0.1790E+01
     -3.870  0.0000E+00  0.1790E+01
     -3.860  0.0000E+00  0.1790E+01
     -3.850  0.0000E+00  0.1790E+01
     -3.840  0.0000E+00  0.1790E+01
     -3.830  0.0000E+00  0.1790E+01
     -3.820  0.0000E+00  0.1790E+01
     -3.810  0.0000E+00  0.1790E+01
     -3.800  0.0000E+00  0.1790E+01
     -3.790  0.0000E+00  0.1790E+01
     -3.780  0.0000E+00  0.1790E+01
     -3.770  0.0000E+00  0.1790E+01
     -3.760  0.0000E+00  0.1790E+01
     -3.750  0.0000E+00  0.1790E+01
     -3.740  0.0000E+00  0.1790E+01
     -3.730  0.0000E+00  0.1790E+01
     -3.720  0.0000E+00  0.1790E+01
     -3.710  0.0000E+00  0.1790E+01
     -3.700  0.7924E-13  0.1790E+01
     -3.690  0.1963E-08  0.1790E+01
     -3.680  0.6879E-05  0.1790E+01
     -3.670  0.3492E-02  0.1790E+01
     -3.660  0.2679E+00  0.1793E+01
     -3.650  0.3327E+01  0.1826E+01
     -3.640  0.7275E+01  0.1899E+01
     -3.630  0.2915E+01  0.1928E+01
     -3.620  0.2044E+00  0.1930E+01
     -3.610  0.2307E-02  0.1930E+01
     -3.600  0.3917E-05  0.1930E+01
     -3.590  0.9612E-09  0.1930E+01
     -3.580  0.3418E-13  0.1930E+01
     -3.570  0.0000E+00  0.1930E+01
     -3.560  0.0000E+00  0.1930E+01
     -3.550  0.0000E+00  0.1930E+01
     -3.540  0.0000E+00  0.1930E+01
     -3.530  0.0000E+00  0.1930E+01
     -3.520  0.0000E+00  0.1930E+01
     -3.510  0.0000E+00  0.1930E+01
     -3.500  0.0000E+00  0.1930E+01
     -3.490  0.0000E+00  0.1930E+01
     -3.480  0.0000E+00  0.1930E+01
     -3.470  0.0000E+00  0.1930E+01
     -3.460  0.0000E+00  0.1930E+01
     -3.450  0.0000E+00  0.1930E+01
     -3.440  0.0000E+00  0.1930E+01
     -3.430  0.0000E+00  0.1930E+01
     -3.420  0.0000E+00  0.1930E+01
     -3.410  0.0000E+00  0.1930E+01
     -3.400  0.0000E+00  0.1930E+01
     -3.390  0.0000E+00  0.1930E+01
     -3.380  0.0000E+00  0.1930E+01
     -3.370  0.0000E+00  0.1930E+01
     -3.360  0.3884E-15  0.1930E+01
     -3.350  0.2545E-10  0.1930E+01
     -3.340  0.1885E-06  0.1930E+01
     -3.330  0.2002E-03  0.1930E+01
     -3.320  0.3152E-01  0.1930E+01
     -3.310  0.7798E+00  0.1938E+01
     -3.300  0.3293E+01  0.1971E+01
     -3.290  0.2534E+01  0.1996E+01
     -3.280  0.3503E+00  0.2000E+01
     -3.270  0.8050E-02  0.2000E+01
     -3.260  0.2846E-04  0.2000E+01
     -3.250  0.1473E-07  0.2000E+01
     -3.240  0.1084E-11  0.2000E+01
     -3.230  0.0000E+00  0.2000E+01
     -3.220  0.0000E+00  0.2000E+01
     -3.210  0.0000E+00  0.2000E+01
     -3.200  0.0000E+00  0.2000E+01
     -3.190  0.0000E+00  0.2000E+01
     -3.180  0.0000E+00  0.2000E+01
     -3.170  0.0000E+00  0.2000E+01
     -3.160  0.0000E+00  0.2000E+01
     -3.150  0.0000E+00  0.2000E+01
     -3.140  0.0000E+00  0.2000E+01
     -3.130  0.0000E+00  0.2000E+01
     -3.120  0.0000E+00  0.2000E+01
     -3.110  0.0000E+00  0.2000E+01
     -3.100  0.0000E+00  0.2000E+01
     -3.090  0.0000E+00  0.2000E+01
     -3.080  0.0000E+00  0.2000E+01
     -3.070  0.0000E+00  0.2000E+01
     -3.060  0.0000E+00  0.2000E+01
     -3.050  0.0000E+00  0.2000E+01
     -3.040  0.0000E+00  0.2000E+01
     -3.030  0.1164E-11  0.2000E+01
     -3.020  0.1560E-07  0.2000E+01
     -3.010  0.2975E-04  0.2000E+01
     -3.000  0.8308E-02  0.2000E+01
     -2.990  0.3571E+00  0.2004E+01
     -2.980  0.2553E+01  0.2029E+01
     -2.970  0.3280E+01  0.2062E+01
     -2.960  0.7678E+00  0.2070E+01
     -2.950  0.3066E-01  0.2070E+01
     -2.940  0.1923E-03  0.2070E+01
     -2.930  0.1787E-06  0.2070E+01
     -2.920  0.2381E-10  0.2070E+01
     -2.910  0.0000E+00  0.2070E+01
     -2.900  0.0000E+00  0.2070E+01
     -2.890  0.0000E+00  0.2070E+01
     -2.880  0.0000E+00  0.2070E+01
     -2.870  0.0000E+00  0.2070E+01
     -2.860  0.0000E+00  0.2070E+01
     -2.850  0.0000E+00  0.2070E+01
     -2.840  0.0000E+00  0.2070E+01
     -2.830  0.0000E+00  0.2070E+01
     -2.820  0.0000E+00  0.2070E+01
     -2.810  0.0000E+00  0.2070E+01
     -2.800  0.0000E+00  0.2070E+01
     -2.790  0.0000E+00  0.2070E+01
     -2.780  0.0000E+00  0.2070E+01
     -2.770  0.0000E+00  0.2070E+01
     -2.760  0.0000E+00  0.2070E+01
     -2.750  0.0000E+00  0.2070E+01
     -2.740  0.0000E+00  0.2070E+01
     -2.730  0.0000E+00  0.2070E+01
     -2.720  0.0000E+00  0.2070E+01
     -2.710  0.0000E+00  0.2070E+01
     -2.700  0.0000E+00  0.2070E+01
     -2.690  0.0000E+00  0.2070E+01
     -2.680  0.0000E+00  0.2070E+01
     -2.670  0.0000E+00  0.2070E+01
     -2.660  0.0000E+00  0.2070E+01
     -2.650  0.0000E+00  0.2070E+01
     -2.640  0.0000E+00  0.2070E+01
     -2.630  0.0000E+00  0.2070E+01
     -2.620  0.0000E+00  0.2070E+01
     -2.610  0.0000E+00  0.2070E+01
     -2.600  0.0000E+00  0.2070E+01
     -2.590  0.0000E+00  0.2070E+01
     -2.580  0.0000E+00  0.2070E+01
     -2.570  0.0000E+00  0.2070E+01
     -2.560  0.0000E+00  0.2070E+01
     -2.550  0.0000E+00  0.2070E+01
     -2.540  0.0000E+00  0.2070E+01
     -2.530  0.0000E+00  0.2070E+01
     -2.520  0.0000E+00  0.2070E+01
     -2.510  0.0000E+00  0.2070E+01
     -2.500  0.7768E-15  0.2070E+01
     -2.490  0.5667E-10  0.2070E+01
     -2.480  0.4110E-06  0.2070E+01
     -2.470  0.4274E-03  0.2070E+01
     -2.460  0.6592E-01  0.2071E+01
     -2.450  0.1599E+01  0.2087E+01
     -2.440  0.6628E+01  0.2153E+01
     -2.430  0.5007E+01  0.2203E+01
     -2.420  0.6791E+00  0.2210E+01
     -2.410  0.1529E-01  0.2210E+01
     -2.400  0.5296E-04  0.2210E+01
     -2.390  0.2683E-07  0.2210E+01
     -2.380  0.1936E-11  0.2210E+01
     -2.370  0.0000E+00  0.2210E+01
     -2.360  0.0000E+00  0.2210E+01
     -2.350  0.0000E+00  0.2210E+01
     -2.340  0.0000E+00  0.2210E+01
     -2.330  0.0000E+00  0.2210E+01
     -2.320  0.0000E+00  0.2210E+01
     -2.310  0.0000E+00  0.2210E+01
     -2.300  0.0000E+00  0.2210E+01
     -2.290  0.0000E+00  0.2210E+01
     -2.280  0.0000E+00  0.2210E+01
     -2.270  0.0000E+00  0.2210E+01
     -2.260  0.0000E+00  0.2210E+01
     -2.250  0.0000E+00  0.2210E+01
     -2.240  0.0000E+00  0.2210E+01
     -2.230  0.0000E+00  0.2210E+01
     -2.220  0.0000E+00  0.2210E+01
     -2.210  0.0000E+00  0.2210E+01
     -2.200  0.0000E+00  0.2210E+01
     -2.190  0.0000E+00  0.2210E+01
     -2.180  0.0000E+00  0.2210E+01
     -2.170  0.0000E+00  0.2210E+01
     -2.160  0.8390E-13  0.2210E+01
     -2.150  0.2064E-08  0.2210E+01
     -2.140  0.7156E-05  0.2210E+01
     -2.130  0.3595E-02  0.2210E+01
     -2.120  0.2729E+00  0.2213E+01
     -2.110  0.3357E+01  0.2246E+01
     -2.100  0.7272E+01  0.2319E+01
     -2.090  0.2933E+01  0.2348E+01
     -2.080  0.1518E+01  0.2363E+01
     -2.070  0.6294E+01  0.2426E+01
     -2.060  0.5460E+01  0.2481E+01
     -2.050  0.8546E+00  0.2490E+01
     -2.040  0.2237E-01  0.2490E+01
     -2.030  0.9357E-04  0.2490E+01
     -2.020  0.1933E-02  0.2490E+01
     -2.010  0.1819E+00  0.2492E+01
     -2.000  0.2749E+01  0.2519E+01
     -1.990  0.7253E+01  0.2592E+01
     -1.980  0.3505E+01  0.2627E+01
     -1.970  0.2990E+00  0.2630E+01
     -1.960  0.4140E-02  0.2630E+01
     -1.950  0.8679E-05  0.2630E+01
     -1.940  0.1156E-07  0.2630E+01
     -1.930  0.1650E-04  0.2630E+01
     -1.920  0.4472E-02  0.2630E+01
     -1.910  0.1867E+00  0.2632E+01
     -1.900  0.1299E+01  0.2645E+01
     -1.890  0.1624E+01  0.2661E+01
     -1.880  0.3700E+00  0.2665E+01
     -1.870  0.1436E-01  0.2665E+01
     -1.860  0.8740E-04  0.2665E+01
     -1.850  0.1723E-04  0.2665E+01
     -1.840  0.4993E-02  0.2665E+01
     -1.830  0.2235E+00  0.2667E+01
     -1.820  0.1661E+01  0.2684E+01
     -1.810  0.2215E+01  0.2706E+01
     -1.800  0.5384E+00  0.2711E+01
     -1.790  0.2237E-01  0.2711E+01
     -1.780  0.1463E-03  0.2711E+01
     -1.770  0.1418E-06  0.2711E+01
     -1.760  0.1973E-10  0.2711E+01
     -1.750  0.0000E+00  0.2711E+01