    2    2    1    1
  0.2002172E+02  0.3840156E-09  0.3840156E-09  0.3840156E-09  0.5000000E-15
  1.000000000000000E-004
  CAR 
 unknown system                          
      8     20      8
 
  0.0000000E+00  0.0000000E+00  0.0000000E+00  0.2915452E-02
    1       -7.815525   1.000000
    2        5.478136   1.000000
    3        5.478145   1.000000
    4        5.478148   1.000000
    5        8.822807   0.000000
    6        8.822823   0.000000
    7        8.822830   0.000000
    8        9.833288   0.000000
 
  0.1428571E+00  0.0000000E+00  0.0000000E+00  0.2332362E-01
    1       -7.520562   1.000000
    2        3.414939   1.000000
    3        5.103220   1.000000
    4        5.103224   1.000000
    5        8.705947   0.000000
    6        9.377675   0.000000
    7        9.377695   0.000000
    8       11.513637   0.000000
 
  0.2857143E+00  0.0000000E+00  0.0000000E+00  0.2332362E-01
    1       -6.668894   1.000000
    2        0.476566   1.000000
    3        4.531768   1.000000
    4        4.531772   1.000000
    5        8.138155   0.000000
    6        9.861174   0.000000
    7        9.861202   0.000000
    8       14.013610   0.000000
 
  0.4285714E+00  0.0000000E+00  0.0000000E+00  0.2332362E-01
    1       -5.507166   1.000000
    2       -1.818299   1.000000
    3        4.202361   1.000000
    4        4.202373   1.000000
    5        7.791275   0.000000
    6        9.687101   0.000000
    7        9.687130   0.000000
    8       14.175557   0.000000
 
  0.1428571E+00  0.1428571E+00  0.0000000E+00  0.1749271E-01
    1       -7.420773   1.000000
    2        3.752202   1.000000
    3        4.442458   1.000000
    4        4.442467   1.000000
    5        8.061006   0.000000
    6       10.321099   0.000000
    7       10.321109   0.000000
    8       10.869523   0.000000
 
  0.2857143E+00  0.1428571E+00  0.0000000E+00  0.6997085E-01
    1       -6.746522   1.000000
    2        1.372025   1.000000
    3        3.828186   1.000000
    4        3.834682   1.000000
    5        8.246725   0.000000
    6       10.322433   0.000000
    7       10.872779   0.000000
    8       11.174301   0.000000
 
  0.4285714E+00  0.1428571E+00  0.0000000E+00  0.6997085E-01
    1       -5.621378   1.000000
    2       -1.093686   1.000000
    3        3.067378   1.000000
    4        3.614379   1.000000
    5        8.337680   0.000000
    6       10.164805   0.000000
    7       10.926041   0.000000
    8       12.244983   0.000000
 
 -0.4285714E+00  0.1428571E+00  0.0000000E+00  0.6997085E-01
    1       -4.994651   1.000000
    2       -2.070838   1.000000
    3        2.602259   1.000000
    4        3.828112   1.000000
    5        8.466055   0.000000
    6       10.033896   0.000000
    7       10.499926   0.000000
    8       14.885280   0.000000
 
 -0.2857143E+00  0.1428571E+00  0.0000000E+00  0.6997085E-01
    1       -6.032886   1.000000
    2       -0.325629   1.000000
    3        2.607986   1.000000
    4        4.396445   1.000000
    5        8.927312   0.000000
    6       10.225387   0.000000
    7       10.271385   0.000000
    8       13.227298   0.000000
 
 -0.1428571E+00  0.1428571E+00  0.0000000E+00  0.3498542E-01
    1       -7.036265   1.000000
    2        2.065889   1.000000
    3        3.377913   1.000000
    4        5.045437   1.000000
    5        9.404662   0.000000
    6        9.629002   0.000000
    7        9.796280   0.000000
    8       12.112224   0.000000
 
  0.2857143E+00  0.2857143E+00  0.0000000E+00  0.1749271E-01
    1       -6.252649   1.000000
    2        0.924301   1.000000
    3        3.137859   1.000000
    4        3.137866   1.000000
    5        7.022266   0.000000
    6        8.829068   0.000000
    7       12.964711   0.000000
    8       12.964720   0.000000
 
  0.4285714E+00  0.2857143E+00  0.0000000E+00  0.6997085E-01
    1       -5.245499   1.000000
    2       -0.774566   1.000000
    3        2.080445   1.000000
    4        2.841314   1.000000
    5        7.322412   0.000000
    6        8.912452   0.000000
    7       13.205287   0.000000
    8       13.364324   0.000000
 
 -0.4285714E+00  0.2857143E+00  0.0000000E+00  0.6997085E-01
    1       -4.215451   1.000000
    2       -2.105443   1.000000
    3        1.021260   1.000000
    4        3.027738   1.000000
    5        7.590986   0.000000
    6       11.307918   0.000000
    7       12.825334   0.000000
    8       12.934320   0.000000
 
 -0.2857143E+00  0.2857143E+00  0.0000000E+00  0.3498542E-01
    1       -4.944446   1.000000
    2       -1.258744   1.000000
    3        0.938512   1.000000
    4        3.639460   1.000000
    5        8.258864   0.000000
    6       11.983714   0.000000
    7       12.194954   0.000000
    8       13.212819   0.000000
 
  0.4285714E+00  0.4285714E+00  0.0000000E+00  0.1749271E-01
    1       -4.368967   1.000000
    2       -1.898677   1.000000
    3        2.422104   1.000000
    4        2.422108   1.000000
    5        6.637145   0.000000
    6        7.192360   0.000000
    7       15.826792   0.000000
    8       15.826805   0.000000
 
 -0.4285714E+00  0.4285714E+00  0.0000000E+00  0.3498542E-01
    1       -3.301548   1.000000
    2       -2.978519   1.000000
    3        1.463379   1.000000
    4        2.490646   1.000000
    5        6.963449   0.000000
    6        8.301863   0.000000
    7       15.622467   0.000000
    8       16.107522   0.000000
 
  0.4285714E+00  0.2857143E+00  0.1428571E+00  0.6997085E-01
    1       -5.908151   1.000000
    2        0.088017   1.000000
    3        2.092333   1.000000
    4        3.543065   1.000000
    5        8.791445   0.000000
    6       10.136898   0.000000
    7       10.513197   0.000000
    8       12.679192   0.000000
 
 -0.4285714E+00  0.2857143E+00  0.1428571E+00  0.1399417E+00
    1       -4.742017   1.000000
    2       -1.641031   1.000000
    3        1.454534   1.000000
    4        2.948905   1.000000
    5        9.311516   0.000000
    6        9.773693   0.000000
    7       11.926113   0.000000
    8       13.157140   0.000000
 
 -0.4285714E+00  0.4285714E+00  0.1428571E+00  0.6997085E-01
    1       -4.137837   1.000000
    2       -1.994288   1.000000
    3        1.542586   1.000000
    4        1.994344   1.000000
    5        8.383856   0.000000
    6        8.775881   0.000000
    7       12.685645   0.000000
    8       15.647292   0.000000
 
 -0.2857143E+00  0.4285714E+00  0.1428571E+00  0.6997085E-01
    1       -3.645388   1.000000
    2       -2.441657   1.000000
    3        0.831588   1.000000
    4        2.100938   1.000000
    5        8.948166   0.000000
    6       11.175322   0.000000
    7       12.184784   0.000000
    8       12.276459   0.000000
