 vasp.5.4.1 05Feb16 (build Mar 02 2016 14:09:44) complex                        
  
 executed on   Abel-impi-ifc-cuda date 2019.09.27  09:58:32
 running on    4 total cores
 distrk:  each k-point on    4 cores,    1 groups
 distr:  one band on NCORES_PER_BAND=   1 cores,    4 groups


--------------------------------------------------------------------------------------------------------


 INCAR:
 POTCAR:   PAW_PBE Si 05Jan2001                   
 POTCAR:   PAW_PBE Si 05Jan2001                   
   VRHFIN =Si: s2p2                                                             
   LEXCH  = PE                                                                  
   EATOM  =   103.0669 eV,    7.5752 Ry                                         
                                                                                
   TITEL  = PAW_PBE Si 05Jan2001                                                
   LULTRA =        F    use ultrasoft PP ?                                      
   IUNSCR =        1    unscreen: 0-lin 1-nonlin 2-no                           
   RPACOR =    1.500    partial core radius                                     
   POMASS =   28.085; ZVAL   =    4.000    mass and valenz                      
   RCORE  =    1.900    outmost cutoff radius                                   
   RWIGS  =    2.480; RWIGS  =    1.312    wigner-seitz radius (au A)           
   ENMAX  =  245.345; ENMIN  =  184.009 eV                                      
   ICORE  =        2    local potential                                         
   LCOR   =        T    correct aug charges                                     
   LPAW   =        T    paw PP                                                  
   EAUG   =  322.069                                                            
   DEXC   =    -.007                                                            
   RMAX   =    2.944    core radius for proj-oper                               
   RAUG   =    1.300    factor for augmentation sphere                          
   RDEP   =    1.993    radius for radial grids                                 
   QCUT   =   -4.246; QGAM   =    8.493    optimization parameters              
                                                                                
   Description                                                                  
     l     E      TYP  RCUT    TYP  RCUT                                        
     0   .000     23  1.900                                                     
     0   .000     23  1.900                                                     
     1   .000     23  1.900                                                     
     1   .000     23  1.900                                                     
     2   .000      7  1.900                                                     
  local pseudopotential read in
  partial core-charges read in
  atomic valenz-charges read in
  non local Contribution for L=           0  read in
    real space projection operators read in
  non local Contribution for L=           0  read in
    real space projection operators read in
  non local Contribution for L=           1  read in
    real space projection operators read in
  non local Contribution for L=           1  read in
    real space projection operators read in
    PAW grid and wavefunctions read in
 
   number of l-projection  operators is LMAX  =           4
   number of lm-projection operators is LMMAX =           8
 

 ----------------------------------------------------------------------------- 
|                                                                             |
|  ADVICE TO THIS USER RUNNING 'VASP/VAMP'   (HEAR YOUR MASTER'S VOICE ...):  |
|                                                                             |
|      You have a (more or less) 'small supercell' and for smaller cells      |
|      it is recommended  to use the reciprocal-space projection scheme!      |
|      The real space optimization is not  efficient for small cells and it   |
|      is also less accurate ...                                              |
|      Therefore set LREAL=.FALSE. in the  INCAR file                         |
|                                                                             |
 ----------------------------------------------------------------------------- 

 Optimization of the real space projectors (new method)

 maximal supplied QI-value         = 19.84
 optimisation between [QCUT,QGAM] = [  7.94, 16.07] = [ 17.64, 72.34] Ry 
 Optimized for a Real-space Cutoff    1.55 Angstroem

   l    n(q)    QCUT    max X(q) W(low)/X(q) W(high)/X(q)  e(spline) 
   0      7     7.937     8.708    0.25E-04    0.20E-04    0.11E-07
   0      7     7.937   106.241    0.95E-04    0.31E-03    0.13E-06
   1      7     7.937     5.901    0.19E-04    0.32E-04    0.50E-07
   1      7     7.937    73.241    0.39E-03    0.64E-03    0.12E-06
 PAW_PBE Si 05Jan2001                   :
 energy of atom  1       EATOM= -103.0669
 kinetic energy error for atom=    0.0052 (will be added to EATOM!!)
 
 
 POSCAR: Si_bulk_icsd_60385                      
  positions in direct lattice
  velocities in cartesian coordinates
 exchange correlation table for  LEXCH =        8
   RHO(1)=    0.500       N(1)  =     2000
   RHO(2)=  100.500       N(2)  =     4000
 


--------------------------------------------------------------------------------------------------------


 ion  position               nearest neighbor table
   1  0.000  0.000  0.000-   2 2.35   2 2.35   2 2.35   2 2.35
   2  0.250  0.250  0.250-   1 2.35   1 2.35   1 2.35   1 2.35
 
  LATTYP: Found a face centered cubic cell.
 ALAT       =     5.4308000000
  
  Lattice vectors:
  
 A1 = (   0.0000000000,   2.7154000000,   2.7154000000)
 A2 = (   2.7154000000,   0.0000000000,   2.7154000000)
 A3 = (   2.7154000000,   2.7154000000,   0.0000000000)


Analysis of symmetry for initial positions (statically):
=====================================================================
 Subroutine PRICEL returns:
 Original cell was already a primitive cell.
 

 Routine SETGRP: Setting up the symmetry group for a 
 face centered cubic supercell.


 Subroutine GETGRP returns: Found 48 space group operations
 (whereof 24 operations were pure point group operations)
 out of a pool of 48 trial point group operations.


The static configuration has the point symmetry T_d .
 The point group associated with its full space group is O_h .


Analysis of symmetry for dynamics (positions and initial velocities):
=====================================================================
 Subroutine PRICEL returns:
 Original cell was already a primitive cell.
 

 Routine SETGRP: Setting up the symmetry group for a 
 face centered cubic supercell.


 Subroutine GETGRP returns: Found 48 space group operations
 (whereof 24 operations were pure point group operations)
 out of a pool of 48 trial point group operations.


The dynamic configuration has the point symmetry T_d .
 The point group associated with its full space group is O_h .


 Subroutine INISYM returns: Found 48 space group operations
 (whereof 24 operations are pure point group operations),
 and found     1 'primitive' translations

 
 
 KPOINTS: k-density: 4.0                          

Automatic generation of k-mesh.
Space group operators:
 irot       det(A)        alpha          n_x          n_y          n_z        tau_x        tau_y        tau_z
    1     1.000000     0.000000     1.000000     0.000000     0.000000     0.000000     0.000000     0.000000
    2     1.000000   120.000000    -0.577350    -0.577350    -0.577350     0.000000     0.000000     0.000000
    3     1.000000   120.000000     0.577350     0.577350     0.577350     0.000000     0.000000     0.000000
    4    -1.000000    90.000000     0.000000     0.000000    -1.000000     0.000000     0.000000     0.000000
    5    -1.000000   180.000000     0.000000     0.707107     0.707107     0.000000     0.000000     0.000000
    6    -1.000000    90.000000     0.000000     1.000000     0.000000     0.000000     0.000000     0.000000
    7     1.000000   180.000000     0.000000     0.000000     1.000000     0.000000     0.000000     0.000000
    8     1.000000   120.000000    -0.577350     0.577350     0.577350     0.000000     0.000000     0.000000
    9     1.000000   120.000000    -0.577350     0.577350    -0.577350     0.000000     0.000000     0.000000
   10    -1.000000    90.000000     0.000000     0.000000     1.000000     0.000000     0.000000     0.000000
   11    -1.000000    90.000000    -1.000000     0.000000     0.000000     0.000000     0.000000     0.000000
   12    -1.000000   180.000000     0.707107     0.000000     0.707107     0.000000     0.000000     0.000000
   13     1.000000   120.000000     0.577350    -0.577350     0.577350     0.000000     0.000000     0.000000
   14     1.000000   120.000000    -0.577350    -0.577350     0.577350     0.000000     0.000000     0.000000
   15     1.000000   180.000000     1.000000     0.000000     0.000000     0.000000     0.000000     0.000000
   16    -1.000000    90.000000     0.000000    -1.000000     0.000000     0.000000     0.000000     0.000000
   17    -1.000000   180.000000     0.707107     0.707107     0.000000     0.000000     0.000000     0.000000
   18    -1.000000    90.000000     1.000000     0.000000     0.000000     0.000000     0.000000     0.000000
   19     1.000000   120.000000     0.577350    -0.577350    -0.577350     0.000000     0.000000     0.000000
   20     1.000000   180.000000     0.000000     1.000000     0.000000     0.000000     0.000000     0.000000
   21     1.000000   120.000000     0.577350     0.577350    -0.577350     0.000000     0.000000     0.000000
   22    -1.000000   180.000000     0.000000    -0.707107     0.707107     0.000000     0.000000     0.000000
   23    -1.000000   180.000000     0.707107    -0.707107     0.000000     0.000000     0.000000     0.000000
   24    -1.000000   180.000000     0.707107     0.000000    -0.707107     0.000000     0.000000     0.000000
   25    -1.000000     0.000000     1.000000     0.000000     0.000000     0.250000     0.250000     0.250000
   26    -1.000000   120.000000    -0.577350    -0.577350    -0.577350     0.250000     0.250000     0.250000
   27    -1.000000   120.000000     0.577350     0.577350     0.577350     0.250000     0.250000     0.250000
   28     1.000000    90.000000     0.000000     0.000000    -1.000000     0.250000     0.250000     0.250000
   29     1.000000   180.000000     0.000000     0.707107     0.707107     0.250000     0.250000     0.250000
   30     1.000000    90.000000     0.000000     1.000000     0.000000     0.250000     0.250000     0.250000
   31    -1.000000   180.000000     0.000000     0.000000     1.000000     0.250000     0.250000     0.250000
   32    -1.000000   120.000000    -0.577350     0.577350     0.577350     0.250000     0.250000     0.250000
   33    -1.000000   120.000000    -0.577350     0.577350    -0.577350     0.250000     0.250000     0.250000
   34     1.000000    90.000000     0.000000     0.000000     1.000000     0.250000     0.250000     0.250000
   35     1.000000    90.000000    -1.000000     0.000000     0.000000     0.250000     0.250000     0.250000
   36     1.000000   180.000000     0.707107     0.000000     0.707107     0.250000     0.250000     0.250000
   37    -1.000000   120.000000     0.577350    -0.577350     0.577350     0.250000     0.250000     0.250000
   38    -1.000000   120.000000    -0.577350    -0.577350     0.577350     0.250000     0.250000     0.250000
   39    -1.000000   180.000000     1.000000     0.000000     0.000000     0.250000     0.250000     0.250000
   40     1.000000    90.000000     0.000000    -1.000000     0.000000     0.250000     0.250000     0.250000
   41     1.000000   180.000000     0.707107     0.707107     0.000000     0.250000     0.250000     0.250000
   42     1.000000    90.000000     1.000000     0.000000     0.000000     0.250000     0.250000     0.250000
   43    -1.000000   120.000000     0.577350    -0.577350    -0.577350     0.250000     0.250000     0.250000
   44    -1.000000   180.000000     0.000000     1.000000     0.000000     0.250000     0.250000     0.250000
   45    -1.000000   120.000000     0.577350     0.577350    -0.577350     0.250000     0.250000     0.250000
   46     1.000000   180.000000     0.000000    -0.707107     0.707107     0.250000     0.250000     0.250000
   47     1.000000   180.000000     0.707107    -0.707107     0.000000     0.250000     0.250000     0.250000
   48     1.000000   180.000000     0.707107     0.000000    -0.707107     0.250000     0.250000     0.250000
 
 Subroutine IBZKPT returns following result:
 ===========================================
 
 Found     20 irreducible k-points:
 
 Following reciprocal coordinates:
            Coordinates               Weight
  0.000000  0.000000  0.000000      1.000000
  0.142857  0.000000  0.000000      8.000000
  0.285714  0.000000  0.000000      8.000000
  0.428571  0.000000  0.000000      8.000000
  0.142857  0.142857  0.000000      6.000000
  0.285714  0.142857  0.000000     24.000000
  0.428571  0.142857  0.000000     24.000000
 -0.428571  0.142857  0.000000     24.000000
 -0.285714  0.142857  0.000000     24.000000
 -0.142857  0.142857  0.000000     12.000000
  0.285714  0.285714  0.000000      6.000000
  0.428571  0.285714  0.000000     24.000000
 -0.428571  0.285714  0.000000     24.000000
 -0.285714  0.285714  0.000000     12.000000
  0.428571  0.428571  0.000000      6.000000
 -0.428571  0.428571  0.000000     12.000000
  0.428571  0.285714  0.142857     24.000000
 -0.428571  0.285714  0.142857     48.000000
 -0.428571  0.428571  0.142857     24.000000
 -0.285714  0.428571  0.142857     24.000000
 
 Following cartesian coordinates:
            Coordinates               Weight
  0.000000  0.000000  0.000000      1.000000
 -0.026305  0.026305  0.026305      8.000000
 -0.052610  0.052610  0.052610      8.000000
 -0.078915  0.078915  0.078915      8.000000
  0.000000  0.000000  0.052610      6.000000
 -0.026305  0.026305  0.078915     24.000000
 -0.052610  0.052610  0.105220     24.000000
  0.105220 -0.105220 -0.052610     24.000000
  0.078915 -0.078915 -0.026305     24.000000
  0.052610 -0.052610  0.000000     12.000000
  0.000000  0.000000  0.105220      6.000000
 -0.026305  0.026305  0.131525     24.000000
  0.131525 -0.131525 -0.026305     24.000000
  0.105220 -0.105220  0.000000     12.000000
  0.000000  0.000000  0.157830      6.000000
  0.157830 -0.157830  0.000000     12.000000
  0.000000  0.052610  0.105220     24.000000
  0.157830 -0.105220 -0.052610     48.000000
  0.184135 -0.131525 -0.026305     24.000000
  0.157830 -0.105220  0.000000     24.000000
 
 
 Subroutine IBZKPT_HF returns following result:
 ==============================================
 
 Found    343 k-points in 1st BZ
 the following    343 k-points will be used (e.g. in the exchange kernel)
 Following reciprocal coordinates:   # in IRBZ
  0.000000  0.000000  0.000000    0.00291545   1 t-inv F
  0.142857  0.000000  0.000000    0.00291545   2 t-inv F
  0.285714  0.000000  0.000000    0.00291545   3 t-inv F
  0.428571  0.000000  0.000000    0.00291545   4 t-inv F
  0.142857  0.142857  0.000000    0.00291545   5 t-inv F
  0.285714  0.142857  0.000000    0.00291545   6 t-inv F
  0.428571  0.142857  0.000000    0.00291545   7 t-inv F
 -0.428571  0.142857  0.000000    0.00291545   8 t-inv F
 -0.285714  0.142857  0.000000    0.00291545   9 t-inv F
 -0.142857  0.142857  0.000000    0.00291545  10 t-inv F
  0.285714  0.285714  0.000000    0.00291545  11 t-inv F
  0.428571  0.285714  0.000000    0.00291545  12 t-inv F
 -0.428571  0.285714  0.000000    0.00291545  13 t-inv F
 -0.285714  0.285714  0.000000    0.00291545  14 t-inv F
  0.428571  0.428571  0.000000    0.00291545  15 t-inv F
 -0.428571  0.428571  0.000000    0.00291545  16 t-inv F
  0.428571  0.285714  0.142857    0.00291545  17 t-inv F
 -0.428571  0.285714  0.142857    0.00291545  18 t-inv F
 -0.428571  0.428571  0.142857    0.00291545  19 t-inv F
 -0.285714  0.428571  0.142857    0.00291545  20 t-inv F
  0.000000  0.142857  0.000000    0.00291545   2 t-inv F
  0.000000  0.000000  0.142857    0.00291545   2 t-inv F
 -0.142857 -0.142857 -0.142857    0.00291545   2 t-inv F
 -0.142857  0.000000  0.000000    0.00291545   2 t-inv F
  0.000000 -0.142857  0.000000    0.00291545   2 t-inv F
  0.000000  0.000000 -0.142857    0.00291545   2 t-inv F
  0.142857  0.142857  0.142857    0.00291545   2 t-inv F
  0.000000  0.285714  0.000000    0.00291545   3 t-inv F
  0.000000  0.000000  0.285714    0.00291545   3 t-inv F
 -0.285714 -0.285714 -0.285714    0.00291545   3 t-inv F
 -0.285714  0.000000  0.000000    0.00291545   3 t-inv F
  0.000000 -0.285714  0.000000    0.00291545   3 t-inv F
  0.000000  0.000000 -0.285714    0.00291545   3 t-inv F
  0.285714  0.285714  0.285714    0.00291545   3 t-inv F
  0.000000  0.428571  0.000000    0.00291545   4 t-inv F
  0.000000  0.000000  0.428571    0.00291545   4 t-inv F
 -0.428571 -0.428571 -0.428571    0.00291545   4 t-inv F
 -0.428571  0.000000  0.000000    0.00291545   4 t-inv F
  0.000000 -0.428571  0.000000    0.00291545   4 t-inv F
  0.000000  0.000000 -0.428571    0.00291545   4 t-inv F
  0.428571  0.428571  0.428571    0.00291545   4 t-inv F
  0.000000  0.142857  0.142857    0.00291545   5 t-inv F
  0.142857  0.000000  0.142857    0.00291545   5 t-inv F
 -0.142857 -0.142857  0.000000    0.00291545   5 t-inv F
 -0.142857  0.000000 -0.142857    0.00291545   5 t-inv F
  0.000000 -0.142857 -0.142857    0.00291545   5 t-inv F
  0.000000  0.285714  0.142857    0.00291545   6 t-inv F
  0.142857  0.000000  0.285714    0.00291545   6 t-inv F
 -0.142857 -0.142857  0.142857    0.00291545   6 t-inv F
 -0.285714 -0.142857 -0.285714    0.00291545   6 t-inv F
  0.142857  0.285714  0.000000    0.00291545   6 t-inv F
  0.142857 -0.142857 -0.142857    0.00291545   6 t-inv F
 -0.285714 -0.285714 -0.142857    0.00291545   6 t-inv F
  0.000000  0.142857  0.285714    0.00291545   6 t-inv F
 -0.142857  0.142857 -0.142857    0.00291545   6 t-inv F
 -0.142857 -0.285714 -0.285714    0.00291545   6 t-inv F
  0.285714  0.000000  0.142857    0.00291545   6 t-inv F
 -0.285714 -0.142857  0.000000    0.00291545   6 t-inv F
  0.000000 -0.285714 -0.142857    0.00291545   6 t-inv F
 -0.142857  0.000000 -0.285714    0.00291545   6 t-inv F
  0.142857  0.142857 -0.142857    0.00291545   6 t-inv F
  0.285714  0.142857  0.285714    0.00291545   6 t-inv F
 -0.142857 -0.285714  0.000000    0.00291545   6 t-inv F
 -0.142857  0.142857  0.142857    0.00291545   6 t-inv F
  0.285714  0.285714  0.142857    0.00291545   6 t-inv F
  0.000000 -0.142857 -0.285714    0.00291545   6 t-inv F
  0.142857 -0.142857  0.142857    0.00291545   6 t-inv F
  0.142857  0.285714  0.285714    0.00291545   6 t-inv F
 -0.285714  0.000000 -0.142857    0.00291545   6 t-inv F
  0.000000  0.428571  0.142857    0.00291545   7 t-inv F
  0.142857  0.000000  0.428571    0.00291545   7 t-inv F
 -0.142857 -0.142857  0.285714    0.00291545   7 t-inv F
 -0.428571 -0.285714 -0.428571    0.00291545   7 t-inv F
  0.142857  0.428571  0.000000    0.00291545   7 t-inv F
  0.285714 -0.142857 -0.142857    0.00291545   7 t-inv F
 -0.428571 -0.428571 -0.285714    0.00291545   7 t-inv F
  0.000000  0.142857  0.428571    0.00291545   7 t-inv F
 -0.142857  0.285714 -0.142857    0.00291545   7 t-inv F
 -0.285714 -0.428571 -0.428571    0.00291545   7 t-inv F
  0.428571  0.000000  0.142857    0.00291545   7 t-inv F
 -0.428571 -0.142857  0.000000    0.00291545   7 t-inv F
  0.000000 -0.428571 -0.142857    0.00291545   7 t-inv F
 -0.142857  0.000000 -0.428571    0.00291545   7 t-inv F
  0.142857  0.142857 -0.285714    0.00291545   7 t-inv F
  0.428571  0.285714  0.428571    0.00291545   7 t-inv F
 -0.142857 -0.428571  0.000000    0.00291545   7 t-inv F
 -0.285714  0.142857  0.142857    0.00291545   7 t-inv F
  0.428571  0.428571  0.285714    0.00291545   7 t-inv F
  0.000000 -0.142857 -0.428571    0.00291545   7 t-inv F
  0.142857 -0.285714  0.142857    0.00291545   7 t-inv F
  0.285714  0.428571  0.428571    0.00291545   7 t-inv F
 -0.428571  0.000000 -0.142857    0.00291545   7 t-inv F
  0.000000 -0.428571  0.142857    0.00291545   8 t-inv F
  0.142857  0.000000 -0.428571    0.00291545   8 t-inv F
 -0.142857 -0.142857 -0.571429    0.00291545   8 t-inv F
  0.428571  0.571429  0.428571    0.00291545   8 t-inv F
  0.142857 -0.428571  0.000000    0.00291545   8 t-inv F
 -0.571429 -0.142857 -0.142857    0.00291545   8 t-inv F
  0.428571  0.428571  0.571429    0.00291545   8 t-inv F
  0.000000  0.142857 -0.428571    0.00291545   8 t-inv F
 -0.142857 -0.571429 -0.142857    0.00291545   8 t-inv F
  0.571429  0.428571  0.428571    0.00291545   8 t-inv F
 -0.428571  0.000000  0.142857    0.00291545   8 t-inv F
  0.428571 -0.142857  0.000000    0.00291545   8 t-inv F
  0.000000  0.428571 -0.142857    0.00291545   8 t-inv F
 -0.142857  0.000000  0.428571    0.00291545   8 t-inv F
  0.142857  0.142857  0.571429    0.00291545   8 t-inv F
 -0.428571 -0.571429 -0.428571    0.00291545   8 t-inv F
 -0.142857  0.428571  0.000000    0.00291545   8 t-inv F
  0.571429  0.142857  0.142857    0.00291545   8 t-inv F
 -0.428571 -0.428571 -0.571429    0.00291545   8 t-inv F
  0.000000 -0.142857  0.428571    0.00291545   8 t-inv F
  0.142857  0.571429  0.142857    0.00291545   8 t-inv F
 -0.571429 -0.428571 -0.428571    0.00291545   8 t-inv F
  0.428571  0.000000 -0.142857    0.00291545   8 t-inv F
  0.000000 -0.285714  0.142857    0.00291545   9 t-inv F
  0.142857  0.000000 -0.285714    0.00291545   9 t-inv F
 -0.142857 -0.142857 -0.428571    0.00291545   9 t-inv F
  0.285714  0.428571  0.285714    0.00291545   9 t-inv F
  0.142857 -0.285714  0.000000    0.00291545   9 t-inv F
 -0.428571 -0.142857 -0.142857    0.00291545   9 t-inv F
  0.285714  0.285714  0.428571    0.00291545   9 t-inv F
  0.000000  0.142857 -0.285714    0.00291545   9 t-inv F
 -0.142857 -0.428571 -0.142857    0.00291545   9 t-inv F
  0.428571  0.285714  0.285714    0.00291545   9 t-inv F
 -0.285714  0.000000  0.142857    0.00291545   9 t-inv F
  0.285714 -0.142857  0.000000    0.00291545   9 t-inv F
  0.000000  0.285714 -0.142857    0.00291545   9 t-inv F
 -0.142857  0.000000  0.285714    0.00291545   9 t-inv F
  0.142857  0.142857  0.428571    0.00291545   9 t-inv F
 -0.285714 -0.428571 -0.285714    0.00291545   9 t-inv F
 -0.142857  0.285714  0.000000    0.00291545   9 t-inv F
  0.428571  0.142857  0.142857    0.00291545   9 t-inv F
 -0.285714 -0.285714 -0.428571    0.00291545   9 t-inv F
  0.000000 -0.142857  0.285714    0.00291545   9 t-inv F
  0.142857  0.428571  0.142857    0.00291545   9 t-inv F
 -0.428571 -0.285714 -0.285714    0.00291545   9 t-inv F
  0.285714  0.000000 -0.142857    0.00291545   9 t-inv F
  0.000000 -0.142857  0.142857    0.00291545  10 t-inv F
  0.142857  0.000000 -0.142857    0.00291545  10 t-inv F
 -0.142857 -0.142857 -0.285714    0.00291545  10 t-inv F
  0.142857  0.285714  0.142857    0.00291545  10 t-inv F
  0.142857 -0.142857  0.000000    0.00291545  10 t-inv F
 -0.285714 -0.142857 -0.142857    0.00291545  10 t-inv F
  0.142857  0.142857  0.285714    0.00291545  10 t-inv F
  0.000000  0.142857 -0.142857    0.00291545  10 t-inv F
 -0.142857 -0.285714 -0.142857    0.00291545  10 t-inv F
  0.285714  0.142857  0.142857    0.00291545  10 t-inv F
 -0.142857  0.000000  0.142857    0.00291545  10 t-inv F
  0.000000  0.285714  0.285714    0.00291545  11 t-inv F
  0.285714  0.000000  0.285714    0.00291545  11 t-inv F
 -0.285714 -0.285714  0.000000    0.00291545  11 t-inv F
 -0.285714  0.000000 -0.285714    0.00291545  11 t-inv F
  0.000000 -0.285714 -0.285714    0.00291545  11 t-inv F
  0.000000  0.428571  0.285714    0.00291545  12 t-inv F
  0.285714  0.000000  0.428571    0.00291545  12 t-inv F
 -0.285714 -0.285714  0.142857    0.00291545  12 t-inv F
 -0.428571 -0.142857 -0.428571    0.00291545  12 t-inv F
  0.285714  0.428571  0.000000    0.00291545  12 t-inv F
  0.142857 -0.285714 -0.285714    0.00291545  12 t-inv F
 -0.428571 -0.428571 -0.142857    0.00291545  12 t-inv F
  0.000000  0.285714  0.428571    0.00291545  12 t-inv F
 -0.285714  0.142857 -0.285714    0.00291545  12 t-inv F
 -0.142857 -0.428571 -0.428571    0.00291545  12 t-inv F
  0.428571  0.000000  0.285714    0.00291545  12 t-inv F
 -0.428571 -0.285714  0.000000    0.00291545  12 t-inv F
  0.000000 -0.428571 -0.285714    0.00291545  12 t-inv F
 -0.285714  0.000000 -0.428571    0.00291545  12 t-inv F
  0.285714  0.285714 -0.142857    0.00291545  12 t-inv F
  0.428571  0.142857  0.428571    0.00291545  12 t-inv F
 -0.285714 -0.428571  0.000000    0.00291545  12 t-inv F
 -0.142857  0.285714  0.285714    0.00291545  12 t-inv F
  0.428571  0.428571  0.142857    0.00291545  12 t-inv F
  0.000000 -0.285714 -0.428571    0.00291545  12 t-inv F
  0.285714 -0.142857  0.285714    0.00291545  12 t-inv F
  0.142857  0.428571  0.428571    0.00291545  12 t-inv F
 -0.428571  0.000000 -0.285714    0.00291545  12 t-inv F
  0.000000 -0.428571  0.285714    0.00291545  13 t-inv F
  0.285714  0.000000 -0.428571    0.00291545  13 t-inv F
 -0.285714 -0.285714 -0.714286    0.00291545  13 t-inv F
  0.428571  0.714286  0.428571    0.00291545  13 t-inv F
  0.285714 -0.428571  0.000000    0.00291545  13 t-inv F
 -0.714286 -0.285714 -0.285714    0.00291545  13 t-inv F
  0.428571  0.428571  0.714286    0.00291545  13 t-inv F
  0.000000  0.285714 -0.428571    0.00291545  13 t-inv F
 -0.285714 -0.714286 -0.285714    0.00291545  13 t-inv F
  0.714286  0.428571  0.428571    0.00291545  13 t-inv F
 -0.428571  0.000000  0.285714    0.00291545  13 t-inv F
  0.428571 -0.285714  0.000000    0.00291545  13 t-inv F
  0.000000  0.428571 -0.285714    0.00291545  13 t-inv F
 -0.285714  0.000000  0.428571    0.00291545  13 t-inv F
  0.285714  0.285714  0.714286    0.00291545  13 t-inv F
 -0.428571 -0.714286 -0.428571    0.00291545  13 t-inv F
 -0.285714  0.428571  0.000000    0.00291545  13 t-inv F
  0.714286  0.285714  0.285714    0.00291545  13 t-inv F
 -0.428571 -0.428571 -0.714286    0.00291545  13 t-inv F
  0.000000 -0.285714  0.428571    0.00291545  13 t-inv F
  0.285714  0.714286  0.285714    0.00291545  13 t-inv F
 -0.714286 -0.428571 -0.428571    0.00291545  13 t-inv F
  0.428571  0.000000 -0.285714    0.00291545  13 t-inv F
  0.000000 -0.285714  0.285714    0.00291545  14 t-inv F
  0.285714  0.000000 -0.285714    0.00291545  14 t-inv F
 -0.285714 -0.285714 -0.571429    0.00291545  14 t-inv F
  0.285714  0.571429  0.285714    0.00291545  14 t-inv F
  0.285714 -0.285714  0.000000    0.00291545  14 t-inv F
 -0.571429 -0.285714 -0.285714    0.00291545  14 t-inv F
  0.285714  0.285714  0.571429    0.00291545  14 t-inv F
  0.000000  0.285714 -0.285714    0.00291545  14 t-inv F
 -0.285714 -0.571429 -0.285714    0.00291545  14 t-inv F
  0.571429  0.285714  0.285714    0.00291545  14 t-inv F
 -0.285714  0.000000  0.285714    0.00291545  14 t-inv F
  0.000000  0.428571  0.428571    0.00291545  15 t-inv F
  0.428571  0.000000  0.428571    0.00291545  15 t-inv F
 -0.428571 -0.428571  0.000000    0.00291545  15 t-inv F
 -0.428571  0.000000 -0.428571    0.00291545  15 t-inv F
  0.000000 -0.428571 -0.428571    0.00291545  15 t-inv F
  0.000000 -0.428571  0.428571    0.00291545  16 t-inv F
  0.428571  0.000000 -0.428571    0.00291545  16 t-inv F
 -0.428571 -0.428571 -0.857143    0.00291545  16 t-inv F
  0.428571  0.857143  0.428571    0.00291545  16 t-inv F
  0.428571 -0.428571  0.000000    0.00291545  16 t-inv F
 -0.857143 -0.428571 -0.428571    0.00291545  16 t-inv F
  0.428571  0.428571  0.857143    0.00291545  16 t-inv F
  0.000000  0.428571 -0.428571    0.00291545  16 t-inv F
 -0.428571 -0.857143 -0.428571    0.00291545  16 t-inv F
  0.857143  0.428571  0.428571    0.00291545  16 t-inv F
 -0.428571  0.000000  0.428571    0.00291545  16 t-inv F
  0.142857  0.428571  0.285714    0.00291545  17 t-inv F
  0.285714  0.142857  0.428571    0.00291545  17 t-inv F
 -0.285714 -0.142857  0.142857    0.00291545  17 t-inv F
 -0.428571 -0.142857 -0.285714    0.00291545  17 t-inv F
 -0.142857  0.285714  0.142857    0.00291545  17 t-inv F
  0.142857  0.285714 -0.142857    0.00291545  17 t-inv F
  0.142857 -0.142857 -0.285714    0.00291545  17 t-inv F
 -0.285714 -0.142857 -0.428571    0.00291545  17 t-inv F
 -0.285714 -0.428571 -0.142857    0.00291545  17 t-inv F
  0.142857 -0.142857  0.285714    0.00291545  17 t-inv F
  0.142857 -0.285714 -0.142857    0.00291545  17 t-inv F
 -0.142857  0.142857  0.285714    0.00291545  17 t-inv F
 -0.285714  0.142857 -0.142857    0.00291545  17 t-inv F
 -0.428571 -0.285714 -0.142857    0.00291545  17 t-inv F
 -0.142857 -0.285714 -0.428571    0.00291545  17 t-inv F
  0.285714  0.142857 -0.142857    0.00291545  17 t-inv F
 -0.142857  0.142857 -0.285714    0.00291545  17 t-inv F
  0.285714 -0.142857  0.142857    0.00291545  17 t-inv F
 -0.142857 -0.285714  0.142857    0.00291545  17 t-inv F
 -0.142857 -0.428571 -0.285714    0.00291545  17 t-inv F
  0.428571  0.142857  0.285714    0.00291545  17 t-inv F
  0.285714  0.428571  0.142857    0.00291545  17 t-inv F
  0.142857  0.285714  0.428571    0.00291545  17 t-inv F
  0.142857 -0.428571  0.285714    0.00291545  18 t-inv F
  0.285714  0.142857 -0.428571    0.00291545  18 t-inv F
 -0.285714 -0.142857 -0.714286    0.00291545  18 t-inv F
  0.428571  0.714286  0.571429    0.00291545  18 t-inv F
 -0.142857 -0.571429  0.142857    0.00291545  18 t-inv F
  0.142857 -0.571429 -0.142857    0.00291545  18 t-inv F
 -0.714286 -0.142857 -0.285714    0.00291545  18 t-inv F
  0.571429  0.714286  0.428571    0.00291545  18 t-inv F
  0.571429  0.428571  0.714286    0.00291545  18 t-inv F
  0.142857 -0.142857 -0.571429    0.00291545  18 t-inv F
 -0.714286 -0.285714 -0.142857    0.00291545  18 t-inv F
 -0.142857  0.142857 -0.571429    0.00291545  18 t-inv F
 -0.285714 -0.714286 -0.142857    0.00291545  18 t-inv F
  0.428571  0.571429  0.714286    0.00291545  18 t-inv F
  0.714286  0.571429  0.428571    0.00291545  18 t-inv F
 -0.571429  0.142857 -0.142857    0.00291545  18 t-inv F
 -0.142857 -0.714286 -0.285714    0.00291545  18 t-inv F
 -0.571429 -0.142857  0.142857    0.00291545  18 t-inv F
 -0.142857 -0.285714 -0.714286    0.00291545  18 t-inv F
  0.714286  0.428571  0.571429    0.00291545  18 t-inv F
 -0.428571  0.142857  0.285714    0.00291545  18 t-inv F
  0.285714 -0.428571  0.142857    0.00291545  18 t-inv F
  0.142857  0.285714 -0.428571    0.00291545  18 t-inv F
  0.428571 -0.285714 -0.142857    0.00291545  18 t-inv F
 -0.142857  0.428571 -0.285714    0.00291545  18 t-inv F
 -0.285714 -0.142857  0.428571    0.00291545  18 t-inv F
  0.285714  0.142857  0.714286    0.00291545  18 t-inv F
 -0.428571 -0.714286 -0.571429    0.00291545  18 t-inv F
  0.142857  0.571429 -0.142857    0.00291545  18 t-inv F
 -0.142857  0.571429  0.142857    0.00291545  18 t-inv F
  0.714286  0.142857  0.285714    0.00291545  18 t-inv F
 -0.571429 -0.714286 -0.428571    0.00291545  18 t-inv F
 -0.571429 -0.428571 -0.714286    0.00291545  18 t-inv F
 -0.142857  0.142857  0.571429    0.00291545  18 t-inv F
  0.714286  0.285714  0.142857    0.00291545  18 t-inv F
  0.142857 -0.142857  0.571429    0.00291545  18 t-inv F
  0.285714  0.714286  0.142857    0.00291545  18 t-inv F
 -0.428571 -0.571429 -0.714286    0.00291545  18 t-inv F
 -0.714286 -0.571429 -0.428571    0.00291545  18 t-inv F
  0.571429 -0.142857  0.142857    0.00291545  18 t-inv F
  0.142857  0.714286  0.285714    0.00291545  18 t-inv F
  0.571429  0.142857 -0.142857    0.00291545  18 t-inv F
  0.142857  0.285714  0.714286    0.00291545  18 t-inv F
 -0.714286 -0.428571 -0.571429    0.00291545  18 t-inv F
  0.428571 -0.142857 -0.285714    0.00291545  18 t-inv F
 -0.285714  0.428571 -0.142857    0.00291545  18 t-inv F
 -0.142857 -0.285714  0.428571    0.00291545  18 t-inv F
  0.142857 -0.428571  0.428571    0.00291545  19 t-inv F
  0.428571  0.142857 -0.428571    0.00291545  19 t-inv F
 -0.428571 -0.285714 -0.857143    0.00291545  19 t-inv F
  0.428571  0.857143  0.571429    0.00291545  19 t-inv F
 -0.142857 -0.571429  0.285714    0.00291545  19 t-inv F
  0.285714 -0.571429 -0.142857    0.00291545  19 t-inv F
 -0.857143 -0.285714 -0.428571    0.00291545  19 t-inv F
  0.571429  0.857143  0.428571    0.00291545  19 t-inv F
  0.571429  0.428571  0.857143    0.00291545  19 t-inv F
  0.285714 -0.142857 -0.571429    0.00291545  19 t-inv F
 -0.857143 -0.428571 -0.285714    0.00291545  19 t-inv F
 -0.142857  0.285714 -0.571429    0.00291545  19 t-inv F
 -0.428571 -0.857143 -0.285714    0.00291545  19 t-inv F
  0.428571  0.571429  0.857143    0.00291545  19 t-inv F
  0.857143  0.571429  0.428571    0.00291545  19 t-inv F
 -0.571429  0.285714 -0.142857    0.00291545  19 t-inv F
 -0.285714 -0.857143 -0.428571    0.00291545  19 t-inv F
 -0.571429 -0.142857  0.285714    0.00291545  19 t-inv F
 -0.285714 -0.428571 -0.857143    0.00291545  19 t-inv F
  0.857143  0.428571  0.571429    0.00291545  19 t-inv F
 -0.428571  0.142857  0.428571    0.00291545  19 t-inv F
  0.428571 -0.428571  0.142857    0.00291545  19 t-inv F
  0.142857  0.428571 -0.428571    0.00291545  19 t-inv F
  0.142857 -0.285714  0.428571    0.00291545  20 t-inv F
  0.428571  0.142857 -0.285714    0.00291545  20 t-inv F
 -0.428571 -0.285714 -0.714286    0.00291545  20 t-inv F
  0.285714  0.714286  0.428571    0.00291545  20 t-inv F
 -0.142857 -0.428571  0.285714    0.00291545  20 t-inv F
  0.285714 -0.428571 -0.142857    0.00291545  20 t-inv F
 -0.714286 -0.285714 -0.428571    0.00291545  20 t-inv F
  0.428571  0.714286  0.285714    0.00291545  20 t-inv F
  0.428571  0.285714  0.714286    0.00291545  20 t-inv F
  0.285714 -0.142857 -0.428571    0.00291545  20 t-inv F
 -0.714286 -0.428571 -0.285714    0.00291545  20 t-inv F
 -0.142857  0.285714 -0.428571    0.00291545  20 t-inv F
 -0.428571 -0.714286 -0.285714    0.00291545  20 t-inv F
  0.285714  0.428571  0.714286    0.00291545  20 t-inv F
  0.714286  0.428571  0.285714    0.00291545  20 t-inv F
 -0.428571  0.285714 -0.142857    0.00291545  20 t-inv F
 -0.285714 -0.714286 -0.428571    0.00291545  20 t-inv F
 -0.428571 -0.142857  0.285714    0.00291545  20 t-inv F
 -0.285714 -0.428571 -0.714286    0.00291545  20 t-inv F
  0.714286  0.285714  0.428571    0.00291545  20 t-inv F
 -0.285714  0.142857  0.428571    0.00291545  20 t-inv F
  0.428571 -0.285714  0.142857    0.00291545  20 t-inv F
  0.142857  0.428571 -0.285714    0.00291545  20 t-inv F


--------------------------------------------------------------------------------------------------------




 Dimension of arrays:
   k-points           NKPTS =     20   k-points in BZ     NKDIM =    343   number of bands    NBANDS=      8
   number of dos      NEDOS =   2801   number of ions     NIONS =      2
   non local maximal  LDIM  =      4   non local SUM 2l+1 LMDIM =      8
   total plane-waves  NPLWV =   4096
   max r-space proj   IRMAX =   1650   max aug-charges    IRDMAX=   3619
   dimension x,y,z NGX =    16 NGY =   16 NGZ =   16
   dimension x,y,z NGXF=    32 NGYF=   32 NGZF=   32
   support grid    NGXF=    32 NGYF=   32 NGZF=   32
   ions per type =               2
 NGX,Y,Z   is equivalent  to a cutoff of   6.93,  6.93,  6.93 a.u.
 NGXF,Y,Z  is equivalent  to a cutoff of  13.85, 13.85, 13.85 a.u.


 I would recommend the setting:
   dimension x,y,z NGX =    15 NGY =   15 NGZ =   15
 SYSTEM =  unknown system                          
 POSCAR =  Si_bulk_icsd_60385                      

 Startparameter for this run:
   NWRITE =      2    write-flag & timer
   PREC   = normal    normal or accurate (medium, high low for compatibility)
   ISTART =      0    job   : 0-new  1-cont  2-samecut
   ICHARG =     11    charge: 1-file 2-atom 10-const
   ISPIN  =      1    spin polarized calculation?
   LNONCOLLINEAR =      F non collinear calculations
   LSORBIT =      F    spin-orbit coupling
   INIWAV =      1    electr: 0-lowe 1-rand  2-diag
   LASPH  =      F    aspherical Exc in radial PAW
   METAGGA=      F    non-selfconsistent MetaGGA calc.

 Electronic Relaxation 1
   ENCUT  =  250.0 eV  18.37 Ry    4.29 a.u.   4.95  4.95  4.95*2*pi/ulx,y,z
   ENINI  =  250.0     initial cutoff
   ENAUG  =  322.1 eV  augmentation charge cutoff
   NELM   =    300;   NELMIN=  4; NELMDL=  0     # of ELM steps 
   EDIFF  = 0.1E-05   stopping-criterion for ELM
   LREAL  =      T    real-space projection
   NLSPLINE    = F    spline interpolate recip. space projectors
   LCOMPAT=      F    compatible to vasp.4.4
   GGA_COMPAT  = T    GGA compatible to vasp.4.4-vasp.4.6
   LMAXPAW     = -100 max onsite density
   LMAXMIX     =    2 max onsite mixed and CHGCAR
   VOSKOWN=      0    Vosko Wilk Nusair interpolation
   ROPT   =   -0.00050
 Ionic relaxation
   EDIFFG = 0.1E-04   stopping-criterion for IOM
   NSW    =      0    number of steps for IOM
   NBLOCK =      1;   KBLOCK =      1    inner block; outer block 
   IBRION =     -1    ionic relax: 0-MD 1-quasi-New 2-CG
   NFREE  =      0    steps in history (QN), initial steepest desc. (CG)
   ISIF   =      0    stress and relaxation
   IWAVPR =     10    prediction:  0-non 1-charg 2-wave 3-comb
   ISYM   =      3    0-nonsym 1-usesym 2-fastsym
   LCORR  =      T    Harris-Foulkes like correction to forces

   POTIM  = 0.5000    time-step for ionic-motion
   TEIN   =    0.0    initial temperature
   TEBEG  =    0.0;   TEEND  =   0.0 temperature during run
   SMASS  =  -3.00    Nose mass-parameter (am)
   estimated Nose-frequenzy (Omega)   =  0.10E-29 period in steps =****** mass=  -0.337E-27a.u.
   SCALEE = 1.0000    scale energy and forces
   NPACO  =    256;   APACO  = 16.0  distance and # of slots for P.C.
   PSTRESS=    0.0 pullay stress

  Mass of Ions in am
   POMASS =  28.09
  Ionic Valenz
   ZVAL   =   4.00
  Atomic Wigner-Seitz radii
   RWIGS  =  -1.00
  virtual crystal weights 
   VCA    =   1.00
   NELECT =       8.0000    total number of electrons
   NUPDOWN=      -1.0000    fix difference up-down

 DOS related values:
   EMIN   = -10.00;   EMAX   = 18.00  energy-range for DOS
   EFERMI =   0.00
   ISMEAR =     0;   SIGMA  =   0.01  broadening in eV -4-tet -1-fermi 0-gaus

 Electronic relaxation 2 (details)
   IALGO  =     53    algorithm
   LDIAG  =      T    sub-space diagonalisation (order eigenvalues)
   LSUBROT=      F    optimize rotation matrix (better conditioning)
   TURBO    =      0    0=normal 1=particle mesh
   IRESTART =      0    0=no restart 2=restart with 2 vectors
   NREBOOT  =      0    no. of reboots
   NMIN     =      0    reboot dimension
   EREF     =   0.00    reference energy to select bands
   IMIX   =      4    mixing-type and parameters
     AMIX     =   0.40;   BMIX     =  1.00
     AMIX_MAG =   1.60;   BMIX_MAG =  1.00
     AMIN     =   0.10
     WC   =   100.;   INIMIX=   1;  MIXPRE=   1;  MAXMIX= -45

 Intra band minimization:
   WEIMIN = 0.0000     energy-eigenvalue tresh-hold
   EBREAK =  0.31E-07  absolut break condition
   DEPER  =   0.30     relativ break condition  

   TIME   =   0.40     timestep for ELM

  volume/ion in A,a.u.               =      20.02       135.11
  Fermi-wavevector in a.u.,A,eV,Ry     =   0.957035  1.808533 12.461786  0.915915
  Thomas-Fermi vector in A             =   2.086016
 
 Write flags
   LWAVE  =      F    write WAVECAR
   LCHARG =      T    write CHGCAR
   LVTOT  =      F    write LOCPOT, total local potential
   LVHAR  =      F    write LOCPOT, Hartree potential only
   LELF   =      F    write electronic localiz. function (ELF)
   LORBIT =     11    0 simple, 1 ext, 2 COOP (PROOUT)


 Dipole corrections
   LMONO  =      F    monopole corrections only (constant potential shift)
   LDIPOL =      F    correct potential (dipole corrections)
   IDIPOL =      0    1-x, 2-y, 3-z, 4-all directions 
   EPSILON=  1.0000000 bulk dielectric constant

 Exchange correlation treatment:
   GGA     =    --    GGA type
   LEXCH   =     8    internal setting for exchange type
   VOSKOWN=      0    Vosko Wilk Nusair interpolation
   EXXOEP  =     0    0=HF, 1=EXX-LHF (local Hartree Fock) 2=EXX OEP
   LHFCALC =     T    Hartree Fock is set to
   LSYMGRAD=     F    symmetrize gradient (conserves proper symmetry)
   PRECFOCK=normal    Normal, Fast or Accurate (Low or Medium for compatibility)
   LRHFCALC=     F    long range Hartree Fock
   LRSCOR  =     F    long range correlation only (use DFT for short range part)
   LTHOMAS =     F    Thomas Fermi screening in HF
   LMODELHF=     F    short range full HF, long range fraction AEXX
   ENCUT4O =  -1.0   cutoff for four orbital integrals eV
   LMAXFOCK=     4    L truncation for augmentation on plane wave grid
   LMAXFOCKAE=  -1    L truncation for all-electron charge restoration on plane wave grid
   NMAXFOCKAE=   1    number of basis functions for all-electron charge restoration
   LFOCKAEDFT=     F  apply the AE augmentation even for DFT
   NKREDX  =     1    reduce k-point grid by
   NKREDY  =     1    reduce k-point grid by
   NKREDZ  =     1    reduce k-point grid by
   SHIFTRED=     F    shift reduced grid of Gamma
   HFKIDENT=     F    idential grid for each k-point
   ODDONLY =     F    use only odd q-grid points
   EVENONLY=     F    use only even q-grid points
   HFALPHA =   -1.0000 decay constant for conv. correction
   MCALPHA =    0.0000 extent of test-charge in conv. correction in multipole expansion
   AEXX    =    0.2500 exact exchange contribution
   HFSCREEN=    0.2000 screening length (either q_TF or 0.3 A-1)
   HFSCREENC=   0.2000 screening length for correlation (either q_TF or 0.3 A-1)
   HFRCUT  =    0.0000 spherical cutoff for potential kernel
   ALDAX   =    0.7500 LDA exchange part
   AGGAX   =    0.7500 GGA exchange part
   ALDAC   =    1.0000 LDA correlation
   AGGAC   =    1.0000 GGA correlation
   NBANDSGWLOW=     1    first orbital included in HF term
   ENCUTFOCK=  -1.0 apply spherical cutoff to Coloumb kernel
 Linear response parameters
   LEPSILON=     F    determine dielectric tensor
   LRPA    =     F    only Hartree local field effects (RPA)
   LNABLA  =     F    use nabla operator in PAW spheres
   LVEL    =     F    velocity operator in full k-point grid
   LINTERFAST=   F  fast interpolation
   KINTER  =     0    interpolate to denser k-point grid
   CSHIFT  =0.1000    complex shift for real part using Kramers Kronig
   OMEGAMAX=  -1.0    maximum frequency
   DEG_THRESHOLD= 0.2000000E-02 threshold for treating states as degnerate
   RTIME   =    0.100 relaxation time in fs

 Orbital magnetization related:
   ORBITALMAG=     F  switch on orbital magnetization
   LCHIMAG   =     F  perturbation theory with respect to B field
   DQ        =  0.001000  dq finite difference perturbation B field



--------------------------------------------------------------------------------------------------------


 Static calculation
 charge density and potential remain constant during run
 non-spin polarized calculation
 Conjugate gradient for all bands (Freysoldt, et al. PRB 79, 241103 (2009))
 perform sub-space diagonalisation
    before iterative eigenvector-optimisation
 no mixing
 using additional bands            4
 real space projection scheme for non local part
 use partial core corrections
 calculate Harris-corrections to forces 
   (improved forces if not selfconsistent)
 use gradient corrections 
 WARNING: stress and forces are not correct
  (second derivative of E(xc) not defined)
 use of overlap-Matrix (Vanderbilt PP)
 Gauss-broadening in eV      SIGMA  =   0.01


--------------------------------------------------------------------------------------------------------


  energy-cutoff  :      250.00
  volume of cell :       40.04
      direct lattice vectors                 reciprocal lattice vectors
     0.000000000  2.715400000  2.715400000    -0.184134934  0.184134934  0.184134934
     2.715400000  0.000000000  2.715400000     0.184134934 -0.184134934  0.184134934
     2.715400000  2.715400000  0.000000000     0.184134934  0.184134934 -0.184134934

  length of vectors
     3.840155507  3.840155507  3.840155507     0.318931061  0.318931061  0.318931061


 
 k-points in units of 2pi/SCALE and weight: k-density: 4.0                          
   0.00000000  0.00000000  0.00000000       0.003
  -0.02630499  0.02630499  0.02630499       0.023
  -0.05260998  0.05260998  0.05260998       0.023
  -0.07891497  0.07891497  0.07891497       0.023
   0.00000000  0.00000000  0.05260998       0.017
  -0.02630499  0.02630499  0.07891497       0.070
  -0.05260998  0.05260998  0.10521996       0.070
   0.10521996 -0.10521996 -0.05260998       0.070
   0.07891497 -0.07891497 -0.02630499       0.070
   0.05260998 -0.05260998  0.00000000       0.035
   0.00000000  0.00000000  0.10521996       0.017
  -0.02630499  0.02630499  0.13152495       0.070
   0.13152495 -0.13152495 -0.02630499       0.070
   0.10521996 -0.10521996  0.00000000       0.035
   0.00000000  0.00000000  0.15782994       0.017
   0.15782994 -0.15782994  0.00000000       0.035
   0.00000000  0.05260998  0.10521996       0.070
   0.15782994 -0.10521996 -0.05260998       0.140
   0.18413493 -0.13152495 -0.02630499       0.070
   0.15782994 -0.10521996  0.00000000       0.070
 
 k-points in reciprocal lattice and weights: k-density: 4.0                          
   0.00000000  0.00000000  0.00000000       0.003
   0.14285714  0.00000000  0.00000000       0.023
   0.28571429  0.00000000  0.00000000       0.023
   0.42857143  0.00000000  0.00000000       0.023
   0.14285714  0.14285714  0.00000000       0.017
   0.28571429  0.14285714  0.00000000       0.070
   0.42857143  0.14285714  0.00000000       0.070
  -0.42857143  0.14285714  0.00000000       0.070
  -0.28571429  0.14285714  0.00000000       0.070
  -0.14285714  0.14285714  0.00000000       0.035
   0.28571429  0.28571429  0.00000000       0.017
   0.42857143  0.28571429  0.00000000       0.070
  -0.42857143  0.28571429  0.00000000       0.070
  -0.28571429  0.28571429  0.00000000       0.035
   0.42857143  0.42857143  0.00000000       0.017
  -0.42857143  0.42857143  0.00000000       0.035
   0.42857143  0.28571429  0.14285714       0.070
  -0.42857143  0.28571429  0.14285714       0.140
  -0.42857143  0.42857143  0.14285714       0.070
  -0.28571429  0.42857143  0.14285714       0.070
 
 position of ions in fractional coordinates (direct lattice) 
   0.00000000  0.00000000  0.00000000
   0.25000000  0.25000000  0.25000000
 
 position of ions in cartesian coordinates  (Angst):
   0.00000000  0.00000000  0.00000000
   1.35770000  1.35770000  1.35770000
 


--------------------------------------------------------------------------------------------------------


 k-point  1 :   0.0000 0.0000 0.0000  plane waves:     339
 k-point  2 :   0.1429 0.0000 0.0000  plane waves:     344
 k-point  3 :   0.2857 0.0000 0.0000  plane waves:     353
 k-point  4 :   0.4286 0.0000 0.0000  plane waves:     356
 k-point  5 :   0.1429 0.1429 0.0000  plane waves:     351
 k-point  6 :   0.2857 0.1429 0.0000  plane waves:     354
 k-point  7 :   0.4286 0.1429 0.0000  plane waves:     357
 k-point  8 :  -0.4286 0.1429 0.0000  plane waves:     365
 k-point  9 :  -0.2857 0.1429 0.0000  plane waves:     356
 k-point 10 :  -0.1429 0.1429 0.0000  plane waves:     361
 k-point 11 :   0.2857 0.2857 0.0000  plane waves:     347
 k-point 12 :   0.4286 0.2857 0.0000  plane waves:     359
 k-point 13 :  -0.4286 0.2857 0.0000  plane waves:     359
 k-point 14 :  -0.2857 0.2857 0.0000  plane waves:     361
 k-point 15 :   0.4286 0.4286 0.0000  plane waves:     359
 k-point 16 :  -0.4286 0.4286 0.0000  plane waves:     359
 k-point 17 :   0.4286 0.2857 0.1429  plane waves:     358
 k-point 18 :  -0.4286 0.2857 0.1429  plane waves:     363
 k-point 19 :  -0.4286 0.4286 0.1429  plane waves:     358
 k-point 20 :  -0.2857 0.4286 0.1429  plane waves:     363

 maximum and minimum number of plane-waves per node :       365      339

 maximum number of plane-waves:       365
 maximum index in each direction: 
   IXMAX=    5   IYMAX=    4   IZMAX=    4
   IXMIN=   -5   IYMIN=   -5   IZMIN=   -5

 WARNING: aliasing errors must be expected set NGX to  22 to avoid them
 WARNING: aliasing errors must be expected set NGY to  20 to avoid them
 WARNING: aliasing errors must be expected set NGZ to  20 to avoid them
 aliasing errors are usually negligible using standard VASP settings
 and one can safely disregard these warnings

 serial   3D FFT for wavefunctions
 parallel 3D FFT for charge:
    minimum data exchange during FFTs selected (reduces bandwidth)

 
 Radii for the augmentation spheres in the non-local exchange
 for species   1 augmentation radius   1.055 (default was   0.989)
       energy cutoff for augmentation   1000.0
 Maximum index for augmentation-charges in exchange          531
  SETUP_FOCK is finished

 total amount of memory used by VASP on root node    31989. kBytes
========================================================================

   base      :      30000. kBytes
   nonlr-proj:        365. kBytes
   fftplans  :        302. kBytes
   grid      :        577. kBytes
   one-center:          6. kBytes
   HF        :          4. kBytes
   wavefun   :        735. kBytes
 
     INWAV:  cpu time    0.0000: real time    0.0003
 initial charge density was supplied:
 number of electron       7.9999994 magnetization 
 keeping initial charge density in first step


--------------------------------------------------------------------------------------------------------


 Maximum index for non-local projection operator         1505
 Maximum index for augmentation-charges          847 (set IRDMAX)


--------------------------------------------------------------------------------------------------------


 First call to EWALD:  gamma=   0.518
 Maximum number of real-space cells 3x 3x 3
 Maximum number of reciprocal cells 3x 3x 3

 FEWALD executed in parallel
    FEWALD:  cpu time    0.0020: real time    0.0015


----------------------------------------- Iteration    1(   1)  ---------------------------------------


    POTLOK:  cpu time    0.0350: real time    0.0347
    SETDIJ:  cpu time    0.0660: real time    0.0661
    TRIAL :  cpu time    0.0590: real time    0.0632
    CORREC:  cpu time    0.0030: real time    0.0029
    --------------------------------------------
      LOOP:  cpu time    0.1640: real time    0.1721

 eigenvalue-minimisations  :   504
 total energy-change (2. order) : 0.1191094E+03  (-0.9446515E+03)
 number of electron       7.9999994 magnetization 
 augmentation part        7.9999994 magnetization 

 Free energy of the ion-electron system (eV)
  ---------------------------------------------------
  alpha Z        PSCENC =         3.36265555
  Ewald energy   TEWEN  =      -228.52985570
  -Hartree energ DENC   =       -14.94123946
  -exchange      EXHF   =         0.00000000
  -V(xc)+E(xc)   XCENC  =       -14.41293522
  PAW double counting   =        69.51581037      -41.88100248
  entropy T*S    EENTRO =        -0.00035980
  eigenvalues    EBANDS =       142.60399126
  atomic energy  EATOM  =       203.39229883
  ---------------------------------------------------
  free energy    TOTEN  =       119.10936335 eV

  energy without entropy =      119.10972314  energy(sigma->0) =      119.10954325
  exchange ACFDT corr.  =         0.00000000  see jH, gK, PRB 81, 115126


--------------------------------------------------------------------------------------------------------




----------------------------------------- Iteration    1(   2)  ---------------------------------------


    TRIAL :  cpu time    0.0730: real time    0.0742
    CORREC:  cpu time    0.0000: real time    0.0003
    --------------------------------------------
      LOOP:  cpu time    0.0730: real time    0.0776

 eigenvalue-minimisations  :   640
 total energy-change (2. order) :-0.1073210E+03  (-0.1053723E+03)
 number of electron       7.9999994 magnetization 
 augmentation part        7.9999994 magnetization 

 Free energy of the ion-electron system (eV)
  ---------------------------------------------------
  alpha Z        PSCENC =         3.36265555
  Ewald energy   TEWEN  =      -228.52985570
  -Hartree energ DENC   =       -14.94123946
  -exchange      EXHF   =         0.00000000
  -V(xc)+E(xc)   XCENC  =       -14.41293522
  PAW double counting   =        69.51581037      -41.88100248
  entropy T*S    EENTRO =        -0.00039376
  eigenvalues    EBANDS =        35.28303141
  atomic energy  EATOM  =       203.39229883
  ---------------------------------------------------
  free energy    TOTEN  =        11.78836953 eV

  energy without entropy =       11.78876329  energy(sigma->0) =       11.78856641
  exchange ACFDT corr.  =         0.00000000  see jH, gK, PRB 81, 115126


--------------------------------------------------------------------------------------------------------




----------------------------------------- Iteration    1(   3)  ---------------------------------------


    TRIAL :  cpu time    0.0730: real time    0.0740
    CORREC:  cpu time    0.0000: real time    0.0003
    --------------------------------------------
      LOOP:  cpu time    0.0740: real time    0.0770

 eigenvalue-minimisations  :   640
 total energy-change (2. order) :-0.1244252E+02  (-0.1237789E+02)
 number of electron       7.9999994 magnetization 
 augmentation part        7.9999994 magnetization 

 Free energy of the ion-electron system (eV)
  ---------------------------------------------------
  alpha Z        PSCENC =         3.36265555
  Ewald energy   TEWEN  =      -228.52985570
  -Hartree energ DENC   =       -14.94123946
  -exchange      EXHF   =         0.00000000
  -V(xc)+E(xc)   XCENC  =       -14.41293522
  PAW double counting   =        69.51581037      -41.88100248
  entropy T*S    EENTRO =        -0.00013164
  eigenvalues    EBANDS =        22.84024794
  atomic energy  EATOM  =       203.39229883
  ---------------------------------------------------
  free energy    TOTEN  =        -0.65415181 eV

  energy without entropy =       -0.65402017  energy(sigma->0) =       -0.65408599
  exchange ACFDT corr.  =         0.00000000  see jH, gK, PRB 81, 115126


--------------------------------------------------------------------------------------------------------




----------------------------------------- Iteration    1(   4)  ---------------------------------------


    TRIAL :  cpu time    0.0730: real time    0.0738
    CORREC:  cpu time    0.0000: real time    0.0003
    --------------------------------------------
      LOOP:  cpu time    0.0740: real time    0.0768

 eigenvalue-minimisations  :   640
 total energy-change (2. order) :-0.1221439E+01  (-0.1215666E+01)
 number of electron       7.9999994 magnetization 
 augmentation part        7.9999994 magnetization 

 Free energy of the ion-electron system (eV)
  ---------------------------------------------------
  alpha Z        PSCENC =         3.36265555
  Ewald energy   TEWEN  =      -228.52985570
  -Hartree energ DENC   =       -14.94123946
  -exchange      EXHF   =         0.00000000
  -V(xc)+E(xc)   XCENC  =       -14.41293522
  PAW double counting   =        69.51581037      -41.88100248
  entropy T*S    EENTRO =        -0.00009869
  eigenvalues    EBANDS =        21.61877628
  atomic energy  EATOM  =       203.39229883
  ---------------------------------------------------
  free energy    TOTEN  =        -1.87559053 eV

  energy without entropy =       -1.87549184  energy(sigma->0) =       -1.87554119
  exchange ACFDT corr.  =         0.00000000  see jH, gK, PRB 81, 115126


--------------------------------------------------------------------------------------------------------




----------------------------------------- Iteration    1(   5)  ---------------------------------------


    TRIAL :  cpu time    0.0730: real time    0.0736
    CORREC:  cpu time    0.0000: real time    0.0003
    --------------------------------------------
      LOOP:  cpu time    0.0730: real time    0.0763

 eigenvalue-minimisations  :   640
 total energy-change (2. order) :-0.1082882E+00  (-0.1082882E+00)
 number of electron       7.9999994 magnetization 
 augmentation part        7.9999994 magnetization 

 Free energy of the ion-electron system (eV)
  ---------------------------------------------------
  alpha Z        PSCENC =         3.36265555
  Ewald energy   TEWEN  =      -228.52985570
  -Hartree energ DENC   =       -14.94123946
  -exchange      EXHF   =         0.00000000
  -V(xc)+E(xc)   XCENC  =       -14.41293522
  PAW double counting   =        69.51581037      -41.88100248
  entropy T*S    EENTRO =        -0.00009869
  eigenvalues    EBANDS =        21.51048807
  atomic energy  EATOM  =       203.39229883
  ---------------------------------------------------
  free energy    TOTEN  =        -1.98387873 eV

  energy without entropy =       -1.98378004  energy(sigma->0) =       -1.98382939
  exchange ACFDT corr.  =         0.00000000  see jH, gK, PRB 81, 115126


--------------------------------------------------------------------------------------------------------




----------------------------------------- Iteration    1(   6)  ---------------------------------------


    TRIAL :  cpu time    6.5510: real time    6.5508
    CORREC:  cpu time    0.0000: real time    0.0002
    --------------------------------------------
      LOOP:  cpu time    6.5520: real time    6.5534

 eigenvalue-minimisations  :     0
 total energy-change (2. order) :-0.1094030E+02  (-0.8335960E-01)
 number of electron       7.9999994 magnetization 
 augmentation part        7.9999994 magnetization 

 Free energy of the ion-electron system (eV)
  ---------------------------------------------------
  alpha Z        PSCENC =         3.36265555
  Ewald energy   TEWEN  =      -228.52985570
  -Hartree energ DENC   =       -14.94123946
  -exchange      EXHF   =        10.94030436
  -V(xc)+E(xc)   XCENC  =       -14.41293522
  PAW double counting   =        69.51581037      -41.88100248
  entropy T*S    EENTRO =        -0.00000000
  eigenvalues    EBANDS =        -0.37012065
  atomic energy  EATOM  =       203.39229883
  ---------------------------------------------------
  free energy    TOTEN  =       -12.92418310 eV

  energy without entropy =      -12.92418309  energy(sigma->0) =      -12.92418310
  exchange ACFDT corr.  =        -0.00010896  see jH, gK, PRB 81, 115126


--------------------------------------------------------------------------------------------------------




----------------------------------------- Iteration    1(   7)  ---------------------------------------


    TRIAL :  cpu time    6.7150: real time    6.7146
    CORREC:  cpu time    0.0000: real time    0.0002
    --------------------------------------------
      LOOP:  cpu time    6.7160: real time    6.7198

 eigenvalue-minimisations  :     0
 total energy-change (2. order) :-0.8556734E-01  (-0.5920249E-01)
 number of electron       7.9999994 magnetization 
 augmentation part        7.9999994 magnetization 

 Free energy of the ion-electron system (eV)
  ---------------------------------------------------
  alpha Z        PSCENC =         3.36265555
  Ewald energy   TEWEN  =      -228.52985570
  -Hartree energ DENC   =       -14.94123946
  -exchange      EXHF   =        11.02940750
  -V(xc)+E(xc)   XCENC  =       -14.41293522
  PAW double counting   =        69.51581037      -41.88100248
  entropy T*S    EENTRO =        -0.00000000
  eigenvalues    EBANDS =        -0.54488982
  atomic energy  EATOM  =       203.39229883
  ---------------------------------------------------
  free energy    TOTEN  =       -13.00975044 eV

  energy without entropy =      -13.00975044  energy(sigma->0) =      -13.00975044
  exchange ACFDT corr.  =        -0.00000000  see jH, gK, PRB 81, 115126


--------------------------------------------------------------------------------------------------------




----------------------------------------- Iteration    1(   8)  ---------------------------------------


    TRIAL :  cpu time    6.7110: real time    6.7104
    CORREC:  cpu time    0.0000: real time    0.0002
    --------------------------------------------
      LOOP:  cpu time    6.7120: real time    6.7163

 eigenvalue-minimisations  :     0
 total energy-change (2. order) :-0.4657026E-01  (-0.3016903E-01)
 number of electron       7.9999994 magnetization 
 augmentation part        7.9999994 magnetization 

 Free energy of the ion-electron system (eV)
  ---------------------------------------------------
  alpha Z        PSCENC =         3.36265555
  Ewald energy   TEWEN  =      -228.52985570
  -Hartree energ DENC   =       -14.94123946
  -exchange      EXHF   =        11.10250505
  -V(xc)+E(xc)   XCENC  =       -14.41293522
  PAW double counting   =        69.51581037      -41.88100248
  entropy T*S    EENTRO =        -0.00000000
  eigenvalues    EBANDS =        -0.66455763
  atomic energy  EATOM  =       203.39229883
  ---------------------------------------------------
  free energy    TOTEN  =       -13.05632070 eV

  energy without entropy =      -13.05632070  energy(sigma->0) =      -13.05632070
  exchange ACFDT corr.  =        -0.00000000  see jH, gK, PRB 81, 115126


--------------------------------------------------------------------------------------------------------




----------------------------------------- Iteration    1(   9)  ---------------------------------------


    TRIAL :  cpu time    6.7140: real time    6.7130
    CORREC:  cpu time    0.0000: real time    0.0002
    --------------------------------------------
      LOOP:  cpu time    6.7150: real time    6.7181

 eigenvalue-minimisations  :     0
 total energy-change (2. order) :-0.2452109E-01  (-0.1659708E-01)
 number of electron       7.9999994 magnetization 
 augmentation part        7.9999994 magnetization 

 Free energy of the ion-electron system (eV)
  ---------------------------------------------------
  alpha Z        PSCENC =         3.36265555
  Ewald energy   TEWEN  =      -228.52985570
  -Hartree energ DENC   =       -14.94123946
  -exchange      EXHF   =        11.15561192
  -V(xc)+E(xc)   XCENC  =       -14.41293522
  PAW double counting   =        69.51581037      -41.88100248
  entropy T*S    EENTRO =        -0.00000000
  eigenvalues    EBANDS =        -0.74218560
  atomic energy  EATOM  =       203.39229883
  ---------------------------------------------------
  free energy    TOTEN  =       -13.08084179 eV

  energy without entropy =      -13.08084179  energy(sigma->0) =      -13.08084179
  exchange ACFDT corr.  =        -0.00000000  see jH, gK, PRB 81, 115126


--------------------------------------------------------------------------------------------------------




----------------------------------------- Iteration    1(  10)  ---------------------------------------


    TRIAL :  cpu time    6.7150: real time    6.7141
    CORREC:  cpu time    0.0000: real time    0.0002
    --------------------------------------------
      LOOP:  cpu time    6.7160: real time    6.7338

 eigenvalue-minimisations  :     0
 total energy-change (2. order) :-0.1392518E-01  (-0.9426955E-02)
 number of electron       7.9999994 magnetization 
 augmentation part        7.9999994 magnetization 

 Free energy of the ion-electron system (eV)
  ---------------------------------------------------
  alpha Z        PSCENC =         3.36265555
  Ewald energy   TEWEN  =      -228.52985570
  -Hartree energ DENC   =       -14.94123946
  -exchange      EXHF   =        11.18986944
  -V(xc)+E(xc)   XCENC  =       -14.41293522
  PAW double counting   =        69.51581037      -41.88100248
  entropy T*S    EENTRO =        -0.00000000
  eigenvalues    EBANDS =        -0.79036830
  atomic energy  EATOM  =       203.39229883
  ---------------------------------------------------
  free energy    TOTEN  =       -13.09476698 eV

  energy without entropy =      -13.09476698  energy(sigma->0) =      -13.09476698
  exchange ACFDT corr.  =        -0.00000000  see jH, gK, PRB 81, 115126


--------------------------------------------------------------------------------------------------------




----------------------------------------- Iteration    1(  11)  ---------------------------------------


    TRIAL :  cpu time    6.7140: real time    6.7140
    CORREC:  cpu time    0.0010: real time    0.0002
    --------------------------------------------
      LOOP:  cpu time    6.7160: real time    6.7204

 eigenvalue-minimisations  :     0
 total energy-change (2. order) :-0.7945991E-02  (-0.5131308E-02)
 number of electron       7.9999994 magnetization 
 augmentation part        7.9999994 magnetization 

 Free energy of the ion-electron system (eV)
  ---------------------------------------------------
  alpha Z        PSCENC =         3.36265555
  Ewald energy   TEWEN  =      -228.52985570
  -Hartree energ DENC   =       -14.94123946
  -exchange      EXHF   =        11.21209328
  -V(xc)+E(xc)   XCENC  =       -14.41293522
  PAW double counting   =        69.51581037      -41.88100248
  entropy T*S    EENTRO =        -0.00000000
  eigenvalues    EBANDS =        -0.82053813
  atomic energy  EATOM  =       203.39229883
  ---------------------------------------------------
  free energy    TOTEN  =       -13.10271297 eV

  energy without entropy =      -13.10271297  energy(sigma->0) =      -13.10271297
  exchange ACFDT corr.  =        -0.00000000  see jH, gK, PRB 81, 115126


--------------------------------------------------------------------------------------------------------




----------------------------------------- Iteration    1(  12)  ---------------------------------------


    TRIAL :  cpu time    6.7120: real time    6.7113
    CORREC:  cpu time    0.0000: real time    0.0002
    --------------------------------------------
      LOOP:  cpu time    6.7120: real time    6.7153

 eigenvalue-minimisations  :     0
 total energy-change (2. order) :-0.4315036E-02  (-0.2660381E-02)
 number of electron       7.9999994 magnetization 
 augmentation part        7.9999994 magnetization 

 Free energy of the ion-electron system (eV)
  ---------------------------------------------------
  alpha Z        PSCENC =         3.36265555
  Ewald energy   TEWEN  =      -228.52985570
  -Hartree energ DENC   =       -14.94123946
  -exchange      EXHF   =        11.22773865
  -V(xc)+E(xc)   XCENC  =       -14.41293522
  PAW double counting   =        69.51581037      -41.88100248
  entropy T*S    EENTRO =        -0.00000000
  eigenvalues    EBANDS =        -0.84049854
  atomic energy  EATOM  =       203.39229883
  ---------------------------------------------------
  free energy    TOTEN  =       -13.10702800 eV

  energy without entropy =      -13.10702800  energy(sigma->0) =      -13.10702800
  exchange ACFDT corr.  =        -0.00000000  see jH, gK, PRB 81, 115126


--------------------------------------------------------------------------------------------------------




----------------------------------------- Iteration    1(  13)  ---------------------------------------


    TRIAL :  cpu time    6.7130: real time    6.7127
    CORREC:  cpu time    0.0010: real time    0.0002
    --------------------------------------------
      LOOP:  cpu time    6.7150: real time    6.7179

 eigenvalue-minimisations  :     0
 total energy-change (2. order) :-0.2239161E-02  (-0.1347811E-02)
 number of electron       7.9999994 magnetization 
 augmentation part        7.9999994 magnetization 

 Free energy of the ion-electron system (eV)
  ---------------------------------------------------
  alpha Z        PSCENC =         3.36265555
  Ewald energy   TEWEN  =      -228.52985570
  -Hartree energ DENC   =       -14.94123946
  -exchange      EXHF   =        11.23949590
  -V(xc)+E(xc)   XCENC  =       -14.41293522
  PAW double counting   =        69.51581037      -41.88100248
  entropy T*S    EENTRO =        -0.00000000
  eigenvalues    EBANDS =        -0.85449495
  atomic energy  EATOM  =       203.39229883
  ---------------------------------------------------
  free energy    TOTEN  =       -13.10926717 eV

  energy without entropy =      -13.10926717  energy(sigma->0) =      -13.10926717
  exchange ACFDT corr.  =        -0.00000000  see jH, gK, PRB 81, 115126


--------------------------------------------------------------------------------------------------------




----------------------------------------- Iteration    1(  14)  ---------------------------------------


    TRIAL :  cpu time    6.7110: real time    6.7097
    CORREC:  cpu time    0.0000: real time    0.0002
    --------------------------------------------
      LOOP:  cpu time    6.7110: real time    6.7172

 eigenvalue-minimisations  :     0
 total energy-change (2. order) :-0.1141717E-02  (-0.6849378E-03)
 number of electron       7.9999994 magnetization 
 augmentation part        7.9999994 magnetization 

 Free energy of the ion-electron system (eV)
  ---------------------------------------------------
  alpha Z        PSCENC =         3.36265555
  Ewald energy   TEWEN  =      -228.52985570
  -Hartree energ DENC   =       -14.94123946
  -exchange      EXHF   =        11.24840395
  -V(xc)+E(xc)   XCENC  =       -14.41293522
  PAW double counting   =        69.51581037      -41.88100248
  entropy T*S    EENTRO =        -0.00000000
  eigenvalues    EBANDS =        -0.86454472
  atomic energy  EATOM  =       203.39229883
  ---------------------------------------------------
  free energy    TOTEN  =       -13.11040888 eV

  energy without entropy =      -13.11040888  energy(sigma->0) =      -13.11040888
  exchange ACFDT corr.  =        -0.00000000  see jH, gK, PRB 81, 115126


--------------------------------------------------------------------------------------------------------




----------------------------------------- Iteration    1(  15)  ---------------------------------------


    TRIAL :  cpu time    6.7120: real time    6.7116
    CORREC:  cpu time    0.0000: real time    0.0002
    --------------------------------------------
      LOOP:  cpu time    6.7130: real time    6.7154

 eigenvalue-minimisations  :     0
 total energy-change (2. order) :-0.5833393E-03  (-0.3486148E-03)
 number of electron       7.9999994 magnetization 
 augmentation part        7.9999994 magnetization 

 Free energy of the ion-electron system (eV)
  ---------------------------------------------------
  alpha Z        PSCENC =         3.36265555
  Ewald energy   TEWEN  =      -228.52985570
  -Hartree energ DENC   =       -14.94123946
  -exchange      EXHF   =        11.25499125
  -V(xc)+E(xc)   XCENC  =       -14.41293522
  PAW double counting   =        69.51581037      -41.88100248
  entropy T*S    EENTRO =        -0.00000000
  eigenvalues    EBANDS =        -0.87171536
  atomic energy  EATOM  =       203.39229883
  ---------------------------------------------------
  free energy    TOTEN  =       -13.11099222 eV

  energy without entropy =      -13.11099222  energy(sigma->0) =      -13.11099222
  exchange ACFDT corr.  =        -0.00000000  see jH, gK, PRB 81, 115126


--------------------------------------------------------------------------------------------------------




----------------------------------------- Iteration    1(  16)  ---------------------------------------


    TRIAL :  cpu time    6.7100: real time    6.7101
    CORREC:  cpu time    0.0010: real time    0.0002
    --------------------------------------------
      LOOP:  cpu time    6.7120: real time    6.7156

 eigenvalue-minimisations  :     0
 total energy-change (2. order) :-0.2980625E-03  (-0.1779859E-03)
 number of electron       7.9999994 magnetization 
 augmentation part        7.9999994 magnetization 

 Free energy of the ion-electron system (eV)
  ---------------------------------------------------
  alpha Z        PSCENC =         3.36265555
  Ewald energy   TEWEN  =      -228.52985570
  -Hartree energ DENC   =       -14.94123946
  -exchange      EXHF   =        11.25975490
  -V(xc)+E(xc)   XCENC  =       -14.41293522
  PAW double counting   =        69.51581037      -41.88100248
  entropy T*S    EENTRO =        -0.00000000
  eigenvalues    EBANDS =        -0.87677707
  atomic energy  EATOM  =       203.39229883
  ---------------------------------------------------
  free energy    TOTEN  =       -13.11129028 eV

  energy without entropy =      -13.11129028  energy(sigma->0) =      -13.11129028
  exchange ACFDT corr.  =        -0.00000000  see jH, gK, PRB 81, 115126


--------------------------------------------------------------------------------------------------------




----------------------------------------- Iteration    1(  17)  ---------------------------------------


    TRIAL :  cpu time    6.7090: real time    6.7088
    CORREC:  cpu time    0.0010: real time    0.0002
    --------------------------------------------
      LOOP:  cpu time    6.7100: real time    6.7130

 eigenvalue-minimisations  :     0
 total energy-change (2. order) :-0.1528862E-03  (-0.9191464E-04)
 number of electron       7.9999994 magnetization 
 augmentation part        7.9999994 magnetization 

 Free energy of the ion-electron system (eV)
  ---------------------------------------------------
  alpha Z        PSCENC =         3.36265555
  Ewald energy   TEWEN  =      -228.52985570
  -Hartree energ DENC   =       -14.94123946
  -exchange      EXHF   =        11.26316171
  -V(xc)+E(xc)   XCENC  =       -14.41293522
  PAW double counting   =        69.51581037      -41.88100248
  entropy T*S    EENTRO =        -0.00000000
  eigenvalues    EBANDS =        -0.88033676
  atomic energy  EATOM  =       203.39229883
  ---------------------------------------------------
  free energy    TOTEN  =       -13.11144317 eV

  energy without entropy =      -13.11144317  energy(sigma->0) =      -13.11144317
  exchange ACFDT corr.  =        -0.00000000  see jH, gK, PRB 81, 115126


--------------------------------------------------------------------------------------------------------




----------------------------------------- Iteration    1(  18)  ---------------------------------------


    TRIAL :  cpu time    6.7110: real time    6.7100
    CORREC:  cpu time    0.0000: real time    0.0002
    --------------------------------------------
      LOOP:  cpu time    6.7110: real time    6.7142

 eigenvalue-minimisations  :     0
 total energy-change (2. order) :-0.7942993E-04  (-0.4844168E-04)
 number of electron       7.9999994 magnetization 
 augmentation part        7.9999994 magnetization 

 Free energy of the ion-electron system (eV)
  ---------------------------------------------------
  alpha Z        PSCENC =         3.36265555
  Ewald energy   TEWEN  =      -228.52985570
  -Hartree energ DENC   =       -14.94123946
  -exchange      EXHF   =        11.26558281
  -V(xc)+E(xc)   XCENC  =       -14.41293522
  PAW double counting   =        69.51581037      -41.88100248
  entropy T*S    EENTRO =        -0.00000000
  eigenvalues    EBANDS =        -0.88283730
  atomic energy  EATOM  =       203.39229883
  ---------------------------------------------------
  free energy    TOTEN  =       -13.11152260 eV

  energy without entropy =      -13.11152260  energy(sigma->0) =      -13.11152260
  exchange ACFDT corr.  =        -0.00000000  see jH, gK, PRB 81, 115126


--------------------------------------------------------------------------------------------------------




----------------------------------------- Iteration    1(  19)  ---------------------------------------


    TRIAL :  cpu time    6.7140: real time    6.7128
    CORREC:  cpu time    0.0000: real time    0.0002
    --------------------------------------------
      LOOP:  cpu time    6.7140: real time    6.7169

 eigenvalue-minimisations  :     0
 total energy-change (2. order) :-0.4220332E-04  (-0.2650505E-04)
 number of electron       7.9999994 magnetization 
 augmentation part        7.9999994 magnetization 

 Free energy of the ion-electron system (eV)
  ---------------------------------------------------
  alpha Z        PSCENC =         3.36265555
  Ewald energy   TEWEN  =      -228.52985570
  -Hartree energ DENC   =       -14.94123946
  -exchange      EXHF   =        11.26729773
  -V(xc)+E(xc)   XCENC  =       -14.41293522
  PAW double counting   =        69.51581037      -41.88100248
  entropy T*S    EENTRO =        -0.00000000
  eigenvalues    EBANDS =        -0.88459442
  atomic energy  EATOM  =       203.39229883
  ---------------------------------------------------
  free energy    TOTEN  =       -13.11156480 eV

  energy without entropy =      -13.11156480  energy(sigma->0) =      -13.11156480
  exchange ACFDT corr.  =        -0.00000000  see jH, gK, PRB 81, 115126


--------------------------------------------------------------------------------------------------------




----------------------------------------- Iteration    1(  20)  ---------------------------------------


    TRIAL :  cpu time    6.7130: real time    6.7130
    CORREC:  cpu time    0.0000: real time    0.0002
    --------------------------------------------
      LOOP:  cpu time    6.7140: real time    6.7165

 eigenvalue-minimisations  :     0
 total energy-change (2. order) :-0.2335476E-04  (-0.1526823E-04)
 number of electron       7.9999994 magnetization 
 augmentation part        7.9999994 magnetization 

 Free energy of the ion-electron system (eV)
  ---------------------------------------------------
  alpha Z        PSCENC =         3.36265555
  Ewald energy   TEWEN  =      -228.52985570
  -Hartree energ DENC   =       -14.94123946
  -exchange      EXHF   =        11.26851474
  -V(xc)+E(xc)   XCENC  =       -14.41293522
  PAW double counting   =        69.51581037      -41.88100248
  entropy T*S    EENTRO =        -0.00000000
  eigenvalues    EBANDS =        -0.88583479
  atomic energy  EATOM  =       203.39229883
  ---------------------------------------------------
  free energy    TOTEN  =       -13.11158816 eV

  energy without entropy =      -13.11158816  energy(sigma->0) =      -13.11158816
  exchange ACFDT corr.  =        -0.00000000  see jH, gK, PRB 81, 115126


--------------------------------------------------------------------------------------------------------




----------------------------------------- Iteration    1(  21)  ---------------------------------------


    TRIAL :  cpu time    6.7100: real time    6.7095
    CORREC:  cpu time    0.0000: real time    0.0002
    --------------------------------------------
      LOOP:  cpu time    6.7110: real time    6.7157

 eigenvalue-minimisations  :     0
 total energy-change (2. order) :-0.1365361E-04  (-0.9366553E-05)
 number of electron       7.9999994 magnetization 
 augmentation part        7.9999994 magnetization 

 Free energy of the ion-electron system (eV)
  ---------------------------------------------------
  alpha Z        PSCENC =         3.36265555
  Ewald energy   TEWEN  =      -228.52985570
  -Hartree energ DENC   =       -14.94123946
  -exchange      EXHF   =        11.26938342
  -V(xc)+E(xc)   XCENC  =       -14.41293522
  PAW double counting   =        69.51581037      -41.88100248
  entropy T*S    EENTRO =        -0.00000000
  eigenvalues    EBANDS =        -0.88671712
  atomic energy  EATOM  =       203.39229883
  ---------------------------------------------------
  free energy    TOTEN  =       -13.11160181 eV

  energy without entropy =      -13.11160181  energy(sigma->0) =      -13.11160181
  exchange ACFDT corr.  =        -0.00000000  see jH, gK, PRB 81, 115126


--------------------------------------------------------------------------------------------------------




----------------------------------------- Iteration    1(  22)  ---------------------------------------


[...]
  -V(xc)+E(xc)   XCENC  =       -14.41293522
  PAW double counting   =        69.51581037      -41.88100248
  entropy T*S    EENTRO =        -0.00000000
  eigenvalues    EBANDS =        -0.88858493
  atomic energy  EATOM  =       203.39229883
  ---------------------------------------------------
  free energy    TOTEN  =       -13.11162532 eV

  energy without entropy =      -13.11162532  energy(sigma->0) =      -13.11162532
  exchange ACFDT corr.  =        -0.00000000  see jH, gK, PRB 81, 115126


--------------------------------------------------------------------------------------------------------




----------------------------------------- Iteration    1(  27)  ---------------------------------------


    TRIAL :  cpu time    6.7140: real time    6.7128
    CORREC:  cpu time    0.0000: real time    0.0002
    --------------------------------------------
      LOOP:  cpu time    6.7140: real time    6.7163

 eigenvalue-minimisations  :     0
 total energy-change (2. order) :-0.1768229E-05  (-0.1417172E-05)
 number of electron       7.9999994 magnetization 
 augmentation part        7.9999994 magnetization 

 Free energy of the ion-electron system (eV)
  ---------------------------------------------------
  alpha Z        PSCENC =         3.36265555
  Ewald energy   TEWEN  =      -228.52985570
  -Hartree energ DENC   =       -14.94123946
  -exchange      EXHF   =        11.27136730
  -V(xc)+E(xc)   XCENC  =       -14.41293522
  PAW double counting   =        69.51581037      -41.88100248
  entropy T*S    EENTRO =        -0.00000000
  eigenvalues    EBANDS =        -0.88872628
  atomic energy  EATOM  =       203.39229883
  ---------------------------------------------------
  free energy    TOTEN  =       -13.11162709 eV

  energy without entropy =      -13.11162709  energy(sigma->0) =      -13.11162709
  exchange ACFDT corr.  =        -0.00000000  see jH, gK, PRB 81, 115126


--------------------------------------------------------------------------------------------------------




----------------------------------------- Iteration    1(  28)  ---------------------------------------


    TRIAL :  cpu time    6.7130: real time    6.7122
    CORREC:  cpu time    0.0010: real time    0.0002
    --------------------------------------------
      LOOP:  cpu time    6.7140: real time    6.7164

 eigenvalue-minimisations  :     0
 total energy-change (2. order) :-0.1386917E-05  (-0.1115586E-05)
 number of electron       7.9999994 magnetization 
 augmentation part        7.9999994 magnetization 

 Free energy of the ion-electron system (eV)
  ---------------------------------------------------
  alpha Z        PSCENC =         3.36265555
  Ewald energy   TEWEN  =      -228.52985570
  -Hartree energ DENC   =       -14.94123946
  -exchange      EXHF   =        11.27147378
  -V(xc)+E(xc)   XCENC  =       -14.41293522
  PAW double counting   =        69.51581037      -41.88100248
  entropy T*S    EENTRO =        -0.00000000
  eigenvalues    EBANDS =        -0.88883413
  atomic energy  EATOM  =       203.39229883
  ---------------------------------------------------
  free energy    TOTEN  =       -13.11162847 eV

  energy without entropy =      -13.11162847  energy(sigma->0) =      -13.11162847
  exchange ACFDT corr.  =        -0.00000000  see jH, gK, PRB 81, 115126


--------------------------------------------------------------------------------------------------------




----------------------------------------- Iteration    1(  29)  ---------------------------------------


    TRIAL :  cpu time    6.7140: real time    6.7132
    CORREC:  cpu time    0.0000: real time    0.0002
    --------------------------------------------
      LOOP:  cpu time    6.7140: real time    6.7186

 eigenvalue-minimisations  :     0
 total energy-change (2. order) :-0.1098788E-05  (-0.8893948E-06)
 number of electron       7.9999994 magnetization 
 augmentation part        7.9999994 magnetization 

 Free energy of the ion-electron system (eV)
  ---------------------------------------------------
  alpha Z        PSCENC =         3.36265555
  Ewald energy   TEWEN  =      -228.52985570
  -Hartree energ DENC   =       -14.94123946
  -exchange      EXHF   =        11.27155581
  -V(xc)+E(xc)   XCENC  =       -14.41293522
  PAW double counting   =        69.51581037      -41.88100248
  entropy T*S    EENTRO =        -0.00000000
  eigenvalues    EBANDS =        -0.88891727
  atomic energy  EATOM  =       203.39229883
  ---------------------------------------------------
  free energy    TOTEN  =       -13.11162957 eV

  energy without entropy =      -13.11162957  energy(sigma->0) =      -13.11162957
  exchange ACFDT corr.  =        -0.00000000  see jH, gK, PRB 81, 115126


--------------------------------------------------------------------------------------------------------




----------------------------------------- Iteration    1(  30)  ---------------------------------------


    TRIAL :  cpu time    6.7130: real time    6.7126
    CORREC:  cpu time    0.0000: real time    0.0002
    --------------------------------------------
      LOOP:  cpu time    6.7140: real time    6.7175

 eigenvalue-minimisations  :     0
 total energy-change (2. order) :-0.8809577E-06  (-0.7197993E-06)
 number of electron       7.9999994 magnetization 
 augmentation part        7.9999994 magnetization 

 Free energy of the ion-electron system (eV)
  ---------------------------------------------------
  alpha Z        PSCENC =         3.36265555
  Ewald energy   TEWEN  =      -228.52985570
  -Hartree energ DENC   =       -14.94123946
  -exchange      EXHF   =        11.27161974
  -V(xc)+E(xc)   XCENC  =       -14.41293522
  PAW double counting   =        69.51581037      -41.88100248
  entropy T*S    EENTRO =        -0.00000000
  eigenvalues    EBANDS =        -0.88898208
  atomic energy  EATOM  =       203.39229883
  ---------------------------------------------------
  free energy    TOTEN  =       -13.11163045 eV

  energy without entropy =      -13.11163045  energy(sigma->0) =      -13.11163045
  exchange ACFDT corr.  =        -0.00000000  see jH, gK, PRB 81, 115126


--------------------------------------------------------------------------------------------------------


  average scaling for gradient   0.4785


 average (electrostatic) potential at core
  the test charge radii are     0.9892
  (the norm of the test charge is              1.0000)
       1 -79.4163       2 -79.4163
 
 
 
 E-fermi :   5.5202     XC(G=0):  -7.8385     alpha+bet :-11.9792


 k-point     1 :       0.0000    0.0000    0.0000
  band No.  band energies     occupation 
      1      -7.8155      2.00000
      2       5.4781      2.00000
      3       5.4781      2.00000
      4       5.4781      2.00000
      5       8.8228      0.00000
      6       8.8228      0.00000
      7       8.8228      0.00000
      8       9.8333      0.00000

 k-point     2 :       0.1429    0.0000    0.0000
  band No.  band energies     occupation 
      1      -7.5206      2.00000
      2       3.4149      2.00000
      3       5.1032      2.00000
      4       5.1032      2.00000
      5       8.7059      0.00000
      6       9.3777      0.00000
      7       9.3777      0.00000
      8      11.5136      0.00000

 k-point     3 :       0.2857    0.0000    0.0000
  band No.  band energies     occupation 
      1      -6.6689      2.00000
      2       0.4766      2.00000
      3       4.5318      2.00000
      4       4.5318      2.00000
      5       8.1382      0.00000
      6       9.8612      0.00000
      7       9.8612      0.00000
      8      14.0136      0.00000

 k-point     4 :       0.4286    0.0000    0.0000
  band No.  band energies     occupation 
      1      -5.5072      2.00000
      2      -1.8183      2.00000
      3       4.2024      2.00000
      4       4.2024      2.00000
      5       7.7913      0.00000
      6       9.6871      0.00000
      7       9.6871      0.00000
      8      14.1756      0.00000

 k-point     5 :       0.1429    0.1429    0.0000
  band No.  band energies     occupation 
      1      -7.4208      2.00000
      2       3.7522      2.00000
      3       4.4425      2.00000
      4       4.4425      2.00000
      5       8.0610      0.00000
      6      10.3211      0.00000
      7      10.3211      0.00000
      8      10.8695      0.00000

 k-point     6 :       0.2857    0.1429    0.0000
  band No.  band energies     occupation 
      1      -6.7465      2.00000
      2       1.3720      2.00000
      3       3.8282      2.00000
      4       3.8347      2.00000
      5       8.2467      0.00000
      6      10.3224      0.00000
      7      10.8728      0.00000
      8      11.1743      0.00000

 k-point     7 :       0.4286    0.1429    0.0000
  band No.  band energies     occupation 
      1      -5.6214      2.00000
      2      -1.0937      2.00000
      3       3.0674      2.00000
      4       3.6144      2.00000
      5       8.3377      0.00000
      6      10.1648      0.00000
      7      10.9260      0.00000
      8      12.2450      0.00000

 k-point     8 :      -0.4286    0.1429    0.0000
  band No.  band energies     occupation 
      1      -4.9947      2.00000
      2      -2.0708      2.00000
      3       2.6023      2.00000
      4       3.8281      2.00000
      5       8.4661      0.00000
      6      10.0339      0.00000
      7      10.4999      0.00000
      8      14.8853      0.00000

 k-point     9 :      -0.2857    0.1429    0.0000
  band No.  band energies     occupation 
      1      -6.0329      2.00000
      2      -0.3256      2.00000
      3       2.6080      2.00000
      4       4.3964      2.00000
      5       8.9273      0.00000
      6      10.2254      0.00000
      7      10.2714      0.00000
      8      13.2273      0.00000

 k-point    10 :      -0.1429    0.1429    0.0000
  band No.  band energies     occupation 
      1      -7.0363      2.00000
      2       2.0659      2.00000
      3       3.3779      2.00000
      4       5.0454      2.00000
      5       9.4047      0.00000
      6       9.6290      0.00000
      7       9.7963      0.00000
      8      12.1122      0.00000

 k-point    11 :       0.2857    0.2857    0.0000
  band No.  band energies     occupation 
      1      -6.2526      2.00000
      2       0.9243      2.00000
      3       3.1379      2.00000
      4       3.1379      2.00000
      5       7.0223      0.00000
      6       8.8291      0.00000
      7      12.9647      0.00000
      8      12.9647      0.00000

 k-point    12 :       0.4286    0.2857    0.0000
  band No.  band energies     occupation 
      1      -5.2455      2.00000
      2      -0.7746      2.00000
      3       2.0804      2.00000
      4       2.8413      2.00000
      5       7.3224      0.00000
      6       8.9125      0.00000
      7      13.2053      0.00000
      8      13.3643      0.00000

 k-point    13 :      -0.4286    0.2857    0.0000
  band No.  band energies     occupation 
      1      -4.2155      2.00000
      2      -2.1054      2.00000
      3       1.0213      2.00000
      4       3.0277      2.00000
      5       7.5910      0.00000
      6      11.3079      0.00000
      7      12.8253      0.00000
      8      12.9343      0.00000

 k-point    14 :      -0.2857    0.2857    0.0000
  band No.  band energies     occupation 
      1      -4.9444      2.00000
      2      -1.2587      2.00000
      3       0.9385      2.00000
      4       3.6395      2.00000
      5       8.2589      0.00000
      6      11.9837      0.00000
      7      12.1950      0.00000
      8      13.2128      0.00000

 k-point    15 :       0.4286    0.4286    0.0000
  band No.  band energies     occupation 
      1      -4.3690      2.00000
      2      -1.8987      2.00000
      3       2.4221      2.00000
      4       2.4221      2.00000
      5       6.6371      0.00000
      6       7.1924      0.00000
      7      15.8268      0.00000
      8      15.8268      0.00000

 k-point    16 :      -0.4286    0.4286    0.0000
  band No.  band energies     occupation 
      1      -3.3015      2.00000
      2      -2.9785      2.00000
      3       1.4634      2.00000
      4       2.4906      2.00000
      5       6.9634      0.00000
      6       8.3019      0.00000
      7      15.6225      0.00000
      8      16.1075      0.00000

 k-point    17 :       0.4286    0.2857    0.1429
  band No.  band energies     occupation 
      1      -5.9082      2.00000
      2       0.0880      2.00000
      3       2.0923      2.00000
      4       3.5431      2.00000
      5       8.7914      0.00000
      6      10.1369      0.00000
      7      10.5132      0.00000
      8      12.6792      0.00000

 k-point    18 :      -0.4286    0.2857    0.1429
  band No.  band energies     occupation 
      1      -4.7420      2.00000
      2      -1.6410      2.00000
      3       1.4545      2.00000
      4       2.9489      2.00000
      5       9.3115      0.00000
      6       9.7737      0.00000
      7      11.9261      0.00000
      8      13.1571      0.00000

 k-point    19 :      -0.4286    0.4286    0.1429
  band No.  band energies     occupation 
      1      -4.1378      2.00000
      2      -1.9943      2.00000
      3       1.5426      2.00000
      4       1.9943      2.00000
      5       8.3839      0.00000
      6       8.7759      0.00000
      7      12.6856      0.00000
      8      15.6473      0.00000

 k-point    20 :      -0.2857    0.4286    0.1429
  band No.  band energies     occupation 
      1      -3.6454      2.00000
      2      -2.4417      2.00000
      3       0.8316      2.00000
      4       2.1009      2.00000
      5       8.9482      0.00000
      6      11.1753      0.00000
      7      12.1848      0.00000
      8      12.2765      0.00000


--------------------------------------------------------------------------------------------------------


 soft charge-density along one line, spin component           1
         0         1         2         3         4         5         6         7         8         9
 total charge-density along one line
 
 pseudopotential strength for first ion, spin component:           1
 17.847  -0.002  -0.000  -0.000  -0.000   0.000   0.000   0.000
 -0.002   0.005   0.000   0.000   0.000  -0.000  -0.000  -0.000
 -0.000   0.000   4.073  -0.000  -0.000  -0.003   0.000   0.000
 -0.000   0.000  -0.000   4.073  -0.000   0.000  -0.003   0.000
 -0.000   0.000  -0.000  -0.000   4.073   0.000   0.000  -0.003
  0.000  -0.000  -0.003   0.000   0.000   0.004  -0.000  -0.000
  0.000  -0.000   0.000  -0.003   0.000  -0.000   0.004  -0.000
  0.000  -0.000   0.000   0.000  -0.003  -0.000  -0.000   0.004
 total augmentation occupancy for first ion, spin component:           1
  2.000   0.000   0.000   0.000   0.000   0.000   0.000   0.000
  0.000   0.000   0.000   0.000   0.000   0.000   0.000   0.000
  0.000   0.000   0.667   0.000   0.000   0.000   0.000   0.000
  0.000   0.000   0.000   0.667   0.000   0.000   0.000   0.000
  0.000   0.000   0.000   0.000   0.667   0.000   0.000   0.000
  0.000   0.000   0.000   0.000   0.000   0.000   0.000   0.000
  0.000   0.000   0.000   0.000   0.000   0.000   0.000   0.000
  0.000   0.000   0.000   0.000   0.000   0.000   0.000   0.000


------------------------ aborting loop because EDIFF is reached ----------------------------------------


 


 total charge     
 
# of ion     s       p       d       tot
----------------------------------------
  1        0.751   0.970   0.000   1.721
  2        0.751   0.970   0.000   1.721
------------------------------------------------
tot        1.502   1.940   0.000   3.442
 
    CHARGE:  cpu time    0.0130: real time    0.0137
    FORLOC:  cpu time    0.0000: real time    0.0002
    FORHF :  cpu time    9.0846: real time    9.0821
    FORNL :  cpu time    0.0190: real time    0.0188
    FORCOR:  cpu time    0.0990: real time    0.0996
    FORHAR:  cpu time    0.0010: real time    0.0008
    OFIELD:  cpu time    0.0000: real time    0.0000

 VOLUME and BASIS-vectors are now :
 -----------------------------------------------------------------------------
  energy-cutoff  :      250.00
  volume of cell :       40.04
      direct lattice vectors                 reciprocal lattice vectors
     0.000000000  2.715400000  2.715400000    -0.184134934  0.184134934  0.184134934
     2.715400000  0.000000000  2.715400000     0.184134934 -0.184134934  0.184134934
     2.715400000  2.715400000  0.000000000     0.184134934  0.184134934 -0.184134934

  length of vectors
     3.840155507  3.840155507  3.840155507     0.318931061  0.318931061  0.318931061


 FORCES acting on ions
    electron-ion (+dipol)            ewald-force                    non-local-force                 convergence-correction
 -----------------------------------------------------------------------------------------------
   -.110E-03 0.643E-04 -.108E-03   -.703E-14 -.499E-14 -.139E-13   0.833E-16 0.625E-16 0.711E-16   0.112E-04 0.420E-06 0.143E-04
   0.783E-04 0.532E-05 0.122E-03   0.670E-14 0.473E-14 0.138E-13   -.833E-16 -.555E-16 -.833E-16   -.994E-05 -.516E-05 -.157E-04
 -----------------------------------------------------------------------------------------------
   -.319E-04 0.697E-04 0.138E-04   -.326E-15 -.260E-15 -.869E-16   0.000E+00 0.694E-17 -.121E-16   0.131E-05 -.474E-05 -.134E-05
 
 
 POSITION                                       TOTAL-FORCE (eV/Angst)
 -----------------------------------------------------------------------------------
      0.00000      0.00000      0.00000        -0.000000     -0.000000     -0.000000
      1.35770      1.35770      1.35770         0.000000      0.000000      0.000000
 -----------------------------------------------------------------------------------
    total drift:                               -0.000031      0.000065      0.000013


--------------------------------------------------------------------------------------------------------



  FREE ENERGIE OF THE ION-ELECTRON SYSTEM (eV)
  ---------------------------------------------------
  free  energy   TOTEN  =       -13.11163045 eV

  energy  without entropy=      -13.11163045  energy(sigma->0) =      -13.11163045
 


--------------------------------------------------------------------------------------------------------


    POTLOK:  cpu time    0.0990: real time    0.0984


--------------------------------------------------------------------------------------------------------


     LOOP+:  cpu time  177.4750: real time  177.6258
    4ORBIT:  cpu time    0.0000: real time    0.0000
 


 total charge     
 
# of ion     s       p       d       tot
----------------------------------------
  1        0.751   0.970   0.000   1.721
  2        0.751   0.970   0.000   1.721
------------------------------------------------
tot        1.502   1.940   0.000   3.442
 

 total amount of memory used by VASP on root node    32043. kBytes
========================================================================

   base      :      30000. kBytes
   nonlr-proj:        419. kBytes
   fftplans  :        302. kBytes
   grid      :        577. kBytes
   one-center:          6. kBytes
   HF        :          4. kBytes
   wavefun   :        735. kBytes
 
  
  
 General timing and accounting informations for this job:
 ========================================================
  
                  Total CPU time used (sec):      193.487
                            User time (sec):      191.568
                          System time (sec):        1.919
                         Elapsed time (sec):      195.417
  
                   Maximum memory used (kb):      126484.
                   Average memory used (kb):           0.
  
                          Minor page faults:        31623
                          Major page faults:          225
                 Voluntary context switches:         2744
