PROCAR lm decomposed
# of k-points:   20         # of bands:   8         # of ions:   2

 k-point    1 :    0.00000000 0.00000000 0.00000000     weight = 0.00291545

band   1 # energy   -7.81552456 # occ.  2.00000000
 
ion      s     py     pz     px    dxy    dyz    dz2    dxz    dx2    tot
  1  0.218  0.000  0.000  0.000  0.000  0.000  0.000  0.000  0.000  0.218
  2  0.218  0.000  0.000  0.000  0.000  0.000  0.000  0.000  0.000  0.218
tot  0.435  0.000  0.000  0.000  0.000  0.000  0.000  0.000  0.000  0.435
 
band   2 # energy    5.47813625 # occ.  2.00000000
 
ion      s     py     pz     px    dxy    dyz    dz2    dxz    dx2    tot
  1  0.000  0.083  0.030  0.106  0.000  0.000  0.000  0.000  0.000  0.219
  2  0.000  0.083  0.030  0.106  0.000  0.000  0.000  0.000  0.000  0.219
tot  0.000  0.166  0.060  0.212  0.000  0.000  0.000  0.000  0.000  0.438
 
band   3 # energy    5.47814467 # occ.  2.00000000
 
ion      s     py     pz     px    dxy    dyz    dz2    dxz    dx2    tot
  1  0.000  0.037  0.161  0.020  0.000  0.000  0.000  0.000  0.000  0.219
  2  0.000  0.037  0.161  0.020  0.000  0.000  0.000  0.000  0.000  0.219
tot  0.000  0.075  0.323  0.040  0.000  0.000  0.000  0.000  0.000  0.438
 
band   4 # energy    5.47814772 # occ.  2.00000000
 
ion      s     py     pz     px    dxy    dyz    dz2    dxz    dx2    tot
  1  0.000  0.099  0.027  0.093  0.000  0.000  0.000  0.000  0.000  0.219
  2  0.000  0.099  0.027  0.093  0.000  0.000  0.000  0.000  0.000  0.219
tot  0.000  0.197  0.055  0.186  0.000  0.000  0.000  0.000  0.000  0.438
 
band   5 # energy    8.82280747 # occ.  0.00000000
 
ion      s     py     pz     px    dxy    dyz    dz2    dxz    dx2    tot
  1  0.000  0.042  0.046  0.063  0.000  0.000  0.000  0.000  0.000  0.151
  2  0.000  0.042  0.046  0.063  0.000  0.000  0.000  0.000  0.000  0.151
tot  0.000  0.084  0.092  0.126  0.000  0.000  0.000  0.000  0.000  0.303
 
band   6 # energy    8.82282348 # occ.  0.00000000
 
ion      s     py     pz     px    dxy    dyz    dz2    dxz    dx2    tot
  1  0.000  0.007  0.067  0.077  0.000  0.000  0.000  0.000  0.000  0.151
  2  0.000  0.007  0.067  0.077  0.000  0.000  0.000  0.000  0.000  0.151
tot  0.000  0.014  0.135  0.155  0.000  0.000  0.000  0.000  0.000  0.303
 
band   7 # energy    8.82283010 # occ.  0.00000000
 
ion      s     py     pz     px    dxy    dyz    dz2    dxz    dx2    tot
  1  0.000  0.102  0.038  0.011  0.000  0.000  0.000  0.000  0.000  0.151
  2  0.000  0.102  0.038  0.011  0.000  0.000  0.000  0.000  0.000  0.151
tot  0.000  0.205  0.076  0.022  0.000  0.000  0.000  0.000  0.000  0.303
 
band   8 # energy    9.83328765 # occ.  0.00000000
 
ion      s     py     pz     px    dxy    dyz    dz2    dxz    dx2    tot
  1  0.364  0.000  0.000  0.000  0.000  0.000  0.000  0.000  0.000  0.364
  2  0.364  0.000  0.000  0.000  0.000  0.000  0.000  0.000  0.000  0.364
tot  0.728  0.000  0.000  0.000  0.000  0.000  0.000  0.000  0.000  0.728
 

 k-point    2 :    0.14285714 0.00000000 0.00000000     weight = 0.02332362

band   1 # energy   -7.52056213 # occ.  2.00000000
 
ion      s     py     pz     px    dxy    dyz    dz2    dxz    dx2    tot
  1  0.216  0.001  0.001  0.001  0.000  0.000  0.000  0.000  0.000  0.219
  2  0.216  0.001  0.001  0.001  0.000  0.000  0.000  0.000  0.000  0.219
tot  0.432  0.002  0.002  0.002  0.000  0.000  0.000  0.000  0.000  0.438
 
band   2 # energy    3.41493880 # occ.  2.00000000
 
ion      s     py     pz     px    dxy    dyz    dz2    dxz    dx2    tot
  1  0.064  0.053  0.053  0.053  0.000  0.000  0.000  0.000  0.000  0.222
  2  0.064  0.053  0.053  0.053  0.000  0.000  0.000  0.000  0.000  0.222
tot  0.128  0.105  0.105  0.105  0.000  0.000  0.000  0.000  0.000  0.444
 
band   3 # energy    5.10322011 # occ.  2.00000000
 
ion      s     py     pz     px    dxy    dyz    dz2    dxz    dx2    tot
  1  0.000  0.102  0.038  0.076  0.000  0.000  0.000  0.000  0.000  0.216
  2  0.000  0.102  0.038  0.076  0.000  0.000  0.000  0.000  0.000  0.216
tot  0.000  0.205  0.077  0.151  0.000  0.000  0.000  0.000  0.000  0.433
 
band   4 # energy    5.10322450 # occ.  2.00000000
 
ion      s     py     pz     px    dxy    dyz    dz2    dxz    dx2    tot
  1  0.000  0.042  0.106  0.069  0.000  0.000  0.000  0.000  0.000  0.216
  2  0.000  0.042  0.106  0.069  0.000  0.000  0.000  0.000  0.000  0.216
tot  0.000  0.084  0.212  0.137  0.000  0.000  0.000  0.000  0.000  0.433
 
band   5 # energy    8.70594719 # occ.  0.00000000
 
ion      s     py     pz     px    dxy    dyz    dz2    dxz    dx2    tot
  1  0.108  0.028  0.028  0.028  0.000  0.000  0.000  0.000  0.000  0.193
  2  0.108  0.028  0.028  0.028  0.000  0.000  0.000  0.000  0.000  0.193
tot  0.216  0.056  0.056  0.056  0.000  0.000  0.000  0.000  0.000  0.385
 
band   6 # energy    9.37767520 # occ.  0.00000000
 
ion      s     py     pz     px    dxy    dyz    dz2    dxz    dx2    tot
  1  0.000  0.022  0.030  0.102  0.000  0.000  0.000  0.000  0.000  0.154
  2  0.000  0.022  0.030  0.102  0.000  0.000  0.000  0.000  0.000  0.154
tot  0.000  0.043  0.060  0.205  0.000  0.000  0.000  0.000  0.000  0.308
 
band   7 # energy    9.37769500 # occ.  0.00000000
 
ion      s     py     pz     px    dxy    dyz    dz2    dxz    dx2    tot
  1  0.000  0.081  0.073  0.000  0.000  0.000  0.000  0.000  0.000  0.154
  2  0.000  0.081  0.073  0.000  0.000  0.000  0.000  0.000  0.000  0.154
tot  0.000  0.162  0.146  0.000  0.000  0.000  0.000  0.000  0.000  0.308
 
band   8 # energy   11.51363689 # occ.  0.00000000
 
ion      s     py     pz     px    dxy    dyz    dz2    dxz    dx2    tot
  1  0.206  0.033  0.033  0.033  0.000  0.000  0.000  0.000  0.000  0.304
  2  0.206  0.033  0.033  0.033  0.000  0.000  0.000  0.000  0.000  0.304
tot  0.412  0.065  0.065  0.065  0.000  0.000  0.000  0.000  0.000  0.607
 

 k-point    3 :    0.28571429 0.00000000 0.00000000     weight = 0.02332362

band   1 # energy   -6.66889357 # occ.  2.00000000
 
ion      s     py     pz     px    dxy    dyz    dz2    dxz    dx2    tot
  1  0.214  0.003  0.003  0.003  0.000  0.000  0.000  0.000  0.000  0.224
  2  0.214  0.003  0.003  0.003  0.000  0.000  0.000  0.000  0.000  0.224
tot  0.428  0.007  0.007  0.007  0.000  0.000  0.000  0.000  0.000  0.449
 
band   2 # energy    0.47656648 # occ.  2.00000000
 
ion      s     py     pz     px    dxy    dyz    dz2    dxz    dx2    tot
  1  0.099  0.039  0.039  0.039  0.000  0.000  0.000  0.000  0.000  0.215
  2  0.099  0.039  0.039  0.039  0.000  0.000  0.000  0.000  0.000  0.215
tot  0.198  0.078  0.078  0.078  0.000  0.000  0.000  0.000  0.000  0.431
 
band   3 # energy    4.53176788 # occ.  2.00000000
 
ion      s     py     pz     px    dxy    dyz    dz2    dxz    dx2    tot
  1  0.000  0.002  0.095  0.121  0.000  0.000  0.000  0.000  0.000  0.218
  2  0.000  0.002  0.095  0.121  0.000  0.000  0.000  0.000  0.000  0.218
tot  0.000  0.004  0.189  0.242  0.000  0.000  0.000  0.000  0.000  0.435
 
band   4 # energy    4.53177199 # occ.  2.00000000
 
ion      s     py     pz     px    dxy    dyz    dz2    dxz    dx2    tot
  1  0.000  0.143  0.051  0.024  0.000  0.000  0.000  0.000  0.000  0.218
  2  0.000  0.143  0.051  0.024  0.000  0.000  0.000  0.000  0.000  0.218
tot  0.000  0.286  0.101  0.048  0.000  0.000  0.000  0.000  0.000  0.435
 
band   5 # energy    8.13815472 # occ.  0.00000000
 
ion      s     py     pz     px    dxy    dyz    dz2    dxz    dx2    tot
  1  0.164  0.013  0.013  0.013  0.000  0.000  0.000  0.000  0.000  0.203
  2  0.164  0.013  0.013  0.013  0.000  0.000  0.000  0.000  0.000  0.203
tot  0.328  0.026  0.026  0.026  0.000  0.000  0.000  0.000  0.000  0.406
 
band   6 # energy    9.86117409 # occ.  0.00000000
 
ion      s     py     pz     px    dxy    dyz    dz2    dxz    dx2    tot
  1  0.000  0.014  0.029  0.083  0.000  0.000  0.000  0.000  0.000  0.126
  2  0.000  0.014  0.029  0.083  0.000  0.000  0.000  0.000  0.000  0.126
tot  0.000  0.027  0.059  0.166  0.000  0.000  0.000  0.000  0.000  0.252
 
band   7 # energy    9.86120234 # occ.  0.00000000
 
ion      s     py     pz     px    dxy    dyz    dz2    dxz    dx2    tot
  1  0.000  0.070  0.055  0.001  0.000  0.000  0.000  0.000  0.000  0.126
  2  0.000  0.070  0.055  0.001  0.000  0.000  0.000  0.000  0.000  0.126
tot  0.000  0.141  0.109  0.002  0.000  0.000  0.000  0.000  0.000  0.252
 
band   8 # energy   14.01360991 # occ.  0.00000000
 
ion      s     py     pz     px    dxy    dyz    dz2    dxz    dx2    tot
  1  0.004  0.003  0.030  0.001  0.000  0.000  0.000  0.000  0.000  0.038
  2  0.003  0.017  0.010  0.006  0.000  0.000  0.000  0.000  0.000  0.036
tot  0.007  0.020  0.039  0.007  0.000  0.000  0.000  0.000  0.000  0.074
 

 k-point    4 :    0.42857143 0.00000000 0.00000000     weight = 0.02332362

band   1 # energy   -5.50716584 # occ.  2.00000000
 
ion      s     py     pz     px    dxy    dyz    dz2    dxz    dx2    tot
  1  0.221  0.005  0.005  0.005  0.000  0.000  0.000  0.000  0.000  0.237
  2  0.221  0.005  0.005  0.005  0.000  0.000  0.000  0.000  0.000  0.237
tot  0.442  0.010  0.010  0.010  0.000  0.000  0.000  0.000  0.000  0.473
 
band   2 # energy   -1.81829941 # occ.  2.00000000
 
ion      s     py     pz     px    dxy    dyz    dz2    dxz    dx2    tot
  1  0.104  0.032  0.032  0.032  0.000  0.000  0.000  0.000  0.000  0.201
  2  0.104  0.032  0.032  0.032  0.000  0.000  0.000  0.000  0.000  0.201
tot  0.208  0.065  0.065  0.065  0.000  0.000  0.000  0.000  0.000  0.403
 
band   3 # energy    4.20236133 # occ.  2.00000000
 
ion      s     py     pz     px    dxy    dyz    dz2    dxz    dx2    tot
  1  0.000  0.088  0.004  0.129  0.000  0.000  0.000  0.000  0.000  0.221
  2  0.000  0.088  0.004  0.129  0.000  0.000  0.000  0.000  0.000  0.221
tot  0.000  0.175  0.008  0.258  0.000  0.000  0.000  0.000  0.000  0.441
 
band   4 # energy    4.20237338 # occ.  2.00000000
 
ion      s     py     pz     px    dxy    dyz    dz2    dxz    dx2    tot
  1  0.000  0.059  0.143  0.018  0.000  0.000  0.000  0.000  0.000  0.221
  2  0.000  0.059  0.143  0.018  0.000  0.000  0.000  0.000  0.000  0.221
tot  0.000  0.119  0.286  0.036  0.000  0.000  0.000  0.000  0.000  0.441
 
band   5 # energy    7.79127459 # occ.  0.00000000
 
ion      s     py     pz     px    dxy    dyz    dz2    dxz    dx2    tot
  1  0.186  0.007  0.007  0.007  0.000  0.000  0.000  0.000  0.000  0.206
  2  0.186  0.007  0.007  0.007  0.000  0.000  0.000  0.000  0.000  0.206
tot  0.372  0.013  0.013  0.013  0.000  0.000  0.000  0.000  0.000  0.412
 
band   6 # energy    9.68710105 # occ.  0.00000000
 
ion      s     py     pz     px    dxy    dyz    dz2    dxz    dx2    tot
  1  0.000  0.013  0.019  0.064  0.000  0.000  0.000  0.000  0.000  0.096
  2  0.000  0.013  0.019  0.064  0.000  0.000  0.000  0.000  0.000  0.096
tot  0.000  0.026  0.038  0.127  0.000  0.000  0.000  0.000  0.000  0.191
 
band   7 # energy    9.68713003 # occ.  0.00000000
 
ion      s     py     pz     px    dxy    dyz    dz2    dxz    dx2    tot
  1  0.000  0.051  0.045  0.000  0.000  0.000  0.000  0.000  0.000  0.096
  2  0.000  0.051  0.045  0.000  0.000  0.000  0.000  0.000  0.000  0.096
tot  0.000  0.102  0.089  0.000  0.000  0.000  0.000  0.000  0.000  0.191
 
band   8 # energy   14.17555717 # occ.  0.00000000
 
ion      s     py     pz     px    dxy    dyz    dz2    dxz    dx2    tot
  1  0.006  0.017  0.017  0.017  0.000  0.000  0.000  0.000  0.000  0.057
  2  0.006  0.017  0.017  0.017  0.000  0.000  0.000  0.000  0.000  0.057
tot  0.012  0.034  0.034  0.034  0.000  0.000  0.000  0.000  0.000  0.115
 

 k-point    5 :    0.14285714 0.14285714 0.00000000     weight = 0.01749271

band   1 # energy   -7.42077263 # occ.  2.00000000
 
ion      s     py     pz     px    dxy    dyz    dz2    dxz    dx2    tot
  1  0.216  0.000  0.004  0.000  0.000  0.000  0.000  0.000  0.000  0.220
  2  0.216  0.000  0.004  0.000  0.000  0.000  0.000  0.000  0.000  0.220
tot  0.431  0.000  0.008  0.000  0.000  0.000  0.000  0.000  0.000  0.439
 
band   2 # energy    3.75220199 # occ.  2.00000000
 
ion      s     py     pz     px    dxy    dyz    dz2    dxz    dx2    tot
  1  0.101  0.000  0.147  0.000  0.000  0.000  0.000  0.000  0.000  0.247
  2  0.101  0.000  0.147  0.000  0.000  0.000  0.000  0.000  0.000  0.247
tot  0.201  0.000  0.293  0.000  0.000  0.000  0.000  0.000  0.000  0.495
 
band   3 # energy    4.44245819 # occ.  2.00000000
 
ion      s     py     pz     px    dxy    dyz    dz2    dxz    dx2    tot
  1  0.000  0.187  0.000  0.019  0.000  0.000  0.000  0.000  0.000  0.206
  2  0.000  0.019  0.000  0.187  0.000  0.000  0.000  0.000  0.000  0.206
tot  0.000  0.206  0.000  0.206  0.000  0.000  0.000  0.000  0.000  0.412
 
band   4 # energy    4.44246681 # occ.  2.00000000
 
ion      s     py     pz     px    dxy    dyz    dz2    dxz    dx2    tot
  1  0.000  0.019  0.000  0.187  0.000  0.000  0.000  0.000  0.000  0.206
  2  0.000  0.187  0.000  0.019  0.000  0.000  0.000  0.000  0.000  0.206
tot  0.000  0.206  0.000  0.206  0.000  0.000  0.000  0.000  0.000  0.412
 
band   5 # energy    8.06100628 # occ.  0.00000000
 
ion      s     py     pz     px    dxy    dyz    dz2    dxz    dx2    tot
  1  0.026  0.000  0.110  0.000  0.000  0.000  0.000  0.000  0.000  0.135
  2  0.026  0.000  0.110  0.000  0.000  0.000  0.000  0.000  0.000  0.135
tot  0.051  0.000  0.219  0.000  0.000  0.000  0.000  0.000  0.000  0.270
 
band   6 # energy   10.32109890 # occ.  0.00000000
 
ion      s     py     pz     px    dxy    dyz    dz2    dxz    dx2    tot
  1  0.000  0.075  0.000  0.088  0.000  0.000  0.000  0.000  0.000  0.164
  2  0.000  0.085  0.000  0.078  0.000  0.000  0.000  0.000  0.000  0.164
tot  0.000  0.161  0.000  0.167  0.000  0.000  0.000  0.000  0.000  0.327
 
band   7 # energy   10.32110882 # occ.  0.00000000
 
ion      s     py     pz     px    dxy    dyz    dz2    dxz    dx2    tot
  1  0.000  0.088  0.000  0.075  0.000  0.000  0.000  0.000  0.000  0.164
  2  0.000  0.078  0.000  0.085  0.000  0.000  0.000  0.000  0.000  0.164
tot  0.000  0.167  0.000  0.161  0.000  0.000  0.000  0.000  0.000  0.327
 
band   8 # energy   10.86952320 # occ.  0.00000000
 
ion      s     py     pz     px    dxy    dyz    dz2    dxz    dx2    tot
  1  0.172  0.000  0.067  0.000  0.000  0.000  0.000  0.000  0.000  0.239
  2  0.172  0.000  0.067  0.000  0.000  0.000  0.000  0.000  0.000  0.239
tot  0.344  0.000  0.134  0.000  0.000  0.000  0.000  0.000  0.000  0.477
 

 k-point    6 :    0.28571429 0.14285714 0.00000000     weight = 0.06997085

band   1 # energy   -6.74652206 # occ.  2.00000000
 
ion      s     py     pz     px    dxy    dyz    dz2    dxz    dx2    tot
  1  0.213  0.001  0.009  0.001  0.000  0.000  0.000  0.000  0.000  0.223
  2  0.213  0.001  0.009  0.001  0.000  0.000  0.000  0.000  0.000  0.223
tot  0.426  0.002  0.017  0.002  0.000  0.000  0.000  0.000  0.000  0.447
 
band   2 # energy    1.37202505 # occ.  2.00000000
 
ion      s     py     pz     px    dxy    dyz    dz2    dxz    dx2    tot
  1  0.113  0.031  0.057  0.031  0.000  0.000  0.000  0.000  0.000  0.233
  2  0.113  0.031  0.057  0.031  0.000  0.000  0.000  0.000  0.000  0.233
tot  0.226  0.063  0.113  0.063  0.000  0.000  0.000  0.000  0.000  0.465
 
band   3 # energy    3.82818620 # occ.  2.00000000
 
ion      s     py     pz     px    dxy    dyz    dz2    dxz    dx2    tot
  1  0.028  0.050  0.083  0.050  0.000  0.000  0.000  0.000  0.000  0.211
  2  0.028  0.050  0.083  0.050  0.000  0.000  0.000  0.000  0.000  0.211
tot  0.056  0.100  0.167  0.100  0.000  0.000  0.000  0.000  0.000  0.422
 
band   4 # energy    3.83468175 # occ.  2.00000000
 
ion      s     py     pz     px    dxy    dyz    dz2    dxz    dx2    tot
  1  0.000  0.103  0.000  0.103  0.000  0.000  0.000  0.000  0.000  0.205
  2  0.000  0.103  0.000  0.103  0.000  0.000  0.000  0.000  0.000  0.205
tot  0.000  0.205  0.000  0.205  0.000  0.000  0.000  0.000  0.000  0.411
 
band   5 # energy    8.24672459 # occ.  0.00000000
 
ion      s     py     pz     px    dxy    dyz    dz2    dxz    dx2    tot
  1  0.038  0.011  0.074  0.011  0.000  0.000  0.000  0.000  0.000  0.134
  2  0.038  0.011  0.074  0.011  0.000  0.000  0.000  0.000  0.000  0.134
tot  0.077  0.023  0.147  0.023  0.000  0.000  0.000  0.000  0.000  0.269
 
band   6 # energy   10.32243317 # occ.  0.00000000
 
ion      s     py     pz     px    dxy    dyz    dz2    dxz    dx2    tot
  1  0.098  0.039  0.035  0.039  0.000  0.000  0.000  0.000  0.000  0.210
  2  0.098  0.039  0.035  0.039  0.000  0.000  0.000  0.000  0.000  0.210
tot  0.196  0.078  0.069  0.078  0.000  0.000  0.000  0.000  0.000  0.421
 
band   7 # energy   10.87277946 # occ.  0.00000000
 
ion      s     py     pz     px    dxy    dyz    dz2    dxz    dx2    tot
  1  0.006  0.024  0.007  0.024  0.000  0.000  0.000  0.000  0.000  0.062
  2  0.006  0.024  0.007  0.024  0.000  0.000  0.000  0.000  0.000  0.062
tot  0.012  0.049  0.015  0.049  0.000  0.000  0.000  0.000  0.000  0.124
 
band   8 # energy   11.17430072 # occ.  0.00000000
 
ion      s     py     pz     px    dxy    dyz    dz2    dxz    dx2    tot
  1  0.000  0.074  0.000  0.074  0.000  0.000  0.000  0.000  0.000  0.148
  2  0.000  0.074  0.000  0.074  0.000  0.000  0.000  0.000  0.000  0.148
tot  0.000  0.148  0.000  0.148  0.000  0.000  0.000  0.000  0.000  0.296
 

 k-point    7 :    0.42857143 0.14285714 0.00000000     weight = 0.06997085

band   1 # energy   -5.62137803 # occ.  2.00000000
 
ion      s     py     pz     px    dxy    dyz    dz2    dxz    dx2    tot
  1  0.214  0.003  0.012  0.003  0.000  0.000  0.000  0.000  0.000  0.233
  2  0.214  0.003  0.012  0.003  0.000  0.000  0.000  0.000  0.000  0.233
tot  0.429  0.006  0.025  0.006  0.000  0.000  0.000  0.000  0.000  0.465
 
band   2 # energy   -1.09368569 # occ.  2.00000000
 
ion      s     py     pz     px    dxy    dyz    dz2    dxz    dx2    tot
  1  0.120  0.032  0.032  0.032  0.000  0.000  0.000  0.000  0.000  0.216
  2  0.120  0.032  0.032  0.032  0.000  0.000  0.000  0.000  0.000  0.216
tot  0.240  0.064  0.065  0.064  0.000  0.000  0.000  0.000  0.000  0.432
 
band   3 # energy    3.06737766 # occ.  2.00000000
 
ion      s     py     pz     px    dxy    dyz    dz2    dxz    dx2    tot
  1  0.037  0.035  0.101  0.035  0.000  0.000  0.000  0.000  0.000  0.208
  2  0.037  0.035  0.101  0.035  0.000  0.000  0.000  0.000  0.000  0.208
tot  0.074  0.070  0.202  0.070  0.000  0.000  0.000  0.000  0.000  0.416
 
band   4 # energy    3.61437931 # occ.  2.00000000
 
ion      s     py     pz     px    dxy    dyz    dz2    dxz    dx2    tot
  1  0.000  0.105  0.000  0.105  0.000  0.000  0.000  0.000  0.000  0.209
  2  0.000  0.105  0.000  0.105  0.000  0.000  0.000  0.000  0.000  0.209
tot  0.000  0.209  0.000  0.209  0.000  0.000  0.000  0.000  0.000  0.418
 
band   5 # energy    8.33767975 # occ.  0.00000000
 
ion      s     py     pz     px    dxy    dyz    dz2    dxz    dx2    tot
  1  0.068  0.005  0.055  0.005  0.000  0.000  0.000  0.000  0.000  0.132
  2  0.068  0.004  0.055  0.005  0.000  0.000  0.000  0.000  0.000  0.132
tot  0.135  0.009  0.111  0.009  0.000  0.000  0.000  0.000  0.000  0.264
 
band   6 # energy   10.16480521 # occ.  0.00000000
 
ion      s     py     pz     px    dxy    dyz    dz2    dxz    dx2    tot
  1  0.062  0.034  0.027  0.034  0.000  0.000  0.000  0.000  0.000  0.158
  2  0.062  0.034  0.027  0.034  0.000  0.000  0.000  0.000  0.000  0.158
tot  0.125  0.069  0.053  0.069  0.000  0.000  0.000  0.000  0.000  0.316
 
band   7 # energy   10.92604101 # occ.  0.00000000
 
ion      s     py     pz     px    dxy    dyz    dz2    dxz    dx2    tot
  1  0.000  0.055  0.000  0.055  0.000  0.000  0.000  0.000  0.000  0.110
  2  0.000  0.055  0.000  0.055  0.000  0.000  0.000  0.000  0.000  0.110
tot  0.000  0.110  0.000  0.110  0.000  0.000  0.000  0.000  0.000  0.220
 
band   8 # energy   12.24498309 # occ.  0.00000000
 
ion      s     py     pz     px    dxy    dyz    dz2    dxz    dx2    tot
  1  0.024  0.033  0.022  0.033  0.000  0.000  0.000  0.000  0.000  0.112
  2  0.024  0.033  0.022  0.033  0.000  0.000  0.000  0.000  0.000  0.112
tot  0.049  0.066  0.044  0.066  0.000  0.000  0.000  0.000  0.000  0.224
 

 k-point    8 :   -0.42857143 0.14285714 0.00000000     weight = 0.06997085

band   1 # energy   -4.99465071 # occ.  2.00000000
 
ion      s     py     pz     px    dxy    dyz    dz2    dxz    dx2    tot
  1  0.224  0.006  0.006  0.006  0.000  0.000  0.000  0.000  0.000  0.243
  2  0.224  0.006  0.006  0.006  0.000  0.000  0.000  0.000  0.000  0.243
tot  0.448  0.012  0.013  0.012  0.000  0.000  0.000  0.000  0.000  0.485
 
band   2 # energy   -2.07083773 # occ.  2.00000000
 
ion      s     py     pz     px    dxy    dyz    dz2    dxz    dx2    tot
  1  0.112  0.029  0.035  0.029  0.000  0.000  0.000  0.000  0.000  0.205
  2  0.112  0.029  0.035  0.029  0.000  0.000  0.000  0.000  0.000  0.205
tot  0.225  0.058  0.069  0.058  0.000  0.000  0.000  0.000  0.000  0.409
 
band   3 # energy    2.60225921 # occ.  2.00000000
 
ion      s     py     pz     px    dxy    dyz    dz2    dxz    dx2    tot
  1  0.036  0.033  0.100  0.033  0.000  0.000  0.000  0.000  0.000  0.203
  2  0.036  0.033  0.100  0.033  0.000  0.000  0.000  0.000  0.000  0.203
tot  0.072  0.066  0.200  0.066  0.000  0.000  0.000  0.000  0.000  0.406
 
band   4 # energy    3.82811172 # occ.  2.00000000
 
ion      s     py     pz     px    dxy    dyz    dz2    dxz    dx2    tot
  1  0.000  0.107  0.000  0.107  0.000  0.000  0.000  0.000  0.000  0.214
  2  0.000  0.107  0.000  0.107  0.000  0.000  0.000  0.000  0.000  0.214
tot  0.000  0.214  0.000  0.214  0.000  0.000  0.000  0.000  0.000  0.429
 
band   5 # energy    8.46605482 # occ.  0.00000000
 
ion      s     py     pz     px    dxy    dyz    dz2    dxz    dx2    tot
  1  0.089  0.001  0.054  0.001  0.000  0.000  0.000  0.000  0.000  0.145
  2  0.089  0.001  0.054  0.001  0.000  0.000  0.000  0.000  0.000  0.145
tot  0.177  0.002  0.109  0.002  0.000  0.000  0.000  0.000  0.000  0.289
 
band   6 # energy   10.03389604 # occ.  0.00000000
 
ion      s     py     pz     px    dxy    dyz    dz2    dxz    dx2    tot
  1  0.052  0.024  0.040  0.024  0.000  0.000  0.000  0.000  0.000  0.140
  2  0.052  0.024  0.040  0.024  0.000  0.000  0.000  0.000  0.000  0.140
tot  0.103  0.048  0.080  0.048  0.000  0.000  0.000  0.000  0.000  0.280
 
band   7 # energy   10.49992619 # occ.  0.00000000
 
ion      s     py     pz     px    dxy    dyz    dz2    dxz    dx2    tot
  1  0.000  0.050  0.000  0.050  0.000  0.000  0.000  0.000  0.000  0.100
  2  0.000  0.050  0.000  0.050  0.000  0.000  0.000  0.000  0.000  0.100
tot  0.000  0.100  0.000  0.100  0.000  0.000  0.000  0.000  0.000  0.200
 
band   8 # energy   14.88527969 # occ.  0.00000000
 
ion      s     py     pz     px    dxy    dyz    dz2    dxz    dx2    tot
  1  0.005  0.054  0.044  0.062  0.000  0.000  0.000  0.000  0.000  0.164
  2  0.012  0.015  0.020  0.024  0.000  0.000  0.000  0.000  0.000  0.071
tot  0.017  0.069  0.064  0.086  0.000  0.000  0.000  0.000  0.000  0.235
 

 k-point    9 :   -0.28571429 0.14285714 0.00000000     weight = 0.06997085

band   1 # energy   -6.03288576 # occ.  2.00000000
 
ion      s     py     pz     px    dxy    dyz    dz2    dxz    dx2    tot
  1  0.213  0.007  0.002  0.007  0.000  0.000  0.000  0.000  0.000  0.229
  2  0.213  0.007  0.002  0.007  0.000  0.000  0.000  0.000  0.000  0.229
tot  0.426  0.014  0.003  0.014  0.000  0.000  0.000  0.000  0.000  0.457
 
band   2 # energy   -0.32562857 # occ.  2.00000000
 
ion      s     py     pz     px    dxy    dyz    dz2    dxz    dx2    tot
  1  0.120  0.031  0.040  0.031  0.000  0.000  0.000  0.000  0.000  0.222
  2  0.120  0.031  0.040  0.031  0.000  0.000  0.000  0.000  0.000  0.222
tot  0.239  0.062  0.080  0.062  0.000  0.000  0.000  0.000  0.000  0.444
 
band   3 # energy    2.60798583 # occ.  2.00000000
 
ion      s     py     pz     px    dxy    dyz    dz2    dxz    dx2    tot
  1  0.027  0.034  0.100  0.034  0.000  0.000  0.000  0.000  0.000  0.195
  2  0.027  0.034  0.100  0.034  0.000  0.000  0.000  0.000  0.000  0.195
tot  0.054  0.069  0.199  0.069  0.000  0.000  0.000  0.000  0.000  0.391
 
band   4 # energy    4.39644461 # occ.  2.00000000
 
ion      s     py     pz     px    dxy    dyz    dz2    dxz    dx2    tot
  1  0.000  0.110  0.000  0.110  0.000  0.000  0.000  0.000  0.000  0.220
  2  0.000  0.110  0.000  0.110  0.000  0.000  0.000  0.000  0.000  0.220
tot  0.000  0.220  0.000  0.220  0.000  0.000  0.000  0.000  0.000  0.440
 
band   5 # energy    8.92731165 # occ.  0.00000000
 
ion      s     py     pz     px    dxy    dyz    dz2    dxz    dx2    tot
  1  0.103  0.000  0.068  0.000  0.000  0.000  0.000  0.000  0.000  0.172
  2  0.103  0.000  0.068  0.000  0.000  0.000  0.000  0.000  0.000  0.171
tot  0.206  0.000  0.136  0.000  0.000  0.000  0.000  0.000  0.000  0.343
 
band   6 # energy   10.22538747 # occ.  0.00000000
 
ion      s     py     pz     px    dxy    dyz    dz2    dxz    dx2    tot
  1  0.029  0.017  0.065  0.017  0.000  0.000  0.000  0.000  0.000  0.128
  2  0.029  0.017  0.065  0.017  0.000  0.000  0.000  0.000  0.000  0.128
tot  0.058  0.034  0.130  0.034  0.000  0.000  0.000  0.000  0.000  0.256
 
band   7 # energy   10.27138533 # occ.  0.00000000
 
ion      s     py     pz     px    dxy    dyz    dz2    dxz    dx2    tot
  1  0.000  0.061  0.000  0.061  0.000  0.000  0.000  0.000  0.000  0.123
  2  0.000  0.061  0.000  0.061  0.000  0.000  0.000  0.000  0.000  0.123
tot  0.000  0.123  0.000  0.123  0.000  0.000  0.000  0.000  0.000  0.246
 
band   8 # energy   13.22729784 # occ.  0.00000000
 
ion      s     py     pz     px    dxy    dyz    dz2    dxz    dx2    tot
  1  0.018  0.032  0.019  0.006  0.000  0.000  0.000  0.000  0.000  0.075
  2  0.018  0.018  0.019  0.021  0.000  0.000  0.000  0.000  0.000  0.075
tot  0.036  0.050  0.038  0.027  0.000  0.000  0.000  0.000  0.000  0.151
 

 k-point   10 :   -0.14285714 0.14285714 0.00000000     weight = 0.03498542

band   1 # energy   -7.03626534 # occ.  2.00000000
 
ion      s     py     pz     px    dxy    dyz    dz2    dxz    dx2    tot
  1  0.214  0.004  0.000  0.004  0.000  0.000  0.000  0.000  0.000  0.222
  2  0.214  0.004  0.000  0.004  0.000  0.000  0.000  0.000  0.000  0.222
tot  0.428  0.007  0.000  0.007  0.000  0.000  0.000  0.000  0.000  0.443
 
band   2 # energy    2.06588918 # occ.  2.00000000
 
ion      s     py     pz     px    dxy    dyz    dz2    dxz    dx2    tot
  1  0.107  0.048  0.032  0.048  0.000  0.000  0.000  0.000  0.000  0.235
  2  0.107  0.048  0.032  0.048  0.000  0.000  0.000  0.000  0.000  0.235
tot  0.213  0.096  0.065  0.096  0.000  0.000  0.000  0.000  0.000  0.471
 
band   3 # energy    3.37791314 # occ.  2.00000000
 
ion      s     py     pz     px    dxy    dyz    dz2    dxz    dx2    tot
  1  0.009  0.030  0.123  0.030  0.000  0.000  0.000  0.000  0.000  0.190
  2  0.009  0.030  0.123  0.030  0.000  0.000  0.000  0.000  0.000  0.190
tot  0.017  0.059  0.246  0.059  0.000  0.000  0.000  0.000  0.000  0.381
 
band   4 # energy    5.04543715 # occ.  2.00000000
 
ion      s     py     pz     px    dxy    dyz    dz2    dxz    dx2    tot
  1  0.000  0.112  0.000  0.112  0.000  0.000  0.000  0.000  0.000  0.223
  2  0.000  0.112  0.000  0.112  0.000  0.000  0.000  0.000  0.000  0.223
tot  0.000  0.223  0.000  0.223  0.000  0.000  0.000  0.000  0.000  0.447
 
band   5 # energy    9.40466194 # occ.  0.00000000
 
ion      s     py     pz     px    dxy    dyz    dz2    dxz    dx2    tot
  1  0.101  0.000  0.096  0.000  0.000  0.000  0.000  0.000  0.000  0.198
  2  0.101  0.000  0.096  0.000  0.000  0.000  0.000  0.000  0.000  0.198
tot  0.202  0.001  0.192  0.001  0.000  0.000  0.000  0.000  0.000  0.396
 
band   6 # energy    9.62900244 # occ.  0.00000000
 
ion      s     py     pz     px    dxy    dyz    dz2    dxz    dx2    tot
  1  0.000  0.075  0.000  0.075  0.000  0.000  0.000  0.000  0.000  0.150
  2  0.000  0.075  0.000  0.075  0.000  0.000  0.000  0.000  0.000  0.150
tot  0.000  0.150  0.000  0.150  0.000  0.000  0.000  0.000  0.000  0.299
 
band   7 # energy    9.79628034 # occ.  0.00000000
 
ion      s     py     pz     px    dxy    dyz    dz2    dxz    dx2    tot
  1  0.030  0.016  0.089  0.016  0.000  0.000  0.000  0.000  0.000  0.151
  2  0.030  0.016  0.089  0.016  0.000  0.000  0.000  0.000  0.000  0.151
tot  0.060  0.031  0.178  0.031  0.000  0.000  0.000  0.000  0.000  0.301
 
band   8 # energy   12.11222358 # occ.  0.00000000
 
ion      s     py     pz     px    dxy    dyz    dz2    dxz    dx2    tot
  1  0.087  0.047  0.000  0.047  0.000  0.000  0.000  0.000  0.000  0.182
  2  0.087  0.047  0.000  0.047  0.000  0.000  0.000  0.000  0.000  0.182
tot  0.173  0.095  0.000  0.095  0.000  0.000  0.000  0.000  0.000  0.363
 

 k-point   11 :    0.28571429 0.28571429 0.00000000     weight = 0.01749271

band   1 # energy   -6.25264866 # occ.  2.00000000
 
ion      s     py     pz     px    dxy    dyz    dz2    dxz    dx2    tot
  1  0.210  0.000  0.016  0.000  0.000  0.000  0.000  0.000  0.000  0.226
  2  0.210  0.000  0.016  0.000  0.000  0.000  0.000  0.000  0.000  0.226
tot  0.419  0.000  0.032  0.000  0.000  0.000  0.000  0.000  0.000  0.451
 
band   2 # energy    0.92430050 # occ.  2.00000000
 
ion      s     py     pz     px    dxy    dyz    dz2    dxz    dx2    tot
  1  0.162  0.000  0.095  0.000  0.000  0.000  0.000  0.000  0.000  0.257
  2  0.162  0.000  0.095  0.000  0.000  0.000  0.000  0.000  0.000  0.257
tot  0.323  0.000  0.191  0.000  0.000  0.000  0.000  0.000  0.000  0.514
 
band   3 # energy    3.13785909 # occ.  2.00000000
 
ion      s     py     pz     px    dxy    dyz    dz2    dxz    dx2    tot
  1  0.000  0.190  0.000  0.012  0.000  0.000  0.000  0.000  0.000  0.201