Starting job 28245759 ("si_bulk") on c15-29 at Fri Sep 27 09:58:32 CEST 2019
 running on    4 total cores
 distrk:  each k-point on    4 cores,    1 groups
 distr:  one band on    1 cores,    4 groups
 using from now: INCAR     
 vasp.5.4.1 05Feb16 (build Mar 02 2016 14:09:44) complex                        
  
 POSCAR found type information on POSCAR  Si
 POSCAR found :  1 types and       2 ions

 ----------------------------------------------------------------------------- 
|                                                                             |
|  ADVICE TO THIS USER RUNNING 'VASP/VAMP'   (HEAR YOUR MASTER'S VOICE ...):  |
|                                                                             |
|      You have a (more or less) 'small supercell' and for smaller cells      |
|      it is recommended  to use the reciprocal-space projection scheme!      |
|      The real space optimization is not  efficient for small cells and it   |
|      is also less accurate ...                                              |
|      Therefore set LREAL=.FALSE. in the  INCAR file                         |
|                                                                             |
 ----------------------------------------------------------------------------- 

 LDA part: xc-table for Pade appr. of Perdew
 WARNING: stress and forces are not correct
 POSCAR, INCAR and KPOINTS ok, starting setup
 WARNING: small aliasing (wrap around) errors must be expected
 FFT: planning ...
 WAVECAR not read
 charge-density read from file: unknown                                 
 WARNING: random wavefunctions but no delay for mixing, default for NELMDL
 entering main loop
       N       E                     dE             d eps       ncg     rms          ort
DAV:   1     0.119109363348E+03    0.11911E+03   -0.94465E+03   160   0.617E+02
DAV:   2     0.117883695326E+02   -0.10732E+03   -0.10537E+03   160   0.226E+02
DAV:   3    -0.654151810940E+00   -0.12443E+02   -0.12378E+02   160   0.790E+01
DAV:   4    -0.187559053136E+01   -0.12214E+01   -0.12157E+01   160   0.264E+01
DAV:   5    -0.198387873483E+01   -0.10829E+00   -0.10829E+00   160   0.658E+00
 gam= 0.000 g(H,U,f)=  0.142E+00 0.669E-01 0.193E-15 ort(H,U,f) = 0.000E+00 0.000E+00 0.000E+00
SDA:   6    -0.129241830972E+02   -0.10940E+02   -0.83360E-01   160   0.208E+00 0.000E+00
 gam= 0.382 g(H,U,f)=  0.449E-01 0.509E-01 0.493E-05 ort(H,U,f) = 0.804E-01 0.561E-01 0.530E-05
DMP:   7    -0.130097504365E+02   -0.85567E-01   -0.59202E-01   160   0.959E-01 0.136E+00
 gam= 0.382 g(H,U,f)=  0.106E-01 0.325E-01 0.171E-19 ort(H,U,f) = 0.293E-01 0.551E-01 0.461E-20
DMP:   8    -0.130563206999E+02   -0.46570E-01   -0.30169E-01   160   0.432E-01 0.844E-01
 gam= 0.382 g(H,U,f)=  0.469E-02 0.189E-01 0.128E-20 ort(H,U,f) = 0.755E-02 0.392E-01 0.145E-20
DMP:   9    -0.130808417937E+02   -0.24521E-01   -0.16597E-01   160   0.236E-01 0.468E-01
 gam= 0.382 g(H,U,f)=  0.256E-02 0.103E-01 0.140E-17 ort(H,U,f) = 0.362E-02 0.243E-01 0.243E-17
DMP:  10    -0.130947669780E+02   -0.13925E-01   -0.94270E-02   160   0.129E-01 0.279E-01
 gam= 0.382 g(H,U,f)=  0.125E-02 0.543E-02 0.148E-17 ort(H,U,f) = 0.218E-02 0.139E-01 0.319E-17
DMP:  11    -0.131027129686E+02   -0.79460E-02   -0.51313E-02   160   0.668E-02 0.161E-01
 gam= 0.382 g(H,U,f)=  0.531E-03 0.278E-02 0.586E-16 ort(H,U,f) = 0.116E-02 0.758E-02 0.148E-15
DMP:  12    -0.131070280047E+02   -0.43150E-02   -0.26604E-02   160   0.331E-02 0.874E-02
 gam= 0.382 g(H,U,f)=  0.227E-03 0.141E-02 0.284E-15 ort(H,U,f) = 0.553E-03 0.399E-02 0.814E-15
DMP:  13    -0.131092671659E+02   -0.22392E-02   -0.13478E-02   160   0.163E-02 0.455E-02
 gam= 0.382 g(H,U,f)=  0.116E-03 0.703E-03 0.176E-12 ort(H,U,f) = 0.281E-03 0.206E-02 0.609E-12
DMP:  14    -0.131104088826E+02   -0.11417E-02   -0.68494E-03   160   0.818E-03 0.234E-02
 gam= 0.382 g(H,U,f)=  0.632E-04 0.348E-03 0.869E-15 ort(H,U,f) = 0.159E-03 0.104E-02 0.298E-14
DMP:  15    -0.131109922219E+02   -0.58334E-03   -0.34861E-03   160   0.412E-03 0.120E-02
 gam= 0.382 g(H,U,f)=  0.371E-04 0.172E-03 0.848E-16 ort(H,U,f) = 0.949E-04 0.523E-03 0.311E-15
DMP:  16    -0.131112902844E+02   -0.29806E-03   -0.17799E-03   160   0.209E-03 0.618E-03
 gam= 0.382 g(H,U,f)=  0.236E-04 0.842E-04 0.498E-15 ort(H,U,f) = 0.596E-04 0.260E-03 0.193E-14
DMP:  17    -0.131114431706E+02   -0.15289E-03   -0.91915E-04   160   0.108E-03 0.319E-03
 gam= 0.382 g(H,U,f)=  0.160E-04 0.411E-04 0.171E-14 ort(H,U,f) = 0.394E-04 0.128E-03 0.700E-14
DMP:  18    -0.131115226005E+02   -0.79430E-04   -0.48442E-04   160   0.571E-04 0.167E-03
 gam= 0.382 g(H,U,f)=  0.118E-04 0.201E-04 0.238E-15 ort(H,U,f) = 0.272E-04 0.628E-04 0.103E-14
DMP:  19    -0.131115648038E+02   -0.42203E-04   -0.26505E-04   160   0.319E-04 0.901E-04
 gam= 0.382 g(H,U,f)=  0.904E-05 0.980E-05 0.863E-15 ort(H,U,f) = 0.198E-04 0.308E-04 0.348E-14
DMP:  20    -0.131115881586E+02   -0.23355E-04   -0.15268E-04   160   0.188E-04 0.506E-04
 gam= 0.382 g(H,U,f)=  0.713E-05 0.479E-05 0.742E-17 ort(H,U,f) = 0.150E-04 0.151E-04 0.350E-16
DMP:  21    -0.131116018122E+02   -0.13654E-04   -0.93666E-05   160   0.119E-04 0.301E-04
 gam= 0.382 g(H,U,f)=  0.572E-05 0.236E-05 0.186E-18 ort(H,U,f) = 0.117E-04 0.739E-05 0.898E-18
DMP:  22    -0.131116103328E+02   -0.85206E-05   -0.61519E-05   160   0.807E-05 0.191E-04
 gam= 0.382 g(H,U,f)=  0.460E-05 0.116E-05 0.143E-15 ort(H,U,f) = 0.936E-05 0.364E-05 0.567E-15
DMP:  23    -0.131116160276E+02   -0.56947E-05   -0.42912E-05   160   0.576E-05 0.130E-04
 gam= 0.382 g(H,U,f)=  0.369E-05 0.580E-06 0.218E-16 ort(H,U,f) = 0.753E-05 0.180E-05 0.845E-16
DMP:  24    -0.131116200633E+02   -0.40357E-05   -0.31338E-05   160   0.427E-05 0.933E-05
 gam= 0.382 g(H,U,f)=  0.293E-05 0.292E-06 0.214E-17 ort(H,U,f) = 0.608E-05 0.900E-06 0.857E-17
DMP:  25    -0.131116230505E+02   -0.29872E-05   -0.23560E-05   160   0.322E-05 0.698E-05
 gam= 0.382 g(H,U,f)=  0.236E-05 0.149E-06 0.680E-18 ort(H,U,f) = 0.489E-05 0.454E-06 0.238E-17
DMP:  26    -0.131116253196E+02   -0.22691E-05   -0.18201E-05   160   0.251E-05 0.534E-05
 gam= 0.382 g(H,U,f)=  0.187E-05 0.774E-07 0.282E-18 ort(H,U,f) = 0.395E-05 0.232E-06 0.878E-18
DMP:  27    -0.131116270878E+02   -0.17682E-05   -0.14172E-05   160   0.194E-05 0.419E-05
 gam= 0.382 g(H,U,f)=  0.149E-05 0.408E-07 0.140E-18 ort(H,U,f) = 0.318E-05 0.121E-06 0.396E-18
DMP:  28    -0.131116284748E+02   -0.13869E-05   -0.11156E-05   160   0.153E-05 0.330E-05
 gam= 0.382 g(H,U,f)=  0.120E-05 0.219E-07 0.782E-19 ort(H,U,f) = 0.256E-05 0.637E-07 0.205E-18
DMP:  29    -0.131116295735E+02   -0.10988E-05   -0.88939E-06   160   0.122E-05 0.262E-05
 gam= 0.382 g(H,U,f)=  0.983E-06 0.121E-07 0.475E-19 ort(H,U,f) = 0.207E-05 0.343E-07 0.116E-18
DMP:  30    -0.131116304545E+02   -0.88096E-06   -0.71980E-06   160   0.995E-06 0.211E-05
   1 F= -.13111630E+02 E0= -.13111630E+02  d E =-.120821E-11

Currently Loaded Modulefiles:
  1) Anaconda3/5.1.0       3) vesta/3.3.8           5) intel/2016.1
  2) gnuplot/5.0.4         4) imagemagick/6.7.9-0   6) vasp/5.4.1.Feb16

Job script resource usage:
       JobID  MaxVMSize     MaxRSS 
------------ ---------- ---------- 
28245759.ba+    499284K      5799K 

Job step resource usage:
       JobID    JobName  AllocCPUS  MaxVMSize     MaxRSS    Elapsed ExitCode 
------------ ---------- ---------- ---------- ---------- ---------- -------- 
28245759        si_bulk          4                         00:03:19      0:0 
28245759.0    pmi_proxy          1   1580392K    455994K   00:03:16      0:0 

Job 28245759 ("si_bulk") completed on c15-29 at Fri Sep 27 10:01:48 CEST 2019
