   32   32   50    1
  0.2587633E+03  0.2023101E-08  0.2023101E-08  0.2023101E-08  0.5000000E-15
  1.000000000000000E-004
  CAR 
 unknown system                          
     74      1     54
 
  0.0000000E+00  0.0000000E+00  0.0000000E+00  0.1000000E+01
    1      -14.856055   1.000000
    2      -13.944513   1.000000
    3      -13.944056   1.000000
    4      -13.944050   1.000000
    5      -12.944709   1.000000
    6      -12.672212   1.000000
    7      -12.672191   1.000000
    8      -12.671711   1.000000
    9      -11.960195   1.000000
   10      -11.960188   1.000000
   11      -10.561107   1.000000
   12      -10.560730   1.000000
   13      -10.560725   1.000000
   14       -9.643360   1.000000
   15       -8.402767   1.000000
   16       -8.402724   1.000000
   17       -8.397052   1.000000
   18       -8.303992   1.000000
   19       -8.299132   1.000000
   20       -8.299059   1.000000
   21       -8.275903   1.000000
   22       -8.275821   1.000000
   23       -8.183751   1.000000
   24       -7.943022   1.000000
   25       -7.942993   1.000000
   26       -7.940941   1.000000
   27       -7.284736   1.000000
   28       -7.284726   1.000000
   29       -6.685622   1.000000
   30       -6.684717   1.000000
   31       -6.684702   1.000000
   32       -6.522732   1.000000
   33       -6.522693   1.000000
   34       -6.521822   1.000000
   35       -4.161861   0.999996
   36       -4.159683   0.999996
   37       -4.159675   0.999996
   38       -2.892698   0.000004
   39       -2.892685   0.000004
   40       -2.891887   0.000004
   41       -2.337371   0.000000
   42       -1.662336   0.000000
   43       -1.662323   0.000000
   44       -1.471096   0.000000
   45       -1.376226   0.000000
   46       -1.376208   0.000000
   47       -1.374743   0.000000
   48       -1.008034   0.000000
   49       -1.006119   0.000000
   50       -1.006100   0.000000
   51       -0.340067   0.000000
   52       -0.077815   0.000000
   53       -0.075297   0.000000
   54       -0.053856   0.000000
