Starting job 28279638 ("jobname") on c31-21 at Fri Oct 4 13:24:18 CEST 2019
 running on    6 total cores
 distrk:  each k-point on    6 cores,    1 groups
 distr:  one band on    3 cores,    2 groups
 using from now: INCAR     
 vasp.5.4.1 05Feb16 (build Mar 02 2016 14:09:44) complex                        
  
 POSCAR found type information on POSCAR  Si H 
 POSCAR found :  2 types and      32 ions
 LDA part: xc-table for Pade appr. of Perdew
 POSCAR, INCAR and KPOINTS ok, starting setup
 WARNING: small aliasing (wrap around) errors must be expected
 FFT: planning ...
 WAVECAR not read
 WARNING: random wavefunctions but no delay for mixing, default for NELMDL
 entering main loop
       N       E                     dE             d eps       ncg     rms          rms(c)
RMM:   1     0.626454466469E+03    0.62645E+03   -0.71549E+03    54   0.349E+02
RMM:   2     0.315243625133E+03   -0.31121E+03   -0.38200E+03    54   0.835E+01
RMM:   3     0.143976273593E+03   -0.17127E+03   -0.26617E+03    54   0.896E+01
RMM:   4    -0.275857086770E+02   -0.17156E+03   -0.16506E+03    54   0.844E+01
RMM:   5    -0.102014092541E+03   -0.74428E+02   -0.70325E+02    54   0.647E+01
RMM:   6    -0.123387207247E+03   -0.21373E+02   -0.20155E+02    54   0.398E+01
RMM:   7    -0.129685444024E+03   -0.62982E+01   -0.56444E+01    54   0.221E+01
RMM:   8    -0.131696884574E+03   -0.20114E+01   -0.17154E+01    54   0.127E+01
RMM:   9    -0.132518716016E+03   -0.82183E+00   -0.75443E+00   109   0.737E+00
RMM:  10    -0.132699813322E+03   -0.18110E+00   -0.15779E+00   131   0.296E+00
RMM:  11    -0.132707848187E+03   -0.80349E-02   -0.76068E-02   114   0.525E-01
RMM:  12    -0.132708610314E+03   -0.76213E-03   -0.64731E-03   118   0.176E-01    0.168E+01
RMM:  13    -0.125557798554E+03    0.71508E+01   -0.53065E+00   108   0.513E+00    0.905E+00
RMM:  14    -0.122561721151E+03    0.29961E+01   -0.94941E+00   108   0.696E+00    0.149E+00
RMM:  15    -0.122465337193E+03    0.96384E-01   -0.69613E-01   112   0.199E+00    0.802E-01
RMM:  16    -0.122428156779E+03    0.37180E-01   -0.98367E-02   108   0.770E-01    0.290E-01
RMM:  17    -0.122424141490E+03    0.40153E-02   -0.47453E-02   109   0.497E-01    0.201E-01
RMM:  18    -0.122421416554E+03    0.27249E-02   -0.67525E-03   112   0.183E-01    0.105E-01
RMM:  19    -0.122431408988E+03   -0.99924E-02   -0.20052E-02   108   0.245E-01    0.918E-02
RMM:  20    -0.122431295996E+03    0.11299E-03   -0.90827E-04   108   0.791E-02    0.499E-02
RMM:  21    -0.122439194679E+03   -0.78987E-02   -0.36458E-03   108   0.118E-01    0.370E-02
RMM:  22    -0.122439649301E+03   -0.45462E-03   -0.23643E-04   104   0.340E-02    0.173E-02
RMM:  23    -0.122444669171E+03   -0.50199E-02   -0.81779E-04   108   0.545E-02    0.134E-02
RMM:  24    -0.122445245648E+03   -0.57648E-03   -0.76275E-05    93   0.171E-02    0.719E-03
RMM:  25    -0.122446563932E+03   -0.13183E-02   -0.18637E-04    95   0.217E-02    0.408E-03
RMM:  26    -0.122446623234E+03   -0.59302E-04   -0.89223E-06    74   0.589E-03    0.294E-03
RMM:  27    -0.122446851584E+03   -0.22835E-03   -0.17444E-05    74   0.761E-03    0.142E-03
RMM:  28    -0.122446876524E+03   -0.24940E-04   -0.23418E-06    54   0.352E-03    0.118E-03
RMM:  29    -0.122446911835E+03   -0.35311E-04   -0.13515E-06    51   0.319E-03    0.490E-04
RMM:  30    -0.122446923916E+03   -0.12082E-04   -0.76027E-07    43   0.259E-03    0.274E-04
RMM:  31    -0.122446930594E+03   -0.66780E-05   -0.56187E-23    27   0.208E-03
   1 F= -.12244693E+03 E0= -.12244684E+03  d E =-.122447E+03
 BRION: g(F)=  0.887E+01 g(S)=  0.000E+00
 bond charge predicted
       N       E                     dE             d eps       ncg     rms          rms(c)
RMM:   1    -0.124376729822E+03   -0.19298E+01   -0.16044E+02   109   0.410E+01    0.424E+00
RMM:   2    -0.124464238952E+03   -0.87509E-01   -0.50260E+00   111   0.630E+00    0.290E+00
RMM:   3    -0.123808043266E+03    0.65620E+00   -0.17576E+00   108   0.262E+00    0.886E-01
RMM:   4    -0.123883874035E+03   -0.75831E-01   -0.81455E-01   108   0.177E+00    0.746E-01
RMM:   5    -0.123847108486E+03    0.36766E-01   -0.80892E-02   110   0.720E-01    0.321E-01
RMM:   6    -0.123845810195E+03    0.12983E-02   -0.56389E-02   108   0.461E-01    0.726E-02
RMM:   7    -0.123848100924E+03   -0.22907E-02   -0.29714E-03   111   0.133E-01    0.615E-02
RMM:   8    -0.123850508569E+03   -0.24076E-02   -0.34163E-03   108   0.109E-01    0.504E-02
RMM:   9    -0.123850978904E+03   -0.47034E-03   -0.20236E-04   108   0.387E-02    0.304E-02
RMM:  10    -0.123851920223E+03   -0.94132E-03   -0.74975E-04   108   0.490E-02    0.990E-03
RMM:  11    -0.123852047704E+03   -0.12748E-03   -0.27248E-05    82   0.149E-02    0.810E-03
RMM:  12    -0.123852179821E+03   -0.13212E-03   -0.16143E-05    76   0.888E-03    0.317E-03
RMM:  13    -0.123852219391E+03   -0.39570E-04   -0.33732E-06    67   0.485E-03    0.251E-03
RMM:  14    -0.123852248875E+03   -0.29484E-04   -0.64106E-06    66   0.526E-03    0.100E-03
RMM:  15    -0.123852259975E+03   -0.11100E-04   -0.15342E-06    54   0.333E-03    0.146E-03
RMM:  16    -0.123852269642E+03   -0.96675E-05   -0.21053E-07    34   0.243E-03
   2 F= -.12385227E+03 E0= -.12385227E+03  d E =-.140534E+01
 BRION: g(F)=  0.622E+01 g(S)=  0.000E+00 retain N=  1 mean eig= 0.56
 eig:   0.556
 bond charge predicted
       N       E                     dE             d eps       ncg     rms          rms(c)
RMM:   1    -0.125998223064E+03   -0.21460E+01   -0.25893E+01   109   0.161E+01    0.155E+00
RMM:   2    -0.126353754985E+03   -0.35553E+00   -0.15666E+00   108   0.304E+00    0.167E+00
RMM:   3    -0.126066946100E+03    0.28681E+00   -0.72267E-01   108   0.164E+00    0.938E-01
RMM:   4    -0.126012917806E+03    0.54028E-01   -0.36047E-01   108   0.108E+00    0.273E-01
RMM:   5    -0.126012955205E+03   -0.37399E-04   -0.31992E-02   112   0.454E-01    0.780E-02
RMM:   6    -0.126014938844E+03   -0.19836E-02   -0.46836E-03   108   0.171E-01    0.335E-02
RMM:   7    -0.126015758110E+03   -0.81927E-03   -0.70479E-04   112   0.667E-02    0.225E-02
RMM:   8    -0.126016345839E+03   -0.58773E-03   -0.19850E-04   108   0.318E-02    0.114E-02
RMM:   9    -0.126016559765E+03   -0.21393E-03   -0.11409E-04   101   0.209E-02    0.121E-02
RMM:  10    -0.126016630279E+03   -0.70515E-04   -0.27987E-05    82   0.116E-02    0.323E-03
RMM:  11    -0.126016692249E+03   -0.61970E-04   -0.10241E-05    71   0.730E-03    0.230E-03
RMM:  12    -0.126016716949E+03   -0.24699E-04   -0.31905E-06    65   0.461E-03    0.181E-03
RMM:  13    -0.126016732486E+03   -0.15537E-04   -0.10274E-06    49   0.307E-03    0.106E-03
RMM:  14    -0.126016739578E+03   -0.70918E-05   -0.79908E-07    47   0.276E-03
   3 F= -.12601674E+03 E0= -.12601673E+03  d E =-.216447E+01
 BRION: g(F)=  0.905E+00 g(S)=  0.000E+00 retain N=  2 mean eig= 1.91
 eig:   0.466  3.345
 bond charge predicted
       N       E                     dE             d eps       ncg     rms          rms(c)
RMM:   1    -0.126686625591E+03   -0.66989E+00   -0.13216E+01   109   0.134E+01    0.909E-01
RMM:   2    -0.126657184055E+03    0.29442E-01   -0.30500E-01   110   0.148E+00    0.558E-01
RMM:   3    -0.126661218550E+03   -0.40345E-02   -0.97713E-02   108   0.708E-01    0.220E-01
RMM:   4    -0.126665928151E+03   -0.47096E-02   -0.24895E-02   111   0.324E-01    0.207E-01
RMM:   5    -0.126662291854E+03    0.36363E-02   -0.81821E-03   108   0.175E-01    0.747E-02
RMM:   6    -0.126662505080E+03   -0.21323E-03   -0.47954E-03   108   0.120E-01    0.201E-02
RMM:   7    -0.126662806357E+03   -0.30128E-03   -0.52603E-04   114   0.547E-02    0.316E-02
RMM:   8    -0.126662841009E+03   -0.34652E-04   -0.74964E-05   101   0.222E-02    0.160E-02
RMM:   9    -0.126662855041E+03   -0.14032E-04   -0.80860E-05    99   0.169E-02    0.423E-03
RMM:  10    -0.126662883663E+03   -0.28621E-04   -0.15121E-05    74   0.835E-03    0.278E-03
RMM:  11    -0.126662898473E+03   -0.14811E-04   -0.10235E-05    67   0.750E-03    0.146E-03
RMM:  12    -0.126662904532E+03   -0.60590E-05   -0.18617E-06    64   0.446E-03
   4 F= -.12666290E+03 E0= -.12666288E+03  d E =-.646165E+00
 BRION: g(F)=  0.463E+00 g(S)=  0.000E+00 retain N=  3 mean eig= 2.30
 eig:   5.667  0.460  0.782
 bond charge predicted
       N       E                     dE             d eps       ncg     rms          rms(c)
RMM:   1    -0.127281764651E+03   -0.61887E+00   -0.18578E+01   109   0.164E+01    0.104E+00
RMM:   2    -0.127224760356E+03    0.57004E-01   -0.46335E-01   108   0.166E+00    0.536E-01
RMM:   3    -0.127218609103E+03    0.61513E-02   -0.16490E-01   108   0.869E-01    0.375E-01
RMM:   4    -0.127215396797E+03    0.32123E-02   -0.28869E-02   108   0.352E-01    0.123E-01
RMM:   5    -0.127214423225E+03    0.97357E-03   -0.57011E-03   110   0.168E-01    0.316E-02
RMM:   6    -0.127215683170E+03   -0.12599E-02   -0.40518E-04   108   0.554E-02    0.253E-02
RMM:   7    -0.127215879342E+03   -0.19617E-03   -0.30768E-04   108   0.337E-02    0.196E-02
RMM:   8    -0.127216044061E+03   -0.16472E-03   -0.13873E-04   102   0.239E-02    0.331E-03
RMM:   9    -0.127216127582E+03   -0.83521E-04   -0.10515E-05    68   0.936E-03    0.337E-03
RMM:  10    -0.127216197805E+03   -0.70223E-04   -0.59372E-06    68   0.652E-03    0.201E-03
RMM:  11    -0.127216216332E+03   -0.18526E-04   -0.13981E-06    62   0.394E-03    0.135E-03
RMM:  12    -0.127216233245E+03   -0.16913E-04   -0.70930E-07    46   0.309E-03    0.771E-04
RMM:  13    -0.127216236891E+03   -0.36465E-05   -0.39771E-08    28   0.241E-03
   5 F= -.12721624E+03 E0= -.12721621E+03  d E =-.553332E+00
 BRION: g(F)=  0.127E+00 g(S)=  0.000E+00 retain N=  3 mean eig= 1.62
 eig:   3.069  0.645  1.160
 bond charge predicted
       N       E                     dE             d eps       ncg     rms          rms(c)
RMM:   1    -0.127323136633E+03   -0.10690E+00   -0.43544E+00   109   0.768E+00    0.523E-01
RMM:   2    -0.127310605513E+03    0.12531E-01   -0.96149E-02   108   0.820E-01    0.118E-01
RMM:   3    -0.127310669491E+03   -0.63979E-04   -0.90026E-03   115   0.261E-01    0.100E-01
RMM:   4    -0.127311701251E+03   -0.10318E-02   -0.40450E-03   108   0.129E-01    0.485E-02
RMM:   5    -0.127311753590E+03   -0.52339E-04   -0.32381E-04   109   0.473E-02    0.245E-02
RMM:   6    -0.127311882151E+03   -0.12856E-03   -0.26394E-04   106   0.278E-02    0.108E-02
RMM:   7    -0.127312027813E+03   -0.14566E-03   -0.21675E-05    76   0.124E-02    0.507E-03
RMM:   8    -0.127312065619E+03   -0.37806E-04   -0.63774E-06    68   0.735E-03    0.312E-03
RMM:   9    -0.127312081272E+03   -0.15653E-04   -0.53281E-06    65   0.589E-03    0.165E-03
RMM:  10    -0.127312087845E+03   -0.65730E-05   -0.17237E-06    65   0.405E-03
   6 F= -.12731209E+03 E0= -.12731207E+03  d E =-.958510E-01
 BRION: g(F)=  0.212E-01 g(S)=  0.000E+00 retain N=  3 mean eig= 1.82
 eig:   1.370  1.370  2.723
 bond charge predicted
       N       E                     dE             d eps       ncg     rms          rms(c)
RMM:   1    -0.127326876327E+03   -0.14795E-01   -0.22390E-01   109   0.166E+00    0.128E-01
RMM:   2    -0.127327479345E+03   -0.60302E-03   -0.64924E-03   108   0.210E-01    0.997E-02
RMM:   3    -0.127327367005E+03    0.11234E-03   -0.15170E-03   109   0.940E-02    0.852E-02
RMM:   4    -0.127327014324E+03    0.35268E-03   -0.43826E-03   108   0.116E-01    0.164E-02
RMM:   5    -0.127327018548E+03   -0.42234E-05   -0.12166E-04   103   0.303E-02    0.167E-02
RMM:   6    -0.127326996255E+03    0.22293E-04   -0.11897E-04    95   0.199E-02    0.234E-03
RMM:   7    -0.127327000018E+03   -0.37634E-05   -0.24989E-06    59   0.499E-03
   7 F= -.12732700E+03 E0= -.12732698E+03  d E =-.149122E-01
 BRION: g(F)=  0.141E-01 g(S)=  0.000E+00 retain N=  4 mean eig= 1.85
 eig:   1.919  1.919  0.970  2.577
 bond charge predicted
       N       E                     dE             d eps       ncg     rms          rms(c)
RMM:   1    -0.127370411423E+03   -0.43415E-01   -0.30242E+00   109   0.597E+00    0.449E-01
RMM:   2    -0.127371526354E+03   -0.11149E-02   -0.38811E-02   108   0.628E-01    0.104E-01
RMM:   3    -0.127371719435E+03   -0.19308E-03   -0.30509E-03   112   0.186E-01    0.109E-01
RMM:   4    -0.127371392781E+03    0.32665E-03   -0.38373E-03   108   0.122E-01    0.312E-02
RMM:   5    -0.127371504312E+03   -0.11153E-03   -0.52264E-04   112   0.501E-02    0.976E-03
RMM:   6    -0.127371586517E+03   -0.82205E-04   -0.49897E-05    94   0.180E-02    0.487E-03
RMM:   7    -0.127371611698E+03   -0.25181E-04   -0.75138E-06    70   0.745E-03    0.394E-03
RMM:   8    -0.127371630435E+03   -0.18737E-04   -0.63852E-06    68   0.651E-03    0.278E-03
RMM:   9    -0.127371637471E+03   -0.70360E-05   -0.39984E-06    67   0.474E-03
   8 F= -.12737164E+03 E0= -.12737162E+03  d E =-.446375E-01
 BRION: g(F)=  0.854E-02 g(S)=  0.000E+00 retain N=  5 mean eig= 3.03
 eig:   3.788  3.788  4.382  1.605  1.605
 bond charge predicted
       N       E                     dE             d eps       ncg     rms          rms(c)
RMM:   1    -0.127397757469E+03   -0.26127E-01   -0.20281E+00   109   0.480E+00    0.360E-01
RMM:   2    -0.127399568431E+03   -0.18110E-02   -0.31219E-02   108   0.525E-01    0.143E-01
RMM:   3    -0.127398621784E+03    0.94665E-03   -0.21239E-03   112   0.141E-01    0.952E-02
RMM:   4    -0.127398390651E+03    0.23113E-03   -0.21621E-03   108   0.869E-02    0.208E-02
RMM:   5    -0.127398443756E+03   -0.53104E-04   -0.27460E-04   110   0.367E-02    0.592E-03
RMM:   6    -0.127398483082E+03   -0.39326E-04   -0.53254E-05    87   0.157E-02    0.271E-03
RMM:   7    -0.127398509942E+03   -0.26860E-04   -0.79320E-06    68   0.807E-03    0.185E-03
RMM:   8    -0.127398518171E+03   -0.82289E-05   -0.19465E-06    68   0.448E-03
   9 F= -.12739852E+03 E0= -.12739850E+03  d E =-.268807E-01
 BRION: g(F)=  0.601E-02 g(S)=  0.000E+00 retain N=  5 mean eig= 4.42
 eig:   7.703  7.703  2.721  2.721  1.250
 bond charge predicted
       N       E                     dE             d eps       ncg     rms          rms(c)
RMM:   1    -0.127415452435E+03   -0.16942E-01   -0.13441E+00   109   0.379E+00    0.291E-01
RMM:   2    -0.127415672245E+03   -0.21981E-03   -0.14494E-02   108   0.382E-01    0.361E-02
RMM:   3    -0.127415935918E+03   -0.26367E-03   -0.97503E-04   111   0.113E-01    0.133E-02
RMM:   4    -0.127415992468E+03   -0.56550E-04   -0.83547E-05    96   0.237E-02    0.132E-02
RMM:   5    -0.127416001837E+03   -0.93691E-05   -0.74507E-05    89   0.167E-02
  10 F= -.12741600E+03 E0= -.12741599E+03  d E =-.174837E-01
 BRION: g(F)=  0.429E-02 g(S)=  0.000E+00 retain N=  2 mean eig= 5.41
 eig:   5.413  5.413
 bond charge predicted
       N       E                     dE             d eps       ncg     rms          rms(c)
RMM:   1    -0.127427710913E+03   -0.11718E-01   -0.85448E-01   109   0.293E+00    0.226E-01
RMM:   2    -0.127427903648E+03   -0.19273E-03   -0.93506E-03   108   0.288E-01    0.189E-02
RMM:   3    -0.127428058015E+03   -0.15437E-03   -0.53742E-04   114   0.851E-02    0.207E-02
RMM:   4    -0.127428047505E+03    0.10509E-04   -0.33068E-04   108   0.330E-02    0.298E-03
RMM:   5    -0.127428053177E+03   -0.56720E-05   -0.10564E-05    68   0.107E-02
  11 F= -.12742805E+03 E0= -.12742804E+03  d E =-.120513E-01
 BRION: g(F)=  0.335E-02 g(S)=  0.000E+00
 BRIONS problems: POTIM should be increased
 retain N=  1 mean eig=10.28
 eig:  10.283
 bond charge predicted
       N       E                     dE             d eps       ncg     rms          rms(c)
RMM:   1    -0.127442478744E+03   -0.14431E-01   -0.22026E+00   109   0.467E+00    0.366E-01
RMM:   2    -0.127442935393E+03   -0.45665E-03   -0.24388E-02   108   0.464E-01    0.165E-02
RMM:   3    -0.127443315090E+03   -0.37970E-03   -0.15125E-03   115   0.139E-01    0.223E-02
RMM:   4    -0.127443321575E+03   -0.64852E-05   -0.27055E-04   108   0.357E-02    0.628E-03
RMM:   5    -0.127443327539E+03   -0.59638E-05   -0.47518E-05    93   0.169E-02
  12 F= -.12744333E+03 E0= -.12744331E+03  d E =-.152744E-01
 BRION: g(F)=  0.221E-02 g(S)=  0.000E+00 retain N=  1 mean eig= 7.06
 eig:   7.058
 reached required accuracy - stopping structural energy minimisation

Currently Loaded Modulefiles:
  1) Anaconda3/5.1.0       3) vesta/3.3.8           5) intel/2016.1
  2) gnuplot/5.0.4         4) imagemagick/6.7.9-0   6) vasp/5.4.1.Feb16

Job script resource usage:
       JobID  MaxVMSize     MaxRSS 
------------ ---------- ---------- 
28279638.ba+    499280K      6484K 

Job step resource usage:
       JobID    JobName  AllocCPUS  MaxVMSize     MaxRSS    Elapsed ExitCode 
------------ ---------- ---------- ---------- ---------- ---------- -------- 
28279638        jobname          6                         00:03:38      0:0 
28279638.0    pmi_proxy          1   2952388K   1145053K   00:03:37      0:0 

Job 28279638 ("jobname") completed on c31-21 at Fri Oct 4 13:27:55 CEST 2019
