unknown system                          
           1
    20.231010    0.000000    0.000000
     0.000000   20.231010    0.000000
     0.000000    0.000000   20.231010
   Si   H 
  14  18
Direct configuration=     1
   0.00000000  0.00000000  0.00000000
   0.13422464  0.13422464  0.00000000
   0.06711232  0.06711232  0.06711232
   0.20133745  0.20133745  0.06711232
   0.00000000  0.13422464  0.13422464
   0.13422464  0.00000000  0.13422464
   0.06711232  0.20133745  0.20133745
   0.20133745  0.06711232  0.20133745
   0.13422464  0.13422464  0.26844977
   0.13422464  0.26844977  0.13422464
   0.00000000  0.26844977  0.26844977
   0.26844977  0.13422464  0.13422464
   0.26844977  0.00000000  0.26844977
   0.26844977  0.26844977  0.00000000
   0.00000000  0.00000000  0.93079881
   0.13422464  0.13422464  0.93079881
   0.26844977  0.26844977  0.93079881
   0.00000000  0.26844977  0.33765047
   0.13422464  0.13422464  0.33765047
   0.26844977  0.00000000  0.33765047
   0.93079881  0.00000000  0.00000000
   0.93079881  0.13422464  0.13422464
   0.93079881  0.26844977  0.26844977
   0.33765047  0.13422464  0.13422464
   0.33765047  0.00000000  0.26844977
   0.33765047  0.26844977  0.00000000
   0.00000000  0.93079881  0.00000000
   0.13422464  0.93079881  0.13422464
   0.26844977  0.93079881  0.26844977
   0.13422464  0.33765047  0.13422464
   0.00000000  0.33765047  0.26844977
   0.26844977  0.33765047  0.00000000
Direct configuration=     2
   0.00188999  0.00188997  0.00188993
   0.13422178  0.13422176  0.00752920
   0.06659641  0.06659641  0.06659624
   0.20185345  0.20185344  0.06659565
   0.00752919  0.13422179  0.13422180
   0.13422178  0.00752916  0.13422180
   0.06659554  0.20185343  0.20185345
   0.20185344  0.06659554  0.20185347
   0.13422660  0.13422661  0.26092303
   0.13422658  0.26092303  0.13422661
   0.00189618  0.26654719  0.26654711
   0.26092305  0.13422659  0.13422660
   0.26654711  0.00189620  0.26654722
   0.26654722  0.26654715  0.00189615
   0.00202592  0.00202590  0.92501015
   0.13422848  0.13422848  0.92566443
   0.26642447  0.26642445  0.92500853
   0.00202586  0.26642541  0.34343856
   0.13422870  0.13422870  0.34278682
   0.26642537  0.00202587  0.34343853
   0.92501014  0.00202590  0.00202591
   0.92566442  0.13422849  0.13422849
   0.92500852  0.26642447  0.26642443
   0.34278680  0.13422869  0.13422869
   0.34343854  0.00202586  0.26642540
   0.34343854  0.26642539  0.00202586
   0.00202592  0.92501014  0.00202591
   0.13422849  0.92566442  0.13422850
   0.26642444  0.92500854  0.26642447
   0.13422869  0.34278682  0.13422870
   0.00202585  0.34343855  0.26642537
   0.26642541  0.34343854  0.00202586
Direct configuration=     3
  -0.00126661 -0.00126661 -0.00126663
   0.13422534  0.13422531  0.00470953
   0.06680889  0.06680888  0.06680873
   0.20163728  0.20163731  0.06681284
   0.00470954  0.13422528  0.13422530
   0.13422528  0.00470953  0.13422531
   0.06681269  0.20163729  0.20163726
   0.20163726  0.06681267  0.20163731
   0.13422670  0.13422668  0.26374444
   0.13422667  0.26374439  0.13422670
  -0.00126642  0.26970992  0.26970989
   0.26374443  0.13422667  0.13422670
   0.26970989 -0.00126643  0.26970992
   0.26970989  0.26970987 -0.00126643
   0.00294062  0.00294061  0.92582067
   0.13423033  0.13423032  0.92791162
   0.26550656  0.26550655  0.92582108
   0.00294067  0.26550738  0.34262379
   0.13423060  0.13423059  0.34053885
   0.26550735  0.00294068  0.34262381
   0.92582070  0.00294061  0.00294061
   0.92791161  0.13423033  0.13423032
   0.92582108  0.26550656  0.26550653
   0.34053883  0.13423058  0.13423058
   0.34262378  0.00294067  0.26550738
   0.34262381  0.26550736  0.00294067
   0.00294063  0.92582068  0.00294061
   0.13423032  0.92791161  0.13423034
   0.26550653  0.92582110  0.26550655
   0.13423057  0.34053885  0.13423059
   0.00294067  0.34262382  0.26550735
   0.26550738  0.34262379  0.00294067
Direct configuration=     4
  -0.00206459 -0.00206466 -0.00206473
   0.13422959  0.13422949  0.00362391
   0.06567530  0.06567526  0.06567508
   0.20277579  0.20277574  0.06567889
   0.00362386  0.13422946  0.13422947
   0.13422942  0.00362388  0.13422947
   0.06567867  0.20277578  0.20277574
   0.20277575  0.06567867  0.20277580
   0.13422707  0.13422707  0.26482018
   0.13422698  0.26482022  0.13422711
  -0.00207051  0.27050732  0.27050733
   0.26482014  0.13422702  0.13422707
   0.27050731 -0.00207047  0.27050733
   0.27050738  0.27050724 -0.00207048
   0.00433613  0.00433611  0.92449147
   0.13423471  0.13423469  0.92945131
   0.26410652  0.26410644  0.92449044
   0.00433634  0.26410710  0.34395354
   0.13423530  0.13423528  0.33899863
   0.26410704  0.00433640  0.34395347
   0.92449141  0.00433613  0.00433608
   0.92945131  0.13423471  0.13423468
   0.92449043  0.26410649  0.26410646
   0.33899859  0.13423527  0.13423525
   0.34395348  0.00433637  0.26410709
   0.34395349  0.26410703  0.00433634
   0.00433616  0.92449143  0.00433609
   0.13423468  0.92945132  0.13423471
   0.26410645  0.92449043  0.26410648
   0.13423525  0.33899858  0.13423527
   0.00433636  0.34395353  0.26410704
   0.26410710  0.34395352  0.00433636
Direct configuration=     5
  -0.00439322 -0.00439321 -0.00439326
   0.13423126  0.13423113  0.00433690
   0.06446737  0.06446735  0.06446717
   0.20398448  0.20398443  0.06446843
   0.00433688  0.13423106  0.13423106
   0.13423101  0.00433694  0.13423113
   0.06446808  0.20398445  0.20398451
   0.20398443  0.06446815  0.20398443
   0.13422647  0.13422650  0.26411035
   0.13422634  0.26411044  0.13422650
  -0.00439408  0.27284243  0.27284251
   0.26411029  0.13422635  0.13422653
   0.27284248 -0.00439405  0.27284244
   0.27284247  0.27284239 -0.00439397
   0.00662284  0.00662284  0.92321303
   0.13424234  0.13424232  0.93028430
   0.26180992  0.26180980  0.92320633
   0.00662171  0.26181046  0.34523319
   0.13424344  0.13424343  0.33815732
   0.26181040  0.00662183  0.34523312
   0.92321308  0.00662286  0.00662275
   0.93028426  0.13424232  0.13424227
   0.92320633  0.26180988  0.26180984
   0.33815724  0.13424342  0.13424338
   0.34523318  0.00662177  0.26181048
   0.34523324  0.26181034  0.00662170
   0.00662292  0.92321302  0.00662277
   0.13424228  0.93028431  0.13424230
   0.26180984  0.92320633  0.26180986
   0.13424338  0.33815731  0.13424339
   0.00662173  0.34523315  0.26181041
   0.26181048  0.34523312  0.00662170
Direct configuration=     6
  -0.00501656 -0.00501644 -0.00501672
   0.13423011  0.13423009  0.00557536
   0.06388161  0.06388177  0.06388168
   0.20456947  0.20456969  0.06388163
   0.00557523  0.13422987  0.13422989
   0.13422989  0.00557517  0.13422998
   0.06388155  0.20456955  0.20456969
   0.20456962  0.06388153  0.20456959
   0.13422297  0.13422303  0.26285554
   0.13422293  0.26285528  0.13422303
  -0.00502994  0.27346292  0.27346331
   0.26285541  0.13422290  0.13422312
   0.27346342 -0.00502994  0.27346280
   0.27346302  0.27346281 -0.00503021
   0.00771826  0.00771833  0.92288746
   0.13424641  0.13424642  0.93032247
   0.26071529  0.26071512  0.92289593
   0.00771675  0.26071461  0.34556295
   0.13424950  0.13424949  0.33812126
   0.26071467  0.00771692  0.34556310
   0.92288736  0.00771838  0.00771817
   0.93032247  0.13424641  0.13424632
   0.92289564  0.26071518  0.26071529
   0.33812113  0.13424945  0.13424945
   0.34556300  0.00771683  0.26071460
   0.34556289  0.26071452  0.00771668
   0.00771832  0.92288752  0.00771819
   0.13424635  0.93032258  0.13424637
   0.26071531  0.92289559  0.26071515
   0.13424939  0.33812141  0.13424944
   0.00771677  0.34556294  0.26071467
   0.26071463  0.34556294  0.00771669
Direct configuration=     7
  -0.00480754 -0.00480731 -0.00480739
   0.13422796  0.13422799  0.00557830
   0.06393020  0.06393026  0.06393018
   0.20451803  0.20451803  0.06392580
   0.00557826  0.13422789  0.13422795
   0.13422788  0.00557834  0.13422794
   0.06392578  0.20451790  0.20451811
   0.20451801  0.06392582  0.20451801
   0.13422210  0.13422210  0.26286209
   0.13422205  0.26286222  0.13422219
  -0.00480294  0.27326027  0.27326033
   0.26286197  0.13422209  0.13422218
   0.27326030 -0.00480297  0.27326042
   0.27326018  0.27326036 -0.00480270
   0.00780681  0.00780690  0.92309389
   0.13424682  0.13424683  0.93061303
   0.26062704  0.26062688  0.92309082
   0.00780297  0.26062954  0.34535242
   0.13425126  0.13425127  0.33781892
   0.26062975  0.00780302  0.34535201
   0.92309405  0.00780689  0.00780668
   0.93061295  0.13424681  0.13424672
   0.92309097  0.26062701  0.26062715
   0.33781879  0.13425120  0.13425123
   0.34535250  0.00780304  0.26062953
   0.34535217  0.26062951  0.00780287
   0.00780681  0.92309418  0.00780670
   0.13424677  0.93061294  0.13424677
   0.26062720  0.92309095  0.26062700
   0.13425116  0.33781878  0.13425121
   0.00780294  0.34535211  0.26062969
   0.26062965  0.34535203  0.00780283
Direct configuration=     8
  -0.00434182 -0.00434227 -0.00434325
   0.13422188  0.13422200  0.00610947
   0.06408371  0.06408379  0.06408391
   0.20435810  0.20435829  0.06408492
   0.00610926  0.13422174  0.13422190
   0.13422169  0.00610903  0.13422181
   0.06408493  0.20435842  0.20435846
   0.20435834  0.06408493  0.20435854
   0.13421875  0.13421866  0.26228693
   0.13421889  0.26228594  0.13421881
  -0.00435858  0.27275055  0.27275097
   0.26228669  0.13421905  0.13421872
   0.27275144 -0.00435852  0.27275000
   0.27275094  0.27274958 -0.00436000
   0.00847644  0.00847654  0.92368529
   0.13424924  0.13424927  0.93134864
   0.25997572  0.25997578  0.92372255
   0.00847474  0.25997205  0.34478048
   0.13425949  0.13425953  0.33709736
   0.25997187  0.00847500  0.34478175
   0.92368472  0.00847652  0.00847639
   0.93134873  0.13424922  0.13424914
   0.92372163  0.25997576  0.25997580
   0.33709738  0.13425945  0.13425949
   0.34478041  0.00847475  0.25997206
   0.34478071  0.25997196  0.00847501
   0.00847639  0.92368513  0.00847636
   0.13424917  0.93134886  0.13424919
   0.25997583  0.92372145  0.25997586
   0.13425938  0.33709806  0.13425948
   0.00847491  0.34478101  0.25997191
   0.25997188  0.34478132  0.00847495
Direct configuration=     9
  -0.00395811 -0.00395759 -0.00395726
   0.13421807  0.13421824  0.00650199
   0.06424492  0.06424486  0.06424502
   0.20417567  0.20417541  0.06423674
   0.00650191  0.13421818  0.13421841
   0.13421815  0.00650202  0.13421830
   0.06423720  0.20417540  0.20417583
   0.20417561  0.06423727  0.20417551
   0.13420979  0.13420982  0.26194245
   0.13421002  0.26194304  0.13421003
  -0.00390096  0.27242288  0.27242205
   0.26194229  0.13421017  0.13420997
   0.27242177 -0.00390092  0.27242373
   0.27242255  0.27242339 -0.00389983
   0.00906245  0.00906248  0.92413875
   0.13425032  0.13425036  0.93179185
   0.25938694  0.25938693  0.92412891
   0.00905219  0.25939938  0.34428239
   0.13426699  0.13426704  0.33660994
   0.25939949  0.00905218  0.34428214
   0.92414008  0.00906211  0.00906189
   0.93179173  0.13425028  0.13425022
   0.92413001  0.25938734  0.25938733
   0.33660979  0.13426700  0.13426699
   0.34428293  0.00905228  0.25939922
   0.34428252  0.25939917  0.00905238
   0.00906219  0.92413965  0.00906199
   0.13425022  0.93179157  0.13425025
   0.25938747  0.92412992  0.25938746
   0.13426688  0.33660938  0.13426700
   0.00905229  0.34428232  0.25939927
   0.25939951  0.34428130  0.00905197
Direct configuration=    10
  -0.00362961 -0.00362969 -0.00363012
   0.13421011  0.13421034  0.00667703
   0.06440709  0.06440712  0.06440742
   0.20401226  0.20401238  0.06440320
   0.00667709  0.13421028  0.13421057
   0.13421032  0.00667709  0.13421057
   0.06440362  0.20401230  0.20401239
   0.20401230  0.06440359  0.20401222
   0.13420116  0.13420110  0.26174044
   0.13420148  0.26174035  0.13420134
  -0.00362679  0.27207276  0.27207248
   0.26174031  0.13420155  0.13420141
   0.27207282 -0.00362684  0.27207307
   0.27207268  0.27207216 -0.00362697
   0.00954787  0.00954787  0.92453331
   0.13425077  0.13425083  0.93205416
   0.25891501  0.25891500  0.92455806
   0.00954679  0.25891770  0.34390798
   0.13427440  0.13427441  0.33636126
   0.25891753  0.00954693  0.34390875
   0.92453359  0.00954766  0.00954741
   0.93205398  0.13425073  0.13425068
   0.92455815  0.25891523  0.25891509
   0.33636102  0.13427443  0.13427436
   0.34390805  0.00954681  0.25891765
   0.34390845  0.25891740  0.00954704
   0.00954766  0.92453358  0.00954744
   0.13425067  0.93205389  0.13425067
   0.25891530  0.92455825  0.25891545
   0.13427427  0.33636103  0.13427439
   0.00954699  0.34390847  0.25891733
   0.25891755  0.34390819  0.00954681
Direct configuration=    11
  -0.00338342 -0.00338338 -0.00338361
   0.13420773  0.13420796  0.00671580
   0.06452563  0.06452561  0.06452604
   0.20388997  0.20389008  0.06452075
   0.00671553  0.13420786  0.13420819
   0.13420780  0.00671544  0.13420814
   0.06452112  0.20389021  0.20389006
   0.20389025  0.06452090  0.20389028
   0.13418963  0.13418949  0.26170223
   0.13419002  0.26170184  0.13418978
  -0.00335715  0.27182842  0.27182783
   0.26170187  0.13419019  0.13418976
   0.27182791 -0.00335706  0.27182855
   0.27182822  0.27182808 -0.00335718
   0.00994542  0.00994538  0.92486961
   0.13425007  0.13425014  0.93212892
   0.25851880  0.25851872  0.92486776
   0.00994872  0.25852193  0.34357437
   0.13428199  0.13428194  0.33628825
   0.25852178  0.00994877  0.34357496
   0.92487007  0.00994515  0.00994484
   0.93212894  0.13425009  0.13425002
   0.92486797  0.25851902  0.25851878
   0.33628812  0.13428200  0.13428188
   0.34357461  0.00994877  0.25852187
   0.34357454  0.25852162  0.00994884
   0.00994517  0.92486998  0.00994487
   0.13425000  0.93212895  0.13425002
   0.25851902  0.92486800  0.25851923
   0.13428180  0.33628816  0.13428194
   0.00994883  0.34357465  0.25852153
   0.25852190  0.34357395  0.00994858
Direct configuration=    12
  -0.00295558 -0.00295586 -0.00295640
   0.13420516  0.13420546  0.00671873
   0.06471967  0.06471981  0.06472031
   0.20369406  0.20369422  0.06471955
   0.00671910  0.13420529  0.13420578
   0.13420547  0.00671936  0.13420596
   0.06472002  0.20369414  0.20369430
   0.20369405  0.06472017  0.20369395
   0.13416490  0.13416482  0.26170573
   0.13416556  0.26170617  0.13416515
  -0.00298492  0.27138266  0.27138300
   0.26170570  0.13416538  0.13416551
   0.27138358 -0.00298501  0.27138305
   0.27138279  0.27138164 -0.00298563
   0.01058862  0.01058858  0.92537831
   0.13424862  0.13424872  0.93209436
   0.25789259  0.25789243  0.92540493
   0.01060394  0.25787977  0.34307410
   0.13429669  0.13429665  0.33632858
   0.25787949  0.01060399  0.34307505
   0.92537803  0.01058849  0.01058808
   0.93209385  0.13424868  0.13424859
   0.92540490  0.25789273  0.25789232
   0.33632804  0.13429682  0.13429658
   0.34307414  0.01060398  0.25787976
   0.34307465  0.25787928  0.01060398
   0.01058843  0.92537823  0.01058805
   0.13424861  0.93209367  0.13424854
   0.25789255  0.92540495  0.25789290
   0.13429663  0.33632785  0.13429663
   0.01060406  0.34307491  0.25787918
   0.25787947  0.34307491  0.01060395
