   32   32    1    1
  0.2587633E+03  0.2023101E-08  0.2023101E-08  0.2023101E-08  0.5000000E-15
  1.000000000000000E-004
  CAR 
 unknown system                          
     74      1     54
 
  0.0000000E+00  0.0000000E+00  0.0000000E+00  0.1000000E+01
    1      -15.132527   1.000000
    2      -14.222492   1.000000
    3      -14.222491   1.000000
    4      -14.222483   1.000000
    5      -13.168566   1.000000
    6      -13.040889   1.000000
    7      -13.040889   1.000000
    8      -13.040859   1.000000
    9      -12.751378   1.000000
   10      -12.751378   1.000000
   11      -11.261879   1.000000
   12      -11.261879   1.000000
   13      -11.261866   1.000000
   14      -10.730992   1.000000
   15       -8.691562   1.000000
   16       -8.651475   1.000000
   17       -8.651475   1.000000
   18       -8.651470   1.000000
   19       -8.169002   1.000000
   20       -8.169002   1.000000
   21       -7.868797   1.000000
   22       -7.868758   1.000000
   23       -7.868758   1.000000
   24       -7.619308   1.000000
   25       -7.619308   1.000000
   26       -7.619262   1.000000
   27       -7.550850   1.000000
   28       -7.550850   1.000000
   29       -6.841021   1.000000
   30       -6.841021   1.000000
   31       -6.841016   1.000000
   32       -6.809489   1.000000
   33       -6.809475   1.000000
   34       -6.809475   1.000000
   35       -4.659703   1.000000
   36       -4.659701   1.000000
   37       -4.659701   1.000000
   38       -3.512842   0.000000
   39       -3.512842   0.000000
   40       -3.512820   0.000000
   41       -2.942427   0.000000
   42       -1.935697   0.000000
   43       -1.935697   0.000000
   44       -1.805845   0.000000
   45       -1.805845   0.000000
   46       -1.805826   0.000000
   47       -1.669296   0.000000
   48       -1.359750   0.000000
   49       -1.359747   0.000000
   50       -1.359747   0.000000
   51       -0.321767   0.000000
   52       -0.101556   0.000000
   53       -0.031552   0.000000
   54        0.025577   0.000000
