PROCAR lm decomposed
# of k-points:    1         # of bands:  54         # of ions:  32

 k-point    1 :    0.00000000 0.00000000 0.00000000     weight = 1.00000000

band   1 # energy  -15.13252705 # occ.  2.00000000
 
ion      s     py     pz     px    dxy    dyz    dz2    dxz    dx2    tot
  1  0.008  0.000  0.000  0.000  0.000  0.000  0.000  0.000  0.000  0.009
  2  0.032  0.000  0.001  0.000  0.000  0.000  0.000  0.000  0.000  0.033
  3  0.052  0.000  0.000  0.000  0.000  0.000  0.000  0.000  0.000  0.052
  4  0.052  0.000  0.000  0.000  0.000  0.000  0.000  0.000  0.000  0.052
  5  0.032  0.000  0.000  0.001  0.000  0.000  0.000  0.000  0.000  0.033
  6  0.032  0.001  0.000  0.000  0.000  0.000  0.000  0.000  0.000  0.033
  7  0.052  0.000  0.000  0.000  0.000  0.000  0.000  0.000  0.000  0.052
  8  0.052  0.000  0.000  0.000  0.000  0.000  0.000  0.000  0.000  0.052
  9  0.032  0.000  0.001  0.000  0.000  0.000  0.000  0.000  0.000  0.033
 10  0.032  0.001  0.000  0.000  0.000  0.000  0.000  0.000  0.000  0.033
 11  0.008  0.000  0.000  0.000  0.000  0.000  0.000  0.000  0.000  0.009
 12  0.032  0.000  0.000  0.001  0.000  0.000  0.000  0.000  0.000  0.033
 13  0.008  0.000  0.000  0.000  0.000  0.000  0.000  0.000  0.000  0.009
 14  0.008  0.000  0.000  0.000  0.000  0.000  0.000  0.000  0.000  0.009
 15  0.001  0.000  0.000  0.000  0.000  0.000  0.000  0.000  0.000  0.001
 16  0.003  0.000  0.000  0.000  0.000  0.000  0.000  0.000  0.000  0.003
 17  0.001  0.000  0.000  0.000  0.000  0.000  0.000  0.000  0.000  0.001
 18  0.001  0.000  0.000  0.000  0.000  0.000  0.000  0.000  0.000  0.001
 19  0.003  0.000  0.000  0.000  0.000  0.000  0.000  0.000  0.000  0.003
 20  0.001  0.000  0.000  0.000  0.000  0.000  0.000  0.000  0.000  0.001
 21  0.001  0.000  0.000  0.000  0.000  0.000  0.000  0.000  0.000  0.001
 22  0.003  0.000  0.000  0.000  0.000  0.000  0.000  0.000  0.000  0.003
 23  0.001  0.000  0.000  0.000  0.000  0.000  0.000  0.000  0.000  0.001
 24  0.003  0.000  0.000  0.000  0.000  0.000  0.000  0.000  0.000  0.003
 25  0.001  0.000  0.000  0.000  0.000  0.000  0.000  0.000  0.000  0.001
 26  0.001  0.000  0.000  0.000  0.000  0.000  0.000  0.000  0.000  0.001
 27  0.001  0.000  0.000  0.000  0.000  0.000  0.000  0.000  0.000  0.001
 28  0.003  0.000  0.000  0.000  0.000  0.000  0.000  0.000  0.000  0.003
 29  0.001  0.000  0.000  0.000  0.000  0.000  0.000  0.000  0.000  0.001
 30  0.003  0.000  0.000  0.000  0.000  0.000  0.000  0.000  0.000  0.003
 31  0.001  0.000  0.000  0.000  0.000  0.000  0.000  0.000  0.000  0.001
 32  0.001  0.000  0.000  0.000  0.000  0.000  0.000  0.000  0.000  0.001
tot  0.462  0.003  0.003  0.003  0.000  0.000  0.000  0.000  0.000  0.471
 
band   2 # energy  -14.22249219 # occ.  2.00000000
 
ion      s     py     pz     px    dxy    dyz    dz2    dxz    dx2    tot
  1  0.000  0.000  0.000  0.000  0.000  0.000  0.000  0.000  0.000  0.000
  2  0.021  0.000  0.000  0.001  0.000  0.000  0.000  0.000  0.000  0.022
  3  0.000  0.000  0.001  0.001  0.000  0.000  0.000  0.000  0.000  0.002
  4  0.054  0.000  0.000  0.001  0.000  0.000  0.000  0.000  0.000  0.055
  5  0.041  0.001  0.001  0.000  0.000  0.000  0.000  0.000  0.000  0.043
  6  0.004  0.000  0.000  0.000  0.000  0.000  0.000  0.000  0.000  0.004
  7  0.115  0.000  0.000  0.001  0.000  0.000  0.000  0.000  0.000  0.116
  8  0.010  0.000  0.001  0.001  0.000  0.000  0.000  0.000  0.000  0.012
  9  0.021  0.001  0.000  0.002  0.000  0.000  0.000  0.000  0.000  0.024
 10  0.004  0.000  0.002  0.002  0.000  0.000  0.000  0.000  0.000  0.009
 11  0.074  0.000  0.000  0.000  0.000  0.000  0.000  0.000  0.000  0.075
 12  0.041  0.000  0.000  0.000  0.000  0.000  0.000  0.000  0.000  0.041
 13  0.007  0.000  0.000  0.000  0.000  0.000  0.000  0.000  0.000  0.007
 14  0.035  0.000  0.000  0.000  0.000  0.000  0.000  0.000  0.000  0.035
 15  0.000  0.000  0.000  0.000  0.000  0.000  0.000  0.000  0.000  0.000
 16  0.003  0.000  0.000  0.000  0.000  0.000  0.000  0.000  0.000  0.003
 17  0.004  0.000  0.000  0.000  0.000  0.000  0.000  0.000  0.000  0.004
 18  0.008  0.000  0.000  0.000  0.000  0.000  0.000  0.000  0.000  0.009
 19  0.003  0.000  0.000  0.000  0.000  0.000  0.000  0.000  0.000  0.003
 20  0.001  0.000  0.000  0.000  0.000  0.000  0.000  0.000  0.000  0.001
 21  0.000  0.000  0.000  0.000  0.000  0.000  0.000  0.000  0.000  0.000
 22  0.007  0.000  0.000  0.000  0.000  0.000  0.000  0.000  0.000  0.007
 23  0.009  0.000  0.000  0.000  0.000  0.000  0.000  0.000  0.000  0.009
 24  0.007  0.000  0.000  0.000  0.000  0.000  0.000  0.000  0.000  0.007
 25  0.001  0.000  0.000  0.000  0.000  0.000  0.000  0.000  0.000  0.001
 26  0.004  0.000  0.000  0.000  0.000  0.000  0.000  0.000  0.000  0.004
 27  0.000  0.000  0.000  0.000  0.000  0.000  0.000  0.000  0.000  0.000
 28  0.001  0.000  0.000  0.000  0.000  0.000  0.000  0.000  0.000  0.001
 29  0.001  0.000  0.000  0.000  0.000  0.000  0.000  0.000  0.000  0.001
 30  0.001  0.000  0.000  0.000  0.000  0.000  0.000  0.000  0.000  0.001
 31  0.008  0.000  0.000  0.000  0.000  0.000  0.000  0.000  0.000  0.009
 32  0.004  0.000  0.000  0.000  0.000  0.000  0.000  0.000  0.000  0.004
tot  0.489  0.004  0.006  0.009  0.000  0.000  0.000  0.000  0.000  0.507
 
band   3 # energy  -14.22249147 # occ.  2.00000000
 
ion      s     py     pz     px    dxy    dyz    dz2    dxz    dx2    tot
  1  0.000  0.000  0.000  0.000  0.000  0.000  0.000  0.000  0.000  0.000
  2  0.023  0.001  0.000  0.000  0.000  0.000  0.000  0.000  0.000  0.024
  3  0.000  0.001  0.001  0.000  0.000  0.000  0.000  0.000  0.000  0.002
  4  0.066  0.001  0.000  0.000  0.000  0.000  0.000  0.000  0.000  0.067
  5  0.002  0.000  0.000  0.000  0.000  0.000  0.000  0.000  0.000  0.002
  6  0.041  0.000  0.001  0.001  0.000  0.000  0.000  0.000  0.000  0.043
  7  0.006  0.001  0.001  0.000  0.000  0.000  0.000  0.000  0.000  0.008
  8  0.108  0.001  0.000  0.000  0.000  0.000  0.000  0.000  0.000  0.109
  9  0.023  0.001  0.000  0.001  0.000  0.000  0.000  0.000  0.000  0.026
 10  0.041  0.000  0.000  0.000  0.000  0.000  0.000  0.000  0.000  0.042
 11  0.004  0.000  0.000  0.000  0.000  0.000  0.000  0.000  0.000  0.004
 12  0.002  0.002  0.002  0.000  0.000  0.000  0.000  0.000  0.000  0.007
 13  0.070  0.000  0.000  0.000  0.000  0.000  0.000  0.000  0.000  0.070
 14  0.042  0.000  0.000  0.000  0.000  0.000  0.000  0.000  0.000  0.042
 15  0.000  0.000  0.000  0.000  0.000  0.000  0.000  0.000  0.000  0.000
 16  0.004  0.000  0.000  0.000  0.000  0.000  0.000  0.000  0.000  0.004
 17  0.005  0.000  0.000  0.000  0.000  0.000  0.000  0.000  0.000  0.005
 18  0.000  0.000  0.000  0.000  0.000  0.000  0.000  0.000  0.000  0.000
 19  0.004  0.000  0.000  0.000  0.000  0.000  0.000  0.000  0.000  0.004
 20  0.008  0.000  0.000  0.000  0.000  0.000  0.000  0.000  0.000  0.008
 21  0.000  0.000  0.000  0.000  0.000  0.000  0.000  0.000  0.000  0.000
 22  0.000  0.000  0.000  0.000  0.000  0.000  0.000  0.000  0.000  0.000
 23  0.000  0.000  0.000  0.000  0.000  0.000  0.000  0.000  0.000  0.000
 24  0.000  0.000  0.000  0.000  0.000  0.000  0.000  0.000  0.000  0.000
 25  0.008  0.000  0.000  0.000  0.000  0.000  0.000  0.000  0.000  0.008
 26  0.005  0.000  0.000  0.000  0.000  0.000  0.000  0.000  0.000  0.005
 27  0.000  0.000  0.000  0.000  0.000  0.000  0.000  0.000  0.000  0.000
 28  0.007  0.000  0.000  0.000  0.000  0.000  0.000  0.000  0.000  0.007
 29  0.008  0.000  0.000  0.000  0.000  0.000  0.000  0.000  0.000  0.008
 30  0.007  0.000  0.000  0.000  0.000  0.000  0.000  0.000  0.000  0.007
 31  0.000  0.000  0.000  0.000  0.000  0.000  0.000  0.000  0.000  0.001
 32  0.005  0.000  0.000  0.000  0.000  0.000  0.000  0.000  0.000  0.005
tot  0.489  0.009  0.006  0.003  0.000  0.000  0.000  0.000  0.000  0.507
 
band   4 # energy  -14.22248267 # occ.  2.00000000
 
ion      s     py     pz     px    dxy    dyz    dz2    dxz    dx2    tot
  1  0.087  0.000  0.000  0.000  0.000  0.000  0.000  0.000  0.000  0.087
  2  0.022  0.002  0.000  0.002  0.000  0.000  0.000  0.000  0.000  0.025
  3  0.135  0.000  0.000  0.000  0.000  0.000  0.000  0.000  0.000  0.135
  4  0.015  0.000  0.001  0.000  0.000  0.000  0.000  0.000  0.000  0.017
  5  0.023  0.002  0.002  0.000  0.000  0.000  0.000  0.000  0.000  0.027
  6  0.021  0.000  0.002  0.002  0.000  0.000  0.000  0.000  0.000  0.025
  7  0.013  0.000  0.000  0.001  0.000  0.000  0.000  0.000  0.000  0.015
  8  0.016  0.001  0.000  0.000  0.000  0.000  0.000  0.000  0.000  0.018
  9  0.022  0.000  0.000  0.000  0.000  0.000  0.000  0.000  0.000  0.022
 10  0.021  0.000  0.000  0.000  0.000  0.000  0.000  0.000  0.000  0.021
 11  0.009  0.000  0.000  0.000  0.000  0.000  0.000  0.000  0.000  0.009
 12  0.023  0.000  0.000  0.000  0.000  0.000  0.000  0.000  0.000  0.023
 13  0.011  0.000  0.000  0.000  0.000  0.000  0.000  0.000  0.000  0.011
 14  0.010  0.000  0.000  0.000  0.000  0.000  0.000  0.000  0.000  0.010
 15  0.010  0.000  0.000  0.000  0.000  0.000  0.000  0.000  0.000  0.010
 16  0.003  0.000  0.000  0.000  0.000  0.000  0.000  0.000  0.000  0.004
 17  0.001  0.000  0.000  0.000  0.000  0.000  0.000  0.000  0.000  0.001
 18  0.001  0.000  0.000  0.000  0.000  0.000  0.000  0.000  0.000  0.001
 19  0.003  0.000  0.000  0.000  0.000  0.000  0.000  0.000  0.000  0.004
 20  0.001  0.000  0.000  0.000  0.000  0.000  0.000  0.000  0.000  0.001
 21  0.010  0.000  0.000  0.000  0.000  0.000  0.000  0.000  0.000  0.010
 22  0.004  0.000  0.000  0.000  0.000  0.000  0.000  0.000  0.000  0.004
 23  0.001  0.000  0.000  0.000  0.000  0.000  0.000  0.000  0.000  0.001
 24  0.004  0.000  0.000  0.000  0.000  0.000  0.000  0.000  0.000  0.004
 25  0.001  0.000  0.000  0.000  0.000  0.000  0.000  0.000  0.000  0.001
 26  0.001  0.000  0.000  0.000  0.000  0.000  0.000  0.000  0.000  0.001
 27  0.010  0.000  0.000  0.000  0.000  0.000  0.000  0.000  0.000  0.010
 28  0.003  0.000  0.000  0.000  0.000  0.000  0.000  0.000  0.000  0.003
 29  0.001  0.000  0.000  0.000  0.000  0.000  0.000  0.000  0.000  0.001
 30  0.003  0.000  0.000  0.000  0.000  0.000  0.000  0.000  0.000  0.003
 31  0.001  0.000  0.000  0.000  0.000  0.000  0.000  0.000  0.000  0.001
 32  0.001  0.000  0.000  0.000  0.000  0.000  0.000  0.000  0.000  0.001
tot  0.489  0.006  0.006  0.006  0.000  0.000  0.000  0.000  0.000  0.507
 
band   5 # energy  -13.16856582 # occ.  2.00000000
 
ion      s     py     pz     px    dxy    dyz    dz2    dxz    dx2    tot
  1  0.081  0.001  0.001  0.001  0.000  0.000  0.000  0.000  0.000  0.084
  2  0.006  0.000  0.000  0.000  0.000  0.000  0.000  0.000  0.000  0.006
  3  0.000  0.001  0.001  0.001  0.000  0.000  0.000  0.000  0.000  0.004
  4  0.000  0.001  0.001  0.001  0.000  0.000  0.000  0.000  0.000  0.004
  5  0.006  0.000  0.000  0.000  0.000  0.000  0.000  0.000  0.000  0.006
  6  0.006  0.000  0.000  0.000  0.000  0.000  0.000  0.000  0.000  0.006
  7  0.000  0.001  0.001  0.001  0.000  0.000  0.000  0.000  0.000  0.004
  8  0.000  0.001  0.001  0.001  0.000  0.000  0.000  0.000  0.000  0.004
  9  0.006  0.000  0.000  0.000  0.000  0.000  0.000  0.000  0.000  0.006
 10  0.006  0.000  0.000  0.000  0.000  0.000  0.000  0.000  0.000  0.006
 11  0.081  0.001  0.001  0.001  0.000  0.000  0.000  0.000  0.000  0.084
 12  0.006  0.000  0.000  0.000  0.000  0.000  0.000  0.000  0.000  0.006
 13  0.081  0.001  0.001  0.001  0.000  0.000  0.000  0.000  0.000  0.084
 14  0.081  0.001  0.001  0.001  0.000  0.000  0.000  0.000  0.000  0.084
 15  0.016  0.000  0.001  0.000  0.000  0.000  0.000  0.000  0.000  0.016
 16  0.001  0.000  0.000  0.000  0.000  0.000  0.000  0.000  0.000  0.001
 17  0.016  0.000  0.001  0.000  0.000  0.000  0.000  0.000  0.000  0.016
 18  0.016  0.000  0.001  0.000  0.000  0.000  0.000  0.000  0.000  0.017
 19  0.001  0.000  0.000  0.000  0.000  0.000  0.000  0.000  0.000  0.001
 20  0.016  0.000  0.001  0.000  0.000  0.000  0.000  0.000  0.000  0.017
 21  0.016  0.000  0.000  0.001  0.000  0.000  0.000  0.000  0.000  0.016
 22  0.001  0.000  0.000  0.000  0.000  0.000  0.000  0.000  0.000  0.001
 23  0.016  0.000  0.000  0.001  0.000  0.000  0.000  0.000  0.000  0.016
 24  0.001  0.000  0.000  0.000  0.000  0.000  0.000  0.000  0.000  0.001
 25  0.016  0.000  0.000  0.001  0.000  0.000  0.000  0.000  0.000  0.017
 26  0.016  0.000  0.000  0.001  0.000  0.000  0.000  0.000  0.000  0.017
 27  0.016  0.001  0.000  0.000  0.000  0.000  0.000  0.000  0.000  0.016
 28  0.001  0.000  0.000  0.000  0.000  0.000  0.000  0.000  0.000  0.001
 29  0.016  0.001  0.000  0.000  0.000  0.000  0.000  0.000  0.000  0.016
 30  0.001  0.000  0.000  0.000  0.000  0.000  0.000  0.000  0.000  0.001
 31  0.016  0.001  0.000  0.000  0.000  0.000  0.000  0.000  0.000  0.017
 32  0.016  0.001  0.000  0.000  0.000  0.000  0.000  0.000  0.000  0.017
tot  0.557  0.012  0.012  0.012  0.000  0.000  0.000  0.000  0.000  0.592
 
band   6 # energy  -13.04088894 # occ.  2.00000000
 
ion      s     py     pz     px    dxy    dyz    dz2    dxz    dx2    tot
  1  0.000  0.000  0.000  0.000  0.000  0.000  0.000  0.000  0.000  0.000
  2  0.000  0.000  0.000  0.000  0.000  0.000  0.000  0.000  0.000  0.000
  3  0.000  0.002  0.000  0.001  0.000  0.000  0.000  0.000  0.000  0.003
  4  0.000  0.001  0.000  0.002  0.000  0.000  0.000  0.000  0.000  0.003
  5  0.031  0.000  0.000  0.000  0.000  0.000  0.000  0.000  0.000  0.031
  6  0.037  0.000  0.000  0.000  0.000  0.000  0.000  0.000  0.000  0.037
  7  0.004  0.000  0.004  0.001  0.000  0.000  0.000  0.000  0.000  0.009
  8  0.005  0.001  0.004  0.001  0.000  0.000  0.000  0.000  0.000  0.011
  9  0.000  0.000  0.000  0.000  0.000  0.000  0.000  0.000  0.000  0.000
 10  0.037  0.000  0.000  0.000  0.000  0.000  0.000  0.000  0.000  0.037
 11  0.101  0.002  0.002  0.002  0.000  0.000  0.000  0.000  0.000  0.106
 12  0.031  0.000  0.000  0.000  0.000  0.000  0.000  0.000  0.000  0.031
 13  0.122  0.002  0.002  0.002  0.000  0.000  0.000  0.000  0.000  0.129
 14  0.001  0.000  0.000  0.000  0.000  0.000  0.000  0.000  0.000  0.001
 15  0.000  0.000  0.000  0.000  0.000  0.000  0.000  0.000  0.000  0.000
 16  0.000  0.000  0.000  0.000  0.000  0.000  0.000  0.000  0.000  0.000
 17  0.000  0.000  0.000  0.000  0.000  0.000  0.000  0.000  0.000  0.000
 18  0.022  0.000  0.001  0.000  0.000  0.000  0.000  0.000  0.000  0.022
 19  0.000  0.000  0.000  0.000  0.000  0.000  0.000  0.000  0.000  0.000
 20  0.026  0.000  0.001  0.000  0.000  0.000  0.000  0.000  0.000  0.027
 21  0.000  0.000  0.000  0.000  0.000  0.000  0.000  0.000  0.000  0.000
 22  0.008  0.000  0.000  0.000  0.000  0.000  0.000  0.000  0.000  0.008
 23  0.021  0.000  0.000  0.001  0.000  0.000  0.000  0.000  0.000  0.022
 24  0.008  0.000  0.000  0.000  0.000  0.000  0.000  0.000  0.000  0.008
 25  0.026  0.000  0.000  0.001  0.000  0.000  0.000  0.000  0.000  0.027
 26  0.000  0.000  0.000  0.000  0.000  0.000  0.000  0.000  0.000  0.000
 27  0.000  0.000  0.000  0.000  0.000  0.000  0.000  0.000  0.000  0.000
 28  0.010  0.000  0.000  0.000  0.000  0.000  0.000  0.000  0.000  0.010
 29  0.025  0.001  0.000  0.000  0.000  0.000  0.000  0.000  0.000  0.027
 30  0.010  0.000  0.000  0.000  0.000  0.000  0.000  0.000  0.000  0.010
 31  0.021  0.001  0.000  0.000  0.000  0.000  0.000  0.000  0.000  0.022
 32  0.000  0.000  0.000  0.000  0.000  0.000  0.000  0.000  0.000  0.000
tot  0.546  0.011  0.014  0.011  0.000  0.000  0.000  0.000  0.000  0.583
 
band   7 # energy  -13.04088868 # occ.  2.00000000
 
ion      s     py     pz     px    dxy    dyz    dz2    dxz    dx2    tot
  1  0.000  0.000  0.000  0.000  0.000  0.000  0.000  0.000  0.000  0.000
  2  0.045  0.000  0.000  0.000  0.000  0.000  0.000  0.000  0.000  0.045
  3  0.000  0.000  0.002  0.001  0.000  0.000  0.000  0.000  0.000  0.003
  4  0.006  0.003  0.001  0.002  0.000  0.000  0.000  0.000  0.000  0.012
  5  0.015  0.000  0.000  0.000  0.000  0.000  0.000  0.000  0.000  0.015
  6  0.008  0.000  0.000  0.000  0.000  0.000  0.000  0.000  0.000  0.008
  7  0.002  0.004  0.000  0.000  0.000  0.000  0.000  0.000  0.000  0.006
  8  0.001  0.000  0.000  0.003  0.000  0.000  0.000  0.000  0.000  0.005
  9  0.045  0.000  0.000  0.000  0.000  0.000  0.000  0.000  0.000  0.045
 10  0.008  0.000  0.000  0.000  0.000  0.000  0.000  0.000  0.000  0.008
 11  0.049  0.001  0.001  0.001  0.000  0.000  0.000  0.000  0.000  0.051
 12  0.015  0.000  0.000  0.000  0.000  0.000  0.000  0.000  0.000  0.015
 13  0.027  0.000  0.000  0.001  0.000  0.000  0.000  0.000  0.000  0.029
 14  0.148  0.003  0.002  0.003  0.000  0.000  0.000  0.000  0.000  0.156
 15  0.000  0.000  0.000  0.000  0.000  0.000  0.000  0.000  0.000  0.000
 16  0.012  0.000  0.000  0.000  0.000  0.000  0.000  0.000  0.000  0.012
 17  0.031  0.000  0.001  0.000  0.000  0.000  0.000  0.000  0.000  0.032
 18  0.010  0.000  0.000  0.000  0.000  0.000  0.000  0.000  0.000  0.010
 19  0.012  0.000  0.000  0.000  0.000  0.000  0.000  0.000  0.000  0.012
 20  0.005  0.000  0.000  0.000  0.000  0.000  0.000  0.000  0.000  0.006
 21  0.000  0.000  0.000  0.000  0.000  0.000  0.000  0.000  0.000  0.000
 22  0.004  0.000  0.000  0.000  0.000  0.000  0.000  0.000  0.000  0.004
 23  0.010  0.000  0.000  0.000  0.000  0.000  0.000  0.000  0.000  0.011
 24  0.004  0.000  0.000  0.000  0.000  0.000  0.000  0.000  0.000  0.004
 25  0.006  0.000  0.000  0.000  0.000  0.000  0.000  0.000  0.000  0.006
 26  0.031  0.000  0.000  0.001  0.000  0.000  0.000  0.000  0.000  0.032
 27  0.000  0.000  0.000  0.000  0.000  0.000  0.000  0.000  0.000  0.000
 28  0.002  0.000  0.000  0.000  0.000  0.000  0.000  0.000  0.000  0.002
 29  0.006  0.000  0.000  0.000  0.000  0.000  0.000  0.000  0.000  0.006
 30  0.002  0.000  0.000  0.000  0.000  0.000  0.000  0.000  0.000  0.002
 31  0.011  0.000  0.000  0.000  0.000  0.000  0.000  0.000  0.000  0.011
 32  0.031  0.001  0.000  0.000  0.000  0.000  0.000  0.000  0.000  0.033
tot  0.546  0.014  0.010  0.013  0.000  0.000  0.000  0.000  0.000  0.583
 
band   8 # energy  -13.04085899 # occ.  2.00000000
 
ion      s     py     pz     px    dxy    dyz    dz2    dxz    dx2    tot
  1  0.168  0.003  0.003  0.003  0.000  0.000  0.000  0.000  0.000  0.177
  2  0.022  0.000  0.000  0.000  0.000  0.000  0.000  0.000  0.000  0.023
  3  0.007  0.002  0.002  0.002  0.000  0.000  0.000  0.000  0.000  0.013
  4  0.001  0.000  0.003  0.000  0.000  0.000  0.000  0.000  0.000  0.004
  5  0.023  0.000  0.000  0.000  0.000  0.000  0.000  0.000  0.000  0.023
  6  0.023  0.000  0.000  0.000  0.000  0.000  0.000  0.000  0.000  0.023
  7  0.001  0.000  0.000  0.003  0.000  0.000  0.000  0.000  0.000  0.004
  8  0.001  0.003  0.000  0.000  0.000  0.000  0.000  0.000  0.000  0.004
  9  0.022  0.000  0.000  0.000  0.000  0.000  0.000  0.000  0.000  0.023
 10  0.023  0.000  0.000  0.000  0.000  0.000  0.000  0.000  0.000  0.023
 11  0.019  0.000  0.000  0.000  0.000  0.000  0.000  0.000  0.000  0.020
 12  0.023  0.000  0.000  0.000  0.000  0.000  0.000  0.000  0.000  0.023
 13  0.018  0.000  0.000  0.000  0.000  0.000  0.000  0.000  0.000  0.019
 14  0.019  0.000  0.000  0.000  0.000  0.000  0.000  0.000  0.000  0.020
 15  0.035  0.000  0.001  0.000  0.000  0.000  0.000  0.000  0.000  0.037
 16  0.006  0.000  0.000  0.000  0.000  0.000  0.000  0.000  0.000  0.006
 17  0.004  0.000  0.000  0.000  0.000  0.000  0.000  0.000  0.000  0.004
 18  0.004  0.000  0.000  0.000  0.000  0.000  0.000  0.000  0.000  0.004
 19  0.006  0.000  0.000  0.000  0.000  0.000  0.000  0.000  0.000  0.006
 20  0.004  0.000  0.000  0.000  0.000  0.000  0.000  0.000  0.000  0.004
 21  0.035  0.000  0.000  0.001  0.000  0.000  0.000  0.000  0.000  0.037
 22  0.006  0.000  0.000  0.000  0.000  0.000  0.000  0.000  0.000  0.006
 23  0.004  0.000  0.000  0.000  0.000  0.000  0.000  0.000  0.000  0.004
 24  0.006  0.000  0.000  0.000  0.000  0.000  0.000  0.000  0.000  0.006
 25  0.004  0.000  0.000  0.000  0.000  0.000  0.000  0.000  0.000  0.004
 26  0.004  0.000  0.000  0.000  0.000  0.000  0.000  0.000  0.000  0.004
 27  0.035  0.001  0.000  0.000  0.000  0.000  0.000  0.000  0.000  0.037
 28  0.006  0.000  0.000  0.000  0.000  0.000  0.000  0.000  0.000  0.006
 29  0.004  0.000  0.000  0.000  0.000  0.000  0.000  0.000  0.000  0.004
 30  0.006  0.000  0.000  0.000  0.000  0.000  0.000  0.000  0.000  0.006
 31  0.004  0.000  0.000  0.000  0.000  0.000  0.000  0.000  0.000  0.004
 32  0.004  0.000  0.000  0.000  0.000  0.000  0.000  0.000  0.000  0.004
tot  0.546  0.012  0.012  0.012  0.000  0.000  0.000  0.000  0.000  0.583
 
band   9 # energy  -12.75137769 # occ.  2.00000000
 
ion      s     py     pz     px    dxy    dyz    dz2    dxz    dx2    tot
  1  0.000  0.000  0.000  0.000  0.000  0.000  0.000  0.000  0.000  0.000
  2  0.048  0.000  0.002  0.000  0.000  0.000  0.000  0.000  0.000  0.050
  3  0.000  0.001  0.002  0.005  0.000  0.000  0.000  0.000  0.000  0.007
  4  0.000  0.001  0.002  0.005  0.000  0.000  0.000  0.000  0.000  0.007
  5  0.121  0.000  0.000  0.004  0.000  0.000  0.000  0.000  0.000  0.125
  6  0.016  0.001  0.000  0.000  0.000  0.000  0.000  0.000  0.000  0.017
  7  0.000  0.001  0.002  0.005  0.000  0.000  0.000  0.000  0.000  0.007
  8  0.000  0.001  0.002  0.005  0.000  0.000  0.000  0.000  0.000  0.007
  9  0.048  0.000  0.002  0.000  0.000  0.000  0.000  0.000  0.000  0.050
 10  0.016  0.001  0.000  0.000  0.000  0.000  0.000  0.000  0.000  0.017
 11  0.000  0.000  0.000  0.000  0.000  0.000  0.000  0.000  0.000  0.000
 12  0.121  0.000  0.000  0.004  0.000  0.000  0.000  0.000  0.000  0.125
 13  0.000  0.000  0.000  0.000  0.000  0.000  0.000  0.000  0.000  0.000
 14  0.000  0.000  0.000  0.000  0.000  0.000  0.000  0.000  0.000  0.000
 15  0.000  0.000  0.000  0.000  0.000  0.000  0.000  0.000  0.000  0.000
 16  0.017  0.000  0.001  0.000  0.000  0.000  0.000  0.000  0.000  0.018
 17  0.000  0.000  0.000  0.000  0.000  0.000  0.000  0.000  0.000  0.000
 18  0.000  0.000  0.000  0.000  0.000  0.000  0.000  0.000  0.000  0.000
 19  0.017  0.000  0.001  0.000  0.000  0.000  0.000  0.000  0.000  0.018
 20  0.000  0.000  0.000  0.000  0.000  0.000  0.000  0.000  0.000  0.000
 21  0.000  0.000  0.000  0.000  0.000  0.000  0.000  0.000  0.000  0.000
 22  0.043  0.000  0.000  0.002  0.000  0.000  0.000  0.000  0.000  0.045
 23  0.000  0.000  0.000  0.000  0.000  0.000  0.000  0.000  0.000  0.000
 24  0.043  0.000  0.000  0.002  0.000  0.000  0.000  0.000  0.000  0.045
 25  0.000  0.000  0.000  0.000  0.000  0.000  0.000  0.000  0.000  0.000
 26  0.000  0.000  0.000  0.000  0.000  0.000  0.000  0.000  0.000  0.000
 27  0.000  0.000  0.000  0.000  0.000  0.000  0.000  0.000  0.000  0.000
 28  0.006  0.000  0.000  0.000  0.000  0.000  0.000  0.000  0.000  0.006
 29  0.000  0.000  0.000  0.000  0.000  0.000  0.000  0.000  0.000  0.000
 30  0.006  0.000  0.000  0.000  0.000  0.000  0.000  0.000  0.000  0.006
 31  0.000  0.000  0.000  0.000  0.000  0.000  0.000  0.000  0.000  0.000
 32  0.000  0.000  0.000  0.000  0.000  0.000  0.000  0.000  0.000  0.000
tot  0.503  0.004  0.012  0.030  0.000  0.000  0.000  0.000  0.000  0.549
 
band  10 # energy  -12.75137761 # occ.  2.00000000
 
ion      s     py     pz     px    dxy    dyz    dz2    dxz    dx2    tot
  1  0.000  0.000  0.000  0.000  0.000  0.000  0.000  0.000  0.000  0.000
  2  0.075  0.000  0.002  0.000  0.000  0.000  0.000  0.000  0.000  0.078
  3  0.000  0.004  0.003  0.000  0.000  0.000  0.000  0.000  0.000  0.007
  4  0.000  0.004  0.003  0.000  0.000  0.000  0.000  0.000  0.000  0.007
  5  0.003  0.000  0.000  0.000  0.000  0.000  0.000  0.000  0.000  0.003
  6  0.107  0.004  0.000  0.000  0.000  0.000  0.000  0.000  0.000  0.111
  7  0.000  0.004  0.003  0.000  0.000  0.000  0.000  0.000  0.000  0.007
  8  0.000  0.004  0.003  0.000  0.000  0.000  0.000  0.000  0.000  0.007
  9  0.075  0.000  0.002  0.000  0.000  0.000  0.000  0.000  0.000  0.078
 10  0.107  0.004  0.000  0.000  0.000  0.000  0.000  0.000  0.000  0.111
 11  0.000  0.000  0.000  0.000  0.000  0.000  0.000  0.000  0.000  0.000
 12  0.003  0.000  0.000  0.000  0.000  0.000  0.000  0.000  0.000  0.003
 13  0.000  0.000  0.000  0.000  0.000  0.000  0.000  0.000  0.000  0.000
 14  0.000  0.000  0.000  0.000  0.000  0.000  0.000  0.000  0.000  0.000
 15  0.000  0.000  0.000  0.000  0.000  0.000  0.000  0.000  0.000  0.000
 16  0.027  0.000  0.001  0.000  0.000  0.000  0.000  0.000  0.000  0.028
 17  0.000  0.000  0.000  0.000  0.000  0.000  0.000  0.000  0.000  0.000
 18  0.000  0.000  0.000  0.000  0.000  0.000  0.000  0.000  0.000  0.000
 19  0.027  0.000  0.001  0.000  0.000  0.000  0.000  0.000  0.000  0.028
 20  0.000  0.000  0.000  0.000  0.000  0.000  0.000  0.000  0.000  0.000
 21  0.000  0.000  0.000  0.000  0.000  0.000  0.000  0.000  0.000  0.000
 22  0.001  0.000  0.000  0.000  0.000  0.000  0.000  0.000  0.000  0.001
 23  0.000  0.000  0.000  0.000  0.000  0.000  0.000  0.000  0.000  0.000
 24  0.001  0.000  0.000  0.000  0.000  0.000  0.000  0.000  0.000  0.001
 25  0.000  0.000  0.000  0.000  0.000  0.000  0.000  0.000  0.000  0.000
 26  0.000  0.000  0.000  0.000  0.000  0.000  0.000  0.000  0.000  0.000
 27  0.000  0.000  0.000  0.000  0.000  0.000  0.000  0.000  0.000  0.000
 28  0.038  0.001  0.000  0.000  0.000  0.000  0.000  0.000  0.000  0.040
 29  0.000  0.000  0.000  0.000  0.000  0.000  0.000  0.000  0.000  0.000
 30  0.038  0.001  0.000  0.000  0.000  0.000  0.000  0.000  0.000  0.040
 31  0.000  0.000  0.000  0.000  0.000  0.000  0.000  0.000  0.000  0.000
 32  0.000  0.000  0.000  0.000  0.000  0.000  0.000  0.000  0.000  0.000
tot  0.503  0.027  0.019  0.001  0.000  0.000  0.000  0.000  0.000  0.549
 
band  11 # energy  -11.26187915 # occ.  2.00000000
 
ion      s     py     pz     px    dxy    dyz    dz2    dxz    dx2    tot
  1  0.000  0.000  0.000  0.000  0.000  0.000  0.000  0.000  0.000  0.000
  2  0.013  0.002  0.007  0.001  0.000  0.000  0.000  0.000  0.000  0.021
  3  0.000  0.000  0.001  0.002  0.000  0.000  0.000  0.000  0.000  0.004
  4  0.052  0.002  0.000  0.000  0.000  0.000  0.000  0.000  0.000  0.054
  5  0.026  0.003  0.002  0.014  0.000  0.000  0.000  0.000  0.000  0.045
  6  0.003  0.001  0.001  0.000  0.000  0.000  0.000  0.000  0.000  0.005
  7  0.114  0.000  0.000  0.000  0.000  0.000  0.000  0.000  0.000  0.114
  8  0.011  0.000  0.002  0.001  0.000  0.000  0.000  0.000  0.000  0.015
  9  0.013  0.005  0.007  0.004  0.000  0.000  0.000  0.000  0.000  0.028
 10  0.003  0.001  0.007  0.007  0.000  0.000  0.000  0.000  0.000  0.019
 11  0.010  0.006  0.007  0.007  0.000  0.000  0.000  0.000  0.000  0.029
 12  0.026  0.000  0.000  0.014  0.000  0.000  0.000  0.000  0.000  0.041
 13  0.001  0.001  0.000  0.001  0.000  0.000  0.000  0.000  0.000  0.003
 14  0.004  0.002  0.003  0.004  0.000  0.000  0.000  0.000  0.000  0.013
 15  0.000  0.000  0.000  0.000  0.000  0.000  0.000  0.000  0.000  0.000
 16  0.016  0.000  0.000  0.000  0.000  0.000  0.000  0.000  0.000  0.017
 17  0.004  0.000  0.000  0.000  0.000  0.000  0.000  0.000  0.000  0.005
 18  0.009  0.000  0.000  0.000  0.000  0.000  0.000  0.000  0.000  0.010
 19  0.016  0.000  0.000  0.000  0.000  0.000  0.000  0.000  0.000  0.017
 20  0.001  0.000  0.000  0.000  0.000  0.000  0.000  0.000  0.000  0.001
 21  0.000  0.000  0.000  0.000  0.000  0.000  0.000  0.000  0.000  0.000
 22  0.034  0.000  0.000  0.001  0.000  0.000  0.000  0.000  0.000  0.035
 23  0.010  0.000  0.000  0.000  0.000  0.000  0.000  0.000  0.000  0.010
 24  0.034  0.000  0.000  0.001  0.000  0.000  0.000  0.000  0.000  0.035
 25  0.001  0.000  0.000  0.000  0.000  0.000  0.000  0.000  0.000  0.001
 26  0.005  0.000  0.000  0.000  0.000  0.000  0.000  0.000  0.000  0.005
 27  0.000  0.000  0.000  0.000  0.000  0.000  0.000  0.000  0.000  0.000
 28  0.004  0.000  0.000  0.000  0.000  0.000  0.000  0.000  0.000  0.004
 29  0.001  0.000  0.000  0.000  0.000  0.000  0.000  0.000  0.000  0.001
 30  0.004  0.000  0.000  0.000  0.000  0.000  0.000  0.000  0.000  0.004
 31  0.009  0.000  0.000  0.000  0.000  0.000  0.000  0.000  0.000  0.009
 32  0.004  0.000  0.000  0.000  0.000  0.000  0.000  0.000  0.000  0.004
tot  0.428  0.025  0.038  0.058  0.000  0.000  0.000  0.000  0.000  0.548
 
band  12 # energy  -11.26187882 # occ.  2.00000000
 
ion      s     py     pz     px    dxy    dyz    dz2    dxz    dx2    tot
  1  0.000  0.000  0.000  0.000  0.000  0.000  0.000  0.000  0.000  0.000
  2  0.015  0.001  0.008  0.002  0.000  0.000  0.000  0.000  0.000  0.026
  3  0.000  0.002  0.001  0.000  0.000  0.000  0.000  0.000  0.000  0.004
  4  0.067  0.000  0.000  0.001  0.000  0.000  0.000  0.000  0.000  0.068
  5  0.001  0.000  0.000  0.001  0.000  0.000  0.000  0.000  0.000  0.002
  6  0.026  0.013  0.002  0.003  0.000  0.000  0.000  0.000  0.000  0.043
  7  0.005  0.001  0.002  0.000  0.000  0.000  0.000  0.000  0.000  0.008
  8  0.105  0.000  0.000  0.001  0.000  0.000  0.000  0.000  0.000  0.106
  9  0.015  0.003  0.008  0.004  0.000  0.000  0.000  0.000  0.000  0.030
 10  0.026  0.013  0.001  0.001  0.000  0.000  0.000  0.000  0.000  0.040
 11  0.000  0.001  0.000  0.000  0.000  0.000  0.000  0.000  0.000  0.001
 12  0.001  0.008  0.008  0.001  0.000  0.000  0.000  0.000  0.000  0.017
 13  0.009  0.007  0.006  0.005  0.000  0.000  0.000  0.000  0.000  0.027
 14  0.006  0.004  0.004  0.003  0.000  0.000  0.000  0.000  0.000  0.017
 15  0.000  0.000  0.000  0.000  0.000  0.000  0.000  0.000  0.000  0.000
 16  0.020  0.000  0.001  0.000  0.000  0.000  0.000  0.000  0.000  0.020
 17  0.006  0.000  0.000  0.000  0.000  0.000  0.000  0.000  0.000  0.006
 18  0.000  0.000  0.000  0.000  0.000  0.000  0.000  0.000  0.000  0.000
 19  0.020  0.000  0.001  0.000  0.000  0.000  0.000  0.000  0.000  0.020