Starting job 28279629 ("jobname") on c31-21 at Fri Oct 4 13:23:48 CEST 2019
 running on    6 total cores
 distrk:  each k-point on    6 cores,    1 groups
 distr:  one band on    3 cores,    2 groups
 using from now: INCAR     
 vasp.5.4.1 05Feb16 (build Mar 02 2016 14:09:44) complex                        
  
 POSCAR found type information on POSCAR  Si H 
 POSCAR found :  2 types and      32 ions
 LDA part: xc-table for Pade appr. of Perdew
 POSCAR, INCAR and KPOINTS ok, starting setup
 WARNING: small aliasing (wrap around) errors must be expected
 FFT: planning ...
 WAVECAR not read
 WARNING: random wavefunctions but no delay for mixing, default for NELMDL
 entering main loop
       N       E                     dE             d eps       ncg     rms          rms(c)
RMM:   1     0.626582378168E+03    0.62658E+03   -0.71549E+03    54   0.349E+02
RMM:   2     0.315439493083E+03   -0.31114E+03   -0.38179E+03    54   0.835E+01
RMM:   3     0.144142079084E+03   -0.17130E+03   -0.26613E+03    54   0.896E+01
RMM:   4    -0.275625947619E+02   -0.17170E+03   -0.16533E+03    54   0.845E+01
RMM:   5    -0.102013354813E+03   -0.74451E+02   -0.70296E+02    54   0.647E+01
RMM:   6    -0.123387144285E+03   -0.21374E+02   -0.20157E+02    54   0.398E+01
RMM:   7    -0.129685435043E+03   -0.62983E+01   -0.56445E+01    54   0.221E+01
RMM:   8    -0.131696882488E+03   -0.20114E+01   -0.17154E+01    54   0.127E+01
RMM:   9    -0.132518714261E+03   -0.82183E+00   -0.75443E+00   132   0.737E+00
RMM:  10    -0.132699428591E+03   -0.18071E+00   -0.15571E+00   155   0.296E+00
RMM:  11    -0.132707767617E+03   -0.83390E-02   -0.85153E-02   142   0.559E-01
RMM:  12    -0.132708607596E+03   -0.83998E-03   -0.72259E-03   149   0.187E-01    0.168E+01
RMM:  13    -0.125557845186E+03    0.71508E+01   -0.52916E+00   121   0.512E+00    0.905E+00
RMM:  14    -0.122561901706E+03    0.29959E+01   -0.94711E+00   123   0.696E+00    0.149E+00
RMM:  15    -0.122465372359E+03    0.96529E-01   -0.69862E-01   128   0.200E+00    0.802E-01
RMM:  16    -0.122428168520E+03    0.37204E-01   -0.97507E-02   131   0.768E-01    0.290E-01
RMM:  17    -0.122424217109E+03    0.39514E-02   -0.48393E-02   123   0.501E-01    0.203E-01
RMM:  18    -0.122421414802E+03    0.28023E-02   -0.66467E-03   132   0.182E-01    0.107E-01
RMM:  19    -0.122431540334E+03   -0.10126E-01   -0.21667E-02   116   0.253E-01    0.965E-02
RMM:  20    -0.122431253379E+03    0.28695E-03   -0.89733E-04   125   0.799E-02    0.539E-02
RMM:  21    -0.122439224063E+03   -0.79707E-02   -0.41909E-03   115   0.125E-01    0.405E-02
RMM:  22    -0.122439529006E+03   -0.30494E-03   -0.27163E-04   125   0.368E-02    0.189E-02
RMM:  23    -0.122444538884E+03   -0.50099E-02   -0.90593E-04   114   0.568E-02    0.148E-02
RMM:  24    -0.122445155602E+03   -0.61672E-03   -0.84153E-05   125   0.185E-02    0.775E-03
RMM:  25    -0.122446532709E+03   -0.13771E-02   -0.20801E-04   118   0.230E-02    0.441E-03
RMM:  26    -0.122446592686E+03   -0.59977E-04   -0.10919E-05   113   0.613E-03    0.322E-03
RMM:  27    -0.122446836049E+03   -0.24336E-03   -0.20089E-05   108   0.793E-03    0.174E-03
RMM:  28    -0.122446861395E+03   -0.25346E-04   -0.25785E-06    93   0.310E-03    0.138E-03
RMM:  29    -0.122446903662E+03   -0.42267E-04   -0.21550E-06    86   0.309E-03    0.558E-04
RMM:  30    -0.122446912662E+03   -0.90000E-05   -0.43576E-07    83   0.155E-03    0.423E-04
RMM:  31    -0.122446921948E+03   -0.92862E-05   -0.28546E-07    75   0.132E-03    0.332E-04
RMM:  32    -0.122446924799E+03   -0.28507E-05   -0.56792E-08    49   0.843E-04    0.124E-04
RMM:  33    -0.122446926500E+03   -0.17009E-05   -0.45724E-08    47   0.861E-04    0.136E-04
RMM:  34    -0.122446927665E+03   -0.11652E-05   -0.42402E-08    44   0.769E-04    0.895E-05
RMM:  35    -0.122446927871E+03   -0.20621E-06   -0.68115E-09    28   0.677E-04
   1 F= -.12244693E+03 E0= -.12244693E+03  d E =-.443780E-10

Currently Loaded Modulefiles:
  1) Anaconda3/5.1.0       3) vesta/3.3.8           5) intel/2016.1
  2) gnuplot/5.0.4         4) imagemagick/6.7.9-0   6) vasp/5.4.1.Feb16

Job script resource usage:
       JobID  MaxVMSize     MaxRSS 
------------ ---------- ---------- 
28279629.ba+    499280K      6488K 

Job step resource usage:
       JobID    JobName  AllocCPUS  MaxVMSize     MaxRSS    Elapsed ExitCode 
------------ ---------- ---------- ---------- ---------- ---------- -------- 
28279629        jobname          6                         00:01:12      0:0 
28279629.0    pmi_proxy          1   2693144K    890804K   00:01:11      0:0 

Job 28279629 ("jobname") completed on c31-21 at Fri Oct 4 13:24:59 CEST 2019
