unknown system                          
           1
    20.231010    0.000000    0.000000
     0.000000   20.231010    0.000000
     0.000000    0.000000   20.231010
   Si   H 
  14  18
Direct configuration=     1
   0.00000000  0.00000000  0.00000000
   0.13422464  0.13422464  0.00000000
   0.06711232  0.06711232  0.06711232
   0.20133745  0.20133745  0.06711232
   0.00000000  0.13422464  0.13422464
   0.13422464  0.00000000  0.13422464
   0.06711232  0.20133745  0.20133745
   0.20133745  0.06711232  0.20133745
   0.13422464  0.13422464  0.26844977
   0.13422464  0.26844977  0.13422464
   0.00000000  0.26844977  0.26844977
   0.26844977  0.13422464  0.13422464
   0.26844977  0.00000000  0.26844977
   0.26844977  0.26844977  0.00000000
   0.00000000  0.00000000  0.93079881
   0.13422464  0.13422464  0.93079881
   0.26844977  0.26844977  0.93079881
   0.00000000  0.26844977  0.33765047
   0.13422464  0.13422464  0.33765047
   0.26844977  0.00000000  0.33765047
   0.93079881  0.00000000  0.00000000
   0.93079881  0.13422464  0.13422464
   0.93079881  0.26844977  0.26844977
   0.33765047  0.13422464  0.13422464
   0.33765047  0.00000000  0.26844977
   0.33765047  0.26844977  0.00000000
   0.00000000  0.93079881  0.00000000
   0.13422464  0.93079881  0.13422464
   0.26844977  0.93079881  0.26844977
   0.13422464  0.33765047  0.13422464
   0.00000000  0.33765047  0.26844977
   0.26844977  0.33765047  0.00000000
