unknown system                          
   1.00000000000000     
     2.573869    0.000000    0.000000
     1.286934    2.229036    0.000000
     0.000000    0.000000   30.304665
   Cu   H 
     4     1
Direct
  0.000000  0.000000  0.396440
  0.333332  0.333332  0.465152
  0.666668  0.666665  0.533916
  0.000000  0.000000  0.606744
  0.333332  0.333332  0.631467
 
   20   20  240
 0.47904E-01 0.44119E-01 0.34679E-01 0.23157E-01 0.13084E-01 0.64108E-02 0.28795E-02 0.80661E-03 -.11674E-02 -.29800E-02
 -.37249E-02 -.29606E-02 -.11675E-02 0.91370E-03 0.32064E-02 0.67265E-02 0.13084E-01 0.22979E-01 0.34697E-01 0.44301E-01
 0.44119E-01 0.37590E-01 0.27491E-01 0.17033E-01 0.87917E-02 0.36745E-02 0.59427E-03 -.21226E-02 -.47707E-02 -.62159E-02
 -.56719E-02 -.37050E-02 -.13868E-02 0.87810E-03 0.36757E-02 0.83613E-02 0.16269E-01 0.27095E-01 0.37873E-01 0.44395E-01
 0.34679E-01 0.27491E-01 0.18603E-01 0.10258E-01 0.39099E-02 -.66806E-03 -.49869E-02 -.97017E-02 -.13436E-01 -.14405E-01
 -.12491E-01 -.89961E-02 -.50498E-02 -.95727E-03 0.36461E-02 0.97213E-02 0.18056E-01 0.27610E-01 0.35210E-01 0.37787E-01
 0.23157E-01 0.17033E-01 0.10258E-01 0.39828E-02 -.15908E-02 -.76189E-02 -.15062E-01 -.22576E-01 -.27136E-01 -.26902E-01
 -.22523E-01 -.15815E-01 -.84076E-02 -.15268E-02 0.44334E-02 0.10337E-01 0.17063E-01 0.23609E-01 0.27486E-01 0.27155E-01
 0.13084E-01 0.87917E-02 0.39099E-02 -.15908E-02 -.86477E-02 -.18441E-01 -.30059E-01 -.39692E-01 -.43328E-01 -.39826E-01
 -.30941E-01 -.19556E-01 -.86489E-02 -.48923E-03 0.47232E-02 0.87971E-02 0.13079E-01 0.16684E-01 0.17903E-01 0.16397E-01
 0.64108E-02 0.36745E-02 -.66806E-03 -.76189E-02 -.18441E-01 -.32932E-01 -.47461E-01 -.56403E-01 -.56206E-01 -.47447E-01
 -.33492E-01 -.18598E-01 -.67236E-02 0.18072E-03 0.34010E-02 0.57167E-02 0.81915E-02 0.97531E-02 0.95923E-02 0.82781E-02
 0.28795E-02 0.59427E-03 -.49869E-02 -.15062E-01 -.30059E-01 -.47461E-01 -.61386E-01 -.66215E-01 -.60486E-01 -.46918E-01
 -.30077E-01 -.14757E-01 -.45713E-02 0.19776E-04 0.16508E-02 0.28757E-02 0.38628E-02 0.38859E-02 0.34188E-02 0.32830E-02
 0.80661E-03 -.21226E-02 -.97017E-02 -.22576E-01 -.39692E-01 -.56403E-01 -.66215E-01 -.65463E-01 -.55290E-01 -.39599E-01
 -.22923E-01 -.96519E-02 -.23931E-02 -.23435E-03 -.21278E-03 -.63916E-03 -.15012E-02 -.22228E-02 -.15261E-02 0.26231E-03
 -.11674E-02 -.47707E-02 -.13436E-01 -.27136E-01 -.43328E-01 -.56206E-01 -.60486E-01 -.55290E-01 -.43329E-01 -.28195E-01
 -.13836E-01 -.42769E-02 -.11629E-02 -.25045E-02 -.53244E-02 -.82048E-02 -.10206E-01 -.96437E-02 -.61094E-02 -.21586E-02
 -.29800E-02 -.62159E-02 -.14405E-01 -.26902E-01 -.39826E-01 -.47447E-01 -.46918E-01 -.39599E-01 -.28195E-01 -.15481E-01
 -.54114E-02 -.17502E-02 -.46214E-02 -.10675E-01 -.16748E-01 -.21112E-01 -.21869E-01 -.17670E-01 -.10439E-01 -.45602E-02
 -.37249E-02 -.56719E-02 -.12491E-01 -.22523E-01 -.30941E-01 -.33492E-01 -.30077E-01 -.22923E-01 -.13836E-01 -.54114E-02
 -.19845E-02 -.60679E-02 -.15372E-01 -.25435E-01 -.33257E-01 -.36758E-01 -.33796E-01 -.24753E-01 -.14047E-01 -.64907E-02
 -.29606E-02 -.37050E-02 -.89961E-02 -.15815E-01 -.19556E-01 -.18598E-01 -.14757E-01 -.96519E-02 -.42769E-02 -.17502E-02
 -.60679E-02 -.17284E-01 -.31060E-01 -.43048E-01 -.50627E-01 -.51154E-01 -.43055E-01 -.29261E-01 -.15914E-01 -.70035E-02
 -.11675E-02 -.13868E-02 -.50498E-02 -.84076E-02 -.86489E-02 -.67236E-02 -.45713E-02 -.23931E-02 -.11629E-02 -.46214E-02
 -.15372E-01 -.31060E-01 -.46827E-01 -.59056E-01 -.64681E-01 -.60500E-01 -.46825E-01 -.29460E-01 -.14954E-01 -.56499E-02
 0.91370E-03 0.87810E-03 -.95727E-03 -.15268E-02 -.48923E-03 0.18072E-03 0.19776E-04 -.23435E-03 -.25045E-02 -.10675E-01
 -.25435E-01 -.43048E-01 -.59056E-01 -.69802E-01 -.71227E-01 -.61066E-01 -.42984E-01 -.24700E-01 -.11271E-01 -.29967E-02
 0.32064E-02 0.36757E-02 0.36461E-02 0.44334E-02 0.47232E-02 0.34010E-02 0.16508E-02 -.21278E-03 -.53244E-02 -.16748E-01
 -.33257E-01 -.50627E-01 -.64681E-01 -.71227E-01 -.66559E-01 -.51466E-01 -.32588E-01 -.16897E-01 -.64108E-02 0.73592E-04
 0.67265E-02 0.83613E-02 0.97213E-02 0.10337E-01 0.87971E-02 0.57167E-02 0.28757E-02 -.63916E-03 -.82048E-02 -.21112E-01
 -.36758E-01 -.51154E-01 -.60500E-01 -.61066E-01 -.51466E-01 -.35604E-01 -.20268E-01 -.91857E-02 -.16605E-02 0.36091E-02
 0.13084E-01 0.16269E-01 0.18056E-01 0.17063E-01 0.13079E-01 0.81915E-02 0.38628E-02 -.15012E-02 -.10206E-01 -.21869E-01
 -.33796E-01 -.43055E-01 -.46825E-01 -.42984E-01 -.32588E-01 -.20268E-01 -.10203E-01 -.28217E-02 0.33933E-02 0.88314E-02
 0.22979E-01 0.27095E-01 0.27610E-01 0.23609E-01 0.16684E-01 0.97531E-02 0.38859E-02 -.22228E-02 -.96437E-02 -.17670E-01
 -.24753E-01 -.29261E-01 -.29460E-01 -.24700E-01 -.16897E-01 -.91857E-02 -.28217E-02 0.32578E-02 0.99915E-02 0.16899E-01
 0.34697E-01 0.37873E-01 0.35210E-01 0.27486E-01 0.17903E-01 0.95923E-02 0.34188E-02 -.15261E-02 -.61094E-02 -.10439E-01
 -.14047E-01 -.15914E-01 -.14954E-01 -.11271E-01 -.64108E-02 -.16605E-02 0.33933E-02 0.99915E-02 0.18395E-01 0.27362E-01
 0.44301E-01 0.44395E-01 0.37787E-01 0.27155E-01 0.16397E-01 0.82781E-02 0.32830E-02 0.26231E-03 -.21586E-02 -.45602E-02
 -.64907E-02 -.70035E-02 -.56499E-02 -.29967E-02 0.73592E-04 0.36091E-02 0.88314E-02 0.16899E-01 0.27362E-01 0.37698E-01
 -.22648E-01 -.20794E-01 -.16564E-01 -.11117E-01 -.57669E-02 -.18806E-02 -.47282E-04 0.34313E-03 0.20842E-03 -.10168E-03
 -.44628E-03 -.39710E-03 0.20930E-03 0.69567E-03 0.10864E-03 -.20158E-02 -.57691E-02 -.11020E-01 -.16817E-01 -.21246E-01
 -.20794E-01 -.17815E-01 -.12890E-01 -.75270E-02 -.32273E-02 -.84650E-03 -.19179E-03 -.36725E-03 -.57512E-03 -.51200E-03
 -.17867E-03 0.30169E-03 0.61292E-03 0.27659E-03 -.11300E-02 -.38712E-02 -.80074E-02 -.13093E-01 -.17904E-01 -.20831E-01
 -.16564E-01 -.12890E-01 -.82032E-02 -.41784E-02 -.16957E-02 -.66850E-03 -.50208E-03 -.52687E-03 -.30411E-03 0.12837E-03
 0.38015E-03 0.22166E-03 -.20850E-03 -.85593E-03 -.21449E-02 -.46320E-02 -.83485E-02 -.12591E-01 -.16162E-01 -.17761E-01
 -.11117E-01 -.75270E-02 -.41784E-02 -.20608E-02 -.95782E-03 -.38834E-03 -.15673E-03 -.35691E-04 0.18875E-03 0.26761E-03
 -.15980E-03 -.77725E-03 -.96005E-03 -.93788E-03 -.17633E-02 -.40248E-02 -.72541E-02 -.10521E-01 -.12848E-01 -.13201E-01
 -.57669E-02 -.32273E-02 -.16957E-02 -.95782E-03 -.30541E-03 0.17321E-03 0.16042E-03 -.15547E-04 -.43203E-04 -.27511E-03
 -.81819E-03 -.93396E-03 -.30582E-03 0.12388E-04 -.10981E-02 -.33641E-02 -.57715E-02 -.77261E-02 -.87400E-02 -.80702E-02
 -.18806E-02 -.84650E-03 -.66850E-03 -.38834E-03 0.17321E-03 0.23094E-03 -.23552E-03 -.37668E-03 -.12348E-03 -.18771E-03
 -.43857E-03 -.79499E-04 0.55300E-03 0.18646E-03 -.13194E-02 -.28104E-02 -.37194E-02 -.43795E-02 -.45582E-02 -.35663E-02
 -.47282E-04 -.19179E-03 -.50208E-03 -.15673E-03 0.16042E-03 -.23552E-03 -.51831E-03 0.66203E-04 0.65633E-03 0.38211E-03
 -.34446E-04 0.16901E-03 0.23037E-03 -.57460E-03 -.13774E-02 -.13042E-02 -.10648E-02 -.14046E-02 -.15533E-02 -.80038E-03
 0.34313E-03 -.36725E-03 -.52687E-03 -.35691E-04 -.15547E-04 -.37668E-03 0.66203E-04 0.10419E-02 0.10131E-02 -.38313E-04
 -.58323E-03 -.29873E-03 -.28508E-03 -.58721E-03 -.14425E-03 0.78473E-03 0.79099E-03 -.37471E-04 -.22023E-03 0.35295E-03
 0.20842E-03 -.57512E-03 -.30411E-03 0.18875E-03 -.43203E-04 -.12348E-03 0.65633E-03 0.10131E-02 -.43688E-04 -.11422E-02
 -.84301E-03 0.62703E-05 0.21235E-03 0.42667E-03 0.13432E-02 0.18337E-02 0.10218E-02 0.18602E-03 0.50082E-03 0.89514E-03
 -.10168E-03 -.51200E-03 0.12837E-03 0.26761E-03 -.27511E-03 -.18771E-03 0.38211E-03 -.38313E-04 -.11422E-02 -.10636E-02
 0.24613E-03 0.98351E-03 0.82263E-03 0.11404E-02 0.19568E-02 0.18557E-02 0.97642E-03 0.90094E-03 0.15202E-02 0.11671E-02
 -.44628E-03 -.17867E-03 0.38015E-03 -.15980E-03 -.81819E-03 -.43857E-03 -.34446E-04 -.58323E-03 -.84301E-03 0.24613E-03
 0.13133E-02 0.10688E-02 0.73371E-03 0.16173E-02 0.26057E-02 0.24104E-02 0.19730E-02 0.22888E-02 0.22094E-02 0.80225E-03
 -.39710E-03 0.30169E-03 0.22166E-03 -.77725E-03 -.93396E-03 -.79499E-04 0.16901E-03 -.29873E-03 0.62703E-05 0.98351E-03
 0.10688E-02 0.54314E-03 0.12875E-02 0.31799E-02 0.41087E-02 0.36124E-02 0.31821E-02 0.30019E-02 0.18221E-02 0.67958E-04
 0.20930E-03 0.61292E-03 -.20850E-03 -.96005E-03 -.30582E-03 0.55300E-03 0.23037E-03 -.28508E-03 0.21235E-03 0.82263E-03
 0.73371E-03 0.12875E-02 0.33980E-02 0.52708E-02 0.51430E-02 0.40231E-02 0.34003E-02 0.26413E-02 0.10197E-02 -.13355E-03
 0.69567E-03 0.27659E-03 -.85593E-03 -.93788E-03 0.12388E-04 0.18646E-03 -.57460E-03 -.58721E-03 0.42667E-03 0.11404E-02
 0.16173E-02 0.31799E-02 0.52708E-02 0.57690E-02 0.45429E-02 0.35028E-02 0.31271E-02 0.21631E-02 0.71496E-03 0.28413E-03
 0.10864E-03 -.11300E-02 -.21449E-02 -.17633E-02 -.10981E-02 -.13194E-02 -.13774E-02 -.14425E-03 0.13432E-02 0.19568E-02
 0.26057E-02 0.41087E-02 0.51430E-02 0.45429E-02 0.35057E-02 0.33295E-02 0.31070E-02 0.18256E-02 0.55496E-03 0.34120E-03
 -.20158E-02 -.38712E-02 -.46320E-02 -.40248E-02 -.33641E-02 -.28104E-02 -.13042E-02 0.78473E-03 0.18337E-02 0.18557E-02
 0.24104E-02 0.36124E-02 0.40231E-02 0.35028E-02 0.33295E-02 0.34756E-02 0.26164E-02 0.87772E-03 -.25166E-03 -.75722E-03
 -.57691E-02 -.80074E-02 -.83485E-02 -.72541E-02 -.57715E-02 -.37194E-02 -.10648E-02 0.79099E-03 0.10218E-02 0.97642E-03
 0.19730E-02 0.31821E-02 0.34003E-02 0.31271E-02 0.31070E-02 0.26164E-02 0.10249E-02 -.68937E-03 -.17635E-02 -.32131E-02
 -.11020E-01 -.13093E-01 -.12591E-01 -.10521E-01 -.77261E-02 -.43795E-02 -.14046E-02 -.37471E-04 0.18602E-03 0.90094E-03
 0.22888E-02 0.30019E-02 0.26413E-02 0.21631E-02 0.18256E-02 0.87772E-03 -.68937E-03 -.22012E-02 -.40653E-02 -.72654E-02
 -.16817E-01 -.17904E-01 -.16162E-01 -.12848E-01 -.87400E-02 -.45582E-02 -.15533E-02 -.22023E-03 0.50082E-03 0.15202E-02
 0.22094E-02 0.18221E-02 0.10197E-02 0.71496E-03 0.55496E-03 -.25166E-03 -.17635E-02 -.40653E-02 -.78323E-02 -.12793E-01
 -.21246E-01 -.20831E-01 -.17761E-01 -.13201E-01 -.80702E-02 -.35663E-02 -.80038E-03 0.35295E-03 0.89514E-03 0.11671E-02
 0.80225E-03 0.67958E-04 -.13355E-03 0.28413E-03 0.34120E-03 -.75722E-03 -.32131E-02 -.72654E-02 -.12793E-01 -.18229E-01
 -.47546E-01 -.43438E-01 -.34427E-01 -.23272E-01 -.12730E-01 -.53483E-02 -.17571E-02 -.10160E-03 0.14743E-02 0.27552E-02
 0.28477E-02 0.21451E-02 0.14751E-02 0.49404E-03 -.17739E-02 -.59345E-02 -.12733E-01 -.22898E-01 -.34952E-01 -.44524E-01
 -.43438E-01 -.37119E-01 -.27202E-01 -.16543E-01 -.79192E-02 -.28242E-02 -.32287E-03 0.17309E-02 0.41097E-02 0.57918E-02
 0.59152E-02 0.47991E-02 0.29565E-02 0.33087E-03 -.33918E-02 -.87771E-02 -.16741E-01 -.27214E-01 -.37580E-01 -.43789E-01
 -.34427E-01 -.27202E-01 -.18057E-01 -.97115E-02 -.36674E-02 0.55469E-03 0.46249E-02 0.93708E-02 0.13656E-01 0.15513E-01
 0.14081E-01 0.10164E-01 0.52758E-02 0.47048E-03 -.43002E-02 -.10082E-01 -.17803E-01 -.26724E-01 -.34156E-01 -.37125E-01
 -.23272E-01 -.16543E-01 -.97115E-02 -.40418E-02 0.12624E-02 0.76979E-02 0.15582E-01 0.23345E-01 0.28286E-01 0.28211E-01
 0.23045E-01 0.15092E-01 0.73422E-02 0.12392E-02 -.38959E-02 -.94832E-02 -.16028E-01 -.22531E-01 -.26942E-01 -.27318E-01
 -.12730E-01 -.79192E-02 -.36674E-02 0.12624E-02 0.89753E-02 0.19672E-01 0.31162E-01 0.40191E-01 0.43633E-01 0.39806E-01
 0.30085E-01 0.18571E-01 0.89750E-02 0.21014E-02 -.32863E-02 -.81986E-02 -.12732E-01 -.16416E-01 -.18167E-01 -.16822E-01
 -.53483E-02 -.28242E-02 0.55469E-03 0.76979E-02 0.19672E-01 0.34144E-01 0.47323E-01 0.55600E-01 0.55910E-01 0.47406E-01
 0.33364E-01 0.19323E-01 0.86864E-02 0.14165E-02 -.34981E-02 -.65148E-02 -.82848E-02 -.95023E-02 -.97005E-02 -.80669E-02
 -.17571E-02 -.32287E-03 0.46249E-02 0.15582E-01 0.31162E-01 0.47323E-01 0.60108E-01 0.65846E-01 0.61559E-01 0.48016E-01
 0.30787E-01 0.15928E-01 0.56774E-02 -.51214E-03 -.31906E-02 -.32381E-02 -.27339E-02 -.30155E-02 -.32655E-02 -.26350E-02
 -.10160E-03 0.17309E-02 0.93708E-02 0.23345E-01 0.40191E-01 0.55600E-01 0.65846E-01 0.67046E-01 0.57269E-01 0.40051E-01
 0.22595E-01 0.97781E-02 0.21677E-02 -.92146E-03 -.12088E-03 0.23240E-02 0.33711E-02 0.24355E-02 0.12014E-02 0.39986E-03
 0.14743E-02 0.41097E-02 0.13656E-01 0.28286E-01 0.43633E-01 0.55910E-01 0.61559E-01 0.57269E-01 0.43634E-01 0.26682E-01
 0.12977E-01 0.47783E-02 0.14757E-02 0.25972E-02 0.67229E-02 0.10257E-01 0.10523E-01 0.83967E-02 0.58212E-02 0.31897E-02
 0.27552E-02 0.57918E-02 0.15513E-01 0.28211E-01 0.39806E-01 0.47406E-01 0.48016E-01 0.40051E-01 0.26682E-01 0.14205E-01
 0.65049E-02 0.36953E-02 0.53353E-02 0.11015E-01 0.17849E-01 0.21502E-01 0.20498E-01 0.16657E-01 0.11540E-01 0.59655E-02
 0.28477E-02 0.59152E-02 0.14081E-01 0.23045E-01 0.30085E-01 0.33364E-01 0.30787E-01 0.22595E-01 0.12977E-01 0.65049E-02
 0.46287E-02 0.72167E-02 0.14510E-01 0.24935E-01 0.33653E-01 0.36356E-01 0.32928E-01 0.25598E-01 0.16137E-01 0.71051E-02
 0.21451E-02 0.47991E-02 0.10164E-01 0.15092E-01 0.18571E-01 0.19323E-01 0.15928E-01 0.97781E-02 0.47783E-02 0.36953E-02
 0.72167E-02 0.15892E-01 0.29329E-01 0.43389E-01 0.51779E-01 0.51313E-01 0.43401E-01 0.30959E-01 0.17078E-01 0.61493E-02
 0.14751E-02 0.29565E-02 0.52758E-02 0.73422E-02 0.89750E-02 0.86864E-02 0.56774E-02 0.21677E-02 0.14757E-02 0.53353E-02
 0.14510E-01 0.29329E-01 0.47129E-01 0.61359E-01 0.66058E-01 0.60307E-01 0.47132E-01 0.30437E-01 0.14665E-01 0.44529E-02
 0.49404E-03 0.33087E-03 0.47048E-03 0.12392E-02 0.21014E-02 0.14165E-02 -.51214E-03 -.92146E-03 0.25972E-02 0.11015E-01
 0.24935E-01 0.43389E-01 0.61359E-01 0.71714E-01 0.70687E-01 0.59833E-01 0.43221E-01 0.25294E-01 0.10762E-01 0.28034E-02
 -.17739E-02 -.33918E-02 -.43002E-02 -.38959E-02 -.32863E-02 -.34981E-02 -.31906E-02 -.12088E-03 0.67229E-02 0.17849E-01
 0.33653E-01 0.51779E-01 0.66058E-01 0.70687E-01 0.64662E-01 0.51059E-01 0.33987E-01 0.17735E-01 0.62323E-02 0.56257E-03
 -.59345E-02 -.87771E-02 -.10082E-01 -.94832E-02 -.81986E-02 -.65148E-02 -.32381E-02 0.23240E-02 0.10257E-01 0.21502E-01
 0.36356E-01 0.51313E-01 0.60307E-01 0.59833E-01 0.51059E-01 0.37329E-01 0.22176E-01 0.93247E-02 0.12742E-02 -.28754E-02
 -.12733E-01 -.16741E-01 -.17803E-01 -.16028E-01 -.12732E-01 -.82848E-02 -.27339E-02 0.33711E-02 0.10523E-01 0.20498E-01
 0.32928E-01 0.43401E-01 0.47132E-01 0.43221E-01 0.33987E-01 0.22176E-01 0.10526E-01 0.17320E-02 -.36605E-02 -.79123E-02
 -.22898E-01 -.27214E-01 -.26724E-01 -.22531E-01 -.16416E-01 -.95023E-02 -.30155E-02 0.24355E-02 0.83967E-02 0.16657E-01
 0.25598E-01 0.30959E-01 0.30437E-01 0.25294E-01 0.17735E-01 0.93247E-02 0.17320E-02 -.39819E-02 -.91152E-02 -.15712E-01
 -.34952E-01 -.37580E-01 -.34156E-01 -.26942E-01 -.18167E-01 -.97005E-02 -.32655E-02 0.12014E-02 0.58212E-02 0.11540E-01
 0.16137E-01 0.17078E-01 0.14665E-01 0.10762E-01 0.62323E-02 0.12742E-02 -.36605E-02 -.91152E-02 -.16845E-01 -.26708E-01
 -.44524E-01 -.43789E-01 -.37125E-01 -.27318E-01 -.16822E-01 -.80669E-02 -.26350E-02 0.39986E-03 0.31897E-02 0.59655E-02
 0.71051E-02 0.61493E-02 0.44529E-02 0.28034E-02 0.56257E-03 -.28754E-02 -.79123E-02 -.15712E-01 -.26708E-01 -.37972E-01
 0.21381E-01 0.20610E-01 0.15916E-01 0.99593E-02 0.57058E-02 0.32138E-02 0.12880E-02 0.12410E-03 0.13669E-03 0.25069E-03
 -.36371E-03 -.67362E-03 0.13659E-03 0.96079E-03 0.10968E-02 0.21768E-02 0.57038E-02 0.10610E-01 0.15122E-01 0.18891E-01
 0.20610E-01 0.17514E-01 0.12023E-01 0.71253E-02 0.40714E-02 0.19202E-02 0.20812E-03 -.36214E-03 0.96554E-04 0.41123E-03
 0.32552E-03 0.59960E-03 0.11085E-02 0.10456E-02 0.10676E-02 0.29997E-02 0.72093E-02 0.12202E-01 0.16681E-01 0.19946E-01
 0.15916E-01 0.12023E-01 0.76226E-02 0.43034E-02 0.20829E-02 0.49829E-03 -.17260E-03 0.30282E-03 0.11426E-02 0.14488E-02
 0.13093E-02 0.11407E-02 0.83595E-03 0.51788E-03 0.12667E-02 0.40150E-02 0.82744E-02 0.12679E-01 0.16058E-01 0.17409E-01
 0.99593E-02 0.71253E-02 0.43034E-02 0.20721E-02 0.77270E-03 0.49773E-03 0.98552E-03 0.16623E-02 0.19751E-02 0.17456E-02
 0.11854E-02 0.62706E-03 0.35907E-03 0.70774E-03 0.20666E-02 0.46053E-02 0.78815E-02 0.10845E-01 0.12384E-01 0.11984E-01
 0.57058E-02 0.40714E-02 0.20829E-02 0.77270E-03 0.86320E-03 0.16243E-02 0.19376E-02 0.17336E-02 0.15001E-02 0.12221E-02
 0.76249E-03 0.52886E-03 0.86354E-03 0.14810E-02 0.22469E-02 0.36487E-02 0.57075E-02 0.73348E-02 0.76143E-02 0.68668E-02
 0.32138E-02 0.19202E-02 0.49829E-03 0.49773E-03 0.16243E-02 0.20171E-02 0.12830E-02 0.84023E-03 0.12078E-02 0.14010E-02
 0.11256E-02 0.11773E-02 0.15332E-02 0.13669E-02 0.10450E-02 0.18103E-02 0.34128E-02 0.42891E-02 0.40711E-02 0.36950E-02
 0.12880E-02 0.20812E-03 -.17260E-03 0.98552E-03 0.19376E-02 0.12830E-02 0.49000E-03 0.11710E-02 0.22187E-02 0.20514E-02
 0.13823E-02 0.13521E-02 0.12002E-02 0.21307E-03 -.24870E-03 0.90843E-03 0.22689E-02 0.22749E-02 0.16940E-02 0.16109E-02
 0.12410E-03 -.36214E-03 0.30282E-03 0.16623E-02 0.17336E-02 0.84023E-03 0.11710E-02 0.25966E-02 0.27887E-02 0.14761E-02
 0.70924E-03 0.88931E-03 0.43017E-03 -.58446E-03 -.32985E-03 0.10239E-02 0.13105E-02 0.26771E-03 -.21659E-03 0.21404E-03
 0.13669E-03 0.96554E-04 0.11426E-02 0.19751E-02 0.15001E-02 0.12078E-02 0.22187E-02 0.27887E-02 0.15034E-02 0.99729E-04
 0.32481E-03 0.85236E-03 0.13499E-03 -.57524E-03 0.57074E-04 0.58185E-03 -.43641E-03 -.14908E-02 -.90410E-03 0.14180E-03
 0.25069E-03 0.41123E-03 0.14488E-02 0.17456E-02 0.12221E-02 0.14010E-02 0.20514E-02 0.14761E-02 0.99729E-04 0.26656E-04
 0.10796E-02 0.10448E-02 -.21874E-03 -.72858E-03 -.32783E-03 -.77280E-03 -.19005E-02 -.16556E-02 -.58364E-04 0.69855E-03
 -.36371E-03 0.32552E-03 0.13093E-02 0.11854E-02 0.76249E-03 0.11256E-02 0.13823E-02 0.70924E-03 0.32481E-03 0.10796E-02
 0.14382E-02 0.18708E-03 -.12258E-02 -.13355E-02 -.11689E-02 -.18019E-02 -.19863E-02 -.68170E-03 0.55114E-03 0.23015E-03
 -.67362E-03 0.59960E-03 0.11407E-02 0.62706E-03 0.52886E-03 0.11773E-02 0.13521E-02 0.88931E-03 0.85236E-03 0.10448E-02
 0.18708E-03 -.13891E-02 -.20202E-02 -.16478E-02 -.16884E-02 -.21221E-02 -.16260E-02 -.47633E-03 -.29738E-03 -.94723E-03
 0.13659E-03 0.11085E-02 0.83595E-03 0.35907E-03 0.86354E-03 0.15332E-02 0.12002E-02 0.43017E-03 0.13499E-03 -.21874E-03
 -.12258E-02 -.20202E-02 -.18769E-02 -.16951E-02 -.22309E-02 -.25517E-02 -.18754E-02 -.11591E-02 -.12026E-02 -.10263E-02
 0.96079E-03 0.10456E-02 0.51788E-03 0.70774E-03 0.14810E-02 0.13669E-02 0.21307E-03 -.58446E-03 -.57524E-03 -.72858E-03
 -.13355E-02 -.16478E-02 -.16951E-02 -.22860E-02 -.31143E-02 -.29779E-02 -.19313E-02 -.11621E-02 -.80833E-03 -.20276E-04
 0.10968E-02 0.10676E-02 0.12667E-02 0.20666E-02 0.22469E-02 0.10450E-02 -.24870E-03 -.32985E-03 0.57074E-04 -.32783E-03
 -.11689E-02 -.16884E-02 -.22309E-02 -.31143E-02 -.33830E-02 -.23469E-02 -.10022E-02 -.42405E-03 -.13461E-03 0.55132E-03
 0.21768E-02 0.29997E-02 0.40150E-02 0.46053E-02 0.36487E-02 0.18103E-02 0.90843E-03 0.10239E-02 0.58185E-03 -.77280E-03
 -.18019E-02 -.21221E-02 -.25517E-02 -.29779E-02 -.23469E-02 -.92203E-03 -.18669E-03 -.32625E-03 -.37360E-04 0.10880E-02
 0.57038E-02 0.72093E-02 0.82744E-02 0.78815E-02 0.57075E-02 0.34128E-02 0.22689E-02 0.13105E-02 -.43641E-03 -.19005E-02
 -.19863E-02 -.16260E-02 -.18754E-02 -.19313E-02 -.10022E-02 -.18669E-03 -.43490E-03 -.48662E-03 0.11153E-02 0.36517E-02
 0.10610E-01 0.12202E-01 0.12679E-01 0.10845E-01 0.73348E-02 0.42891E-02 0.22749E-02 0.26771E-03 -.14908E-02 -.16556E-02
 -.68170E-03 -.47633E-03 -.11591E-02 -.11621E-02 -.42405E-03 -.32625E-03 -.48662E-03 0.11384E-02 0.47474E-02 0.82812E-02
 0.15122E-01 0.16681E-01 0.16058E-01 0.12384E-01 0.76143E-02 0.40711E-02 0.16940E-02 -.21659E-03 -.90410E-03 -.58364E-04
 0.55114E-03 -.29738E-03 -.12026E-02 -.80833E-03 -.13461E-03 -.37360E-04 0.11153E-02 0.47474E-02 0.93481E-02 0.12796E-01
 0.18891E-01 0.19946E-01 0.17409E-01 0.11984E-01 0.68668E-02 0.36950E-02 0.16109E-02 0.21404E-03 0.14180E-03 0.69855E-03
 0.23015E-03 -.94723E-03 -.10263E-02 -.20276E-04 0.55132E-03 0.10880E-02 0.36517E-02 0.82812E-02 0.12796E-01 0.16183E-01
 0.47867E-01 0.45356E-01 0.35202E-01 0.22594E-01 0.13082E-01 0.73196E-02 0.32446E-02 0.34262E-03 -.11620E-02 -.23724E-02
 -.37593E-02 -.36108E-02 -.11624E-02 0.14211E-02 0.28790E-02 0.58313E-02 0.13081E-01 0.23523E-01 0.34136E-01 0.43002E-01
 0.45356E-01 0.38565E-01 0.26986E-01 0.16330E-01 0.92620E-02 0.43154E-02 0.94337E-04 -.29179E-02 -.46417E-02 -.58817E-02
 -.61762E-02 -.43242E-02 -.12023E-02 0.11140E-02 0.31760E-02 0.79767E-02 0.16698E-01 0.27358E-01 0.37359E-01 0.44377E-01
 0.35202E-01 0.26986E-01 0.17530E-01 0.10044E-01 0.44347E-02 -.81954E-03 -.58878E-02 -.10003E-01 -.12911E-01 -.14257E-01
 -.13004E-01 -.91202E-02 -.45212E-02 -.69683E-03 0.34337E-02 0.98373E-02 0.18581E-01 0.27822E-01 0.35214E-01 0.38278E-01
 0.22594E-01 0.16330E-01 0.10044E-01 0.43758E-02 -.13756E-02 -.79766E-02 -.15265E-01 -.22074E-01 -.26570E-01 -.26955E-01
 -.22729E-01 -.15492E-01 -.78966E-02 -.14821E-02 0.42178E-02 0.10419E-01 0.17328E-01 0.23626E-01 0.27276E-01 0.26852E-01
 0.13082E-01 0.92620E-02 0.44347E-02 -.13756E-02 -.86614E-02 -.18323E-01 -.29689E-01 -.39366E-01 -.43327E-01 -.40005E-01
 -.30963E-01 -.19412E-01 -.86597E-02 -.79767E-03 0.43827E-02 0.86965E-02 0.13085E-01 0.16443E-01 0.17353E-01 0.15915E-01
 0.73196E-02 0.43154E-02 -.81954E-03 -.79766E-02 -.18323E-01 -.32637E-01 -.47604E-01 -.56841E-01 -.56416E-01 -.47451E-01
 -.33639E-01 -.18867E-01 -.68951E-02 0.55498E-04 0.32397E-02 0.56788E-02 0.82798E-02 0.96813E-02 0.94451E-02 0.86288E-02
 0.32446E-02 0.94337E-04 -.58878E-02 -.15265E-01 -.29689E-01 -.47604E-01 -.62112E-01 -.66500E-01 -.60107E-01 -.46760E-01
 -.30424E-01 -.14879E-01 -.41971E-02 0.29212E-03 0.16057E-02 0.29846E-02 0.42168E-02 0.41008E-02 0.35985E-02 0.37852E-02
 0.34262E-03 -.29179E-02 -.10003E-01 -.22074E-01 -.39366E-01 -.56841E-01 -.66500E-01 -.64850E-01 -.54615E-01 -.39741E-01
 -.23230E-01 -.92380E-02 -.17712E-02 -.25382E-03 -.50326E-03 -.46872E-03 -.11627E-02 -.23130E-02 -.18283E-02 0.61768E-04
 -.11620E-02 -.46417E-02 -.12911E-01 -.26570E-01 -.43327E-01 -.56416E-01 -.60107E-01 -.54615E-01 -.43323E-01 -.28717E-01
 -.13867E-01 -.37981E-02 -.11654E-02 -.31301E-02 -.56416E-02 -.79604E-02 -.10216E-01 -.10244E-01 -.66619E-02 -.22899E-02
 -.23724E-02 -.58817E-02 -.14257E-01 -.26955E-01 -.40005E-01 -.47451E-01 -.46760E-01 -.39741E-01 -.28717E-01 -.15793E-01
 -.52583E-02 -.17245E-02 -.51064E-02 -.11102E-01 -.16592E-01 -.20833E-01 -.22084E-01 -.18053E-01 -.10286E-01 -.39024E-02
 -.37593E-02 -.61762E-02 -.13004E-01 -.22729E-01 -.30963E-01 -.33639E-01 -.30424E-01 -.23230E-01 -.13867E-01 -.52583E-02
 -.19382E-02 -.61976E-02 -.15409E-01 -.25180E-01 -.32912E-01 -.36636E-01 -.33820E-01 -.24534E-01 -.13482E-01 -.59989E-02
 -.36108E-02 -.43242E-02 -.91202E-02 -.15492E-01 -.19412E-01 -.18867E-01 -.14879E-01 -.92380E-02 -.37981E-02 -.17245E-02
 -.61976E-02 -.17049E-01 -.30629E-01 -.42912E-01 -.50753E-01 -.51155E-01 -.42881E-01 -.29172E-01 -.16053E-01 -.73986E-02
 -.11624E-02 -.12023E-02 -.45212E-02 -.78966E-02 -.86597E-02 -.68951E-02 -.41971E-02 -.17712E-02 -.11654E-02 -.51064E-02
 -.15409E-01 -.30629E-01 -.46832E-01 -.59644E-01 -.65009E-01 -.60306E-01 -.46833E-01 -.30016E-01 -.15518E-01 -.58404E-02
 0.14211E-02 0.11140E-02 -.69683E-03 -.14821E-02 -.79767E-03 0.55498E-04 0.29212E-03 -.25382E-03 -.31301E-02 -.11102E-01
 -.25180E-01 -.42912E-01 -.59644E-01 -.70338E-01 -.70968E-01 -.60685E-01 -.43311E-01 -.25192E-01 -.11008E-01 -.22266E-02
 0.28790E-02 0.31760E-02 0.34337E-02 0.42178E-02 0.43827E-02 0.32397E-02 0.16057E-02 -.50326E-03 -.56416E-02 -.16592E-01
 -.32912E-01 -.50753E-01 -.65009E-01 -.70968E-01 -.65917E-01 -.51349E-01 -.32912E-01 -.16669E-01 -.55335E-02 0.57610E-03
 0.58313E-02 0.79767E-02 0.98373E-02 0.10419E-01 0.86965E-02 0.56788E-02 0.29846E-02 -.46872E-03 -.79604E-02 -.20833E-01
 -.36636E-01 -.51155E-01 -.60306E-01 -.60685E-01 -.51349E-01 -.35849E-01 -.20335E-01 -.88445E-02 -.15420E-02 0.29809E-02
 0.13081E-01 0.16698E-01 0.18581E-01 0.17328E-01 0.13085E-01 0.82798E-02 0.42168E-02 -.11627E-02 -.10216E-01 -.22084E-01
 -.33820E-01 -.42881E-01 -.46833E-01 -.43311E-01 -.32912E-01 -.20335E-01 -.10217E-01 -.31192E-02 0.28362E-02 0.83867E-02
 0.23523E-01 0.27358E-01 0.27822E-01 0.23626E-01 0.16443E-01 0.96813E-02 0.41008E-02 -.23130E-02 -.10244E-01 -.18053E-01
 -.24534E-01 -.29172E-01 -.30016E-01 -.25192E-01 -.16669E-01 -.88445E-02 -.31192E-02 0.27946E-02 0.10212E-01 0.17632E-01
 0.34136E-01 0.37359E-01 0.35214E-01 0.27276E-01 0.17353E-01 0.94451E-02 0.35985E-02 -.18283E-02 -.66619E-02 -.10286E-01
 -.13482E-01 -.16053E-01 -.15518E-01 -.11008E-01 -.55335E-02 -.15420E-02 0.28362E-02 0.10212E-01 0.19499E-01 0.27866E-01
 0.43002E-01 0.44377E-01 0.38278E-01 0.26852E-01 0.15915E-01 0.86288E-02 0.37852E-02 0.61768E-04 -.22899E-02 -.39024E-02
 -.59989E-02 -.73986E-02 -.58404E-02 -.22266E-02 0.57610E-03 0.29809E-02 0.83867E-02 0.17632E-01 0.27866E-01 0.36675E-01
 -.19498E-01 -.16617E-01 -.13745E-01 -.10176E-01 -.49549E-02 -.61073E-03 0.44368E-03 -.11072E-03 0.14368E-03 0.37049E-03
 -.64329E-03 -.11826E-02 0.14401E-03 0.12116E-02 -.95290E-04 -.25507E-02 -.49551E-02 -.89698E-02 -.15082E-01 -.19607E-01
 -.16617E-01 -.14343E-01 -.11606E-01 -.71645E-02 -.22388E-02 -.14943E-04 -.68191E-03 -.12818E-02 -.68025E-03 -.48696E-03
 -.99006E-03 -.54771E-03 0.67989E-03 0.52015E-03 -.14419E-02 -.37373E-02 -.65102E-02 -.11043E-01 -.15925E-01 -.17913E-01
 -.13745E-01 -.11606E-01 -.81090E-02 -.37717E-02 -.93922E-03 -.85882E-03 -.16774E-02 -.13403E-02 -.48873E-03 -.51193E-03
 -.84179E-03 -.41303E-03 0.48284E-04 -.63318E-03 -.21269E-02 -.38974E-02 -.66578E-02 -.10590E-01 -.13861E-01 -.14776E-01
 -.10176E-01 -.71645E-02 -.37717E-02 -.14175E-02 -.81358E-03 -.11635E-02 -.11791E-02 -.74279E-03 -.70311E-03 -.12451E-02
 -.15786E-02 -.12746E-02 -.86408E-03 -.96254E-03 -.17298E-02 -.33230E-02 -.59221E-02 -.89963E-02 -.11272E-01 -.11720E-01
 -.49549E-02 -.22388E-02 -.93922E-03 -.81358E-03 -.79112E-03 -.72145E-03 -.10881E-02 -.17989E-02 -.23416E-02 -.25653E-02
 -.24614E-02 -.18042E-02 -.78870E-03 -.36527E-03 -.12049E-02 -.29456E-02 -.49514E-02 -.69088E-02 -.81342E-02 -.74938E-02
 -.61073E-03 -.14943E-04 -.85882E-03 -.11635E-02 -.72145E-03 -.12505E-02 -.28936E-02 -.37858E-02 -.33031E-02 -.27028E-02
 -.23609E-02 -.13625E-02 -.36148E-04 0.23817E-04 -.12894E-02 -.24896E-02 -.31292E-02 -.38569E-02 -.41094E-02 -.27101E-02
 0.44368E-03 -.68191E-03 -.16774E-02 -.11791E-02 -.10881E-02 -.28936E-02 -.44736E-02 -.37196E-02 -.21908E-02 -.19710E-02
 -.19995E-02 -.77267E-03 0.32918E-03 -.29378E-03 -.12983E-02 -.10250E-02 -.51547E-03 -.98478E-03 -.11781E-02 -.12700E-03
 -.11072E-03 -.12818E-02 -.13403E-02 -.74279E-03 -.17989E-02 -.37858E-02 -.37196E-02 -.18474E-02 -.12838E-02 -.22918E-02
 -.20999E-02 -.39707E-03 0.21760E-03 -.59660E-03 -.44667E-03 0.87593E-03 0.10021E-02 -.25656E-03 -.60470E-03 0.13897E-03
 0.14368E-03 -.68025E-03 -.48873E-03 -.70311E-03 -.23416E-02 -.33031E-02 -.21908E-02 -.12838E-02 -.23401E-02 -.31243E-02
 -.15841E-02 0.25260E-03 0.14050E-03 -.34083E-03 0.70598E-03 0.15963E-02 0.46482E-03 -.89871E-03 -.37348E-03 0.62142E-03
 0.37049E-03 -.48696E-03 -.51193E-03 -.12451E-02 -.25653E-02 -.27028E-02 -.19710E-02 -.22918E-02 -.31243E-02 -.21632E-02
 0.91133E-04 0.87367E-03 0.78397E-04 0.14678E-03 0.12165E-02 0.10288E-02 -.34458E-03 -.37856E-03 0.11091E-02 0.15676E-02
 -.64329E-03 -.99006E-03 -.84179E-03 -.15786E-02 -.24614E-02 -.23609E-02 -.19995E-02 -.20999E-02 -.15841E-02 0.91133E-04
 0.11965E-02 0.60250E-03 -.73516E-04 0.56934E-03 0.12177E-02 0.63522E-03 0.21758E-03 0.12073E-02 0.20061E-02 0.95809E-03
 -.11826E-02 -.54771E-03 -.41303E-03 -.12746E-02 -.18042E-02 -.13625E-02 -.77267E-03 -.39707E-03 0.25260E-03 0.87367E-03
 0.60250E-03 -.72414E-04 0.15993E-03 0.10759E-02 0.13249E-02 0.95338E-03 0.11168E-02 0.15332E-02 0.83217E-03 -.66543E-03
 0.14401E-03 0.67989E-03 0.48284E-04 -.86408E-03 -.78870E-03 -.36148E-04 0.32918E-03 0.21760E-03 0.14050E-03 0.78397E-04
 -.73516E-04 0.15993E-03 0.95743E-03 0.15557E-02 0.14232E-02 0.10869E-02 0.95540E-03 0.52754E-03 -.31530E-03 -.58520E-03
 0.12116E-02 0.52015E-03 -.63318E-03 -.96254E-03 -.36527E-03 0.23817E-04 -.29378E-03 -.59660E-03 -.34083E-03 0.14678E-03
 0.56934E-03 0.10759E-02 0.15557E-02 0.15633E-02 0.11310E-02 0.75481E-03 0.56052E-03 0.37053E-03 0.41244E-03 0.91134E-03
 -.95290E-04 -.14419E-02 -.21269E-02 -.17298E-02 -.12049E-02 -.12894E-02 -.12983E-02 -.44667E-03 0.70598E-03 0.12165E-02
 0.12177E-02 0.13249E-02 0.14232E-02 0.11310E-02 0.75603E-03 0.78858E-03 0.10525E-02 0.11579E-02 0.11134E-02 0.83247E-03
 -.25507E-02 -.37373E-02 -.38974E-02 -.33230E-02 -.29456E-02 -.24896E-02 -.10250E-02 0.87593E-03 0.15963E-02 0.10288E-02
 0.63522E-03 0.95338E-03 0.10869E-02 0.75481E-03 0.78858E-03 0.13340E-02 0.14435E-02 0.73540E-03 -.21231E-03 -.12129E-02
 -.49551E-02 -.65102E-02 -.66578E-02 -.59221E-02 -.49514E-02 -.31292E-02 -.51547E-03 0.10021E-02 0.46482E-03 -.34458E-03
 0.21758E-03 0.11168E-02 0.95540E-03 0.56052E-03 0.10525E-02 0.14435E-02 0.46168E-03 -.11168E-02 -.21250E-02 -.31529E-02
 -.89698E-02 -.11043E-01 -.10590E-01 -.89963E-02 -.69088E-02 -.38569E-02 -.98478E-03 -.25656E-03 -.89871E-03 -.37856E-03
 0.12073E-02 0.15332E-02 0.52754E-03 0.37053E-03 0.11579E-02 0.73540E-03 -.11168E-02 -.24606E-02 -.32502E-02 -.54737E-02
 -.15082E-01 -.15925E-01 -.13861E-01 -.11272E-01 -.81342E-02 -.41094E-02 -.11781E-02 -.60470E-03 -.37348E-03 0.11091E-02
 0.20061E-02 0.83217E-03 -.31530E-03 0.41244E-03 0.11134E-02 -.21231E-03 -.21250E-02 -.32502E-02 -.55750E-02 -.10505E-01
 -.19607E-01 -.17913E-01 -.14776E-01 -.11720E-01 -.74938E-02 -.27101E-02 -.12700E-03 0.13897E-03 0.62142E-03 0.15676E-02
 0.95809E-03 -.66543E-03 -.58520E-03 0.91134E-03 0.83247E-03 -.12129E-02 -.31529E-02 -.54737E-02 -.10505E-01 -.16758E-01
 -.47577E-01 -.42197E-01 -.33912E-01 -.23850E-01 -.12746E-01 -.44434E-02 -.13915E-02 -.56468E-03 0.14854E-02 0.33774E-02
 0.28317E-02 0.15085E-02 0.14861E-02 0.10020E-02 -.21041E-02 -.68360E-02 -.12745E-01 -.22365E-01 -.35521E-01 -.45824E-01
 -.42197E-01 -.36140E-01 -.27712E-01 -.17259E-01 -.74595E-02 -.21853E-02 -.81896E-03 0.94121E-03 0.42465E-02 0.61379E-02
 0.54260E-02 0.41943E-02 0.31498E-02 0.56624E-03 -.38994E-02 -.91703E-02 -.16318E-01 -.26957E-01 -.38100E-01 -.43810E-01