unknown system                          
   1.00000000000000     
     2.573869    0.000000    0.000000
     1.286934    2.229036    0.000000
     0.000000    0.000000   30.304665
   Cu   H 
     4     1
Direct
  0.000000  0.000000  0.396440
  0.333332  0.333332  0.465152
  0.666668  0.666665  0.533916
  0.000000  0.000000  0.606744
  0.333332  0.333332  0.631467
 
   20   20  240
 0.47903574785E-01 0.44118914098E-01 0.34678570292E-01 0.23156576232E-01 0.13084062269E-01
 0.64107510805E-02 0.28795079064E-02 0.80660708250E-03 -.11674136077E-02 -.29799504026E-02
 -.37248781023E-02 -.29605888882E-02 -.11674809925E-02 0.91370489308E-03 0.32063938550E-02
 0.67265441514E-02 0.13083527298E-01 0.22979048082E-01 0.34696901753E-01 0.44301159128E-01
 0.44118914098E-01 0.37590495124E-01 0.27490857879E-01 0.17032923501E-01 0.87916605433E-02
 0.36745470973E-02 0.59427160694E-03 -.21225865146E-02 -.47707153678E-02 -.62158801634E-02
 -.56718602623E-02 -.37050187021E-02 -.13868104536E-02 0.87809794139E-03 0.36757187445E-02
 0.83613294519E-02 0.16268927906E-01 0.27095188621E-01 0.37873296737E-01 0.44395165075E-01
 0.34678570292E-01 0.27490857878E-01 0.18602674400E-01 0.10258023858E-01 0.39099481584E-02
 -.66806061660E-03 -.49869239483E-02 -.97017193961E-02 -.13436270670E-01 -.14405362520E-01
 -.12491254793E-01 -.89961499351E-02 -.50498256682E-02 -.95726546739E-03 0.36460665209E-02
 0.97212552034E-02 0.18056041876E-01 0.27609899985E-01 0.35209694054E-01 0.37787241233E-01
 0.23156576232E-01 0.17032923501E-01 0.10258023858E-01 0.39828370968E-02 -.15908203316E-02
 -.76188536776E-02 -.15061747406E-01 -.22576024417E-01 -.27135961956E-01 -.26902360547E-01
 -.22523477754E-01 -.15814506317E-01 -.84075962178E-02 -.15267844040E-02 0.44333844211E-02
 0.10336708001E-01 0.17063416355E-01 0.23609024188E-01 0.27486136810E-01 0.27154970586E-01
 0.13084062269E-01 0.87916605430E-02 0.39099481583E-02 -.15908203317E-02 -.86477212449E-02
 -.18441200919E-01 -.30059403641E-01 -.39692433768E-01 -.43328351290E-01 -.39825825484E-01
 -.30941138365E-01 -.19556376779E-01 -.86489312893E-02 -.48922693126E-03 0.47232050072E-02
 0.87971080441E-02 0.13079183769E-01 0.16683571276E-01 0.17902521887E-01 0.16396919611E-01
 0.64107510793E-02 0.36745470958E-02 -.66806061766E-03 -.76188536784E-02 -.18441200919E-01
 -.32931981314E-01 -.47460682875E-01 -.56402810523E-01 -.56205866328E-01 -.47447373330E-01
 -.33492236302E-01 -.18598252627E-01 -.67236205339E-02 0.18072496538E-03 0.34010028859E-02
 0.57167210245E-02 0.81914794282E-02 0.97530613393E-02 0.95923471211E-02 0.82781299865E-02
 0.28795079039E-02 0.59427160443E-03 -.49869239498E-02 -.15061747407E-01 -.30059403641E-01
 -.47460682874E-01 -.61386063236E-01 -.66215461502E-01 -.60485815747E-01 -.46918238183E-01
 -.30076665155E-01 -.14756760530E-01 -.45712738577E-02 0.19775912129E-04 0.16508383026E-02
 0.28756657393E-02 0.38627999232E-02 0.38859168412E-02 0.34187857983E-02 0.32830467406E-02
 0.80660707820E-03 -.21225865186E-02 -.97017193982E-02 -.22576024417E-01 -.39692433766E-01
 -.56402810521E-01 -.66215461501E-01 -.65462614080E-01 -.55289525310E-01 -.39598587740E-01
 -.22922776344E-01 -.96518753085E-02 -.23931275757E-02 -.23435194870E-03 -.21278412773E-03
 -.63915732445E-03 -.15011865557E-02 -.22227930381E-02 -.15260805936E-02 0.26231280282E-03
 -.11674136139E-02 -.47707153729E-02 -.13436270672E-01 -.27135961955E-01 -.43328351287E-01
 -.56205866325E-01 -.60485815745E-01 -.55289525309E-01 -.43329444813E-01 -.28194564513E-01
 -.13835514644E-01 -.42768731029E-02 -.11628793364E-02 -.25044627060E-02 -.53243735454E-02
 -.82048388932E-02 -.10205655347E-01 -.96437450090E-02 -.61094146871E-02 -.21585805042E-02
 -.29799504104E-02 -.62158801694E-02 -.14405362522E-01 -.26902360546E-01 -.39825825481E-01
 -.47447373327E-01 -.46918238181E-01 -.39598587740E-01 -.28194564513E-01 -.15481088932E-01
 -.54113968883E-02 -.17501755956E-02 -.46213671173E-02 -.10674808858E-01 -.16748365893E-01
 -.21111841439E-01 -.21868608147E-01 -.17670380786E-01 -.10439056652E-01 -.45602384118E-02
 -.37248781106E-02 -.56718602684E-02 -.12491254795E-01 -.22523477753E-01 -.30941138362E-01
 -.33492236300E-01 -.30076665155E-01 -.22922776345E-01 -.13835514644E-01 -.54113968875E-02
 -.19844828761E-02 -.60678826853E-02 -.15371972674E-01 -.25434606010E-01 -.33257009476E-01
 -.36758055331E-01 -.33796419338E-01 -.24753039037E-01 -.14046668227E-01 -.64906730403E-02
 -.29605888959E-02 -.37050187080E-02 -.89961499373E-02 -.15814506316E-01 -.19556376778E-01
 -.18598252628E-01 -.14756760532E-01 -.96518753089E-02 -.42768731016E-02 -.17501755931E-02
 -.60678826838E-02 -.17283534841E-01 -.31059593894E-01 -.43048173746E-01 -.50627090945E-01
 -.51153908812E-01 -.43055005334E-01 -.29261387765E-01 -.15914021948E-01 -.70035103311E-02
 -.11674809985E-02 -.13868104584E-02 -.50498256702E-02 -.84075962188E-02 -.86489312905E-02
 -.67236205360E-02 -.45712738593E-02 -.23931275752E-02 -.11628793336E-02 -.46213671133E-02
 -.15371972671E-01 -.31059593894E-01 -.46826550362E-01 -.59056363056E-01 -.64680842916E-01
 -.60499551669E-01 -.46824600418E-01 -.29460416329E-01 -.14953987083E-01 -.56498977523E-02
 0.91370488872E-03 0.87809793784E-03 -.95726546923E-03 -.15267844058E-02 -.48922693355E-03
 0.18072496307E-03 0.19775911191E-04 -.23435194681E-03 -.25044627022E-02 -.10674808855E-01
 -.25434606009E-01 -.43048173749E-01 -.59056363059E-01 -.69802419461E-01 -.71227076650E-01
 -.61066105960E-01 -.42984021538E-01 -.24699790460E-01 -.11270770496E-01 -.29967001206E-02
 0.32063938526E-02 0.36757187426E-02 0.36460665198E-02 0.44333844196E-02 0.47232050053E-02
 0.34010028844E-02 0.16508383031E-02 -.21278412495E-03 -.53243735419E-02 -.16748365892E-01
 -.33257009479E-01 -.50627090953E-01 -.64680842925E-01 -.71227076655E-01 -.66559411009E-01
 -.51465877734E-01 -.32588462326E-01 -.16896944204E-01 -.64108461358E-02 0.73591779646E-04
 0.67265441500E-02 0.83613294510E-02 0.97212552030E-02 0.10336708000E-01 0.87971080431E-02
 0.57167210242E-02 0.28756657408E-02 -.63915732179E-03 -.82048388912E-02 -.21111841440E-01
 -.36758055338E-01 -.51153908823E-01 -.60499551682E-01 -.61066105970E-01 -.51465877739E-01
 -.35603611597E-01 -.20268233044E-01 -.91856769311E-02 -.16604773088E-02 0.36090827424E-02
 0.13083527297E-01 0.16268927905E-01 0.18056041876E-01 0.17063416355E-01 0.13079183769E-01
 0.81914794287E-02 0.38627999247E-02 -.15011865536E-02 -.10205655346E-01 -.21868608149E-01
 -.33796419346E-01 -.43055005346E-01 -.46824600431E-01 -.42984021549E-01 -.32588462333E-01
 -.20268233047E-01 -.10203203986E-01 -.28217159817E-02 0.33932790893E-02 0.88314374520E-02
 0.22979048082E-01 0.27095188621E-01 0.27609899986E-01 0.23609024189E-01 0.16683571276E-01
 0.97530613403E-02 0.38859168427E-02 -.22227930364E-02 -.96437450082E-02 -.17670380787E-01
 -.24753039042E-01 -.29261387773E-01 -.29460416338E-01 -.24699790468E-01 -.16896944209E-01
 -.91856769334E-02 -.28217159823E-02 0.32577983349E-02 0.99914508223E-02 0.16898982943E-01
 0.34696901753E-01 0.37873296737E-01 0.35209694054E-01 0.27486136810E-01 0.17902521888E-01
 0.95923471219E-02 0.34187857998E-02 -.15260805914E-02 -.61094146846E-02 -.10439056649E-01
 -.14046668226E-01 -.15914021948E-01 -.14953987085E-01 -.11270770498E-01 -.64108461372E-02
 -.16604773094E-02 0.33932790895E-02 0.99914508229E-02 0.18394825315E-01 0.27362267271E-01
 0.44301159128E-01 0.44395165075E-01 0.37787241233E-01 0.27154970586E-01 0.16396919611E-01
 0.82781299876E-02 0.32830467427E-02 0.26231280643E-03 -.21585804992E-02 -.45602384056E-02
 -.64906730341E-02 -.70035103255E-02 -.56498977484E-02 -.29967001179E-02 0.73591781081E-04
 0.36090827435E-02 0.88314374529E-02 0.16898982944E-01 0.27362267271E-01 0.37698316644E-01
 -.22648473681E-01 -.20793661022E-01 -.16563993193E-01 -.11117287579E-01 -.57668634639E-02
 -.18805849561E-02 -.47281881905E-04 0.34312965406E-03 0.20842366505E-03 -.10167745060E-03
 -.44628067234E-03 -.39710216078E-03 0.20929587284E-03 0.69567220207E-03 0.10864173697E-03
 -.20158297446E-02 -.57690848222E-02 -.11019870566E-01 -.16817309067E-01 -.21245713881E-01
 -.20793661023E-01 -.17815477839E-01 -.12890147352E-01 -.75270460871E-02 -.32273315442E-02
 -.84649943217E-03 -.19178711398E-03 -.36724514128E-03 -.57511942959E-03 -.51199983552E-03
 -.17866551105E-03 0.30168963208E-03 0.61291933065E-03 0.27658537704E-03 -.11300230915E-02
 -.38712090696E-02 -.80073821229E-02 -.13093230825E-01 -.17904495644E-01 -.20831260279E-01
 -.16563993193E-01 -.12890147352E-01 -.82031806370E-02 -.41783871887E-02 -.16957465472E-02
 -.66850406149E-03 -.50207740321E-03 -.52686586146E-03 -.30410592068E-03 0.12836757481E-03
 0.38014846504E-03 0.22165946054E-03 -.20849624122E-03 -.85592973259E-03 -.21449170477E-02
 -.46319874657E-02 -.83484531623E-02 -.12590579495E-01 -.16162261669E-01 -.17760709232E-01
 -.11117287580E-01 -.75270460872E-02 -.41783871888E-02 -.20608362640E-02 -.95781522838E-03
 -.38834367011E-03 -.15673036547E-03 -.35690552089E-04 0.18874932170E-03 0.26761157949E-03
 -.15979976165E-03 -.77725260174E-03 -.96005033359E-03 -.93788082074E-03 -.17632598987E-02
 -.40247743574E-02 -.72541372959E-02 -.10521114515E-01 -.12848000285E-01 -.13201391326E-01
 -.57668634636E-02 -.32273315443E-02 -.16957465474E-02 -.95781522857E-03 -.30540560092E-03
 0.17321371957E-03 0.16042103385E-03 -.15546918732E-04 -.43202843443E-04 -.27510647423E-03
 -.81819344963E-03 -.93395671332E-03 -.30581831408E-03 0.12388253992E-04 -.10981478906E-02
 -.33640632350E-02 -.57715336933E-02 -.77260905005E-02 -.87400322252E-02 -.80702143530E-02
 -.18805849551E-02 -.84649943254E-03 -.66850406211E-03 -.38834367100E-03 0.17321371919E-03
 0.23094139113E-03 -.23551800916E-03 -.37667863226E-03 -.12347569754E-03 -.18770587418E-03
 -.43857177818E-03 -.79499093037E-04 0.55300487477E-03 0.18645641676E-03 -.13194244677E-02
 -.28103860575E-02 -.37194335704E-02 -.43794816139E-02 -.45582058258E-02 -.35663032059E-02
 -.47281880398E-04 -.19178711410E-03 -.50207740365E-03 -.15673036581E-03 0.16042103423E-03
 -.23551800856E-03 -.51831405408E-03 0.66202569354E-04 0.65633089100E-03 0.38210976190E-03
 -.34446056560E-04 0.16901344772E-03 0.23037406695E-03 -.57459798902E-03 -.13774313185E-02
 -.13042129661E-02 -.10648196489E-02 -.14046184421E-02 -.15532763489E-02 -.80038161136E-03
 0.34312965549E-03 -.36724514161E-03 -.52686586165E-03 -.35690551801E-04 -.15546917460E-04
 -.37667863019E-03 0.66202570061E-04 0.10418979455E-02 0.10131280902E-02 -.38313152974E-04
 -.58322994174E-03 -.29872936150E-03 -.28508389843E-03 -.58720896463E-03 -.14424708035E-03
 0.78473294064E-03 0.79098705464E-03 -.37470972480E-04 -.22023244379E-03 0.35294711660E-03
 0.20842366597E-03 -.57511942984E-03 -.30410592029E-03 0.18874932299E-03 -.43202841081E-04
 -.12347569476E-03 0.65633089284E-03 0.10131280909E-02 -.43687643455E-04 -.11421719791E-02
 -.84300559977E-03 0.62703180355E-05 0.21234592431E-03 0.42666948223E-03 0.13431892870E-02
 0.18337363873E-02 0.10218387395E-02 0.18602198814E-03 0.50082408306E-03 0.89514210207E-03
 -.10167745055E-03 -.51199983605E-03 0.12836757487E-03 0.26761158095E-03 -.27510647136E-03
 -.18770587124E-03 0.38210976333E-03 -.38313152437E-04 -.11421719797E-02 -.10636009870E-02
 0.24613215228E-03 0.98350709495E-03 0.82262723138E-03 0.11403613897E-02 0.19568349487E-02
 0.18557499716E-02 0.97641531161E-03 0.90094353536E-03 0.15201504933E-02 0.11671278487E-02
 -.44628067267E-03 -.17866551192E-03 0.38014846483E-03 -.15979976093E-03 -.81819344745E-03
 -.43857177607E-03 -.34446055540E-04 -.58322994201E-03 -.84300560047E-03 0.24613215212E-03
 0.13133097498E-02 0.10687586114E-02 0.73370658640E-03 0.16172789625E-02 0.26056826136E-02
 0.24103961163E-02 0.19730314898E-02 0.22887859649E-02 0.22093847511E-02 0.80225306308E-03
 -.39710216111E-03 0.30168963045E-03 0.22165945902E-03 -.77725260231E-03 -.93395671276E-03
 -.79499092450E-04 0.16901344729E-03 -.29872936273E-03 0.62703167600E-05 0.98350709512E-03
 0.10687586123E-02 0.54313667357E-03 0.12874568979E-02 0.31798703860E-02 0.41086622670E-02
 0.36123689683E-02 0.31821127625E-02 0.30019107287E-02 0.18220853301E-02 0.67957794691E-04
 0.20929587288E-03 0.61291932851E-03 -.20849624391E-03 -.96005033566E-03 -.30581831484E-03
 0.55300487419E-03 0.23037406555E-03 -.28508390040E-03 0.21234592315E-03 0.82262723285E-03
 0.73370658960E-03 0.12874569012E-02 0.33980177422E-02 0.52707745895E-02 0.51430231382E-02
 0.40230807112E-02 0.34003297542E-02 0.26412511278E-02 0.10196552060E-02 -.13354679615E-03
 0.69567220210E-03 0.27658537431E-03 -.85592973582E-03 -.93788082341E-03 0.12388252628E-04
 0.18645641558E-03 -.57459799119E-03 -.58720896710E-03 0.42666948131E-03 0.11403613924E-02
 0.16172789688E-02 0.31798703931E-02 0.52707745940E-02 0.57690164568E-02 0.45429316735E-02
 0.35027670719E-02 0.31270834701E-02 0.21631268570E-02 0.71495611465E-03 0.28413285941E-03
 0.10864173707E-03 -.11300230939E-02 -.21449170505E-02 -.17632599007E-02 -.10981478913E-02
 -.13194244691E-02 -.13774313212E-02 -.14424708373E-03 0.13431892856E-02 0.19568349520E-02
 0.26056826217E-02 0.41086622774E-02 0.51430231469E-02 0.45429316778E-02 0.35057177417E-02
 0.33294665901E-02 0.31069792976E-02 0.18255633899E-02 0.55496306181E-03 0.34119628980E-03
 -.20158297451E-02 -.38712090716E-02 -.46319874675E-02 -.40247743578E-02 -.33640632352E-02
 -.28103860589E-02 -.13042129698E-02 0.78473293574E-03 0.18337363844E-02 0.18557499738E-02
 0.24103961238E-02 0.36123689784E-02 0.40230807202E-02 0.35027670769E-02 0.33294665914E-02
 0.34756079701E-02 0.26164245978E-02 0.87771986704E-03 -.25165843375E-03 -.75722474735E-03
 -.57690848229E-02 -.80073821249E-02 -.83484531625E-02 -.72541372951E-02 -.57715336928E-02
 -.37194335721E-02 -.10648196537E-02 0.79098704843E-03 0.10218387350E-02 0.97641531171E-03
 0.19730314945E-02 0.31821127697E-02 0.34003297598E-02 0.31270834726E-02 0.31069792968E-02
 0.26164245965E-02 0.10248555502E-02 -.68936825988E-03 -.17635433099E-02 -.32131017519E-02
 -.11019870566E-01 -.13093230826E-01 -.12590579495E-01 -.10521114514E-01 -.77260905001E-02
 -.43794816161E-02 -.14046184475E-02 -.37470979343E-04 0.18602198246E-03 0.90094353355E-03
 0.22887859662E-02 0.30019107314E-02 0.26412511292E-02 0.21631268556E-02 0.18255633860E-02
 0.87771986349E-03 -.68936826179E-03 -.22012229967E-02 -.40652745096E-02 -.72653593674E-02
 -.16817309068E-01 -.17904495644E-01 -.16162261668E-01 -.12848000283E-01 -.87400322251E-02
 -.45582058283E-02 -.15532763540E-02 -.22023244991E-03 0.50082407794E-03 0.15201504908E-02
 0.22093847504E-02 0.18220853299E-02 0.10196552042E-02 0.71495611093E-03 0.55496305706E-03
 -.25165843781E-03 -.17635433121E-02 -.40652745099E-02 -.78323028823E-02 -.12793223198E-01
 -.21245713882E-01 -.20831260279E-01 -.17760709232E-01 -.13201391325E-01 -.80702143534E-02
 -.35663032079E-02 -.80038161477E-03 0.35294711282E-03 0.89514209902E-03 0.11671278471E-02
 0.80225306243E-03 0.67957794005E-04 -.13354679808E-03 0.28413285655E-03 0.34119628646E-03
 -.75722474968E-03 -.32131017527E-02 -.72653593670E-02 -.12793223197E-01 -.18228926063E-01
 -.47546245169E-01 -.43438173847E-01 -.34427423042E-01 -.23271785856E-01 -.12730271523E-01
 -.53483418105E-02 -.17571143334E-02 -.10159812694E-03 0.14743396272E-02 0.27551831642E-02
 0.28476748269E-02 0.21451086768E-02 0.14750660304E-02 0.49403709627E-03 -.17739064743E-02
 -.59345090459E-02 -.12732934813E-01 -.22898287442E-01 -.34951667345E-01 -.44524115023E-01
 -.43438173846E-01 -.37119003710E-01 -.27202336062E-01 -.16543033860E-01 -.79192177344E-02
 -.28242288071E-02 -.32286607545E-03 0.17309119043E-02 0.41096825318E-02 0.57917885956E-02
 0.59152096340E-02 0.47990699358E-02 0.29565338660E-02 0.33086773259E-03 -.33917967778E-02
 -.87771091026E-02 -.16741484754E-01 -.27214288680E-01 -.37579869338E-01 -.43789292564E-01
 -.34427423042E-01 -.27202336063E-01 -.18056750413E-01 -.97114845479E-02 -.36673664819E-02
 0.55468677832E-03 0.46249016874E-02 0.93707650723E-02 0.13655638144E-01 0.15512692463E-01
 0.14080753697E-01 0.10163616067E-01 0.52757503249E-02 0.47048184133E-03 -.43002435166E-02
 -.10082294471E-01 -.17802993516E-01 -.26724199220E-01 -.34155622739E-01 -.37125283774E-01
 -.23271785857E-01 -.16543033860E-01 -.97114845478E-02 -.40418081094E-02 0.12623872792E-02
 0.76979069224E-02 0.15581769380E-01 0.23345215488E-01 0.28285959793E-01 0.28210705998E-01
 0.23044798488E-01 0.15092179960E-01 0.73421659184E-02 0.12391596926E-02 -.38959267688E-02
 -.94832010330E-02 -.16028146074E-01 -.22530949114E-01 -.26941936675E-01 -.27318375007E-01
 -.12730271522E-01 -.79192177341E-02 -.36673664818E-02 0.12623872792E-02 0.89752789869E-02
 0.19672086691E-01 0.31161946048E-01 0.40191051500E-01 0.43632937236E-01 0.39805615279E-01
 0.30085271678E-01 0.18570878841E-01 0.89750128742E-02 0.21014098597E-02 -.32863283542E-02
 -.81986281540E-02 -.12731959458E-01 -.16416268482E-01 -.18167010845E-01 -.16821804918E-01
 -.53483418085E-02 -.28242288062E-02 0.55468677861E-03 0.76979069220E-02 0.19672086690E-01
 0.34143811851E-01 0.47322851730E-01 0.55599664345E-01 0.55909928849E-01 0.47405698269E-01
 0.33363650664E-01 0.19322665181E-01 0.86864004319E-02 0.14164568351E-02 -.34980795041E-02
 -.65148452875E-02 -.82847606992E-02 -.95023075150E-02 -.97005228047E-02 -.80669214671E-02
 -.17571143295E-02 -.32286607325E-03 0.46249016885E-02 0.15581769380E-01 0.31161946047E-01
 0.47322851730E-01 0.60107533051E-01 0.65845656580E-01 0.61558909286E-01 0.48015964502E-01
 0.30787418894E-01 0.15928350833E-01 0.56773501927E-02 -.51213679194E-03 -.31905990683E-02
 -.32381058795E-02 -.27338549352E-02 -.30154894850E-02 -.32655178797E-02 -.26350218478E-02
 -.10159812132E-03 0.17309119077E-02 0.93707650740E-02 0.23345215488E-01 0.40191051499E-01
 0.55599664345E-01 0.65845656580E-01 0.67046107636E-01 0.57268546832E-01 0.40051078244E-01
 0.22595234603E-01 0.97780516208E-02 0.21677319159E-02 -.92145858978E-03 -.12088438361E-03
 0.23240076294E-02 0.33710828903E-02 0.24354967496E-02 0.12013513060E-02 0.39986316379E-03
 0.14743396342E-02 0.41096825365E-02 0.13655638147E-01 0.28285959794E-01 0.43632937235E-01
 0.55909928849E-01 0.61558909286E-01 0.57268546832E-01 0.43634024940E-01 0.26682386564E-01
 0.12976961097E-01 0.47782513154E-02 0.14756906392E-02 0.25971886268E-02 0.67229275658E-02
 0.10256816945E-01 0.10522636588E-01 0.83967490152E-02 0.58211877500E-02 0.31897424052E-02
 0.27551831717E-02 0.57917886008E-02 0.15512692465E-01 0.28210705998E-01 0.39805615279E-01
 0.47405698269E-01 0.48015964502E-01 0.40051078244E-01 0.26682386563E-01 0.14204926001E-01
 0.65048723338E-02 0.36953044652E-02 0.53353307254E-02 0.11015052063E-01 0.17849307293E-01
 0.21501658790E-01 0.20498041769E-01 0.16657195210E-01 0.11539562063E-01 0.59655485258E-02
 0.28476748345E-02 0.59152096391E-02 0.14080753698E-01 0.23044798488E-01 0.30085271677E-01
 0.33363650665E-01 0.30787418895E-01 0.22595234603E-01 0.12976961096E-01 0.65048723329E-02
 0.46287442382E-02 0.72167199060E-02 0.14510045093E-01 0.24935103483E-01 0.33653040768E-01
 0.36355801297E-01 0.32927519670E-01 0.25597559147E-01 0.16136625945E-01 0.71051063561E-02
 0.21451086839E-02 0.47990699397E-02 0.10163616067E-01 0.15092179959E-01 0.18570878841E-01
 0.19322665182E-01 0.15928350834E-01 0.97780516198E-02 0.47782513127E-02 0.36953044631E-02
 0.72167199053E-02 0.15891617042E-01 0.29329119934E-01 0.43389043361E-01 0.51778583472E-01
 0.51313325667E-01 0.43401119736E-01 0.30959387251E-01 0.17078159968E-01 0.61492642694E-02
 0.14750660363E-02 0.29565338683E-02 0.52757503243E-02 0.73421659171E-02 0.89750128746E-02
 0.86864004332E-02 0.56773501928E-02 0.21677319133E-02 0.14756906351E-02 0.53353307232E-02
 0.14510045094E-01 0.29329119937E-01 0.47129461656E-01 0.61358866803E-01 0.66058153612E-01
 0.60306542457E-01 0.47131845589E-01 0.30437436794E-01 0.14664657115E-01 0.44529042817E-02
 0.49403710035E-03 0.33086773294E-03 0.47048183983E-03 0.12391596914E-02 0.21014098604E-02
 0.14164568362E-02 -.51213679340E-03 -.92145859417E-03 0.25971886220E-02 0.11015052063E-01
 0.24935103489E-01 0.43389043371E-01 0.61358866811E-01 0.71714258086E-01 0.70686636090E-01
 0.59832761960E-01 0.43220606380E-01 0.25294182284E-01 0.10761578383E-01 0.28034483512E-02
 -.17739064720E-02 -.33917967784E-02 -.43002435182E-02 -.38959267693E-02 -.32863283532E-02
 -.34980795039E-02 -.31905990715E-02 -.12088438978E-03 0.67229275609E-02 0.17849307295E-01
 0.33653040779E-01 0.51778583490E-01 0.66058153629E-01 0.70686636100E-01 0.64662328437E-01
 0.51059112424E-01 0.33987111823E-01 0.17735234749E-01 0.62322756675E-02 0.56257386449E-03
 -.59345090453E-02 -.87771091040E-02 -.10082294472E-01 -.94832010328E-02 -.81986281532E-02
 -.65148452885E-02 -.32381058844E-02 0.23240076219E-02 0.10256816940E-01 0.21501658794E-01
 0.36355801311E-01 0.51313325689E-01 0.60306542479E-01 0.59832761976E-01 0.51059112431E-01
 0.37329342800E-01 0.22176364947E-01 0.93247378027E-02 0.12742272142E-02 -.28753514907E-02
 -.12732934813E-01 -.16741484756E-01 -.17802993517E-01 -.16028146073E-01 -.12731959457E-01
 -.82847607015E-02 -.27338549417E-02 0.33710828821E-02 0.10522636583E-01 0.20498041772E-01
 0.32927519683E-01 0.43401119755E-01 0.47131845608E-01 0.43220606393E-01 0.33987111829E-01
 0.22176364948E-01 0.10525654546E-01 0.17319508690E-02 -.36605383479E-02 -.79122879163E-02
 -.22898287443E-01 -.27214288682E-01 -.26724199221E-01 -.22530949114E-01 -.16416268482E-01
 -.95023075182E-02 -.30154894920E-02 0.24354967410E-02 0.83967490087E-02 0.16657195209E-01
 0.25597559153E-01 0.30959387261E-01 0.30437436804E-01 0.25294182290E-01 0.17735234751E-01
 0.93247378016E-02 0.17319508677E-02 -.39819236436E-02 -.91151945364E-02 -.15712038935E-01
 -.34951667346E-01 -.37579869338E-01 -.34155622738E-01 -.26941936675E-01 -.18167010846E-01
 -.97005228082E-02 -.32655178863E-02 0.12013512977E-02 0.58211877423E-02 0.11539562059E-01
 0.16136625944E-01 0.17078159968E-01 0.14664657115E-01 0.10761578381E-01 0.62322756643E-02
 0.12742272107E-02 -.36605383503E-02 -.91151945370E-02 -.16845021659E-01 -.26707987919E-01
 -.44524115023E-01 -.43789292564E-01 -.37125283774E-01 -.27318375006E-01 -.16821804919E-01
 -.80669214701E-02 -.26350218532E-02 0.39986315664E-03 0.31897423972E-02 0.59655485183E-02
 0.71051063494E-02 0.61492642634E-02 0.44529042759E-02 0.28034483459E-02 0.56257385977E-03
 -.28753514939E-02 -.79122879177E-02 -.15712038935E-01 -.26707987919E-01 -.37972319337E-01
 0.21380763019E-01 0.20610441478E-01 0.15916499659E-01 0.99592663559E-02 0.57057777032E-02
 0.32138402860E-02 0.12879733920E-02 0.12410296750E-03 0.13668682533E-03 0.25068968673E-03
 -.36371117559E-03 -.67361746276E-03 0.13659274534E-03 0.96078680620E-03 0.10967815951E-02
 0.21767805081E-02 0.57038454491E-02 0.10609962132E-01 0.15122004543E-01 0.18890961000E-01
 0.20610441477E-01 0.17514319212E-01 0.12022541158E-01 0.71252927956E-02 0.40714139436E-02
 0.19202390426E-02 0.20812269862E-03 -.36214389874E-03 0.96554427927E-04 0.41123271230E-03
 0.32552454112E-03 0.59960030972E-03 0.11084870635E-02 0.10455938310E-02 0.10676145507E-02
 0.29997361782E-02 0.72092864252E-02 0.12201845533E-01 0.16681432287E-01 0.19945702858E-01
 0.15916499659E-01 0.12022541157E-01 0.76225732565E-02 0.43033682874E-02 0.20828634365E-02
 0.49829348156E-03 -.17260103941E-03 0.30281929304E-03 0.11425825510E-02 0.14488297366E-02
 0.13092817423E-02 0.11406797773E-02 0.83595269524E-03 0.51788096972E-03 0.12667499307E-02
 0.40150147545E-02 0.82744148165E-02 0.12678651013E-01 0.16058351557E-01 0.17408590136E-01
 0.99592663558E-02 0.71252927952E-02 0.43033682875E-02 0.20720926789E-02 0.77269865631E-03
 0.49772897335E-03 0.98552208835E-03 0.16623211999E-02 0.19750864828E-02 0.17456223031E-02
 0.11854014095E-02 0.62705872611E-03 0.35906863924E-03 0.70773557979E-03 0.20665696601E-02
 0.46053345212E-02 0.78814947763E-02 0.10845286409E-01 0.12383829243E-01 0.11983832414E-01
 0.57057777034E-02 0.40714139440E-02 0.20828634370E-02 0.77269865665E-03 0.86320258183E-03
 0.16243425709E-02 0.19376481112E-02 0.17335768842E-02 0.15001145993E-02 0.12221376728E-02
 0.76249204298E-03 0.52886119755E-03 0.86354085585E-03 0.14810046018E-02 0.22468990453E-02
 0.36486540892E-02 0.57074780117E-02 0.73347728737E-02 0.76142535175E-02 0.68668074156E-02
 0.32138402869E-02 0.19202390434E-02 0.49829348247E-03 0.49772897349E-03 0.16243425708E-02
 0.20171488882E-02 0.12829820521E-02 0.84022900921E-03 0.12078480366E-02 0.14010274529E-02
 0.11256367293E-02 0.11773441321E-02 0.15331752496E-02 0.13668738490E-02 0.10450270029E-02
 0.18103210487E-02 0.34127696956E-02 0.42891378716E-02 0.40710907123E-02 0.36949555494E-02
 0.12879733945E-02 0.20812270089E-03 -.17260103769E-03 0.98552208859E-03 0.19376481104E-02
 0.12829820513E-02 0.49000223712E-03 0.11709863140E-02 0.22187376772E-02 0.20514188379E-02
 0.13822511058E-02 0.13521145133E-02 0.12002016954E-02 0.21307115379E-03 -.24870002628E-03
 0.90843077700E-03 0.22688789883E-02 0.22748727671E-02 0.16940358762E-02 0.16109068181E-02
 0.12410297161E-03 -.36214389519E-03 0.30281929499E-03 0.16623211993E-02 0.17335768822E-02
 0.84022900741E-03 0.11709863127E-02 0.25966096419E-02 0.27887106575E-02 0.14761025304E-02
 0.70924089118E-03 0.88931244649E-03 0.43017329340E-03 -.58445534584E-03 -.32985190877E-03
 0.10239311621E-02 0.13104969234E-02 0.26771422502E-03 -.21659303886E-03 0.21404130776E-03
 0.13668683128E-03 0.96554432758E-04 0.11425825532E-02 0.19750864817E-02 0.15001145960E-02
 0.12078480336E-02 0.22187376755E-02 0.27887106572E-02 0.15033661500E-02 0.99729442873E-04
 0.32481417968E-03 0.85235748132E-03 0.13499093310E-03 -.57524041835E-03 0.57073635372E-04
 0.58184896285E-03 -.43641355645E-03 -.14908438822E-02 -.90409706046E-03 0.14180474535E-03
 0.25068969402E-03 0.41123271792E-03 0.14488297384E-02 0.17456223012E-02 0.12221376695E-02
 0.14010274503E-02 0.20514188363E-02 0.14761025304E-02 0.99729442667E-04 0.26656367965E-04
 0.10795964270E-02 0.10447518936E-02 -.21873738240E-03 -.72858122513E-03 -.32782502186E-03
 -.77279900097E-03 -.19004923462E-02 -.16555808999E-02 -.58363589286E-04 0.69855133343E-03
 -.36371116777E-03 0.32552454713E-03 0.13092817443E-02 0.11854014080E-02 0.76249204050E-03
 0.11256367279E-02 0.13822511060E-02 0.70924089142E-03 0.32481417940E-03 0.10795964264E-02
 0.14382097547E-02 0.18708062296E-03 -.12257593253E-02 -.13354961370E-02 -.11689020907E-02
 -.18018985989E-02 -.19862751011E-02 -.68170195638E-03 0.55113707715E-03 0.23015428581E-03
 -.67361745537E-03 0.59960031508E-03 0.11406797792E-02 0.62705872555E-03 0.52886119683E-03
 0.11773441324E-02 0.13521145143E-02 0.88931244667E-03 0.85235747976E-03 0.10447518914E-02
 0.18708062146E-03 -.13890667061E-02 -.20202458325E-02 -.16478372264E-02 -.16884172918E-02
 -.21221184324E-02 -.16259503071E-02 -.47633320063E-03 -.29738435253E-03 -.94723359348E-03
 0.13659275116E-03 0.11084870678E-02 0.83595269721E-03 0.35906863977E-03 0.86354085680E-03
 0.15331752516E-02 0.12002016968E-02 0.43017329270E-03 0.13499092995E-03 -.21873738591E-03
 -.12257593275E-02 -.20202458326E-02 -.18769164361E-02 -.16950703889E-02 -.22308559815E-02
 -.25517140976E-02 -.18754330225E-02 -.11590553266E-02 -.12025613121E-02 -.10263283677E-02
 0.96078680997E-03 0.10455938337E-02 0.51788097139E-03 0.70773558095E-03 0.14810046037E-02
 0.13668738512E-02 0.21307115447E-03 -.58445534777E-03 -.57524042234E-03 -.72858122844E-03
 -.13354961373E-02 -.16478372235E-02 -.16950703857E-02 -.22860373370E-02 -.31143125714E-02
 -.29779267527E-02 -.19313100203E-02 -.11621091036E-02 -.80833402027E-03 -.20276290041E-04
 0.10967815973E-02 0.10676145522E-02 0.12667499318E-02 0.20665696614E-02 0.22468990471E-02
 0.10450270043E-02 -.24870002669E-03 -.32985191164E-03 0.57073631716E-04 -.32782502295E-03
 -.11689020872E-02 -.16884172837E-02 -.22308559719E-02 -.31143125651E-02 -.33830293576E-02
 -.23468542682E-02 -.10021890715E-02 -.42404851164E-03 -.13461033608E-03 0.55131570252E-03
 0.21767805090E-02 0.29997361788E-02 0.40150147549E-02 0.46053345220E-02 0.36486540903E-02
 0.18103210490E-02 0.90843077564E-03 0.10239311593E-02 0.58184896064E-03 -.77279899933E-03
 -.18018985915E-02 -.21221184203E-02 -.25517140839E-02 -.29779267417E-02 -.23468542630E-02
 -.92203310177E-03 -.18668790419E-03 -.32624738353E-03 -.37360452232E-04 0.10880155334E-02
 0.57038454497E-02 0.72092864250E-02 0.82744148162E-02 0.78814947760E-02 0.57074780115E-02
 0.34127696949E-02 0.22688789866E-02 0.13104969213E-02 -.43641355734E-03 -.19004923432E-02
 -.19862750926E-02 -.16259502945E-02 -.18754330090E-02 -.19313100085E-02 -.10021890645E-02
 -.18668790142E-03 -.43490384697E-03 -.48662006929E-03 0.11152500064E-02 0.36516655003E-02
 0.10609962132E-01 0.12201845532E-01 0.12678651012E-01 0.10845286408E-01 0.73347728733E-02
 0.42891378706E-02 0.22748727653E-02 0.26771422319E-03 -.14908438833E-02 -.16555808982E-02
 -.68170195148E-03 -.47633319278E-03 -.11590553176E-02 -.11621090957E-02 -.42404850668E-03
 -.32624738113E-03 -.48662006883E-03 0.11384273059E-02 0.47473682543E-02 0.82812165381E-02
 0.15122004543E-01 0.16681432287E-01 0.16058351557E-01 0.12383829243E-01 0.76142535170E-02
 0.40710907112E-02 0.16940358745E-02 -.21659304116E-03 -.90409706323E-03 -.58363591243E-04
 0.55113707627E-03 -.29738435166E-03 -.12025613101E-02 -.80833401801E-03 -.13461033444E-03
 -.37360451593E-04 0.11152500064E-02 0.47473682544E-02 0.93481290839E-02 0.12796207908E-01
 0.18890961000E-01 0.19945702859E-01 0.17408590136E-01 0.11983832414E-01 0.68668074150E-02
 0.36949555486E-02 0.16109068161E-02 0.21404130455E-03 0.14180474050E-03 0.69855132761E-03
 0.23015427985E-03 -.94723359852E-03 -.10263283715E-02 -.20276292219E-04 0.55131570108E-03
 0.10880155326E-02 0.36516654999E-02 0.82812165381E-02 0.12796207908E-01 0.16183279494E-01
 0.47867341856E-01 0.45356406271E-01 0.35201561663E-01 0.22594496753E-01 0.13081693754E-01
 0.73195976622E-02 0.32446021943E-02 0.34262386046E-03 -.11620425591E-02 -.23723703939E-02
 -.37593256637E-02 -.36108151675E-02 -.11623506334E-02 0.14210742173E-02 0.28790400540E-02
 0.58313282627E-02 0.13080753308E-01 0.23522872231E-01 0.34136432569E-01 0.43002492845E-01
 0.45356406271E-01 0.38565378972E-01 0.26986171429E-01 0.16329943287E-01 0.92619926965E-02