    5    5    1    1
  0.3477306E+02  0.2573869E-09  0.2573869E-09  0.3030466E-08  0.5000000E-15
  1.000000000000000E-004
  CAR 
 unknown system                          
     45     14     28
 
  0.0000000E+00  0.0000000E+00  0.0000000E+00  0.1000000E-01
    1      -11.967406   1.000000
    2      -10.664573   1.000000
    3       -8.947253   1.000000
    4       -7.445112   1.000000
    5       -5.752163   1.000000
    6       -5.680368   1.000000
    7       -5.680116   1.000000
    8       -5.489553   1.000000
    9       -5.207810   1.000000
   10       -5.179651   1.000000
   11       -5.179343   1.000000
   12       -5.151319   1.000000
   13       -5.151064   1.000000
   14       -4.899970   1.000000
   15       -4.899684   1.000000
   16       -4.758377   1.000000
   17       -4.758313   1.000000
   18       -4.736272   1.000000
   19       -4.402895   1.000000
   20       -4.402815   1.000000
   21       -4.181789   1.000000
   22       -4.181755   1.000000
   23       -3.899736   1.000000
   24       -3.899665   1.000000
   25       -2.807162   1.000000
   26        1.633317   0.000000
   27        1.903396   0.000000
   28        2.298174   0.000000
 
  0.1000000E+00  0.6938894E-17  0.0000000E+00  0.6000000E-01
    1      -11.675443   1.000000
    2      -10.362685   1.000000
    3       -8.679231   1.000000
    4       -7.223136   1.000000
    5       -5.906496   1.000000
    6       -5.717641   1.000000
    7       -5.579282   1.000000
    8       -5.571490   1.000000
    9       -5.295907   1.000000
   10       -5.247341   1.000000
   11       -5.222812   1.000000
   12       -5.086637   1.000000
   13       -5.071485   1.000000
   14       -5.002080   1.000000
   15       -4.918859   1.000000
   16       -4.832771   1.000000
   17       -4.745417   1.000000
   18       -4.608562   1.000000
   19       -4.421386   1.000000
   20       -4.382356   1.000000
   21       -4.203862   1.000000
   22       -4.178192   1.000000
   23       -3.894828   1.000000
   24       -3.661257   1.000000
   25       -2.114509   0.024341
   26        1.888142   0.000000
   27        2.204075   0.000000
   28        2.599958   0.000000
 
  0.2000000E+00 -0.1387779E-16  0.0000000E+00  0.6000000E-01
    1      -10.853157   1.000000
    2       -9.504273   1.000000
    3       -7.977864   1.000000
    4       -6.696530   1.000000
    5       -6.217006   1.000000
    6       -5.857215   1.000000
    7       -5.717914   1.000000
    8       -5.593239   1.000000
    9       -5.413900   1.000000
   10       -5.288469   1.000000
   11       -5.196562   1.000000
   12       -5.111381   1.000000
   13       -5.004147   1.000000
   14       -4.918263   1.000000
   15       -4.841965   1.000000
   16       -4.769323   1.000000
   17       -4.699453   1.000000
   18       -4.530998   1.000000
   19       -4.474152   1.000000
   20       -4.368379   1.000000
   21       -4.180498   1.000000
   22       -3.986396   1.000000
   23       -3.888588   1.000000
   24       -2.755070   1.000000
   25       -0.764333   0.000000
   26        2.644091   0.000000
   27        3.105052   0.000000
   28        3.503334   0.000000
 
  0.3000000E+00 -0.2775558E-16  0.0000000E+00  0.6000000E-01
    1       -9.727887   1.000000
    2       -8.295134   1.000000
    3       -7.262177   1.000000
    4       -6.491475   1.000000
    5       -6.281981   1.000000
    6       -6.094857   1.000000
    7       -5.812071   1.000000
    8       -5.598293   1.000000
    9       -5.493374   1.000000
   10       -5.210939   1.000000
   11       -5.127336   1.000000
   12       -4.971708   1.000000
   13       -4.873373   1.000000
   14       -4.815187   1.000000
   15       -4.743993   1.000000
   16       -4.570532   1.000000
   17       -4.459287   1.000000
   18       -4.284523   1.000000
   19       -4.242443   1.000000
   20       -4.171420   1.000000
   21       -4.048638   1.000000
   22       -3.873903   1.000000
   23       -3.512036   1.000000
   24       -1.563432   0.000000
   25        0.932554   0.000000
   26        3.844446   0.000000
   27        4.528355   0.000000
   28        4.899103   0.000000
 
  0.4000000E+00 -0.2775558E-16  0.0000000E+00  0.6000000E-01
    1       -8.893730   1.000000
    2       -7.262645   1.000000
    3       -6.936653   1.000000
    4       -6.554531   1.000000
    5       -6.387009   1.000000
    6       -6.211907   1.000000
    7       -5.857683   1.000000
    8       -5.427721   1.000000
    9       -5.298759   1.000000
   10       -5.193809   1.000000
   11       -5.182511   1.000000
   12       -4.913500   1.000000
   13       -4.725546   1.000000
   14       -4.516878   1.000000
   15       -4.370276   1.000000
   16       -4.295309   1.000000
   17       -4.022660   1.000000
   18       -4.019773   1.000000
   19       -3.951077   1.000000
   20       -3.875915   1.000000
   21       -3.730443   1.000000
   22       -3.491977   1.000000
   23       -2.455875   0.997857
   24       -0.191608   0.000000
   25        1.700084   0.000000
   26        2.903532   0.000000
   27        3.670743   0.000000
   28        4.800818   0.000000
 
  0.5000000E+00 -0.2775558E-16  0.0000000E+00  0.3000000E-01
    1       -8.672485   1.000000
    2       -6.944768   1.000000
    3       -6.893662   1.000000
    4       -6.534968   1.000000
    5       -6.456971   1.000000
    6       -6.262831   1.000000
    7       -5.840337   1.000000
    8       -5.332646   1.000000
    9       -5.224260   1.000000
   10       -5.189891   1.000000
   11       -5.113971   1.000000
   12       -4.935710   1.000000
   13       -4.419155   1.000000
   14       -4.379699   1.000000
   15       -4.374999   1.000000
   16       -4.193433   1.000000
   17       -3.958606   1.000000
   18       -3.859720   1.000000
   19       -3.795253   1.000000
   20       -3.614891   1.000000
   21       -3.590197   1.000000
   22       -2.169977   0.117625
   23       -1.273364   0.000000
   24       -0.725434   0.000000
   25        0.512422   0.000000
   26        2.227997   0.000000
   27        3.386127   0.000000
   28        4.305099   0.000000
 
  0.2000000E+00  0.1000000E+00  0.0000000E+00  0.6000000E-01
    1      -11.116296   1.000000
    2       -9.780433   1.000000
    3       -8.188850   1.000000
    4       -6.835918   1.000000
    5       -6.137981   1.000000
    6       -5.778619   1.000000
    7       -5.715155   1.000000
    8       -5.530813   1.000000
    9       -5.373882   1.000000
   10       -5.356707   1.000000
   11       -5.250056   1.000000
   12       -5.073025   1.000000
   13       -5.018886   1.000000
   14       -5.003116   1.000000
   15       -4.871326   1.000000
   16       -4.804753   1.000000
   17       -4.617836   1.000000
   18       -4.539721   1.000000
   19       -4.507516   1.000000
   20       -4.375808   1.000000
   21       -4.261445   1.000000
   22       -3.995232   1.000000
   23       -3.931712   1.000000
   24       -3.013919   1.000000
   25       -1.161024   0.000000
   26        2.394482   0.000000
   27        2.805385   0.000000
   28        3.203351   0.000000
 
  0.3000000E+00  0.1000000E+00  0.0000000E+00  0.1200000E+00
    1      -10.124285   1.000000
    2       -8.726212   1.000000
    3       -7.449750   1.000000
    4       -6.425972   1.000000
    5       -6.247731   1.000000
    6       -5.987204   1.000000
    7       -5.818912   1.000000
    8       -5.696288   1.000000
    9       -5.533557   1.000000
   10       -5.224439   1.000000
   11       -5.191823   1.000000
   12       -5.137947   1.000000
   13       -5.002728   1.000000
   14       -4.899357   1.000000
   15       -4.829178   1.000000
   16       -4.693627   1.000000
   17       -4.544600   1.000000
   18       -4.396408   1.000000
   19       -4.274317   1.000000
   20       -4.205871   1.000000
   21       -4.059374   1.000000
   22       -3.953482   1.000000
   23       -3.626352   1.000000
   24       -1.992854   0.000111
   25        0.317484   0.000000
   26        3.404531   0.000000
   27        3.998267   0.000000
   28        4.407724   0.000000
 
  0.4000000E+00  0.1000000E+00  0.0000000E+00  0.1200000E+00
    1       -9.106834   1.000000
    2       -7.548939   1.000000
    3       -6.941789   1.000000
    4       -6.470284   1.000000
    5       -6.243629   1.000000
    6       -6.120214   1.000000
    7       -5.863338   1.000000
    8       -5.610307   1.000000
    9       -5.504964   1.000000
   10       -5.260232   1.000000
   11       -5.176916   1.000000
   12       -5.030182   1.000000
   13       -4.865374   1.000000
   14       -4.662634   1.000000
   15       -4.580544   1.000000
   16       -4.469249   1.000000
   17       -4.358546   1.000000
   18       -4.201813   1.000000
   19       -4.084153   1.000000
   20       -3.895946   1.000000
   21       -3.858082   1.000000
   22       -3.544030   1.000000
   23       -2.746682   1.000000
   24       -0.589563   0.000000
   25        2.033207   0.000000
   26        3.811843   0.000000
   27        4.664998   0.000000
   28        5.348673   0.000000
 
  0.5000000E+00  0.1000000E+00  0.0000000E+00  0.1200000E+00
    1       -8.636099   1.000000
    2       -6.879907   1.000000
    3       -6.792826   1.000000
    4       -6.462736   1.000000
    5       -6.357911   1.000000
    6       -6.162425   1.000000
    7       -5.848529   1.000000
    8       -5.529977   1.000000
    9       -5.335180   1.000000
   10       -5.268544   1.000000
   11       -5.146541   1.000000
   12       -4.940287   1.000000
   13       -4.781364   1.000000
   14       -4.458431   1.000000
   15       -4.349666   1.000000
   16       -4.177517   1.000000
   17       -4.079334   1.000000
   18       -4.013561   1.000000
   19       -3.938180   1.000000
   20       -3.781306   1.000000
   21       -3.392596   1.000000
   22       -2.265009   0.562382
   23       -1.245055   0.000000
   24        0.215963   0.000000
   25        0.944862   0.000000
   26        2.556814   0.000000
   27        3.580954   0.000000
   28        4.849477   0.000000
 
  0.4000000E+00  0.2000000E+00  0.0000000E+00  0.6000000E-01
    1       -9.192862   1.000000
    2       -7.652669   1.000000
    3       -6.909737   1.000000
    4       -6.347423   1.000000
    5       -6.180687   1.000000
    6       -5.952321   1.000000
    7       -5.886153   1.000000
    8       -5.791781   1.000000
    9       -5.494527   1.000000
   10       -5.367156   1.000000
   11       -5.296730   1.000000
   12       -5.220635   1.000000
   13       -4.930262   1.000000
   14       -4.850298   1.000000
   15       -4.712947   1.000000
   16       -4.556818   1.000000
   17       -4.398006   1.000000
   18       -4.239427   1.000000
   19       -4.124251   1.000000
   20       -3.895292   1.000000
   21       -3.855665   1.000000
   22       -3.486877   1.000000
   23       -2.743777   1.000000
   24       -0.717533   0.000000
   25        1.888543   0.000000
   26        4.670647   0.000000
   27        5.094651   0.000000
   28        5.665213   0.000000
 
  0.5000000E+00  0.2000000E+00  0.0000000E+00  0.1200000E+00
    1       -8.572583   1.000000
    2       -6.760423   1.000000
    3       -6.567564   1.000000
    4       -6.337727   1.000000
    5       -6.142305   1.000000
    6       -6.054370   1.000000
    7       -5.847271   1.000000
    8       -5.737568   1.000000
    9       -5.511138   1.000000
   10       -5.443704   1.000000
   11       -5.347637   1.000000
   12       -4.989223   1.000000
   13       -4.907602   1.000000
   14       -4.757574   1.000000
   15       -4.589842   1.000000
   16       -4.467449   1.000000
   17       -4.304867   1.000000
   18       -4.130582   1.000000
   19       -3.960073   1.000000
   20       -3.801766   1.000000
   21       -3.190928   1.000000
   22       -2.271961   0.600766
   23       -1.114264   0.000000
   24        0.922749   0.000000
   25        2.469769   0.000000
   26        3.620791   0.000000
   27        4.430212   0.000000
   28        5.115834   0.000000
 
 -0.4000000E+00  0.2000000E+00  0.0000000E+00  0.6000000E-01
    1       -8.413331   1.000000
    2       -6.535707   1.000000
    3       -6.492615   1.000000
    4       -6.256606   1.000000
    5       -6.185651   1.000000
    6       -5.994890   1.000000
    7       -5.836278   1.000000
    8       -5.780965   1.000000
    9       -5.537243   1.000000
   10       -5.373093   1.000000
   11       -5.295409   1.000000
   12       -5.026331   1.000000
   13       -4.861634   1.000000
   14       -4.619189   1.000000
   15       -4.490005   1.000000
   16       -4.437136   1.000000
   17       -4.191627   1.000000
   18       -4.050855   1.000000
   19       -3.970237   1.000000
   20       -3.868184   1.000000
   21       -2.356100   0.925804
   22       -0.592149   0.000000
   23       -0.006058   0.000000
   24        0.745107   0.000000
   25        0.991167   0.000000
   26        2.816256   0.000000
   27        4.180508   0.000000
   28        4.656124   0.000000
 
 -0.4000000E+00  0.3000000E+00  0.0000000E+00  0.6000000E-01
    1       -8.317460   1.000000
    2       -6.331771   1.000000
    3       -6.255999   1.000000
    4       -6.164421   1.000000
    5       -6.086814   1.000000
    6       -5.923216   1.000000
    7       -5.892446   1.000000
    8       -5.791230   1.000000
    9       -5.697743   1.000000
   10       -5.569080   1.000000
   11       -5.342896   1.000000
   12       -4.960555   1.000000
   13       -4.910067   1.000000
   14       -4.809524   1.000000
   15       -4.610532   1.000000
   16       -4.454276   1.000000
   17       -4.363180   1.000000
   18       -4.078680   1.000000
   19       -3.986547   1.000000
   20       -3.892087   1.000000
   21       -1.876468   0.000000
   22       -0.267086   0.000000
   23        0.911542   0.000000
   24        1.782940   0.000000
   25        2.452427   0.000000
   26        2.465719   0.000000
   27        3.282243   0.000000
   28        4.150767   0.000000
