unknown system                          
   1.00000000000000     
     2.573869    0.000000    0.000000
     1.286934    2.229036    0.000000
     0.000000    0.000000   30.304665
   Cu   H 
     4     1
Direct
  0.000000  0.000000  0.396440
  0.333332  0.333332  0.465152
  0.666668  0.666665  0.533916
  0.000000  0.000000  0.606744
  0.333332  0.333332  0.631467
 
   10   10  120
 -.20817E-16 0.79797E-16 0.45935E-14 0.10361E-09 0.40171E-12 0.82960E-11 0.46296E-13 0.65289E-09 0.17174E-14 0.41633E-16
 0.65919E-16 0.55858E-15 0.24149E-12 0.21814E-09 0.36859E-12 0.11417E-10 0.57232E-13 0.42921E-12 0.11154E-14 0.39899E-16
 0.45103E-14 0.24147E-12 0.36759E-11 0.40153E-11 0.11609E-12 0.11520E-11 0.76036E-13 0.33978E-12 0.29282E-14 0.52736E-15
 0.10361E-09 0.21814E-09 0.40152E-11 0.11018E-11 0.25396E-12 0.30267E-09 0.56913E-13 0.30464E-11 0.21001E-12 0.61331E-12
 0.40176E-12 0.36851E-12 0.11596E-12 0.25380E-12 0.15193E-12 0.25352E-12 0.13323E-13 0.39307E-12 0.20456E-12 0.21250E-12
 0.82959E-11 0.11417E-10 0.11521E-11 0.30267E-09 0.25349E-12 0.37433E-11 0.32988E-13 0.57940E-13 0.29837E-13 0.67049E-11
 0.46366E-13 0.57288E-13 0.76023E-13 0.56954E-13 0.13364E-13 0.33043E-13 0.99226E-14 0.30531E-14 0.34417E-14 0.30448E-13
 0.65289E-09 0.42921E-12 0.33978E-12 0.30465E-11 0.39310E-12 0.57968E-13 0.31086E-14 0.46352E-14 0.42744E-13 0.49903E-11
 0.16098E-14 0.10807E-14 0.29247E-14 0.21001E-12 0.20454E-12 0.29796E-13 0.34417E-14 0.42744E-13 0.19246E-12 0.12365E-12
 -.27756E-16 0.38164E-16 0.51174E-15 0.61334E-12 0.21254E-12 0.67051E-11 0.30420E-13 0.49902E-11 0.12373E-12 0.17156E-14
 -.48572E-16 0.79797E-16 0.85279E-14 0.14426E-11 0.29768E-13 0.53874E-12 0.28397E-12 0.15700E-11 0.14953E-14 0.10061E-15
 0.79797E-16 0.76675E-15 0.32581E-12 0.12591E-10 0.10092E-12 0.77794E-10 0.21000E-12 0.55419E-12 0.16896E-14 0.88471E-16
 0.84967E-14 0.32584E-12 0.23274E-11 0.37894E-11 0.46629E-13 0.99148E-12 0.18646E-12 0.38988E-12 0.45450E-14 0.68001E-15
 0.14425E-11 0.12591E-10 0.37895E-11 0.46093E-11 0.11952E-12 0.29808E-09 0.22092E-12 0.35085E-11 0.22035E-12 0.73216E-12
 0.29740E-13 0.10096E-12 0.46574E-13 0.11927E-12 0.40301E-13 0.71818E-13 0.14919E-13 0.12330E-12 0.16270E-12 0.70083E-13
 0.53875E-12 0.77794E-10 0.99147E-12 0.29808E-09 0.71734E-13 0.33202E-11 0.92246E-13 0.24131E-12 0.92995E-13 0.78071E-10
 0.28387E-12 0.21000E-12 0.18648E-12 0.22091E-12 0.14919E-13 0.92301E-13 0.43479E-13 0.15210E-13 0.93259E-14 0.82295E-13
 0.15700E-11 0.55422E-12 0.38985E-12 0.35086E-11 0.12330E-12 0.24136E-12 0.15210E-13 0.16320E-13 0.14919E-12 0.94297E-10
 0.13912E-14 0.16272E-14 0.45380E-14 0.22028E-12 0.16269E-12 0.92940E-13 0.92981E-14 0.14913E-12 0.21069E-12 0.12033E-12
 0.48572E-16 0.72858E-16 0.71124E-15 0.73216E-12 0.70124E-13 0.78071E-10 0.82281E-13 0.94297E-10 0.12042E-12 0.28068E-14
  0.0000     0.12490E-15 0.91385E-14 0.43202E-13 0.50376E-14 0.34237E-13 0.64684E-13 0.49322E-13 0.52042E-15 0.93675E-16
 0.55511E-16 0.61062E-15 0.43300E-12 0.28127E-11 0.34389E-13 0.10040E-10 0.71262E-12 0.74364E-12 0.21372E-14 0.97145E-16
 0.90553E-14 0.43306E-12 0.11220E-11 0.26559E-12 0.15959E-13 0.16259E-12 0.27521E-12 0.39364E-12 0.54956E-14 0.86042E-15
 0.43132E-13 0.28127E-11 0.26568E-12 0.11235E-12 0.16431E-13 0.12005E-11 0.75506E-12 0.38622E-11 0.22632E-12 0.85039E-12
 0.50238E-14 0.34223E-13 0.15793E-13 0.16293E-13 0.95757E-14 0.25840E-13 0.11796E-13 0.39899E-13 0.81171E-13 0.22760E-13
 0.34195E-13 0.10040E-10 0.16273E-12 0.12005E-11 0.25813E-13 0.35090E-11 0.30587E-12 0.15373E-11 0.16825E-12 0.62485E-11
 0.64615E-13 0.71268E-12 0.27531E-12 0.75501E-12 0.11782E-13 0.30594E-12 0.28767E-12 0.11230E-12 0.25396E-13 0.26529E-12
 0.49252E-13 0.74359E-12 0.39356E-12 0.38623E-11 0.39926E-13 0.15373E-11 0.11222E-12 0.13267E-12 0.27633E-12 0.69564E-10
 0.47184E-15 0.20955E-14 0.55442E-14 0.22635E-12 0.81143E-13 0.16818E-12 0.25369E-13 0.27628E-12 0.13990E-12 0.12049E-12
 0.34694E-16 0.52042E-16 0.82573E-15 0.85040E-12 0.22871E-13 0.62487E-11 0.26519E-12 0.69564E-10 0.12058E-12 0.42744E-14
 -.34694E-16 0.12490E-15 0.66197E-14 0.82295E-14 0.18319E-14 0.59952E-14 0.86875E-14 0.10103E-13 0.16653E-15 0.83267E-16
 0.13878E-15 0.63838E-15 0.56534E-12 0.14394E-11 0.15182E-13 0.22741E-11 0.10035E-10 0.86969E-12 0.31919E-14 0.11102E-15
 0.65781E-14 0.56527E-12 0.78612E-12 0.10084E-12 0.70499E-14 0.75717E-13 0.40894E-12 0.43228E-12 0.62728E-14 0.81879E-15
 0.81601E-14 0.14393E-11 0.10097E-12 0.26867E-13 0.46074E-14 0.42910E-12 0.13677E-10 0.40496E-11 0.18949E-12 0.80622E-12
 0.18874E-14 0.15071E-13 0.68834E-14 0.43021E-14 0.27756E-14 0.12046E-13 0.11019E-13 0.20567E-13 0.42424E-13 0.11394E-13
 0.59119E-14 0.22740E-11 0.75634E-13 0.42905E-12 0.12018E-13 0.32751E-11 0.16238E-11 0.10576E-10 0.35656E-12 0.18474E-11
 0.87430E-14 0.10035E-10 0.40901E-12 0.13677E-10 0.10950E-13 0.16239E-11 0.11535E-09 0.80259E-11 0.87264E-13 0.10762E-11
 0.10117E-13 0.86972E-12 0.43225E-12 0.40495E-11 0.20664E-13 0.10576E-10 0.80259E-11 0.12200E-09 0.63227E-12 0.63401E-11
 0.69389E-16 0.31364E-14 0.63283E-14 0.18949E-12 0.42466E-13 0.35659E-12 0.87264E-13 0.63223E-12 0.63533E-13 0.94674E-13
 0.55511E-16 0.16653E-15 0.84655E-15 0.80629E-12 0.11408E-13 0.18474E-11 0.10762E-11 0.63400E-11 0.94771E-13 0.66197E-14
  0.0000     0.13878E-15 0.43854E-14 0.21788E-14 0.61062E-15 0.17208E-14 0.11935E-14 0.29976E-14 0.41633E-16 0.69389E-16
 0.13878E-15 0.48572E-15 0.73544E-12 0.65115E-12 0.68279E-14 0.60293E-12 0.24547E-08 0.10633E-11 0.45103E-14 0.16653E-15
 0.43299E-14 0.73548E-12 0.47901E-12 0.16431E-13 0.29698E-14 0.16431E-13 0.16809E-12 0.46160E-12 0.76467E-14 0.13184E-14
 0.22204E-14 0.65103E-12 0.16487E-13 0.72164E-14 0.11657E-14 0.11716E-12 0.30283E-07 0.45062E-11 0.24195E-12 0.10881E-11
 0.62450E-15 0.66613E-14 0.28311E-14 0.94369E-15 0.88818E-15 0.54956E-14 0.65781E-14 0.84932E-14 0.23204E-13 0.47462E-14
 0.16376E-14 0.60282E-12 0.16459E-13 0.11710E-12 0.56066E-14 0.37108E-11 0.38222E-11 0.19864E-10 0.21687E-12 0.17376E-11
 0.11657E-14 0.24547E-08 0.16814E-12 0.30283E-07 0.66336E-14 0.38222E-11 0.11591E-10 0.63914E-12 0.10085E-12 0.16176E-11
 0.29143E-14 0.10633E-11 0.46146E-12 0.45062E-11 0.85904E-14 0.19864E-10 0.63913E-12 0.21809E-12 0.32065E-12 0.30428E-11
  0.0000     0.44270E-14 0.76467E-14 0.24199E-12 0.23204E-13 0.21681E-12 0.10084E-12 0.32054E-12 0.23911E-13 0.10053E-12
 0.97145E-16 0.19429E-15 0.13878E-14 0.10882E-11 0.47601E-14 0.17377E-11 0.16176E-11 0.30428E-11 0.10059E-12 0.12601E-13
 -.13878E-16 0.83267E-16 0.29005E-14 0.94369E-15 0.36082E-15 0.77716E-15 0.27756E-15 0.13184E-14 0.41633E-16 0.12490E-15
 0.97145E-16 0.56899E-15 0.14973E-11 0.42649E-12 0.39968E-14 0.32646E-12 0.55184E-09 0.12008E-11 0.73830E-14 0.24980E-15
 0.28311E-14 0.14973E-11 0.36943E-12 0.74385E-14 0.16931E-14 0.92149E-14 0.75218E-13 0.60707E-12 0.10450E-13 0.13461E-14
 0.86042E-15 0.42644E-12 0.75773E-14 0.39968E-14 0.58287E-15 0.64282E-13 0.30667E-09 0.44266E-11 0.24881E-12 0.10719E-11
 0.33307E-15 0.40523E-14 0.16376E-14 0.44409E-15 0.41633E-15 0.32196E-14 0.59674E-14 0.52319E-14 0.15918E-13 0.28866E-14
 0.72164E-15 0.32646E-12 0.92426E-14 0.64199E-13 0.30531E-14 0.36084E-11 0.37183E-11 0.16516E-12 0.16212E-12 0.15324E-11
 0.38858E-15 0.55184E-09 0.75162E-13 0.30667E-09 0.59397E-14 0.37184E-11 0.85448E-12 0.78548E-13 0.72067E-13 0.11322E-11
 0.12351E-14 0.12009E-11 0.60700E-12 0.44266E-11 0.52180E-14 0.16522E-12 0.78410E-13 0.11963E-13 0.21518E-12 0.15574E-11
 -.55511E-16 0.73830E-14 0.10450E-13 0.24873E-12 0.15987E-13 0.16208E-12 0.71998E-13 0.21508E-12 0.93536E-14 0.90566E-13
 0.11102E-15 0.18041E-15 0.13323E-14 0.10719E-11 0.29282E-14 0.15325E-11 0.11322E-11 0.15573E-11 0.90608E-13 0.20525E-13
 0.27756E-16 0.18041E-15 0.17486E-14 0.31919E-15 0.19429E-15 0.33307E-15 0.83267E-16 0.62450E-15 0.83267E-16 0.11102E-15
 0.16653E-15 0.15266E-15 0.18012E-11 0.24765E-12 0.19706E-14 0.15485E-12 0.86084E-11 0.13926E-11 0.91038E-14 0.48572E-15
 0.16792E-14 0.18011E-11 0.25530E-12 0.19151E-14 0.88818E-15 0.31641E-14 0.19179E-13 0.55718E-12 0.10797E-13 0.13461E-14
 0.29143E-15 0.24755E-12 0.16931E-14 0.18874E-14 0.16653E-15 0.30753E-13 0.58633E-11 0.46606E-11 0.25271E-12 0.14313E-11
 0.19429E-15 0.19429E-14 0.83267E-15 0.22204E-15 0.30531E-15 0.15266E-14 0.32890E-14 0.29282E-14 0.95479E-14 0.14433E-14
 0.36082E-15 0.15479E-12 0.32474E-14 0.30809E-13 0.16098E-14 0.44752E-11 0.71419E-12 0.15543E-14 0.63005E-13 0.68761E-11
 0.13878E-15 0.86085E-11 0.19151E-13 0.58633E-11 0.32613E-14 0.71423E-12 0.70402E-13 0.11893E-13 0.14877E-13 0.30668E-12
 0.52736E-15 0.13926E-11 0.55714E-12 0.46606E-11 0.29421E-14 0.15959E-14 0.11893E-13 0.65226E-15 0.79353E-13 0.11433E-11
 0.13878E-16 0.90900E-14 0.10783E-13 0.25273E-12 0.95479E-14 0.62964E-13 0.14766E-13 0.79325E-13 0.27756E-16 0.84682E-13
 0.12490E-15 0.54123E-15 0.13739E-14 0.14314E-11 0.14988E-14 0.68762E-11 0.30668E-12 0.11433E-11 0.84766E-13 0.41883E-13
 0.41633E-16 0.97145E-16 0.13600E-14 0.20817E-15 0.18041E-15 0.15266E-15 0.83267E-16 0.34694E-15 0.27756E-16 0.83267E-16
 0.11102E-15 0.12490E-15 0.83919E-11 0.18208E-12 0.10825E-14 0.10308E-12 0.14014E-11 0.14563E-11 0.14849E-13 0.68001E-15
 0.12768E-14 0.83918E-11 0.23463E-12 0.72164E-15 0.55511E-15 0.14433E-14 0.64670E-14 0.72858E-12 0.14266E-13 0.16445E-14
 0.20817E-15 0.18206E-12 0.74940E-15 0.13878E-14 0.19429E-15 0.19984E-13 0.88082E-12 0.44015E-11 0.26330E-12 0.19009E-11
 0.15266E-15 0.11657E-14 0.61062E-15 0.83267E-16 0.11102E-15 0.94369E-15 0.26923E-14 0.18874E-14 0.68348E-14 0.88818E-15
 0.23592E-15 0.10303E-12 0.13600E-14 0.19901E-13 0.97145E-15 0.44719E-11 0.24938E-12 0.41633E-16 0.33973E-13 0.67483E-09
 0.83267E-16 0.14014E-11 0.64532E-14 0.88096E-12 0.26507E-14 0.24930E-12 0.20609E-13 0.44548E-14 0.52736E-14 0.12168E-12
 0.34694E-15 0.14563E-11 0.72858E-12 0.44015E-11 0.19151E-14 0.83267E-16 0.43993E-14 0.13878E-15 0.43243E-13 0.78684E-12
  0.0000     0.14794E-13 0.14225E-13 0.26323E-12 0.68695E-14 0.34001E-13 0.53013E-14 0.43195E-13 0.31086E-14 0.79568E-13
 0.20817E-16 0.70777E-15 0.16792E-14 0.19011E-11 0.94369E-15 0.67483E-09 0.12163E-12 0.78676E-12 0.79652E-13 0.90483E-13
 0.13878E-15 0.83267E-16 0.10755E-14 0.83267E-16 0.83267E-16 0.11102E-15  0.0000     0.20123E-15 0.55511E-16 0.83267E-16
 0.55511E-16  0.0000     0.10137E-10 0.12571E-12 0.77716E-15 0.67623E-13 0.35522E-12 0.15651E-11 0.22371E-13 0.94369E-15
 0.10339E-14 0.10137E-10 0.23417E-12 0.44409E-15 0.36082E-15 0.91593E-15 0.23315E-14 0.69471E-12 0.16681E-13 0.24078E-14
 0.13878E-15 0.12565E-12 0.36082E-15 0.75287E-15 0.83267E-16 0.15266E-13 0.20529E-12 0.45281E-11 0.22139E-12 0.10058E-11
 0.41633E-16 0.80491E-15 0.47184E-15 0.55511E-16 0.41633E-16 0.72164E-15 0.20609E-14 0.11935E-14 0.48780E-14 0.49960E-15
 0.90206E-16 0.67508E-13 0.97145E-15 0.15349E-13 0.81879E-15 0.64408E-11 0.99039E-13 0.27756E-15 0.20463E-13 0.10240E-11
 0.83267E-16 0.35533E-12 0.24286E-14 0.20534E-12 0.20470E-14 0.99087E-13 0.78826E-14 0.18804E-14 0.21649E-14 0.51611E-13
 0.69389E-16 0.15651E-11 0.69469E-12 0.45281E-11 0.12074E-14 0.29143E-15 0.17972E-14 0.83267E-16 0.24869E-13 0.65722E-12
 0.55511E-16 0.22343E-13 0.16709E-13 0.22142E-12 0.48850E-14 0.20407E-13 0.21094E-14 0.24813E-13 0.97006E-14 0.66960E-13
 0.10408E-15 0.11102E-14 0.24286E-14 0.10058E-11 0.54817E-15 0.10241E-11 0.51514E-13 0.65725E-12 0.67016E-13 0.36113E-12
 0.13878E-16 0.41633E-16 0.10200E-14 0.55511E-16 0.48572E-16 0.62450E-16  0.0000     0.15959E-15 0.12490E-15 0.27756E-16
 0.20817E-16 -.13878E-16 0.27138E-09 0.85473E-13 0.43715E-15 0.47570E-13 0.11838E-12 0.14749E-11 0.36735E-13 0.19706E-14
 0.97838E-15 0.27138E-09 0.24838E-12 0.86736E-16 0.25674E-15 0.31225E-15 0.72164E-15 0.84780E-12 0.20581E-13 0.45658E-14
 -.13878E-16 0.85543E-13 0.52042E-16 0.59501E-15 0.65919E-16 0.12219E-13 0.65059E-13 0.41424E-11 0.24526E-12 0.19251E-11
 0.97145E-16 0.56552E-15 0.32613E-15 -.10408E-15 -.48572E-16 0.52736E-15 0.14155E-14 0.85348E-15 0.36082E-14 0.37470E-15
 0.55511E-16 0.47497E-13 0.31919E-15 0.12216E-13 0.36082E-15 0.68001E-11 0.43347E-13 0.91593E-15 0.11220E-13 0.17987E-12
 0.13878E-16 0.11841E-12 0.73552E-15 0.65004E-13 0.14502E-14 0.43368E-13 0.37748E-14 0.91593E-15 0.92981E-15 0.25265E-13
 0.10408E-15 0.14749E-11 0.84780E-12 0.41425E-11 0.84655E-15 0.95757E-15 0.90206E-15 0.27756E-16 0.14003E-13 0.51544E-12
 0.41633E-16 0.36679E-13 0.20518E-13 0.24524E-12 0.35527E-14 0.11179E-13 0.86042E-15 0.13975E-13 0.12566E-13 0.63997E-13
 -.69389E-17 0.20123E-14 0.45797E-14 0.19251E-11 0.34694E-15 0.17984E-12 0.25251E-13 0.51541E-12 0.64032E-13 0.66582E-11
 0.27756E-16 0.13878E-16 0.89512E-15 0.34694E-16 0.83267E-16 0.11102E-15 -.20817E-16 0.14572E-15 0.11796E-15 0.34694E-16
 0.13878E-16 0.29143E-14 0.27462E-09 0.67564E-13 0.26368E-15 0.34819E-13 0.63789E-13 0.15415E-11 0.50876E-13 0.39552E-14
 0.86736E-15 0.27462E-09 0.23265E-12 0.38164E-16 0.10755E-15 0.29837E-15 0.83267E-16 0.84537E-12 0.21871E-13 0.28380E-14
 0.69389E-17 0.67626E-13 0.69389E-16 0.38164E-15 0.15266E-15 0.12153E-13 0.36117E-13 0.41362E-11 0.22082E-12 0.85340E-12
 0.55511E-16 0.33307E-15 0.19429E-15 0.13878E-16 -.72858E-16 0.33307E-15 0.10755E-14 0.58287E-15 0.25258E-14 0.27756E-15
 0.13878E-15 0.34736E-13 0.27756E-15 0.12098E-13 0.36082E-15 0.98840E-11 0.24397E-13 0.61062E-15 0.73899E-14 0.68931E-13
 0.13878E-16 0.63810E-13 0.14572E-15 0.36186E-13 0.11241E-14 0.24418E-13 0.20123E-14 0.48572E-15 0.49266E-15 0.15273E-13
 0.27756E-16 0.15414E-11 0.84541E-12 0.41363E-11 0.63838E-15 0.70777E-15 0.44409E-15 0.20817E-16 0.89373E-14 0.44722E-12
 0.20817E-16 0.50820E-13 0.21788E-13 0.22080E-12 0.25258E-14 0.73691E-14 0.39552E-15 0.89304E-14 0.17229E-13 0.54304E-13
 -.41633E-16 0.39690E-14 0.27478E-14 0.85332E-12 0.23592E-15 0.69021E-13 0.15252E-13 0.44727E-12 0.54304E-13 0.29496E-11
 0.76328E-16 0.27756E-16 0.80491E-15 -.27756E-16 0.10408E-15 0.41633E-16 -.27756E-16 0.83267E-16 0.62450E-16 -.20817E-16
 0.48572E-16 0.23460E-13 0.15690E-08 0.47545E-13 0.15266E-15 0.25903E-13 0.29948E-13 0.13559E-11 0.71859E-13 0.87708E-14
 0.81879E-15 0.15690E-08 0.25273E-12 0.41633E-16 0.13184E-15 0.27756E-15 0.48572E-16 0.74495E-12 0.24064E-13 0.42882E-14
 -.62450E-16 0.47656E-13 0.55511E-16 0.54123E-15 0.12490E-15 0.11137E-13 0.16334E-13 0.37130E-11 0.22361E-12 0.70223E-12
 0.11102E-15 0.23592E-15 0.18735E-15 -.34694E-16 -.27756E-16 0.28449E-15 0.72164E-15 0.42327E-15 0.21025E-14 0.15266E-15
 -.62450E-16 0.25820E-13 0.11102E-15 0.10957E-13 0.18041E-15 0.13722E-10 0.14024E-13 0.51348E-15 0.54332E-14 0.22538E-13
  0.0000     0.29921E-13 0.69389E-16 0.16299E-13 0.81879E-15 0.14100E-13 0.13808E-14 0.28449E-15 0.33307E-15 0.87708E-14
 0.27756E-16 0.13559E-11 0.74501E-12 0.37131E-11 0.45797E-15 0.53429E-15 0.31919E-15 -.69389E-17 0.66752E-14 0.37630E-12
 0.27756E-16 0.71804E-13 0.24016E-13 0.22354E-12 0.21233E-14 0.55025E-14 0.27062E-15 0.65781E-14 0.15460E-13 0.48905E-13
 -.41633E-16 0.88263E-14 0.43437E-14 0.70226E-12 0.10408E-15 0.22718E-13 0.87569E-14 0.37631E-12 0.48885E-13 0.74180E-12
 -.97145E-16 0.69389E-17 0.79797E-15 -.41633E-16 0.48572E-16 0.41633E-16 -.34694E-16 0.10408E-15 0.48572E-16 -.13878E-16
 -.27756E-16 0.15578E-12 0.98250E-11 0.38615E-13 0.62450E-16 0.20373E-13 0.19831E-13 0.13297E-11 0.12071E-12 0.25771E-13
 0.83267E-15 0.98250E-11 0.24510E-12 -.76328E-16 0.55511E-16 0.10408E-15 -.48572E-16 0.87316E-12 0.29851E-13 0.86459E-14
 -.27756E-16 0.38664E-13 -.41633E-16 0.34694E-15 0.41633E-16 0.10429E-13 0.10450E-13 0.35632E-11 0.19831E-12 0.23050E-12
 0.62450E-16 0.97145E-16 0.14572E-15 -.34694E-16 -.20817E-16 0.13878E-15 0.70777E-15 0.33307E-15 0.17000E-14 0.11796E-15
 0.41633E-16 0.20324E-13 0.10408E-15 0.10519E-13 0.20817E-15 0.29675E-10 0.92495E-14 0.49960E-15 0.35527E-14 0.11866E-13
 -.27756E-16 0.19915E-13 -.62450E-16 0.10429E-13 0.66613E-15 0.93606E-14 0.83267E-15 0.24980E-15 0.22204E-15 0.60923E-14
 0.34694E-16 0.13297E-11 0.87318E-12 0.35632E-11 0.43021E-15 0.56899E-15 0.24980E-15 0.34694E-16 0.44964E-14 0.33529E-12
 0.34694E-16 0.12067E-12 0.29754E-13 0.19827E-12 0.16653E-14 0.34833E-14 0.18041E-15 0.45103E-14 0.17056E-13 0.43694E-13
 -.62450E-16 0.25778E-13 0.86528E-14 0.23054E-12 0.17347E-15 0.11956E-13 0.60299E-14 0.33521E-12 0.43736E-13 0.32901E-12
 -.20817E-16 -.62450E-16 0.63144E-15 -.13878E-16 0.34694E-16 -.90206E-16 -.62450E-16 0.41633E-16 0.20817E-16 0.41633E-16
 -.69389E-17 0.91188E-12 0.15845E-09 0.28769E-13 0.62450E-16 0.16306E-13 0.12101E-13 0.11681E-11 0.13355E-12 0.73448E-13
 0.70083E-15 0.15845E-09 0.27833E-12 -.97145E-16 -.20817E-16 0.97145E-16 -.41633E-16 0.53312E-12 0.23745E-13 0.14717E-13
 -.27756E-16 0.28852E-13 0.12490E-15 0.29143E-15 0.97145E-16 0.10367E-13 0.60091E-14 0.30979E-11 0.16277E-12 0.21289E-13
 0.97145E-16 0.62450E-16 0.12490E-15 -.97145E-16 -.11102E-15 0.22898E-15 0.44409E-15 0.18735E-15 0.16098E-14 0.83267E-16
  0.0000     0.16140E-13 0.13878E-16 0.10214E-13 0.13878E-15 0.47426E-10 0.59466E-14 0.39552E-15 0.27270E-14 0.43299E-14
 -.41633E-16 0.12129E-13 -.62450E-16 0.60299E-14 0.45797E-15 0.59952E-14 0.50654E-15 0.18735E-15 0.90206E-16 0.38858E-14
 -.34694E-16 0.11681E-11 0.53309E-12 0.30980E-11 0.24286E-15 0.51348E-15 0.14572E-15 -.62450E-16 0.35388E-14 0.29816E-12
 -.48572E-16 0.13351E-12 0.23641E-13 0.16275E-12 0.16723E-14 0.26715E-14 0.90206E-16 0.34694E-14 0.14752E-13 0.38115E-13
 -.27756E-16 0.73531E-13 0.14731E-13 0.21275E-13 0.15266E-15 0.44478E-14 0.38511E-14 0.29810E-12 0.38192E-13 0.26672E-12
 -.41633E-16 -.13878E-16 0.77716E-15 -.34694E-16 0.48572E-16 0.62450E-16 0.27756E-16 0.97145E-16 0.34694E-16 -.34694E-16
 -.76328E-16 0.20090E-12 0.50395E-11 0.22815E-13 0.62450E-16 0.14079E-13 0.83406E-14 0.14377E-11 0.19210E-12 0.91779E-12
 0.77716E-15 0.50395E-11 0.28146E-12 -.83267E-16  0.0000     0.16653E-15 0.13878E-16 0.93134E-12 0.31863E-13 0.46255E-13
 -.41633E-16 0.22871E-13 0.48572E-16 0.43021E-15 0.24980E-15 0.10603E-13 0.41356E-14 0.29513E-11 0.17851E-12 0.47948E-13
 0.27756E-16 0.19429E-15 -.20817E-16 -.13878E-16 -.83267E-16 0.11102E-15 0.41633E-15 0.11102E-15 0.13253E-14  0.0000    
 0.27756E-16 0.14024E-13 0.10408E-15 0.10630E-13 0.20123E-15 0.11170E-09 0.42466E-14 0.40593E-15 0.20713E-14 0.32960E-14
  0.0000     0.83822E-14 0.27756E-16 0.41425E-14 0.43021E-15 0.42605E-14 0.48572E-15 0.12143E-15 0.10755E-15 0.30045E-14
 -.69389E-17 0.14377E-11 0.93137E-12 0.29513E-11 0.22204E-15 0.44409E-15 0.86736E-16 0.24286E-16 0.35388E-14 0.27456E-12
 -.48572E-16 0.19205E-12 0.31780E-13 0.17854E-12 0.14155E-14 0.20817E-14 0.72858E-16 0.35735E-14 0.14932E-13 0.35416E-13
 -.41633E-16 0.91784E-12 0.46248E-13 0.47969E-13 0.13878E-15 0.33654E-14 0.30739E-14 0.27454E-12 0.35486E-13 0.22272E-12
 -.27756E-16 -.55511E-16 0.55511E-15 -.55511E-16 0.97145E-16 -.48572E-16 -.20817E-16 0.69389E-17 0.48572E-16 -.69389E-17
 -.69389E-16 0.89498E-13 0.13263E-10 0.17347E-13 -.11102E-15 0.98602E-14 0.56274E-14 0.14658E-11 0.15414E-12 0.20897E-10
 0.58981E-15 0.13263E-10 0.29835E-12 -.34694E-16 -.12490E-15 -.48572E-16 0.69389E-17 0.86377E-12 0.19866E-13 0.15453E-13
 -.41633E-16 0.17389E-13 0.41633E-16 0.30531E-15 0.27756E-16 0.85487E-14 0.24911E-14 0.25385E-11 0.14581E-12 0.76217E-13
 0.69389E-17 -.12490E-15 -.69389E-16 -.69389E-16 -.55511E-16 0.13878E-16 0.22204E-15 0.69389E-16 0.12108E-14 0.48572E-16
 -.10408E-15 0.99018E-14 -.90206E-16 0.84099E-14 0.69389E-17 0.85901E-09 0.27825E-14 0.45450E-15 0.14017E-14 0.26368E-15
 -.55511E-16 0.57038E-14  0.0000     0.25674E-14 0.24980E-15 0.27651E-14 0.22378E-15 0.27756E-16 -.36429E-16 0.20123E-14
 -.69389E-17 0.14658E-11 0.86382E-12 0.25386E-11 0.97145E-16 0.45797E-15 -.21684E-16 -.17347E-16 0.22881E-14 0.24987E-12
 -.55511E-16 0.15411E-12 0.19811E-13 0.14575E-12 0.12282E-14 0.14329E-14 -.36429E-16 0.22222E-14 0.14350E-13 0.30288E-13
 -.48572E-16 0.20897E-10 0.15439E-13 0.76231E-13 0.34694E-17 0.34694E-15 0.20019E-14 0.24989E-12 0.30267E-13 0.18200E-12
 0.55511E-16 -.27756E-16 0.77716E-15 0.62450E-16 0.83267E-16  0.0000     0.97145E-16 0.83267E-16 0.55511E-16 -.34694E-16
 -.20817E-16 0.78056E-13 0.94862E-11 0.13600E-13 0.83267E-16 0.95965E-14 0.39760E-14 0.14916E-11 0.22042E-12 0.25549E-10
 0.84655E-15 0.94863E-11 0.30147E-12 0.27756E-16 -.69389E-17 0.55511E-16 0.16653E-15 0.76560E-12 0.24925E-13 0.63449E-13
 0.76328E-16 0.13559E-13 0.69389E-17 0.36082E-15 0.27756E-15 0.10519E-13 0.17902E-14 0.23792E-11 0.15915E-12 0.14037E-13
 0.27756E-16 0.55511E-16 0.55511E-16 0.90206E-16 -.27756E-16 -.83267E-16 0.27062E-15 0.11102E-15 0.13496E-14 -.17347E-16
 0.55511E-16 0.94993E-14 0.21511E-15 0.10436E-13 0.13878E-15 0.15971E-09 0.26645E-14 0.30271E-15 0.17555E-14 0.10460E-14
 0.69389E-16 0.39829E-14 0.13878E-15 0.18041E-14 0.32613E-15 0.26368E-14 0.31052E-15 0.83267E-16 0.21684E-17 0.17989E-14
 -.27756E-16 0.14916E-11 0.76560E-12 0.23792E-11 0.19429E-15 0.30228E-15 0.55511E-16 -.12143E-16 0.34348E-14 0.21294E-12
 -.27756E-16 0.22037E-12 0.24855E-13 0.15928E-12 0.14121E-14 0.17417E-14 0.39899E-16 0.34174E-14 0.12670E-13 0.27603E-13
 -.69389E-17 0.25549E-10 0.63449E-13 0.14065E-13 0.79797E-16 0.10929E-14 0.17677E-14 0.21299E-12 0.27547E-13 0.21676E-12
 -.13878E-16 -.34694E-16 0.59674E-15 0.62450E-16 0.27756E-16 0.13878E-16 0.13878E-16 0.27756E-16  0.0000     0.55511E-16
 -.76328E-16 0.69736E-13 0.14864E-11 0.99712E-14 0.13878E-16 0.69666E-14 0.29352E-14 0.14564E-11 0.15929E-12 0.10139E-11
 0.69389E-15 0.14865E-11 0.34377E-12 -.90206E-16 -.27756E-16 -.27756E-16 0.18041E-15 0.58894E-12 0.17431E-13 0.22621E-13
 -.27756E-16 0.99920E-14  0.0000     0.30531E-15 0.16653E-15 0.94369E-14 0.12629E-14 0.20438E-11 0.11307E-12 0.16274E-12
 0.41633E-16 -.55511E-16 -.55511E-16 0.41633E-16 0.55511E-16 -.69389E-16 0.29143E-15 0.10408E-15 0.13323E-14 0.69389E-16
 -.13878E-16 0.69944E-14  0.0000     0.92704E-14 0.55511E-16 0.18966E-10 0.16376E-14 0.36603E-15 0.97145E-15 0.17347E-16
 0.69389E-17 0.29768E-14 0.16653E-15 0.11657E-14 0.25674E-15 0.15959E-14 0.16306E-15 0.11102E-15 -.34694E-17 0.11276E-14
  0.0000     0.14565E-11 0.58889E-12 0.20439E-11 0.97145E-16 0.34001E-15 0.13878E-16 0.13878E-16 0.21233E-14 0.20551E-12
 -.76328E-16 0.15929E-12 0.17389E-13 0.11311E-12 0.14294E-14 0.10408E-14 -.15613E-16 0.21511E-14 0.11526E-13 0.23592E-13
  0.0000     0.10139E-11 0.22579E-13 0.16273E-12 0.83267E-16 0.58981E-16 0.10721E-14 0.20550E-12 0.23592E-13 0.21031E-12
 0.41633E-16 -.13878E-16 0.80491E-15 0.41633E-16 0.55511E-16 0.55511E-16 0.13878E-15 0.41633E-16 0.41633E-16  0.0000    
 -.41633E-16 0.82157E-13 0.67396E-11 0.92704E-14 0.55511E-16 0.61340E-14 0.25466E-14 0.16644E-11 0.18083E-12 0.15427E-12
 0.84655E-15 0.67397E-11 0.32771E-12 0.69389E-16 0.11102E-15  0.0000     0.11102E-15 0.69826E-12 0.20775E-13 0.20081E-13
 0.13878E-16 0.93536E-14 0.41633E-16 0.33307E-15 0.24980E-15 0.93536E-14 0.10894E-14 0.19131E-11 0.11981E-12 0.58703E-13
  0.0000     0.69389E-16 0.27756E-16 0.16653E-15 0.41633E-16 0.27756E-16 0.18041E-15 0.41633E-16 0.15404E-14  0.0000    
  0.0000     0.61340E-14 0.11102E-15 0.93675E-14 0.12490E-15 0.95928E-11 0.15127E-14 0.29837E-15 0.15127E-14 0.24980E-15
 -.13878E-16 0.26160E-14 0.83267E-16 0.11102E-14 0.26368E-15 0.15682E-14 0.20123E-15 0.69389E-16 0.34694E-16 0.99920E-15
 0.13878E-16 0.16643E-11 0.69828E-12 0.19131E-11 0.13878E-15 0.31225E-15 -.13878E-16 0.11102E-15 0.27756E-14 0.18095E-12
  0.0000     0.18091E-12 0.20664E-13 0.11989E-12 0.15890E-14 0.15543E-14 0.62450E-16 0.28033E-14 0.10311E-13 0.26368E-13
 0.27756E-16 0.15435E-12 0.20026E-13 0.58641E-13 0.27756E-16 0.24286E-15 0.11380E-14 0.18107E-12 0.26423E-13 0.23640E-12
 -.69389E-16 -.27756E-16 0.66613E-15  0.0000     0.11102E-15 0.27756E-16 0.41633E-16 0.13878E-16 0.27756E-16 -.13878E-16
 -.97145E-16 0.95216E-13 0.16632E-10 0.73830E-14 0.97145E-16 0.51903E-14 0.18874E-14 0.16507E-11 0.14395E-12 0.39690E-13
 0.69389E-15 0.16632E-10 0.36388E-12 -.41633E-16 0.13878E-16 -.55511E-16 0.11102E-15 0.86318E-12 0.14364E-13 0.21372E-14
  0.0000     0.73552E-14 0.13878E-16 0.47184E-15 0.83267E-16 0.97422E-14 0.80491E-15 0.16504E-11 0.95784E-13 0.12661E-12
 0.27756E-16 -.69389E-16 -.69389E-16 -.69389E-16 -.55511E-16 -.83267E-16 0.83267E-16 0.27756E-16 0.14155E-14 -.27756E-16
 -.27756E-16 0.51903E-14 -.69389E-16 0.96312E-14 0.55511E-16 0.71522E-11 0.11380E-14 0.30531E-15 0.99920E-15 0.55511E-16
 -.13878E-16 0.19706E-14 0.55511E-16 0.70777E-15 0.16653E-15 0.11102E-14 0.19429E-15 0.12490E-15 -.27756E-16 0.74940E-15
 -.13878E-16 0.16507E-11 0.86318E-12 0.16504E-11 0.16653E-15 0.34694E-15 0.83267E-16 0.27756E-16 0.23592E-14 0.16430E-12
 0.27756E-16 0.14401E-12 0.14350E-13 0.95909E-13 0.14294E-14 0.10547E-14 0.27756E-16 0.23037E-14 0.96034E-14 0.23440E-13
 -.11102E-15 0.39593E-13 0.21649E-14 0.12666E-12 0.55511E-16 -.48572E-16 0.77716E-15 0.16434E-12 0.23453E-13 0.26376E-12
 0.83267E-16 -.13878E-16 0.84655E-15 0.13878E-16 0.41633E-16  0.0000     0.27756E-16 0.69389E-16 -.13878E-16 -.13878E-16
 0.13878E-16 0.14229E-12 0.16464E-10 0.67030E-14 0.55511E-16 0.56344E-14 0.16237E-14 0.18588E-11 0.12555E-12 0.13906E-13
 0.88818E-15 0.16464E-10 0.37544E-12 0.12490E-15 -.55511E-16  0.0000     0.15266E-15 0.10012E-11 0.14183E-13 0.72164E-15
 0.27756E-16 0.66891E-14 -.69389E-16 0.36082E-15 0.15266E-15 0.10769E-13 0.63838E-15 0.15294E-11 0.86570E-13 0.13696E-12
 0.69389E-16 -.69389E-16 0.27756E-16 0.55511E-16 0.69389E-16 -.69389E-16 0.11102E-15 0.69389E-16 0.17070E-14  0.0000    
 0.55511E-16 0.56066E-14 0.13878E-16 0.10644E-13 0.27756E-16 0.25119E-11 0.95757E-15 0.26368E-15 0.10547E-14 -.48572E-16
 -.27756E-16 0.15959E-14 0.55511E-16 0.69389E-15 0.18041E-15 0.91593E-15 0.19429E-15 0.41633E-16 0.55511E-16 0.72164E-15
  0.0000     0.18587E-11 0.10012E-11 0.15294E-11 0.22204E-15 0.30531E-15 0.83267E-16 0.55511E-16 0.23037E-14 0.15950E-12
 0.41633E-16 0.12557E-12 0.14155E-13 0.86695E-13 0.17208E-14 0.10963E-14 0.27756E-16 0.22204E-14 0.84655E-14 0.28255E-13
  0.0000     0.13892E-13 0.70777E-15 0.13695E-12 0.11102E-15 0.41633E-16 0.66613E-15 0.15947E-12 0.28214E-13 0.26214E-12
 0.13878E-16 -.34694E-16 0.84655E-15 0.83267E-16 0.69389E-16 -.11102E-15 0.55511E-16 0.13878E-16 0.83267E-16 -.76328E-16
 -.13878E-16 0.30619E-12 0.55511E-11 0.52180E-14 0.11102E-15 0.63838E-14 0.13461E-14 0.18577E-11 0.11814E-12 0.67862E-14
 0.83267E-15 0.55511E-11 0.44208E-12 0.41633E-16 -.41633E-16 0.13878E-16 0.11102E-15 0.10722E-11 0.11990E-13 0.69389E-15
  0.0000     0.51764E-14 -.27756E-16 0.47184E-15 0.15266E-15 0.10339E-13 0.59674E-15 0.13318E-11 0.77702E-13 0.99115E-13
 0.97145E-16 0.41633E-16 0.55511E-16 -.69389E-16 0.55511E-16 -.13878E-16 0.12490E-15 0.13878E-16 0.16376E-14 0.27756E-16
 -.83267E-16 0.63283E-14 -.55511E-16 0.10311E-13 0.97145E-16 0.44457E-11 0.81879E-15 0.23592E-15 0.11657E-14 0.55511E-16
 0.69389E-16 0.13461E-14 0.83267E-16 0.47184E-15 0.16653E-15 0.81879E-15 0.23592E-15 0.55511E-16 0.11102E-15 0.61062E-15
 -.13878E-16 0.18576E-11 0.10722E-11 0.13319E-11 0.13878E-15 0.24980E-15  0.0000     0.83267E-16 0.24980E-14 0.14719E-12
 0.83267E-16 0.11806E-12 0.11949E-13 0.77771E-13 0.17625E-14 0.12074E-14 0.69389E-16 0.24841E-14 0.73969E-14 0.28477E-13
 -.55511E-16 0.67446E-14 0.66613E-15 0.99143E-13 0.69389E-16 0.83267E-16 0.55511E-15 0.14720E-12 0.28436E-13 0.37269E-12
 0.69389E-17  0.0000     0.70777E-15  0.0000     0.27756E-16 -.97145E-16  0.0000     -.13878E-16 0.27756E-16 -.34694E-16
 -.20817E-16 0.19001E-11 0.47019E-12 0.48711E-14 -.69389E-16 0.78132E-14 0.13739E-14 0.19576E-11 0.98394E-13 0.33029E-14
 0.75634E-15 0.47022E-12 0.48490E-12 0.13878E-16  0.0000     -.55511E-16 0.41633E-16 0.92738E-12 0.85904E-14 0.16653E-15
 -.27756E-16 0.49127E-14 -.97145E-16 0.48572E-15 0.83267E-16 0.14377E-13 0.48572E-15 0.12041E-11 0.59688E-13 0.11934E-12
 0.13878E-16 -.55511E-16 -.13878E-16 -.55511E-16 0.97145E-16 -.55511E-16 0.83267E-16 0.13878E-16 0.20817E-14 -.27756E-16
 -.13878E-16 0.77854E-14 -.41633E-16 0.14377E-13 0.69389E-16 0.21876E-11 0.86042E-15 0.18041E-15 0.14017E-14 -.97145E-16
 -.27756E-16 0.13739E-14 0.27756E-16 0.47184E-15 0.97145E-16 0.84655E-15 0.16653E-15 0.27756E-16 0.13878E-16 0.55511E-15
 -.13878E-16 0.19575E-11 0.92752E-12 0.12041E-11 0.97145E-16 0.16653E-15 -.27756E-16 0.83267E-16 0.29837E-14 0.15074E-12
 0.34694E-16 0.98338E-13 0.85557E-14 0.59716E-13 0.21094E-14 0.14017E-14 -.55511E-16 0.29421E-14 0.63144E-14 0.28894E-13
 -.48572E-16 0.33237E-14 0.76328E-16 0.11934E-12 0.97145E-16 0.13878E-16 0.63838E-15 0.15075E-12 0.28907E-13 0.37045E-12
 -.17347E-16 -.17347E-16 0.10825E-14 0.27756E-16 0.13878E-15 -.27756E-16  0.0000      0.0000     0.34694E-16 -.20817E-16
 -.48572E-16 0.53084E-11 0.36642E-12 0.48989E-14  0.0000     0.85210E-14 0.18041E-14 0.22234E-11 0.10642E-12 0.16966E-14
 0.11241E-14 0.36637E-12 0.53509E-12  0.0000      0.0000     0.13878E-16  0.0000     0.20004E-11 0.93606E-14 0.75634E-15
 -.27756E-16 0.49266E-14 0.69389E-16 0.62450E-15  0.0000     0.12768E-13 0.45797E-15 0.11191E-11 0.78090E-13 0.57593E-13
 0.83267E-16 -.13878E-16 0.69389E-16 -.11102E-15 0.55511E-16 -.55511E-16 0.18041E-15 0.27756E-16 0.21788E-14 0.13878E-16
  0.0000     0.84793E-14 -.12490E-15 0.12684E-13 0.13878E-15 0.48829E-11 0.12074E-14 0.15266E-15 0.13600E-14  0.0000    
 -.13878E-16 0.18319E-14 0.83267E-16 0.38858E-15 0.12490E-15 0.11102E-14 0.23592E-15 0.11102E-15 -.27756E-16 0.61062E-15
  0.0000     0.22233E-11 0.20004E-11 0.11192E-11 0.15266E-15 0.20817E-15 0.27756E-16  0.0000     0.29282E-14 0.18167E-12
 -.27756E-16 0.10640E-12 0.93259E-14 0.78104E-13 0.23315E-14 0.12490E-14 -.97145E-16 0.28588E-14 0.57870E-14 0.39219E-13
 -.48572E-16 0.17035E-14 0.71818E-15 0.57621E-13 0.27756E-16 -.27756E-16 0.59674E-15 0.18176E-12 0.39177E-13 0.52586E-12
 0.13010E-17 -.12523E-16 0.10647E-14 0.54644E-16 0.87604E-16 0.10322E-15 0.10381E-16 0.47583E-16 0.90206E-16 -.48789E-16
 -.57137E-16 0.20138E-12 0.10325E-12 0.47602E-14 -.75460E-16 0.11430E-13 0.25119E-14 0.25098E-11 0.97799E-13 0.11434E-14
 0.10937E-14 0.10328E-12 0.64055E-12 0.73943E-16 0.90206E-16 -.13878E-16 0.53776E-16 0.54989E-11 0.79294E-14 0.67004E-16
 -.22985E-16 0.48935E-14 -.11709E-16 0.66266E-15 0.55511E-16 0.17687E-13 0.52714E-15 0.10276E-11 0.10290E-12 0.23607E-13