PROCAR lm decomposed
# of k-points:   14         # of bands:   28         # of ions:    5

 k-point     1 :    0.00000000 0.00000000 0.00000000     weight = 0.01000000

band     1 # energy  -11.96740570 # occ.  2.00000000
 
ion      s     py     pz     px    dxy    dyz    dz2    dxz  x2-y2    tot
    1  0.002  0.000  0.000  0.000  0.000  0.000  0.000  0.000  0.000  0.002
    2  0.013  0.000  0.001  0.000  0.000  0.000  0.000  0.000  0.000  0.014
    3  0.067  0.000  0.004  0.000  0.000  0.000  0.000  0.000  0.000  0.071
    4  0.369  0.000  0.003  0.000  0.000  0.000  0.028  0.000  0.000  0.399
    5  0.147  0.000  0.001  0.000  0.000  0.000  0.000  0.000  0.000  0.148
tot    0.597  0.000  0.009  0.000  0.000  0.000  0.028  0.000  0.000  0.634
 
band     2 # energy  -10.66457264 # occ.  2.00000000
 
ion      s     py     pz     px    dxy    dyz    dz2    dxz  x2-y2    tot
    1  0.115  0.000  0.011  0.000  0.000  0.000  0.000  0.000  0.000  0.126
    2  0.293  0.000  0.000  0.000  0.000  0.000  0.002  0.000  0.000  0.295
    3  0.100  0.000  0.013  0.000  0.000  0.000  0.001  0.000  0.000  0.114
    4  0.024  0.000  0.007  0.000  0.000  0.000  0.012  0.000  0.000  0.043
    5  0.022  0.000  0.000  0.000  0.000  0.000  0.000  0.000  0.000  0.022
tot    0.554  0.000  0.032  0.000  0.000  0.000  0.014  0.000  0.000  0.600
 
band     3 # energy   -8.94725344 # occ.  2.00000000
 
ion      s     py     pz     px    dxy    dyz    dz2    dxz  x2-y2    tot
    1  0.200  0.000  0.002  0.000  0.000  0.000  0.020  0.000  0.000  0.222
    2  0.005  0.000  0.049  0.000  0.000  0.000  0.001  0.000  0.000  0.055
    3  0.217  0.000  0.000  0.000  0.000  0.000  0.036  0.000  0.000  0.254
    4  0.003  0.000  0.024  0.000  0.000  0.000  0.030  0.000  0.000  0.058
    5  0.020  0.000  0.000  0.000  0.000  0.000  0.000  0.000  0.000  0.020
tot    0.446  0.000  0.075  0.000  0.000  0.000  0.088  0.000  0.000  0.609
 
band     4 # energy   -7.44511212 # occ.  2.00000000
 
ion      s     py     pz     px    dxy    dyz    dz2    dxz  x2-y2    tot
    1  0.106  0.000  0.005  0.000  0.000  0.000  0.134  0.000  0.000  0.245
    2  0.099  0.000  0.003  0.000  0.000  0.000  0.235  0.000  0.000  0.336
    3  0.033  0.000  0.015  0.000  0.000  0.000  0.085  0.000  0.000  0.132
    4  0.000  0.000  0.009  0.000  0.000  0.000  0.021  0.000  0.000  0.030
    5  0.004  0.000  0.000  0.000  0.000  0.000  0.000  0.000  0.000  0.004
tot    0.241  0.000  0.032  0.000  0.000  0.000  0.474  0.000  0.000  0.747
 
band     5 # energy   -5.75216265 # occ.  2.00000000
 
ion      s     py     pz     px    dxy    dyz    dz2    dxz  x2-y2    tot
    1  0.000  0.000  0.000  0.000  0.000  0.000  0.000  0.000  0.000  0.001
    2  0.000  0.000  0.002  0.000  0.000  0.000  0.036  0.000  0.000  0.038
    3  0.002  0.000  0.006  0.000  0.000  0.000  0.021  0.000  0.000  0.029
    4  0.003  0.000  0.005  0.000  0.000  0.000  0.797  0.000  0.000  0.805
    5  0.009  0.000  0.002  0.000  0.000  0.000  0.000  0.000  0.000  0.011
tot    0.014  0.000  0.015  0.000  0.000  0.000  0.854  0.000  0.000  0.883
 
band     6 # energy   -5.68036756 # occ.  2.00000000
 
ion      s     py     pz     px    dxy    dyz    dz2    dxz  x2-y2    tot
    1  0.000  0.000  0.000  0.000  0.000  0.000  0.000  0.000  0.000  0.000
    2  0.000  0.000  0.000  0.000  0.000  0.000  0.000  0.000  0.001  0.001
    3  0.000  0.000  0.000  0.000  0.000  0.009  0.000  0.003  0.001  0.013
    4  0.000  0.000  0.000  0.000  0.236  0.007  0.000  0.002  0.706  0.951
    5  0.000  0.003  0.000  0.001  0.000  0.000  0.000  0.000  0.000  0.003
tot    0.000  0.003  0.000  0.001  0.236  0.016  0.000  0.005  0.708  0.969
 
band     7 # energy   -5.68011599 # occ.  2.00000000
 
ion      s     py     pz     px    dxy    dyz    dz2    dxz  x2-y2    tot
    1  0.000  0.000  0.000  0.000  0.000  0.000  0.000  0.000  0.000  0.000
    2  0.000  0.000  0.000  0.000  0.001  0.000  0.000  0.000  0.000  0.001
    3  0.000  0.000  0.000  0.000  0.001  0.003  0.000  0.009  0.000  0.013
    4  0.000  0.000  0.000  0.000  0.706  0.002  0.000  0.007  0.236  0.951
    5  0.000  0.001  0.000  0.003  0.000  0.000  0.000  0.000  0.000  0.003
tot    0.000  0.001  0.000  0.003  0.708  0.005  0.000  0.016  0.236  0.969
 
band     8 # energy   -5.48955273 # occ.  2.00000000
 
ion      s     py     pz     px    dxy    dyz    dz2    dxz  x2-y2    tot
    1  0.000  0.000  0.001  0.000  0.000  0.000  0.058  0.000  0.000  0.059
    2  0.002  0.000  0.005  0.000  0.000  0.000  0.009  0.000  0.000  0.016
    3  0.004  0.000  0.008  0.000  0.000  0.000  0.682  0.000  0.000  0.694
    4  0.004  0.000  0.050  0.000  0.000  0.000  0.001  0.000  0.000  0.055
    5  0.023  0.000  0.000  0.000  0.000  0.000  0.000  0.000  0.000  0.023
tot    0.032  0.000  0.065  0.000  0.000  0.000  0.750  0.000  0.000  0.847
 
band     9 # energy   -5.20781004 # occ.  2.00000000
 
ion      s     py     pz     px    dxy    dyz    dz2    dxz  x2-y2    tot
    1  0.000  0.000  0.006  0.000  0.000  0.000  0.321  0.000  0.000  0.327
    2  0.004  0.000  0.001  0.000  0.000  0.000  0.528  0.000  0.000  0.533
    3  0.002  0.000  0.009  0.000  0.000  0.000  0.042  0.000  0.000  0.052
    4  0.000  0.000  0.007  0.000  0.000  0.000  0.011  0.000  0.000  0.019
    5  0.003  0.000  0.000  0.000  0.000  0.000  0.000  0.000  0.000  0.003
tot    0.009  0.000  0.022  0.000  0.000  0.000  0.903  0.000  0.000  0.934
 
band    10 # energy   -5.17965053 # occ.  2.00000000
 
ion      s     py     pz     px    dxy    dyz    dz2    dxz  x2-y2    tot
    1  0.000  0.000  0.000  0.000  0.006  0.012  0.000  0.004  0.017  0.039
    2  0.000  0.000  0.000  0.000  0.167  0.003  0.000  0.001  0.499  0.670
    3  0.000  0.000  0.000  0.000  0.055  0.011  0.000  0.004  0.165  0.235
    4  0.000  0.000  0.000  0.000  0.001  0.014  0.000  0.005  0.002  0.020
    5  0.000  0.000  0.000  0.000  0.000  0.000  0.000  0.000  0.000  0.000
tot    0.000  0.000  0.000  0.000  0.228  0.040  0.000  0.013  0.683  0.965
 
band    11 # energy   -5.17934257 # occ.  2.00000000
 
ion      s     py     pz     px    dxy    dyz    dz2    dxz  x2-y2    tot
    1  0.000  0.000  0.000  0.000  0.017  0.004  0.000  0.012  0.006  0.039
    2  0.000  0.000  0.000  0.000  0.499  0.001  0.000  0.003  0.167  0.670
    3  0.000  0.000  0.000  0.000  0.165  0.004  0.000  0.011  0.055  0.235
    4  0.000  0.000  0.000  0.000  0.002  0.005  0.000  0.014  0.001  0.020
    5  0.000  0.000  0.000  0.000  0.000  0.000  0.000  0.000  0.000  0.000
tot    0.000  0.000  0.000  0.000  0.683  0.013  0.000  0.040  0.228  0.965
 
band    12 # energy   -5.15131884 # occ.  2.00000000
 
ion      s     py     pz     px    dxy    dyz    dz2    dxz  x2-y2    tot
    1  0.000  0.000  0.000  0.000  0.002  0.012  0.000  0.004  0.006  0.024
    2  0.000  0.000  0.000  0.000  0.049  0.059  0.000  0.019  0.148  0.275
    3  0.000  0.000  0.000  0.000  0.123  0.038  0.000  0.013  0.373  0.547
    4  0.000  0.000  0.000  0.000  0.001  0.090  0.000  0.030  0.002  0.122
    5  0.000  0.000  0.000  0.000  0.000  0.000  0.000  0.000  0.000  0.000
tot    0.000  0.000  0.000  0.000  0.175  0.199  0.000  0.066  0.529  0.968
 
band    13 # energy   -5.15106429 # occ.  2.00000000
 
ion      s     py     pz     px    dxy    dyz    dz2    dxz  x2-y2    tot
    1  0.000  0.000  0.000  0.000  0.006  0.004  0.000  0.012  0.002  0.024
    2  0.000  0.000  0.000  0.000  0.148  0.019  0.000  0.059  0.049  0.275
    3  0.000  0.000  0.000  0.000  0.372  0.013  0.000  0.038  0.123  0.546
    4  0.000  0.000  0.000  0.000  0.002  0.030  0.000  0.090  0.001  0.123
    5  0.000  0.000  0.000  0.000  0.000  0.000  0.000  0.000  0.000  0.000
tot    0.000  0.000  0.000  0.000  0.528  0.066  0.000  0.199  0.175  0.968
 
band    14 # energy   -4.89996955 # occ.  2.00000000
 
ion      s     py     pz     px    dxy    dyz    dz2    dxz  x2-y2    tot
    1  0.000  0.000  0.000  0.000  0.200  0.006  0.000  0.002  0.598  0.805
    2  0.000  0.000  0.000  0.000  0.000  0.065  0.000  0.022  0.001  0.088
    3  0.000  0.000  0.000  0.000  0.008  0.002  0.000  0.001  0.025  0.036
    4  0.000  0.000  0.000  0.000  0.000  0.029  0.000  0.010  0.000  0.039
    5  0.000  0.000  0.000  0.000  0.000  0.000  0.000  0.000  0.000  0.000
tot    0.000  0.000  0.000  0.000  0.209  0.102  0.000  0.034  0.624  0.969
 
band    15 # energy   -4.89968439 # occ.  2.00000000
 
ion      s     py     pz     px    dxy    dyz    dz2    dxz  x2-y2    tot
    1  0.000  0.000  0.000  0.000  0.598  0.002  0.000  0.006  0.200  0.805
    2  0.000  0.000  0.000  0.000  0.001  0.022  0.000  0.065  0.000  0.088
    3  0.000  0.000  0.000  0.000  0.025  0.001  0.000  0.002  0.008  0.036
    4  0.000  0.000  0.000  0.000  0.000  0.010  0.000  0.030  0.000  0.039
    5  0.000  0.000  0.000  0.000  0.000  0.000  0.000  0.000  0.000  0.000
tot    0.000  0.000  0.000  0.000  0.624  0.034  0.000  0.102  0.209  0.969
 
band    16 # energy   -4.75837682 # occ.  2.00000000
 
ion      s     py     pz     px    dxy    dyz    dz2    dxz  x2-y2    tot
    1  0.000  0.000  0.000  0.000  0.004  0.002  0.000  0.000  0.014  0.021
    2  0.000  0.000  0.000  0.000  0.002  0.005  0.000  0.002  0.006  0.015
    3  0.000  0.000  0.000  0.000  0.037  0.015  0.000  0.005  0.121  0.178
    4  0.000  0.000  0.000  0.000  0.003  0.579  0.000  0.178  0.010  0.770
    5  0.000  0.000  0.000  0.000  0.000  0.000  0.000  0.000  0.000  0.001
tot    0.000  0.001  0.000  0.000  0.046  0.601  0.000  0.184  0.151  0.984
 
band    17 # energy   -4.75831314 # occ.  2.00000000
 
ion      s     py     pz     px    dxy    dyz    dz2    dxz  x2-y2    tot
    1  0.000  0.000  0.000  0.000  0.014  0.000  0.000  0.002  0.004  0.021
    2  0.000  0.000  0.000  0.000  0.006  0.002  0.000  0.005  0.002  0.015
    3  0.000  0.000  0.000  0.000  0.121  0.005  0.000  0.015  0.037  0.178
    4  0.000  0.000  0.000  0.000  0.010  0.178  0.000  0.579  0.003  0.769
    5  0.000  0.000  0.000  0.000  0.000  0.000  0.000  0.000  0.000  0.001
tot    0.000  0.000  0.000  0.001  0.151  0.184  0.000  0.601  0.046  0.984
 
band    18 # energy   -4.73627238 # occ.  2.00000000
 
ion      s     py     pz     px    dxy    dyz    dz2    dxz  x2-y2    tot
    1  0.029  0.000  0.001  0.000  0.000  0.000  0.350  0.000  0.000  0.380
    2  0.016  0.000  0.041  0.000  0.000  0.000  0.070  0.000  0.000  0.127
    3  0.000  0.000  0.082  0.000  0.000  0.000  0.003  0.000  0.000  0.085
    4  0.010  0.000  0.061  0.000  0.000  0.000  0.000  0.000  0.000  0.071
    5  0.022  0.000  0.000  0.000  0.000  0.000  0.000  0.000  0.000  0.022
tot    0.076  0.000  0.186  0.000  0.000  0.000  0.423  0.000  0.000  0.684
 
band    19 # energy   -4.40289483 # occ.  2.00000000
 
ion      s     py     pz     px    dxy    dyz    dz2    dxz  x2-y2    tot
    1  0.000  0.000  0.000  0.000  0.028  0.033  0.000  0.012  0.075  0.148
    2  0.000  0.000  0.000  0.000  0.019  0.312  0.000  0.116  0.052  0.500
    3  0.000  0.000  0.000  0.000  0.013  0.202  0.000  0.075  0.034  0.324
    4  0.000  0.000  0.000  0.000  0.001  0.007  0.000  0.002  0.002  0.012
    5  0.000  0.000  0.000  0.000  0.000  0.000  0.000  0.000  0.000  0.000
tot    0.000  0.000  0.000  0.000  0.061  0.554  0.000  0.206  0.163  0.984
 
band    20 # energy   -4.40281510 # occ.  2.00000000
 
ion      s     py     pz     px    dxy    dyz    dz2    dxz  x2-y2    tot
    1  0.000  0.000  0.000  0.000  0.075  0.012  0.000  0.033  0.028  0.149
    2  0.000  0.000  0.000  0.000  0.052  0.116  0.000  0.312  0.019  0.500
    3  0.000  0.000  0.000  0.000  0.034  0.075  0.000  0.202  0.013  0.324
    4  0.000  0.000  0.000  0.000  0.002  0.002  0.000  0.007  0.001  0.012
    5  0.000  0.000  0.000  0.000  0.000  0.000  0.000  0.000  0.000  0.000
tot    0.000  0.000  0.000  0.000  0.163  0.206  0.000  0.554  0.061  0.984
 
band    21 # energy   -4.18178916 # occ.  2.00000000
 
ion      s     py     pz     px    dxy    dyz    dz2    dxz  x2-y2    tot
    1  0.000  0.000  0.000  0.000  0.003  0.263  0.000  0.079  0.009  0.354
    2  0.000  0.000  0.000  0.000  0.000  0.081  0.000  0.024  0.000  0.106
    3  0.000  0.000  0.000  0.000  0.001  0.376  0.000  0.113  0.005  0.496
    4  0.000  0.000  0.000  0.000  0.001  0.021  0.000  0.006  0.002  0.031
    5  0.000  0.000  0.000  0.000  0.000  0.000  0.000  0.000  0.000  0.000
tot    0.000  0.000  0.000  0.000  0.005  0.742  0.000  0.223  0.015  0.986
 
band    22 # energy   -4.18175504 # occ.  2.00000000
 
ion      s     py     pz     px    dxy    dyz    dz2    dxz  x2-y2    tot
    1  0.000  0.000  0.000  0.000  0.009  0.079  0.000  0.263  0.003  0.354
    2  0.000  0.000  0.000  0.000  0.000  0.024  0.000  0.081  0.000  0.106
    3  0.000  0.000  0.000  0.000  0.005  0.113  0.000  0.376  0.001  0.496
    4  0.000  0.000  0.000  0.000  0.002  0.006  0.000  0.021  0.001  0.031
    5  0.000  0.000  0.000  0.000  0.000  0.000  0.000  0.000  0.000  0.000
tot    0.000  0.000  0.000  0.000  0.015  0.223  0.000  0.742  0.005  0.986
 
band    23 # energy   -3.89973589 # occ.  2.00000000
 
ion      s     py     pz     px    dxy    dyz    dz2    dxz  x2-y2    tot
    1  0.000  0.000  0.000  0.000  0.002  0.418  0.000  0.137  0.006  0.562
    2  0.000  0.000  0.000  0.000  0.006  0.206  0.000  0.067  0.019  0.299
    3  0.000  0.000  0.000  0.000  0.002  0.088  0.000  0.029  0.005  0.124
    4  0.000  0.000  0.000  0.000  0.000  0.003  0.000  0.001  0.000  0.005
    5  0.000  0.000  0.000  0.000  0.000  0.000  0.000  0.000  0.000  0.000
tot    0.000  0.000  0.000  0.000  0.010  0.715  0.000  0.234  0.030  0.990
 
band    24 # energy   -3.89966543 # occ.  2.00000000
 
ion      s     py     pz     px    dxy    dyz    dz2    dxz  x2-y2    tot
    1  0.000  0.000  0.000  0.000  0.006  0.137  0.000  0.418  0.002  0.562
    2  0.000  0.000  0.000  0.000  0.019  0.067  0.000  0.206  0.006  0.299
    3  0.000  0.000  0.000  0.000  0.005  0.029  0.000  0.088  0.002  0.124
    4  0.000  0.000  0.000  0.000  0.000  0.001  0.000  0.003  0.000  0.005
    5  0.000  0.000  0.000  0.000  0.000  0.000  0.000  0.000  0.000  0.000
tot    0.000  0.000  0.000  0.000  0.030  0.234  0.000  0.715  0.010  0.990
 
band    25 # energy   -2.80716243 # occ.  2.00000000
 
ion      s     py     pz     px    dxy    dyz    dz2    dxz  x2-y2    tot
    1  0.019  0.000  0.153  0.000  0.000  0.000  0.028  0.000  0.000  0.199
    2  0.014  0.000  0.081  0.000  0.000  0.000  0.022  0.000  0.000  0.117
    3  0.011  0.000  0.037  0.000  0.000  0.000  0.020  0.000  0.000  0.068
    4  0.007  0.000  0.016  0.000  0.000  0.000  0.003  0.000  0.000  0.027
    5  0.004  0.000  0.000  0.000  0.000  0.000  0.000  0.000  0.000  0.004
tot    0.056  0.000  0.287  0.000  0.000  0.000  0.073  0.000  0.000  0.416
 
band    26 # energy    1.63331691 # occ.  0.00000000
 
ion      s     py     pz     px    dxy    dyz    dz2    dxz  x2-y2    tot
    1  0.012  0.000  0.002  0.000  0.000  0.000  0.012  0.000  0.000  0.027
    2  0.019  0.000  0.002  0.000  0.000  0.000  0.017  0.000  0.000  0.038
    3  0.027  0.000  0.002  0.000  0.000  0.000  0.024  0.000  0.000  0.053
    4  0.026  0.000  0.001  0.000  0.000  0.000  0.036  0.000  0.000  0.063
    5  0.001  0.000  0.002  0.000  0.000  0.000  0.000  0.000  0.000  0.003
tot    0.086  0.000  0.008  0.000  0.000  0.000  0.090  0.000  0.000  0.184
 
band    27 # energy    1.90339559 # occ.  0.00000000
 
ion      s     py     pz     px    dxy    dyz    dz2    dxz  x2-y2    tot
    1  0.007  0.000  0.002  0.000  0.000  0.000  0.007  0.000  0.000  0.017
    2  0.003  0.000  0.002  0.000  0.000  0.000  0.003  0.000  0.000  0.008
    3  0.000  0.000  0.003  0.000  0.000  0.000  0.001  0.000  0.000  0.004
    4  0.000  0.000  0.002  0.000  0.000  0.000  0.001  0.000  0.000  0.003
    5  0.002  0.000  0.000  0.000  0.000  0.000  0.000  0.000  0.000  0.002
tot    0.013  0.000  0.009  0.000  0.000  0.000  0.012  0.000  0.000  0.033
 
band    28 # energy    2.29817443 # occ.  0.00000000
 
ion      s     py     pz     px    dxy    dyz    dz2    dxz  x2-y2    tot
    1  0.005  0.000  0.003  0.000  0.000  0.000  0.005  0.000  0.000  0.012
    2  0.001  0.000  0.003  0.000  0.000  0.000  0.001  0.000  0.000  0.005
    3  0.000  0.000  0.004  0.000  0.000  0.000  0.000  0.000  0.000  0.004
    4  0.002  0.000  0.001  0.000  0.000  0.000  0.005  0.000  0.000  0.008
    5  0.002  0.000  0.000  0.000  0.000  0.000  0.000  0.000  0.000  0.003
tot    0.010  0.000  0.011  0.000  0.000  0.000  0.011  0.000  0.000  0.031
 

 k-point     2 :    0.10000000 0.00000000 0.00000000     weight = 0.06000000

band     1 # energy  -11.67544339 # occ.  2.00000000
 
ion      s     py     pz     px    dxy    dyz    dz2    dxz  x2-y2    tot
    1  0.001  0.000  0.000  0.000  0.000  0.000  0.000  0.000  0.000  0.002
    2  0.012  0.000  0.001  0.000  0.000  0.000  0.000  0.000  0.000  0.013
    3  0.062  0.000  0.004  0.001  0.000  0.000  0.000  0.000  0.000  0.068
    4  0.355  0.003  0.003  0.010  0.001  0.000  0.026  0.001  0.000  0.401
    5  0.152  0.000  0.001  0.000  0.000  0.000  0.000  0.000  0.000  0.153
tot    0.582  0.004  0.009  0.012  0.001  0.000  0.027  0.001  0.000  0.636
 
band     2 # energy  -10.36268473 # occ.  2.00000000
 
ion      s     py     pz     px    dxy    dyz    dz2    dxz  x2-y2    tot
    1  0.110  0.001  0.011  0.002  0.000  0.000  0.000  0.001  0.000  0.125
    2  0.285  0.002  0.000  0.006  0.000  0.000  0.001  0.000  0.000  0.295
    3  0.101  0.001  0.013  0.002  0.000  0.000  0.000  0.001  0.000  0.118
    4  0.020  0.000  0.007  0.001  0.000  0.000  0.011  0.001  0.000  0.041
    5  0.021  0.000  0.000  0.000  0.000  0.000  0.000  0.000  0.000  0.021
tot    0.536  0.004  0.031  0.012  0.001  0.001  0.013  0.003  0.000  0.600
 
band     3 # energy   -8.67923107 # occ.  2.00000000
 
ion      s     py     pz     px    dxy    dyz    dz2    dxz  x2-y2    tot
    1  0.189  0.002  0.003  0.005  0.000  0.000  0.017  0.000  0.000  0.216
    2  0.006  0.000  0.048  0.000  0.000  0.002  0.001  0.005  0.000  0.062
    3  0.208  0.002  0.000  0.005  0.000  0.000  0.033  0.000  0.000  0.248
    4  0.002  0.000  0.024  0.000  0.001  0.002  0.031  0.005  0.000  0.065
    5  0.020  0.000  0.000  0.000  0.000  0.000  0.000  0.000  0.000  0.020
tot    0.425  0.003  0.075  0.010  0.001  0.003  0.083  0.010  0.000  0.612
 
band     4 # energy   -7.22313587 # occ.  2.00000000
 
ion      s     py     pz     px    dxy    dyz    dz2    dxz  x2-y2    tot
    1  0.101  0.001  0.004  0.004  0.001  0.000  0.136  0.000  0.000  0.248
    2  0.088  0.001  0.003  0.004  0.001  0.000  0.240  0.001  0.000  0.338
    3  0.027  0.000  0.015  0.001  0.000  0.001  0.082  0.002  0.000  0.129
    4  0.000  0.000  0.009  0.000  0.000  0.001  0.021  0.003  0.000  0.035
    5  0.004  0.000  0.000  0.000  0.000  0.000  0.000  0.000  0.000  0.004
tot    0.221  0.003  0.032  0.009  0.002  0.002  0.478  0.007  0.001  0.754
 
band     5 # energy   -5.90649565 # occ.  2.00000000
 
ion      s     py     pz     px    dxy    dyz    dz2    dxz  x2-y2    tot
    1  0.000  0.000  0.000  0.000  0.000  0.000  0.005  0.000  0.000  0.006
    2  0.001  0.000  0.000  0.000  0.001  0.000  0.001  0.000  0.000  0.004
    3  0.000  0.000  0.004  0.000  0.002  0.000  0.117  0.001  0.001  0.125
    4  0.004  0.000  0.019  0.001  0.379  0.028  0.111  0.083  0.126  0.750
    5  0.017  0.001  0.000  0.002  0.000  0.000  0.000  0.000  0.000  0.019
tot    0.022  0.001  0.024  0.002  0.381  0.028  0.234  0.085  0.127  0.904
 
band     6 # energy   -5.71764079 # occ.  2.00000000
 
ion      s     py     pz     px    dxy    dyz    dz2    dxz  x2-y2    tot
    1  0.001  0.000  0.000  0.000  0.001  0.000  0.005  0.000  0.000  0.007
    2  0.001  0.000  0.002  0.000  0.006  0.000  0.059  0.000  0.002  0.070
    3  0.001  0.000  0.014  0.000  0.014  0.008  0.095  0.024  0.005  0.161
    4  0.007  0.000  0.000  0.000  0.039  0.000  0.609  0.000  0.013  0.669
    5  0.001  0.000  0.001  0.000  0.000  0.000  0.000  0.000  0.000  0.002
tot    0.011  0.000  0.018  0.001  0.060  0.008  0.767  0.025  0.020  0.910
 
band     7 # energy   -5.57928219 # occ.  2.00000000
 
ion      s     py     pz     px    dxy    dyz    dz2    dxz  x2-y2    tot
    1  0.000  0.000  0.001  0.000  0.000  0.000  0.024  0.000  0.000  0.025
    2  0.001  0.000  0.000  0.000  0.038  0.001  0.004  0.004  0.013  0.061
    3  0.001  0.000  0.006  0.000  0.014  0.009  0.204  0.027  0.005  0.265
    4  0.001  0.000  0.026  0.000  0.268  0.033  0.008  0.102  0.095  0.534
    5  0.010  0.000  0.001  0.001  0.000  0.000  0.000  0.000  0.000  0.011
tot    0.012  0.000  0.034  0.001  0.320  0.044  0.239  0.132  0.112  0.895
 
band     8 # energy   -5.57149039 # occ.  2.00000000
 
ion      s     py     pz     px    dxy    dyz    dz2    dxz  x2-y2    tot
    1  0.000  0.000  0.000  0.000  0.000  0.000  0.000  0.000  0.000  0.000
    2  0.000  0.000  0.000  0.000  0.000  0.000  0.000  0.000  0.001  0.002
    3  0.000  0.000  0.000  0.000  0.000  0.011  0.000  0.004  0.000  0.015
    4  0.000  0.001  0.000  0.000  0.238  0.011  0.000  0.003  0.697  0.950
    5  0.000  0.002  0.000  0.001  0.000  0.000  0.000  0.000  0.000  0.003
tot    0.000  0.003  0.000  0.001  0.239  0.022  0.000  0.007  0.699  0.971
 
band     9 # energy   -5.29590718 # occ.  2.00000000
 
ion      s     py     pz     px    dxy    dyz    dz2    dxz  x2-y2    tot
    1  0.004  0.000  0.001  0.000  0.042  0.006  0.066  0.017  0.014  0.149
    2  0.002  0.000  0.013  0.000  0.055  0.043  0.126  0.128  0.018  0.386
    3  0.000  0.000  0.020  0.000  0.118  0.002  0.085  0.006  0.039  0.271
    4  0.002  0.000  0.004  0.000  0.000  0.024  0.005  0.072  0.000  0.108
    5  0.001  0.000  0.000  0.000  0.000  0.000  0.000  0.000  0.000  0.001
tot    0.010  0.000  0.038  0.000  0.215  0.074  0.283  0.223  0.072  0.915
 
band    10 # energy   -5.24734105 # occ.  2.00000000
 
ion      s     py     pz     px    dxy    dyz    dz2    dxz  x2-y2    tot
    1  0.001  0.000  0.002  0.000  0.009  0.003  0.103  0.009  0.003  0.130
    2  0.001  0.000  0.001  0.001  0.180  0.005  0.212  0.014  0.060  0.473
    3  0.001  0.000  0.003  0.000  0.122  0.008  0.071  0.025  0.041  0.272
    4  0.001  0.000  0.002  0.000  0.003  0.007  0.041  0.020  0.001  0.074
    5  0.001  0.000  0.000  0.000  0.000  0.000  0.000  0.000  0.000  0.001
tot    0.004  0.000  0.008  0.001  0.314  0.023  0.427  0.067  0.105  0.949
 
band    11 # energy   -5.22281241 # occ.  2.00000000
 
ion      s     py     pz     px    dxy    dyz    dz2    dxz  x2-y2    tot
    1  0.001  0.000  0.002  0.000  0.027  0.004  0.049  0.012  0.009  0.105
    2  0.001  0.000  0.001  0.000  0.324  0.006  0.107  0.017  0.108  0.565
    3  0.000  0.000  0.003  0.000  0.105  0.003  0.087  0.010  0.035  0.243
    4  0.000  0.000  0.003  0.000  0.012  0.001  0.011  0.004  0.004  0.035
    5  0.001  0.000  0.000  0.000  0.000  0.000  0.000  0.000  0.000  0.001
tot    0.004  0.000  0.008  0.001  0.468  0.014  0.254  0.043  0.157  0.949
 
band    12 # energy   -5.08663651 # occ.  2.00000000
 
ion      s     py     pz     px    dxy    dyz    dz2    dxz  x2-y2    tot
    1  0.000  0.000  0.000  0.000  0.004  0.012  0.000  0.004  0.012  0.032
    2  0.000  0.000  0.000  0.000  0.034  0.062  0.000  0.021  0.103  0.221
    3  0.000  0.000  0.000  0.000  0.115  0.036  0.000  0.012  0.345  0.509
    4  0.000  0.000  0.000  0.000  0.002  0.151  0.000  0.050  0.005  0.207
    5  0.000  0.000  0.000  0.000  0.000  0.000  0.000  0.000  0.000  0.000
tot    0.000  0.001  0.000  0.000  0.155  0.262  0.000  0.087  0.465  0.969
 
band    13 # energy   -5.07148545 # occ.  2.00000000
 
ion      s     py     pz     px    dxy    dyz    dz2    dxz  x2-y2    tot
    1  0.000  0.000  0.000  0.000  0.003  0.017  0.000  0.006  0.009  0.036
    2  0.000  0.001  0.000  0.000  0.174  0.013  0.000  0.004  0.521  0.713
    3  0.000  0.000  0.000  0.000  0.038  0.031  0.000  0.010  0.114  0.194
    4  0.000  0.000  0.000  0.000  0.001  0.015  0.000  0.005  0.003  0.024
    5  0.000  0.000  0.000  0.000  0.000  0.000  0.000  0.000  0.000  0.000
tot    0.000  0.001  0.000  0.000  0.217  0.075  0.000  0.025  0.648  0.967
 
band    14 # energy   -5.00208001 # occ.  2.00000000
 
ion      s     py     pz     px    dxy    dyz    dz2    dxz  x2-y2    tot
    1  0.003  0.000  0.002  0.000  0.021  0.003  0.308  0.009  0.007  0.354
    2  0.000  0.000  0.017  0.000  0.024  0.005  0.055  0.013  0.008  0.123
    3  0.000  0.000  0.008  0.000  0.273  0.011  0.001  0.034  0.091  0.419
    4  0.001  0.000  0.006  0.000  0.002  0.003  0.004  0.010  0.001  0.028
    5  0.002  0.000  0.000  0.000  0.000  0.000  0.000  0.000  0.000  0.002
tot    0.007  0.000  0.034  0.000  0.321  0.022  0.369  0.066  0.107  0.926
 
band    15 # energy   -4.91885886 # occ.  2.00000000
 
ion      s     py     pz     px    dxy    dyz    dz2    dxz  x2-y2    tot
    1  0.001  0.000  0.000  0.001  0.542  0.002  0.039  0.004  0.182  0.770
    2  0.000  0.000  0.007  0.000  0.006  0.004  0.019  0.013  0.002  0.051
    3  0.001  0.000  0.003  0.000  0.013  0.013  0.042  0.040  0.004  0.115
    4  0.000  0.000  0.000  0.000  0.002  0.004  0.001  0.011  0.001  0.018
    5  0.000  0.000  0.000  0.000  0.000  0.000  0.000  0.000  0.000  0.000
tot    0.003  0.000  0.011  0.001  0.562  0.023  0.100  0.067  0.189  0.955
 
band    16 # energy   -4.83277100 # occ.  2.00000000
 
ion      s     py     pz     px    dxy    dyz    dz2    dxz  x2-y2    tot
    1  0.000  0.000  0.000  0.000  0.124  0.014  0.000  0.005  0.371  0.514
    2  0.000  0.000  0.000  0.000  0.001  0.112  0.000  0.037  0.004  0.154
    3  0.000  0.000  0.000  0.000  0.004  0.013  0.000  0.004  0.011  0.032
    4  0.000  0.000  0.000  0.000  0.001  0.203  0.000  0.068  0.003  0.274
    5  0.000  0.000  0.000  0.000  0.000  0.000  0.000  0.000  0.000  0.000
tot    0.000  0.001  0.000  0.000  0.130  0.340  0.000  0.114  0.388  0.973
 
band    17 # energy   -4.74541750 # occ.  2.00000000
 
ion      s     py     pz     px    dxy    dyz    dz2    dxz  x2-y2    tot
    1  0.000  0.000  0.000  0.000  0.066  0.001  0.000  0.000  0.197  0.264
    2  0.000  0.000  0.000  0.000  0.003  0.001  0.000  0.000  0.010  0.014
    3  0.000  0.000  0.000  0.000  0.065  0.013  0.000  0.004  0.195  0.278
    4  0.000  0.000  0.000  0.000  0.003  0.309  0.000  0.103  0.008  0.422
    5  0.000  0.000  0.000  0.000  0.000  0.000  0.000  0.000  0.000  0.000
tot    0.000  0.001  0.000  0.000  0.137  0.324  0.000  0.108  0.410  0.979
 
band    18 # energy   -4.60856185 # occ.  2.00000000
 
ion      s     py     pz     px    dxy    dyz    dz2    dxz  x2-y2    tot
    1  0.001  0.000  0.001  0.000  0.027  0.010  0.011  0.030  0.009  0.089
    2  0.000  0.000  0.000  0.000  0.027  0.011  0.003  0.034  0.009  0.085
    3  0.004  0.000  0.002  0.000  0.037  0.081  0.028  0.242  0.012  0.406
    4  0.000  0.000  0.013  0.000  0.003  0.080  0.021  0.239  0.001  0.357
    5  0.006  0.000  0.000  0.000  0.000  0.000  0.000  0.000  0.000  0.007
tot    0.012  0.000  0.016  0.001  0.093  0.182  0.063  0.546  0.031  0.944
 
band    19 # energy   -4.42138576 # occ.  2.00000000
 
ion      s     py     pz     px    dxy    dyz    dz2    dxz  x2-y2    tot
    1  0.000  0.000  0.000  0.000  0.039  0.049  0.000  0.016  0.118  0.224
    2  0.000  0.000  0.000  0.000  0.018  0.256  0.000  0.085  0.054  0.414
    3  0.000  0.000  0.000  0.000  0.017  0.180  0.000  0.060  0.052  0.309
    4  0.000  0.000  0.000  0.000  0.001  0.025  0.000  0.008  0.003  0.037
    5  0.000  0.000  0.000  0.000  0.000  0.000  0.000  0.000  0.000  0.000
tot    0.000  0.000  0.000  0.000  0.076  0.510  0.000  0.170  0.227  0.983
 
band    20 # energy   -4.38235560 # occ.  2.00000000
 
ion      s     py     pz     px    dxy    dyz    dz2    dxz  x2-y2    tot
    1  0.000  0.000  0.004  0.000  0.038  0.091  0.001  0.274  0.012  0.419
    2  0.001  0.000  0.004  0.000  0.046  0.058  0.000  0.174  0.015  0.298
    3  0.003  0.000  0.002  0.000  0.013  0.023  0.025  0.069  0.004  0.139
    4  0.000  0.000  0.005  0.000  0.001  0.022  0.002  0.067  0.000  0.098
    5  0.002  0.000  0.000  0.000  0.000  0.000  0.000  0.000  0.000  0.002
tot    0.006  0.000  0.014  0.000  0.097  0.194  0.028  0.584  0.032  0.957
 
band    21 # energy   -4.20386192 # occ.  2.00000000
 
ion      s     py     pz     px    dxy    dyz    dz2    dxz  x2-y2    tot
    1  0.011  0.000  0.014  0.000  0.014  0.086  0.081  0.256  0.005  0.468
    2  0.001  0.000  0.001  0.000  0.011  0.080  0.003  0.241  0.004  0.342
    3  0.001  0.000  0.004  0.000  0.006  0.001  0.009  0.003  0.002  0.025
    4  0.000  0.000  0.007  0.000  0.000  0.012  0.001  0.037  0.000  0.058
    5  0.003  0.000  0.000  0.000  0.000  0.000  0.000  0.000  0.000  0.003
tot    0.016  0.000  0.027  0.001  0.031  0.179  0.094  0.537  0.010  0.896
 
band    22 # energy   -4.17819210 # occ.  2.00000000
 
ion      s     py     pz     px    dxy    dyz    dz2    dxz  x2-y2    tot
    1  0.000  0.000  0.000  0.000  0.004  0.253  0.000  0.084  0.011  0.352
    2  0.000  0.000  0.000  0.000  0.005  0.070  0.000  0.023  0.016  0.114
    3  0.000  0.000  0.000  0.000  0.001  0.363  0.000  0.121  0.004  0.488
    4  0.000  0.000  0.000  0.000  0.001  0.021  0.000  0.007  0.003  0.032
    5  0.000  0.000  0.000  0.000  0.000  0.000  0.000  0.000  0.000  0.000
tot    0.000  0.000  0.000  0.000  0.011  0.706  0.000  0.236  0.033  0.986
 
band    23 # energy   -3.89482773 # occ.  2.00000000
 
ion      s     py     pz     px    dxy    dyz    dz2    dxz  x2-y2    tot
    1  0.000  0.000  0.000  0.000  0.003  0.392  0.000  0.131  0.008  0.534
    2  0.000  0.000  0.000  0.000  0.006  0.224  0.000  0.075  0.017  0.322
    3  0.000  0.000  0.000  0.000  0.002  0.090  0.000  0.030  0.006  0.129