Starting job 28338096 ("jobname") on c15-31 at Fri Oct 11 11:39:00 CEST 2019
 running on    4 total cores
 distrk:  each k-point on    4 cores,    1 groups
 distr:  one band on    2 cores,    2 groups
 using from now: INCAR     
 vasp.5.4.4.18Apr17-6-g9f103f2a35 (build Jun 30 2017 11:15:00) complex          
  
 POSCAR found type information on POSCAR  Cu H 
 POSCAR found :  2 types and       5 ions
 scaLAPACK will be used

 ----------------------------------------------------------------------------- 
|                                                                             |
|  ADVICE TO THIS USER RUNNING 'VASP/VAMP'   (HEAR YOUR MASTER'S VOICE ...):  |
|                                                                             |
|      You have a (more or less) 'small supercell' and for smaller cells      |
|      it is recommended  to use the reciprocal-space projection scheme!      |
|      The real space optimization is not  efficient for small cells and it   |
|      is also less accurate ...                                              |
|      Therefore set LREAL=.FALSE. in the  INCAR file                         |
|                                                                             |
 ----------------------------------------------------------------------------- 

 LDA part: xc-table for Pade appr. of Perdew
 POSCAR, INCAR and KPOINTS ok, starting setup
 FFT: planning ...
 WAVECAR not read
 WARNING: random wavefunctions but no delay for mixing, default for NELMDL
 entering main loop
       N       E                     dE             d eps       ncg     rms          rms(c)
DAV:   1     0.200230496822E+03    0.20023E+03   -0.13995E+04   808   0.927E+02
DAV:   2    -0.107679748115E+02   -0.21100E+03   -0.20531E+03   848   0.267E+02
DAV:   3    -0.210655382689E+02   -0.10298E+02   -0.10120E+02   868   0.780E+01
DAV:   4    -0.211816176868E+02   -0.11608E+00   -0.11579E+00   860   0.774E+00
DAV:   5    -0.211829968301E+02   -0.13791E-02   -0.13790E-02   900   0.558E-01    0.146E+01
RMM:   6    -0.191413771423E+02    0.20416E+01   -0.43129E+01   853   0.641E+01    0.746E+00
RMM:   7    -0.175281554119E+02    0.16132E+01   -0.71016E+00   859   0.269E+01    0.261E+00
RMM:   8    -0.173279636396E+02    0.20019E+00   -0.21978E-01   862   0.382E+00    0.162E+00
RMM:   9    -0.172542871704E+02    0.73676E-01   -0.67210E-02   840   0.230E+00    0.705E-01
RMM:  10    -0.172417587376E+02    0.12528E-01   -0.21874E-02   855   0.117E+00    0.405E-01
RMM:  11    -0.172379023191E+02    0.38564E-02   -0.61456E-03   872   0.654E-01    0.190E-01
RMM:  12    -0.172361102160E+02    0.17921E-02   -0.20243E-03   854   0.344E-01    0.582E-02
RMM:  13    -0.172357203803E+02    0.38984E-03   -0.34120E-04   847   0.135E-01    0.434E-02
RMM:  14    -0.172357394499E+02   -0.19070E-04   -0.24209E-04   835   0.119E-01    0.311E-02
RMM:  15    -0.172359251993E+02   -0.18575E-03   -0.99699E-05   813   0.669E-02    0.159E-02
RMM:  16    -0.172363492785E+02   -0.42408E-03   -0.15578E-04   799   0.579E-02    0.916E-03
RMM:  17    -0.172364431889E+02   -0.93910E-04   -0.26757E-05   797   0.281E-02    0.802E-03
RMM:  18    -0.172364809649E+02   -0.37776E-04   -0.37761E-06   575   0.109E-02    0.644E-03
RMM:  19    -0.172365168256E+02   -0.35861E-04   -0.20830E-06   533   0.834E-03    0.571E-03
RMM:  20    -0.172365394698E+02   -0.22644E-04   -0.13731E-06   521   0.552E-03    0.556E-03
RMM:  21    -0.172365458965E+02   -0.64267E-05   -0.30223E-07   497   0.363E-03    0.543E-03
RMM:  22    -0.172365495579E+02   -0.36614E-05   -0.99412E-08   344   0.177E-03    0.540E-03
RMM:  23    -0.172365501480E+02   -0.59008E-06   -0.15690E-08   267   0.142E-03
   1 F= -.17236550E+02 E0= -.17228641E+02  d E =-.158182E-01

Currently Loaded Modulefiles:
  1) intel/2017.4         2) perf-reports/7.0.6

Job script resource usage:
       JobID  MaxVMSize     MaxRSS 
------------ ---------- ---------- 
28338096.ba+    216884K      2370K 

Job step resource usage:
       JobID    JobName  AllocCPUS  MaxVMSize     MaxRSS    Elapsed ExitCode 
------------ ---------- ---------- ---------- ---------- ---------- -------- 
28338096        jobname          4                         00:00:10      0:0 
28338096.0    pmi_proxy          1    279832K       512K   00:00:08      0:0 

Job 28338096 ("jobname") completed on c15-31 at Fri Oct 11 11:39:09 CEST 2019
