unknown system                          
   1.00000000000000     
     3.905268    0.000000    0.000000
     0.000000    3.905268    0.000000
     0.000000    0.000000    3.905268
   Sr   Ti   O 
     1     1     3
Direct
  0.000000  0.000000  0.000000
  0.500000  0.500000  0.500000
  0.500000  0.500000  0.000000
  0.500000  0.000000  0.500000
  0.000000  0.500000  0.500000
 
   48   48   48
  193.37      193.38      192.94      190.79      185.37      175.47      160.60      141.25      118.79      95.199    
  72.581      52.710      36.664      24.699      16.384      10.891      7.3750      5.1882      3.8509      3.0396    
  2.5522      2.2658      2.1060      2.0269      2.0033      2.0269      2.1060      2.2658      2.5522      3.0396    
  3.8509      5.1882      7.3750      10.891      16.384      24.699      36.664      52.710      72.581      95.199    
  118.79      141.25      160.60      175.47      185.37      190.79      192.94      193.38      193.38      193.32    
  192.65      190.17      184.42      174.22      159.16      139.74      117.34      93.910      71.522      51.906    
  36.099      24.331      16.162      10.766      7.3113      5.1630      3.8488      3.0514      2.5723      2.2910    
  2.1341      2.0565      2.0334      2.0565      2.1341      2.2910      2.5723      3.0514      3.8488      5.1630    
  7.3113      10.766      16.162      24.331      36.099      51.906      71.522      93.910      117.34      139.74    
  159.16      174.22      184.42      190.17      192.65      193.32      192.94      192.65      191.35      187.99    
  181.31      170.33      154.77      135.21      113.03      90.113      68.421      49.561      34.458      23.269    
  15.522      10.406      7.1318      5.0955      3.8493      3.0933      2.6395      2.3738      2.2262      2.1535    
  2.1319      2.1535      2.2262      2.3738      2.6395      3.0933      3.8493      5.0955      7.1318      10.406    
  15.522      23.269      34.458      49.561      68.421      90.113      113.03      135.21      154.77      170.33    
  181.31      187.99      191.35      192.65      190.79      190.17      187.99      183.42      175.48      163.47    
  147.32      127.72      106.02      84.018      63.500      45.876      31.901      21.625      14.539      9.8605    
  6.8682      5.0079      3.8697      3.1802      2.7683      2.5291      2.3977      2.3338      2.3150      2.3338    
  2.3977      2.5291      2.7683      3.1802      3.8697      5.0079      6.8682      9.8605      14.539      21.625    
  31.901      45.876      63.500      84.018      106.02      127.72      147.32      163.47      175.48      183.42    
  187.99      190.17      185.37      184.42      181.31      175.48      166.27      153.31      136.76      117.42    
  96.615      75.995      57.123      41.165      28.673      19.572      13.325      9.2002      6.5669      4.9316    
  3.9332      3.3317      2.9763      2.7739      2.6655      2.6144      2.5996      2.6144      2.6655      2.7739    
  2.9763      3.3317      3.9332      4.9316      6.5669      9.2002      13.325      19.572      28.673      41.165    
  57.123      75.995      96.615      117.42      136.76      153.31      166.27      175.48      181.31      184.42    
  175.47      174.22      170.33      163.47      153.31      139.80      123.30      104.71      85.317      66.569    
  49.774      35.828      25.069      17.312      12.008      8.5087      6.2830      4.9061      4.0717      3.5766    
  3.2922      3.1374      3.0600      3.0262      3.0171      3.0262      3.0600      3.1374      3.2922      3.5766    
  4.0717      4.9061      6.2830      8.5087      12.008      17.312      25.069      35.828      49.774      66.569    
  85.317      104.71      123.30      139.80      153.31      163.47      170.33      174.22      160.60      159.16    
  154.77      147.32      136.76      123.30      107.49      90.271      72.829      56.400      42.014      30.299    
  21.401      15.049      10.717      7.8729      6.0776      4.9801      4.3303      3.9615      3.7663      3.6747    
  3.6399      3.6310      3.6300      3.6310      3.6399      3.6747      3.7663      3.9615      4.3303      4.9801    
  6.0776      7.8729      10.717      15.049      21.401      30.299      42.014      56.400      72.829      90.271    
  107.49      123.30      136.76      147.32      154.77      159.16      141.25      139.74      135.21      127.72    
  117.42      104.71      90.271      75.016      59.995      46.208      34.410      24.991      17.945      12.958    
  9.5714      7.3755      6.0151      5.2125      4.7697      4.5531      4.4729      4.4675      4.4935      4.5210    
  4.5321      4.5210      4.4935      4.4675      4.4729      4.5531      4.7697      5.2125      6.0151      7.3755    
  9.5714      12.958      17.945      24.991      34.410      46.208      59.995      75.016      90.271      104.71    
  117.42      127.72      135.21      139.74      118.79      117.34      113.03      106.02      96.615      85.317    
  72.829      59.995      47.691      36.675      27.459      20.239      14.914      11.172      8.6706      7.0926    
  6.1643      5.6738      5.4680      5.4392      5.5102      5.6238      5.7363      5.8167      5.8456      5.8167    
  5.7363      5.6238      5.5102      5.4392      5.4680      5.6738      6.1643      7.0926      8.6706      11.172    
  14.914      20.239      27.459      36.675      47.691      59.995      72.829      85.317      96.615      106.02    
  113.03      117.34      95.199      93.910      90.113      84.018      75.995      66.569      56.400      46.208    
  36.675      28.338      21.511      16.258      12.431      9.7898      8.0902      7.0943      6.6000      6.4497    
  6.5248      6.7352      7.0093      7.2886      7.5251      7.6824      7.7374      7.6824      7.5251      7.2886    
  7.0093      6.7352      6.5248      6.4497      6.6000      7.0943      8.0902      9.7898      12.431      16.258    
  21.511      28.338      36.675      46.208      56.400      66.569      75.995      84.018      90.113      93.910    
  72.581      71.522      68.421      63.500      57.123      49.774      42.014      34.410      27.459      21.511    
  16.737      13.126      10.554      8.8659      7.8863      7.4470      7.4048      7.6428      8.0657      8.5914    
  9.1463      9.6627      10.081      10.353      10.447      10.353      10.081      9.6627      9.1463      8.5914    
  8.0657      7.6428      7.4048      7.4470      7.8863      8.8659      10.554      13.126      16.737      21.511    
  27.459      34.410      42.014      49.774      57.123      63.500      68.421      71.522      52.710      51.906    
  49.561      45.876      41.165      35.828      30.299      24.991      20.239      16.258      13.126      10.825    
  9.2917      8.4218      8.0996      8.2147      8.6683      9.3727      10.245      11.204      12.161      13.031    
  13.728      14.179      14.335      14.179      13.728      13.031      12.161      11.204      10.245      9.3727    
  8.6683      8.2147      8.0996      8.4218      9.2917      10.825      13.126      16.258      20.239      24.991    
  30.299      35.828      41.165      45.876      49.561      51.906      36.664      36.099      34.458      31.901    
  28.673      25.069      21.401      17.945      14.914      12.431      10.554      9.2917      8.6114      8.4558    
  8.7603      9.4594      10.489      11.783      13.265      14.845      16.410      17.833      18.977      19.721    
  19.980      19.721      18.977      17.833      16.410      14.845      13.265      11.783      10.489      9.4594    
  8.7603      8.4558      8.6114      9.2917      10.554      12.431      14.914      17.945      21.401      25.069    
  28.673      31.901      34.458      36.099      24.699      24.331      23.269      21.625      19.572      17.312    
  15.049      12.958      11.172      9.7898      8.8659      8.4218      8.4558      8.9531      9.8916      11.246    
  12.985      15.064      17.417      19.934      22.458      24.784      26.677      27.918      28.352      27.918    
  26.677      24.784      22.458      19.934      17.417      15.064      12.985      11.246      9.8916      8.9531    
  8.4558      8.4218      8.8659      9.7898      11.172      12.958      15.049      17.312      19.572      21.625    
  23.269      24.331      16.384      16.162      15.522      14.539      13.325      12.008      10.717      9.5714    
  8.6706      8.0902      7.8863      8.0996      8.7603      9.8916      11.514      13.647      16.305      19.483    
  23.128      27.107      31.179      34.996      38.147      40.232      40.963      40.232      38.147      34.996    
  31.179      27.107      23.128      19.483      16.305      13.647      11.514      9.8916      8.7603      8.0996    
  7.8863      8.0902      8.6706      9.5714      10.717      12.008      13.325      14.539      15.522      16.162    
  10.891      10.766      10.406      9.8605      9.2002      8.5087      7.8729      7.3755      7.0926      7.0943    
  7.4470      8.2147      9.4594      11.246      13.647      16.750      20.645      25.396      30.984      37.235    
  43.765      49.982      55.165      58.616      59.829      58.616      55.165      49.982      43.765      37.235    
  30.984      25.396      20.645      16.750      13.647      11.246      9.4594      8.2147      7.4470      7.0943    
  7.0926      7.3755      7.8729      8.5087      9.2002      9.8605      10.406      10.766      7.3750      7.3113    
  7.1318      6.8682      6.5669      6.2830      6.0776      6.0151      6.1643      6.6000      7.4048      8.6683    
  10.489      12.985      16.305      20.645      26.220      33.214      41.659      51.311      61.542      71.388    
  79.765      85.465      87.494      85.465      79.765      71.388      61.542      51.311      41.659      33.214    
  26.220      20.645      16.305      12.985      10.489      8.6683      7.4048      6.6000      6.1643      6.0151    
  6.0776      6.2830      6.5669      6.8682      7.1318      7.3113      5.1882      5.1630      5.0955      5.0079    
  4.9316      4.9061      4.9801      5.2125      5.6738      6.4497      7.6428      9.3727      11.783      15.064    
  19.483      25.396      33.214      43.290      55.724      70.137      85.878      101.76      115.68      125.27    
  128.70      125.27      115.68      101.76      85.878      70.137      55.724      43.290      33.214      25.396    
  19.483      15.064      11.783      9.3727      7.6428      6.4497      5.6738      5.2125      4.9801      4.9061    
  4.9316      5.0079      5.0955      5.1630      3.8509      3.8488      3.8493      3.8697      3.9332      4.0717    
  4.3303      4.7697      5.4680      6.5248      8.0657      10.245      13.265      17.417      23.128      30.984    
  41.659      55.724      73.349      94.682      119.09      144.11      166.00      180.97      186.29      180.97    
  166.00      144.11      119.09      94.682      73.349      55.724      41.659      30.984      23.128      17.417    
  13.265      10.245      8.0657      6.5248      5.4680      4.7697      4.3303      4.0717      3.9332      3.8697    
  3.8493      3.8488      3.0396      3.0514      3.0933      3.1802      3.3317      3.5766      3.9615      4.5531    
  5.4392      6.7352      8.5914      11.204      14.845      19.934      27.107      37.235      51.311      70.137    
  94.682      125.73      161.55      197.79      228.87      249.74      257.06      249.74      228.87      197.79    
  161.55      125.73      94.682      70.137      51.311      37.235      27.107      19.934      14.845      11.204    
  8.5914      6.7352      5.4392      4.5531      3.9615      3.5766      3.3317      3.1802      3.0933      3.0514    
  2.5522      2.5723      2.6395      2.7683      2.9763      3.2922      3.7663      4.4729      5.5102      7.0093    
  9.1463      12.161      16.410      22.458      31.179      43.765      61.542      85.878      119.09      161.55    
  209.78      257.28      296.76      322.53      331.44      322.53      296.76      257.28      209.78      161.55    
  119.09      85.878      61.542      43.765      31.179      22.458      16.410      12.161      9.1463      7.0093    
  5.5102      4.4729      3.7663      3.2922      2.9763      2.7683      2.6395      2.5723      2.2658      2.2910    
  2.3738      2.5291      2.7739      3.1374      3.6747      4.4675      5.6238      7.2886      9.6627      13.031    
  17.833      24.784      34.996      49.982      71.388      101.76      144.11      197.79      257.28      313.86    
  359.12      387.65      397.29      387.65      359.12      313.86      257.28      197.79      144.11      101.76    
  71.388      49.982      34.996      24.784      17.833      13.031      9.6627      7.2886      5.6238      4.4675    
  3.6747      3.1374      2.7739      2.5291      2.3738      2.2910      2.1060      2.1341      2.2262      2.3977    
  2.6655      3.0600      3.6399      4.4935      5.7363      7.5251      10.081      13.728      18.977      26.677    
  38.147      55.165      79.765      115.68      166.00      228.87      296.76      359.12      407.01      436.00    
  445.54      436.00      407.01      359.12      296.76      228.87      166.00      115.68      79.765      55.165    
  38.147      26.677      18.977      13.728      10.081      7.5251      5.7363      4.4935      3.6399      3.0600    
  2.6655      2.3977      2.2262      2.1341      2.0269      2.0565      2.1535      2.3338      2.6144      3.0262    
  3.6310      4.5210      5.8167      7.6824      10.353      14.179      19.721      27.918      40.232      58.616    
  85.465      125.27      180.97      249.74      322.53      387.65      436.00      464.26      473.34      464.26    
  436.00      387.65      322.53      249.74      180.97      125.27      85.465      58.616      40.232      27.918    
  19.721      14.179      10.353      7.6824      5.8167      4.5210      3.6310      3.0262      2.6144      2.3338    
  2.1535      2.0565      2.0033      2.0334      2.1319      2.3150      2.5996      3.0171      3.6300      4.5321    
  5.8456      7.7374      10.447      14.335      19.980      28.352      40.963      59.829      87.494      128.70    
  186.29      257.06      331.44      397.29      445.54      473.34      482.18      473.34      445.54      397.29    
  331.44      257.06      186.29      128.70      87.494      59.829      40.963      28.352      19.980      14.335    
  10.447      7.7374      5.8456      4.5321      3.6300      3.0171      2.5996      2.3150      2.1319      2.0334    
  2.0269      2.0565      2.1535      2.3338      2.6144      3.0262      3.6310      4.5210      5.8167      7.6824    
  10.353      14.179      19.721      27.918      40.232      58.616      85.465      125.27      180.97      249.74    
  322.53      387.65      436.00      464.26      473.34      464.26      436.00      387.65      322.53      249.74    
  180.97      125.27      85.465      58.616      40.232      27.918      19.721      14.179      10.353      7.6824    
  5.8167      4.5210      3.6310      3.0262      2.6144      2.3338      2.1535      2.0565      2.1060      2.1341    
  2.2262      2.3977      2.6655      3.0600      3.6399      4.4935      5.7363      7.5251      10.081      13.728    
  18.977      26.677      38.147      55.165      79.765      115.68      166.00      228.87      296.76      359.12    
  407.01      436.00      445.54      436.00      407.01      359.12      296.76      228.87      166.00      115.68    
  79.765      55.165      38.147      26.677      18.977      13.728      10.081      7.5251      5.7363      4.4935    
  3.6399      3.0600      2.6655      2.3977      2.2262      2.1341      2.2658      2.2910      2.3738      2.5291    
  2.7739      3.1374      3.6747      4.4675      5.6238      7.2886      9.6627      13.031      17.833      24.784    
  34.996      49.982      71.388      101.76      144.11      197.79      257.28      313.86      359.12      387.65    
  397.29      387.65      359.12      313.86      257.28      197.79      144.11      101.76      71.388      49.982    
  34.996      24.784      17.833      13.031      9.6627      7.2886      5.6238      4.4675      3.6747      3.1374    
  2.7739      2.5291      2.3738      2.2910      2.5522      2.5723      2.6395      2.7683      2.9763      3.2922    
  3.7663      4.4729      5.5102      7.0093      9.1463      12.161      16.410      22.458      31.179      43.765    
  61.542      85.878      119.09      161.55      209.78      257.28      296.76      322.53      331.44      322.53    
  296.76      257.28      209.78      161.55      119.09      85.878      61.542      43.765      31.179      22.458    
  16.410      12.161      9.1463      7.0093      5.5102      4.4729      3.7663      3.2922      2.9763      2.7683    
  2.6395      2.5723      3.0396      3.0514      3.0933      3.1802      3.3317      3.5766      3.9615      4.5531    
  5.4392      6.7352      8.5914      11.204      14.845      19.934      27.107      37.235      51.311      70.137    
  94.682      125.73      161.55      197.79      228.87      249.74      257.06      249.74      228.87      197.79    
  161.55      125.73      94.682      70.137      51.311      37.235      27.107      19.934      14.845      11.204    
  8.5914      6.7352      5.4392      4.5531      3.9615      3.5766      3.3317      3.1802      3.0933      3.0514    
  3.8509      3.8488      3.8493      3.8697      3.9332      4.0717      4.3303      4.7697      5.4680      6.5248    
  8.0657      10.245      13.265      17.417      23.128      30.984      41.659      55.724      73.349      94.682    
  119.09      144.11      166.00      180.97      186.29      180.97      166.00      144.11      119.09      94.682    
  73.349      55.724      41.659      30.984      23.128      17.417      13.265      10.245      8.0657      6.5248    
  5.4680      4.7697      4.3303      4.0717      3.9332      3.8697      3.8493      3.8488      5.1882      5.1630    
  5.0955      5.0079      4.9316      4.9061      4.9801      5.2125      5.6738      6.4497      7.6428      9.3727    
  11.783      15.064      19.483      25.396      33.214      43.290      55.724      70.137      85.878      101.76    
  115.68      125.27      128.70      125.27      115.68      101.76      85.878      70.137      55.724      43.290    
  33.214      25.396      19.483      15.064      11.783      9.3727      7.6428      6.4497      5.6738      5.2125    
  4.9801      4.9061      4.9316      5.0079      5.0955      5.1630      7.3750      7.3113      7.1318      6.8682    
  6.5669      6.2830      6.0776      6.0151      6.1643      6.6000      7.4048      8.6683      10.489      12.985    
  16.305      20.645      26.220      33.214      41.659      51.311      61.542      71.388      79.765      85.465    
  87.494      85.465      79.765      71.388      61.542      51.311      41.659      33.214      26.220      20.645    
  16.305      12.985      10.489      8.6683      7.4048      6.6000      6.1643      6.0151      6.0776      6.2830    
  6.5669      6.8682      7.1318      7.3113      10.891      10.766      10.406      9.8605      9.2002      8.5087    
  7.8729      7.3755      7.0926      7.0943      7.4470      8.2147      9.4594      11.246      13.647      16.750    
  20.645      25.396      30.984      37.235      43.765      49.982      55.165      58.616      59.829      58.616    
  55.165      49.982      43.765      37.235      30.984      25.396      20.645      16.750      13.647      11.246    
  9.4594      8.2147      7.4470      7.0943      7.0926      7.3755      7.8729      8.5087      9.2002      9.8605    
  10.406      10.766      16.384      16.162      15.522      14.539      13.325      12.008      10.717      9.5714    
  8.6706      8.0902      7.8863      8.0996      8.7603      9.8916      11.514      13.647      16.305      19.483    
  23.128      27.107      31.179      34.996      38.147      40.232      40.963      40.232      38.147      34.996    
  31.179      27.107      23.128      19.483      16.305      13.647      11.514      9.8916      8.7603      8.0996    
  7.8863      8.0902      8.6706      9.5714      10.717      12.008      13.325      14.539      15.522      16.162    
  24.699      24.331      23.269      21.625      19.572      17.312      15.049      12.958      11.172      9.7898    
  8.8659      8.4218      8.4558      8.9531      9.8916      11.246      12.985      15.064      17.417      19.934    
  22.458      24.784      26.677      27.918      28.352      27.918      26.677      24.784      22.458      19.934    
  17.417      15.064      12.985      11.246      9.8916      8.9531      8.4558      8.4218      8.8659      9.7898    
  11.172      12.958      15.049      17.312      19.572      21.625      23.269      24.331      36.664      36.099    
  34.458      31.901      28.673      25.069      21.401      17.945      14.914      12.431      10.554      9.2917    
  8.6114      8.4558      8.7603      9.4594      10.489      11.783      13.265      14.845      16.410      17.833    
  18.977      19.721      19.980      19.721      18.977      17.833      16.410      14.845      13.265      11.783    
  10.489      9.4594      8.7603      8.4558      8.6114      9.2917      10.554      12.431      14.914      17.945    
  21.401      25.069      28.673      31.901      34.458      36.099      52.710      51.906      49.561      45.876    
  41.165      35.828      30.299      24.991      20.239      16.258      13.126      10.825      9.2917      8.4218    
  8.0996      8.2147      8.6683      9.3727      10.245      11.204      12.161      13.031      13.728      14.179    
  14.335      14.179      13.728      13.031      12.161      11.204      10.245      9.3727      8.6683      8.2147    
  8.0996      8.4218      9.2917      10.825      13.126      16.258      20.239      24.991      30.299      35.828    
  41.165      45.876      49.561      51.906      72.581      71.522      68.421      63.500      57.123      49.774    
  42.014      34.410      27.459      21.511      16.737      13.126      10.554      8.8659      7.8863      7.4470    
  7.4048      7.6428      8.0657      8.5914      9.1463      9.6627      10.081      10.353      10.447      10.353    
  10.081      9.6627      9.1463      8.5914      8.0657      7.6428      7.4048      7.4470      7.8863      8.8659    
  10.554      13.126      16.737      21.511      27.459      34.410      42.014      49.774      57.123      63.500    
  68.421      71.522      95.199      93.910      90.113      84.018      75.995      66.569      56.400      46.208    
  36.675      28.338      21.511      16.258      12.431      9.7898      8.0902      7.0943      6.6000      6.4497    
  6.5248      6.7352      7.0093      7.2886      7.5251      7.6824      7.7374      7.6824      7.5251      7.2886    
  7.0093      6.7352      6.5248      6.4497      6.6000      7.0943      8.0902      9.7898      12.431      16.258    
  21.511      28.338      36.675      46.208      56.400      66.569      75.995      84.018      90.113      93.910    
  118.79      117.34      113.03      106.02      96.615      85.317      72.829      59.995      47.691      36.675    
  27.459      20.239      14.914      11.172      8.6706      7.0926      6.1643      5.6738      5.4680      5.4392    
  5.5102      5.6238      5.7363      5.8167      5.8456      5.8167      5.7363      5.6238      5.5102      5.4392    
  5.4680      5.6738      6.1643      7.0926      8.6706      11.172      14.914      20.239      27.459      36.675    
  47.691      59.995      72.829      85.317      96.615      106.02      113.03      117.34      141.25      139.74    
  135.21      127.72      117.42      104.71      90.271      75.016      59.995      46.208      34.410      24.991    
  17.945      12.958      9.5714      7.3755      6.0151      5.2125      4.7697      4.5531      4.4729      4.4675    
  4.4935      4.5210      4.5321      4.5210      4.4935      4.4675      4.4729      4.5531      4.7697      5.2125    
  6.0151      7.3755      9.5714      12.958      17.945      24.991      34.410      46.208      59.995      75.016    
  90.271      104.71      117.42      127.72      135.21      139.74      160.60      159.16      154.77      147.32    
  136.76      123.30      107.49      90.271      72.829      56.400      42.014      30.299      21.401      15.049    
  10.717      7.8729      6.0776      4.9801      4.3303      3.9615      3.7663      3.6747      3.6399      3.6310    
  3.6300      3.6310      3.6399      3.6747      3.7663      3.9615      4.3303      4.9801      6.0776      7.8729    
  10.717      15.049      21.401      30.299      42.014      56.400      72.829      90.271      107.49      123.30    
  136.76      147.32      154.77      159.16      175.47      174.22      170.33      163.47      153.31      139.80    
  123.30      104.71      85.317      66.569      49.774      35.828      25.069      17.312      12.008      8.5087    
  6.2830      4.9061      4.0717      3.5766      3.2922      3.1374      3.0600      3.0262      3.0171      3.0262    
  3.0600      3.1374      3.2922      3.5766      4.0717      4.9061      6.2830      8.5087      12.008      17.312    
  25.069      35.828      49.774      66.569      85.317      104.71      123.30      139.80      153.31      163.47    
  170.33      174.22      185.37      184.42      181.31      175.48      166.27      153.31      136.76      117.42    
  96.615      75.995      57.123      41.165      28.673      19.572      13.325      9.2002      6.5669      4.9316    
  3.9332      3.3317      2.9763      2.7739      2.6655      2.6144      2.5996      2.6144      2.6655      2.7739    
  2.9763      3.3317      3.9332      4.9316      6.5669      9.2002      13.325      19.572      28.673      41.165    
  57.123      75.995      96.615      117.42      136.76      153.31      166.27      175.48      181.31      184.42    
  190.79      190.17      187.99      183.42      175.48      163.47      147.32      127.72      106.02      84.018    
  63.500      45.876      31.901      21.625      14.539      9.8605      6.8682      5.0079      3.8697      3.1802    
  2.7683      2.5291      2.3977      2.3338      2.3150      2.3338      2.3977      2.5291      2.7683      3.1802    
  3.8697      5.0079      6.8682      9.8605      14.539      21.625      31.901      45.876      63.500      84.018    
  106.02      127.72      147.32      163.47      175.48      183.42      187.99      190.17      192.94      192.65    
  191.35      187.99      181.31      170.33      154.77      135.21      113.03      90.113      68.421      49.561    
  34.458      23.269      15.522      10.406      7.1318      5.0955      3.8493      3.0933      2.6395      2.3738    
  2.2262      2.1535      2.1319      2.1535      2.2262      2.3738      2.6395      3.0933      3.8493      5.0955    
  7.1318      10.406      15.522      23.269      34.458      49.561      68.421      90.113      113.03      135.21    
  154.77      170.33      181.31      187.99      191.35      192.65      193.38      193.32      192.65      190.17    
  184.42      174.22      159.16      139.74      117.34      93.910      71.522      51.906      36.099      24.331    
  16.162      10.766      7.3113      5.1630      3.8488      3.0514      2.5723      2.2910      2.1341      2.0565    
  2.0334      2.0565      2.1341      2.2910      2.5723      3.0514      3.8488      5.1630      7.3113      10.766    
  16.162      24.331      36.099      51.906      71.522      93.910      117.34      139.74      159.16      174.22    
  184.42      190.17      192.65      193.32      193.38      193.32      192.65      190.17      184.42      174.22    
  159.16      139.74      117.34      93.910      71.522      51.906      36.099      24.331      16.162      10.766    
  7.3113      5.1630      3.8488      3.0514      2.5723      2.2910      2.1341      2.0565      2.0334      2.0565    
  2.1341      2.2910      2.5723      3.0514      3.8488      5.1630      7.3113      10.766      16.162      24.331    
  36.099      51.906      71.522      93.910      117.34      139.74      159.16      174.22      184.42      190.17    
  192.65      193.32      193.32      193.17      192.28      189.50      183.42      172.95      157.71      138.23    
  115.90      92.633      70.476      51.113      35.542      23.970      15.943      10.642      7.2486      5.1380    
  3.8466      3.0630      2.5921      2.3158      2.1618      2.0857      2.0630      2.0857      2.1618      2.3158    
  2.5921      3.0630      3.8466      5.1380      7.2486      10.642      15.943      23.970      35.542      51.113    
  70.476      92.633      115.90      138.23      157.71      172.95      183.42      189.50      192.28      193.17    
  192.65      192.28      190.79      187.16      180.21      169.00      153.29      133.71      111.61      88.869    
  67.411      48.800      33.927      22.925      15.314      10.288      7.0718      5.0713      3.8469      3.1039    
  2.6581      2.3972      2.2524      2.1812      2.1601      2.1812      2.2524      2.3972      2.6581      3.1039    
  3.8469      5.0713      7.0718      10.288      15.314      22.925      33.927      48.800      67.411      88.869    