unknown system                          
   1.00000000000000     
     3.905268    0.000000    0.000000
     0.000000    3.905268    0.000000
     0.000000    0.000000    3.905268
   Sr   Ti   O 
     1     1     3
Direct
  0.000000  0.000000  0.000000
  0.500000  0.500000  0.500000
  0.500000  0.500000  0.000000
  0.500000  0.000000  0.500000
  0.000000  0.500000  0.500000
 
   48   48   48
 0.19336910544E+03 0.19338432651E+03 0.19294415206E+03 0.19078730939E+03 0.18537441754E+03
 0.17547084548E+03 0.16060047472E+03 0.14124838674E+03 0.11879154310E+03 0.95198838604E+02
 0.72580772614E+02 0.52710408356E+02 0.36664196784E+02 0.24699177552E+02 0.16383923376E+02
 0.10891431886E+02 0.73749650343E+01 0.51882331664E+01 0.38508823444E+01 0.30396311957E+01
 0.25521705781E+01 0.22658387048E+01 0.21059522531E+01 0.20268982658E+01 0.20032952416E+01
 0.20268982658E+01 0.21059522531E+01 0.22658387048E+01 0.25521705781E+01 0.30396311957E+01
 0.38508823444E+01 0.51882331664E+01 0.73749650343E+01 0.10891431886E+02 0.16383923376E+02
 0.24699177552E+02 0.36664196784E+02 0.52710408356E+02 0.72580772614E+02 0.95198838604E+02
 0.11879154310E+03 0.14124838674E+03 0.16060047472E+03 0.17547084548E+03 0.18537441754E+03
 0.19078730939E+03 0.19294415206E+03 0.19338432651E+03 0.19338432651E+03 0.19331621645E+03
 0.19264670447E+03 0.19016937950E+03 0.18441631224E+03 0.17422115147E+03 0.15915831689E+03
 0.13973882906E+03 0.11734030460E+03 0.93910272566E+02 0.71522250770E+02 0.51906004390E+02
 0.36098898778E+02 0.24331495914E+02 0.16161729428E+02 0.10765813102E+02 0.73112955509E+01
 0.51629702569E+01 0.38487941760E+01 0.30514345216E+01 0.25723407651E+01 0.22910415517E+01
 0.21340795452E+01 0.20565310328E+01 0.20333887046E+01 0.20565310328E+01 0.21340795452E+01
 0.22910415517E+01 0.25723407651E+01 0.30514345216E+01 0.38487941760E+01 0.51629702569E+01
 0.73112955509E+01 0.10765813102E+02 0.16161729428E+02 0.24331495914E+02 0.36098898778E+02
 0.51906004390E+02 0.71522250770E+02 0.93910272566E+02 0.11734030460E+03 0.13973882906E+03
 0.15915831689E+03 0.17422115147E+03 0.18441631224E+03 0.19016937950E+03 0.19264670447E+03
 0.19331621645E+03 0.19294415206E+03 0.19264670447E+03 0.19134676696E+03 0.18799105831E+03
 0.18131151461E+03 0.17033329598E+03 0.15477276302E+03 0.13521317211E+03 0.11303191045E+03
 0.90112838516E+02 0.68421154359E+02 0.49561133607E+02 0.34458218703E+02 0.23268566026E+02
 0.15521816191E+02 0.10406096704E+02 0.71317847056E+01 0.50954667232E+01 0.38493338916E+01
 0.30932660298E+01 0.26395067110E+01 0.23738115112E+01 0.22261585138E+01 0.21535211095E+01
 0.21319053999E+01 0.21535211095E+01 0.22261585138E+01 0.23738115112E+01 0.26395067110E+01
 0.30932660298E+01 0.38493338916E+01 0.50954667232E+01 0.71317847056E+01 0.10406096704E+02
 0.15521816191E+02 0.23268566026E+02 0.34458218703E+02 0.49561133607E+02 0.68421154359E+02
 0.90112838516E+02 0.11303191045E+03 0.13521317211E+03 0.15477276302E+03 0.17033329598E+03
 0.18131151461E+03 0.18799105831E+03 0.19134676696E+03 0.19264670447E+03 0.19078730939E+03
 0.19016937950E+03 0.18799105831E+03 0.18342040107E+03 0.17547935857E+03 0.16347218387E+03
 0.14732212509E+03 0.12771514303E+03 0.10602087822E+03 0.84018159038E+02 0.63500032931E+02
 0.45875818372E+02 0.31901440728E+02 0.21624807543E+02 0.14539469348E+02 0.98605103662E+01
 0.68682290040E+01 0.50078530655E+01 0.38696537021E+01 0.31801996539E+01 0.27682824406E+01
 0.25290804361E+01 0.23976865577E+01 0.23338423789E+01 0.23150020713E+01 0.23338423789E+01
 0.23976865577E+01 0.25290804361E+01 0.27682824406E+01 0.31801996539E+01 0.38696537021E+01
 0.50078530655E+01 0.68682290040E+01 0.98605103662E+01 0.14539469348E+02 0.21624807543E+02
 0.31901440728E+02 0.45875818372E+02 0.63500032931E+02 0.84018159038E+02 0.10602087822E+03
 0.12771514303E+03 0.14732212509E+03 0.16347218387E+03 0.17547935857E+03 0.18342040107E+03
 0.18799105831E+03 0.19016937950E+03 0.18537441754E+03 0.18441631224E+03 0.18131151461E+03
 0.17547935857E+03 0.16627250672E+03 0.15331454291E+03 0.13676383585E+03 0.11741613565E+03
 0.96615208973E+02 0.75994586409E+02 0.57123021322E+02 0.41165136380E+02 0.28672686855E+02
 0.19571797324E+02 0.13325478654E+02 0.92001586283E+01 0.65668574161E+01 0.49315784817E+01
 0.39331747912E+01 0.33316741141E+01 0.29763397123E+01 0.27738677769E+01 0.26655375170E+01
 0.26144006418E+01 0.25996153958E+01 0.26144006418E+01 0.26655375170E+01 0.27738677769E+01
 0.29763397123E+01 0.33316741141E+01 0.39331747912E+01 0.49315784817E+01 0.65668574161E+01
 0.92001586283E+01 0.13325478654E+02 0.19571797324E+02 0.28672686855E+02 0.41165136380E+02
 0.57123021322E+02 0.75994586409E+02 0.96615208973E+02 0.11741613565E+03 0.13676383585E+03
 0.15331454291E+03 0.16627250672E+03 0.17547935857E+03 0.18131151461E+03 0.18441631224E+03
 0.17547084548E+03 0.17422115147E+03 0.17033329598E+03 0.16347218387E+03 0.15331454291E+03
 0.13979612976E+03 0.12329957767E+03 0.10471091913E+03 0.85317470876E+02 0.66569359216E+02
 0.49774456453E+02 0.35827740358E+02 0.25069276091E+02 0.17312175263E+02 0.12007863393E+02
 0.85087424706E+01 0.62829985939E+01 0.49061062391E+01 0.40716719248E+01 0.35765782731E+01
 0.32922007226E+01 0.31374318385E+01 0.30599739664E+01 0.30262431225E+01 0.30170847004E+01
 0.30262431225E+01 0.30599739664E+01 0.31374318385E+01 0.32922007226E+01 0.35765782731E+01
 0.40716719248E+01 0.49061062391E+01 0.62829985939E+01 0.85087424706E+01 0.12007863393E+02
 0.17312175263E+02 0.25069276091E+02 0.35827740358E+02 0.49774456453E+02 0.66569359216E+02
 0.85317470876E+02 0.10471091913E+03 0.12329957767E+03 0.13979612976E+03 0.15331454291E+03
 0.16347218387E+03 0.17033329598E+03 0.17422115147E+03 0.16060047472E+03 0.15915831689E+03
 0.15477276302E+03 0.14732212509E+03 0.13676383585E+03 0.12329957767E+03 0.10749100949E+03
 0.90270783044E+02 0.72829148269E+02 0.56400398740E+02 0.42014357750E+02 0.30298596601E+02
 0.21400751030E+02 0.15049118860E+02 0.10716706312E+02 0.78729436032E+01 0.60775590916E+01
 0.49801198184E+01 0.43302842968E+01 0.39614873700E+01 0.37662813373E+01 0.36746980691E+01
 0.36399296969E+01 0.36310248131E+01 0.36300257223E+01 0.36310248131E+01 0.36399296969E+01
 0.36746980691E+01 0.37662813373E+01 0.39614873700E+01 0.43302842968E+01 0.49801198184E+01
 0.60775590916E+01 0.78729436032E+01 0.10716706312E+02 0.15049118860E+02 0.21400751030E+02
 0.30298596601E+02 0.42014357750E+02 0.56400398740E+02 0.72829148269E+02 0.90270783044E+02
 0.10749100949E+03 0.12329957767E+03 0.13676383585E+03 0.14732212509E+03 0.15477276302E+03
 0.15915831689E+03 0.14124838674E+03 0.13973882906E+03 0.13521317211E+03 0.12771514303E+03
 0.11741613565E+03 0.10471091913E+03 0.90270783044E+02 0.75015641256E+02 0.59995494729E+02
 0.46208097474E+02 0.34410495652E+02 0.24990965534E+02 0.17945447148E+02 0.12957838635E+02
 0.95713687811E+01 0.73755399575E+01 0.60151292924E+01 0.52124666212E+01 0.47697243466E+01
 0.45530722525E+01 0.44728605026E+01 0.44674984263E+01 0.44935101629E+01 0.45209741047E+01
 0.45321021030E+01 0.45209741047E+01 0.44935101629E+01 0.44674984263E+01 0.44728605026E+01
 0.45530722525E+01 0.47697243466E+01 0.52124666212E+01 0.60151292924E+01 0.73755399575E+01
 0.95713687811E+01 0.12957838635E+02 0.17945447148E+02 0.24990965534E+02 0.34410495652E+02
 0.46208097474E+02 0.59995494729E+02 0.75015641256E+02 0.90270783044E+02 0.10471091913E+03
 0.11741613565E+03 0.12771514303E+03 0.13521317211E+03 0.13973882906E+03 0.11879154310E+03
 0.11734030460E+03 0.11303191045E+03 0.10602087822E+03 0.96615208973E+02 0.85317470876E+02
 0.72829148269E+02 0.59995494729E+02 0.47691236329E+02 0.36674865578E+02 0.27458505610E+02
 0.20239277251E+02 0.14914144223E+02 0.11172335058E+02 0.86705544773E+01 0.70925914147E+01
 0.61643130437E+01 0.56737670829E+01 0.54679746011E+01 0.54391881750E+01 0.55102373548E+01
 0.56237500279E+01 0.57363443182E+01 0.58167005403E+01 0.58456442253E+01 0.58167005403E+01
 0.57363443182E+01 0.56237500279E+01 0.55102373548E+01 0.54391881750E+01 0.54679746011E+01
 0.56737670829E+01 0.61643130437E+01 0.70925914147E+01 0.86705544773E+01 0.11172335058E+02
 0.14914144223E+02 0.20239277251E+02 0.27458505610E+02 0.36674865578E+02 0.47691236329E+02
 0.59995494729E+02 0.72829148269E+02 0.85317470876E+02 0.96615208973E+02 0.10602087822E+03
 0.11303191045E+03 0.11734030460E+03 0.95198838604E+02 0.93910272566E+02 0.90112838516E+02
 0.84018159038E+02 0.75994586409E+02 0.66569359216E+02 0.56400398740E+02 0.46208097474E+02
 0.36674865578E+02 0.28338103347E+02 0.21510931846E+02 0.16257651422E+02 0.12430880002E+02
 0.97898308034E+01 0.80902051072E+01 0.70942920307E+01 0.65999917329E+01 0.64496957785E+01
 0.65248255311E+01 0.67351936942E+01 0.70093437308E+01 0.72886069707E+01 0.75250812860E+01
 0.76823558417E+01 0.77374132581E+01 0.76823558417E+01 0.75250812860E+01 0.72886069707E+01
 0.70093437308E+01 0.67351936942E+01 0.65248255311E+01 0.64496957785E+01 0.65999917329E+01
 0.70942920307E+01 0.80902051072E+01 0.97898308034E+01 0.12430880002E+02 0.16257651422E+02
 0.21510931846E+02 0.28338103347E+02 0.36674865578E+02 0.46208097474E+02 0.56400398740E+02
 0.66569359216E+02 0.75994586409E+02 0.84018159038E+02 0.90112838516E+02 0.93910272566E+02
 0.72580772614E+02 0.71522250770E+02 0.68421154359E+02 0.63500032931E+02 0.57123021322E+02
 0.49774456453E+02 0.42014357750E+02 0.34410495652E+02 0.27458505610E+02 0.21510931846E+02
 0.16737036942E+02 0.13125816215E+02 0.10553669755E+02 0.88658726748E+01 0.78863094156E+01
 0.74470494539E+01 0.74047669731E+01 0.76428363673E+01 0.80657032262E+01 0.85914484395E+01
 0.91463100275E+01 0.96627448879E+01 0.10080978288E+02 0.10352985350E+02 0.10447314951E+02
 0.10352985350E+02 0.10080978288E+02 0.96627448879E+01 0.91463100275E+01 0.85914484395E+01
 0.80657032262E+01 0.76428363673E+01 0.74047669731E+01 0.74470494539E+01 0.78863094156E+01
 0.88658726748E+01 0.10553669755E+02 0.13125816215E+02 0.16737036942E+02 0.21510931846E+02
 0.27458505610E+02 0.34410495652E+02 0.42014357750E+02 0.49774456453E+02 0.57123021322E+02
 0.63500032931E+02 0.68421154359E+02 0.71522250770E+02 0.52710408356E+02 0.51906004390E+02
 0.49561133607E+02 0.45875818372E+02 0.41165136380E+02 0.35827740358E+02 0.30298596601E+02
 0.24990965534E+02 0.20239277251E+02 0.16257651422E+02 0.13125816215E+02 0.10825316744E+02
 0.92917069274E+01 0.84217858250E+01 0.80996283092E+01 0.82146616251E+01 0.86683386976E+01
 0.93727376290E+01 0.10245330173E+02 0.11203510343E+02 0.12161477316E+02 0.13031134289E+02
 0.13727599410E+02 0.14178500541E+02 0.14334632205E+02 0.14178500541E+02 0.13727599410E+02
 0.13031134289E+02 0.12161477316E+02 0.11203510343E+02 0.10245330173E+02 0.93727376290E+01
 0.86683386976E+01 0.82146616251E+01 0.80996283092E+01 0.84217858250E+01 0.92917069274E+01
 0.10825316744E+02 0.13125816215E+02 0.16257651422E+02 0.20239277251E+02 0.24990965534E+02
 0.30298596601E+02 0.35827740358E+02 0.41165136380E+02 0.45875818372E+02 0.49561133607E+02
 0.51906004390E+02 0.36664196784E+02 0.36098898778E+02 0.34458218703E+02 0.31901440728E+02
 0.28672686855E+02 0.25069276091E+02 0.21400751030E+02 0.17945447148E+02 0.14914144223E+02
 0.12430880002E+02 0.10553669755E+02 0.92917069274E+01 0.86113632315E+01 0.84558479245E+01
 0.87602555233E+01 0.94594253229E+01 0.10489232723E+02 0.11783057713E+02 0.13265385424E+02
 0.14844902148E+02 0.16410338944E+02 0.17832794039E+02 0.18977065011E+02 0.19721239625E+02
 0.19979613279E+02 0.19721239625E+02 0.18977065011E+02 0.17832794039E+02 0.16410338944E+02
 0.14844902148E+02 0.13265385424E+02 0.11783057713E+02 0.10489232723E+02 0.94594253229E+01
 0.87602555233E+01 0.84558479245E+01 0.86113632315E+01 0.92917069274E+01 0.10553669755E+02
 0.12430880002E+02 0.14914144223E+02 0.17945447148E+02 0.21400751030E+02 0.25069276091E+02
 0.28672686855E+02 0.31901440728E+02 0.34458218703E+02 0.36098898778E+02 0.24699177552E+02
 0.24331495914E+02 0.23268566026E+02 0.21624807543E+02 0.19571797324E+02 0.17312175263E+02
 0.15049118860E+02 0.12957838635E+02 0.11172335058E+02 0.97898308034E+01 0.88658726748E+01
 0.84217858250E+01 0.84558479245E+01 0.89530538949E+01 0.98916440854E+01 0.11245880328E+02
 0.12984539670E+02 0.15064114593E+02 0.17416505030E+02 0.19934005346E+02 0.22458452951E+02
 0.24783523034E+02 0.26676524196E+02 0.27918437611E+02 0.28351588085E+02 0.27918437611E+02
 0.26676524196E+02 0.24783523034E+02 0.22458452951E+02 0.19934005346E+02 0.17416505030E+02
 0.15064114593E+02 0.12984539670E+02 0.11245880328E+02 0.98916440854E+01 0.89530538949E+01
 0.84558479245E+01 0.84217858250E+01 0.88658726748E+01 0.97898308034E+01 0.11172335058E+02
 0.12957838635E+02 0.15049118860E+02 0.17312175263E+02 0.19571797324E+02 0.21624807543E+02
 0.23268566026E+02 0.24331495914E+02 0.16383923376E+02 0.16161729428E+02 0.15521816191E+02
 0.14539469348E+02 0.13325478654E+02 0.12007863393E+02 0.10716706312E+02 0.95713687811E+01
 0.86705544773E+01 0.80902051072E+01 0.78863094156E+01 0.80996283092E+01 0.87602555233E+01
 0.98916440854E+01 0.11514247467E+02 0.13647376603E+02 0.16305341294E+02 0.19482883284E+02
 0.23127864575E+02 0.27106883269E+02 0.31178880178E+02 0.34996262205E+02 0.38146723169E+02
 0.40232247591E+02 0.40962858599E+02 0.40232247591E+02 0.38146723169E+02 0.34996262205E+02
 0.31178880178E+02 0.27106883269E+02 0.23127864575E+02 0.19482883284E+02 0.16305341294E+02
 0.13647376603E+02 0.11514247467E+02 0.98916440854E+01 0.87602555233E+01 0.80996283092E+01
 0.78863094156E+01 0.80902051072E+01 0.86705544773E+01 0.95713687811E+01 0.10716706312E+02
 0.12007863393E+02 0.13325478654E+02 0.14539469348E+02 0.15521816191E+02 0.16161729428E+02
 0.10891431886E+02 0.10765813102E+02 0.10406096704E+02 0.98605103662E+01 0.92001586283E+01
 0.85087424706E+01 0.78729436032E+01 0.73755399575E+01 0.70925914147E+01 0.70942920307E+01
 0.74470494539E+01 0.82146616251E+01 0.94594253229E+01 0.11245880328E+02 0.13647376603E+02
 0.16750115041E+02 0.20644803397E+02 0.25395757922E+02 0.30983836578E+02 0.37234926915E+02
 0.43765033725E+02 0.49981602689E+02 0.55164836489E+02 0.58616436415E+02 0.59828822000E+02
 0.58616436415E+02 0.55164836489E+02 0.49981602689E+02 0.43765033725E+02 0.37234926915E+02
 0.30983836578E+02 0.25395757922E+02 0.20644803397E+02 0.16750115041E+02 0.13647376603E+02
 0.11245880328E+02 0.94594253229E+01 0.82146616251E+01 0.74470494539E+01 0.70942920307E+01
 0.70925914147E+01 0.73755399575E+01 0.78729436032E+01 0.85087424706E+01 0.92001586283E+01
 0.98605103662E+01 0.10406096704E+02 0.10765813102E+02 0.73749650343E+01 0.73112955509E+01
 0.71317847056E+01 0.68682290040E+01 0.65668574161E+01 0.62829985939E+01 0.60775590916E+01
 0.60151292924E+01 0.61643130437E+01 0.65999917329E+01 0.74047669731E+01 0.86683386976E+01
 0.10489232723E+02 0.12984539670E+02 0.16305341294E+02 0.20644803397E+02 0.26220474800E+02
 0.33213568077E+02 0.41659211605E+02 0.51310929274E+02 0.61542122137E+02 0.71387513058E+02
 0.79764558183E+02 0.85465272989E+02 0.87493503327E+02 0.85465272989E+02 0.79764558183E+02
 0.71387513058E+02 0.61542122137E+02 0.51310929274E+02 0.41659211605E+02 0.33213568077E+02
 0.26220474800E+02 0.20644803397E+02 0.16305341294E+02 0.12984539670E+02 0.10489232723E+02
 0.86683386976E+01 0.74047669731E+01 0.65999917329E+01 0.61643130437E+01 0.60151292924E+01
 0.60775590916E+01 0.62829985939E+01 0.65668574161E+01 0.68682290040E+01 0.71317847056E+01
 0.73112955509E+01 0.51882331664E+01 0.51629702569E+01 0.50954667232E+01 0.50078530655E+01
 0.49315784817E+01 0.49061062391E+01 0.49801198184E+01 0.52124666212E+01 0.56737670829E+01
 0.64496957785E+01 0.76428363673E+01 0.93727376290E+01 0.11783057713E+02 0.15064114593E+02
 0.19482883284E+02 0.25395757922E+02 0.33213568077E+02 0.43290122894E+02 0.55724107857E+02
 0.70137258881E+02 0.85877522169E+02 0.10175763989E+03 0.11567930952E+03 0.12527037730E+03
 0.12869589575E+03 0.12527037730E+03 0.11567930952E+03 0.10175763989E+03 0.85877522169E+02
 0.70137258881E+02 0.55724107857E+02 0.43290122894E+02 0.33213568077E+02 0.25395757922E+02
 0.19482883284E+02 0.15064114593E+02 0.11783057713E+02 0.93727376290E+01 0.76428363673E+01
 0.64496957785E+01 0.56737670829E+01 0.52124666212E+01 0.49801198184E+01 0.49061062391E+01
 0.49315784817E+01 0.50078530655E+01 0.50954667232E+01 0.51629702569E+01 0.38508823444E+01
 0.38487941760E+01 0.38493338916E+01 0.38696537021E+01 0.39331747912E+01 0.40716719248E+01
 0.43302842968E+01 0.47697243466E+01 0.54679746011E+01 0.65248255311E+01 0.80657032262E+01
 0.10245330173E+02 0.13265385424E+02 0.17416505030E+02 0.23127864575E+02 0.30983836578E+02
 0.41659211605E+02 0.55724107857E+02 0.73348893560E+02 0.94681820825E+02 0.11909473527E+03
 0.14411043717E+03 0.16600135367E+03 0.18097297466E+03 0.18629117592E+03 0.18097297466E+03
 0.16600135367E+03 0.14411043717E+03 0.11909473527E+03 0.94681820825E+02 0.73348893560E+02
 0.55724107857E+02 0.41659211605E+02 0.30983836578E+02 0.23127864575E+02 0.17416505030E+02
 0.13265385424E+02 0.10245330173E+02 0.80657032262E+01 0.65248255311E+01 0.54679746011E+01
 0.47697243466E+01 0.43302842968E+01 0.40716719248E+01 0.39331747912E+01 0.38696537021E+01
 0.38493338916E+01 0.38487941760E+01 0.30396311957E+01 0.30514345216E+01 0.30932660298E+01
 0.31801996539E+01 0.33316741141E+01 0.35765782731E+01 0.39614873700E+01 0.45530722525E+01
 0.54391881750E+01 0.67351936942E+01 0.85914484395E+01 0.11203510343E+02 0.14844902148E+02
 0.19934005346E+02 0.27106883269E+02 0.37234926915E+02 0.51310929274E+02 0.70137258881E+02
 0.94681820825E+02 0.12573330627E+03 0.16154886240E+03 0.19779105167E+03 0.22887464549E+03
 0.24973569695E+03 0.25706283406E+03 0.24973569695E+03 0.22887464549E+03 0.19779105167E+03
 0.16154886240E+03 0.12573330627E+03 0.94681820825E+02 0.70137258881E+02 0.51310929274E+02
 0.37234926915E+02 0.27106883269E+02 0.19934005346E+02 0.14844902148E+02 0.11203510343E+02
 0.85914484395E+01 0.67351936942E+01 0.54391881750E+01 0.45530722525E+01 0.39614873700E+01
 0.35765782731E+01 0.33316741141E+01 0.31801996539E+01 0.30932660298E+01 0.30514345216E+01
 0.25521705781E+01 0.25723407651E+01 0.26395067110E+01 0.27682824406E+01 0.29763397123E+01
 0.32922007226E+01 0.37662813373E+01 0.44728605026E+01 0.55102373548E+01 0.70093437308E+01
 0.91463100275E+01 0.12161477316E+02 0.16410338944E+02 0.22458452951E+02 0.31178880178E+02
 0.43765033725E+02 0.61542122137E+02 0.85877522169E+02 0.11909473527E+03 0.16154886240E+03
 0.20978445993E+03 0.25727714870E+03 0.29675759098E+03 0.32253298922E+03 0.33143870648E+03
 0.32253298922E+03 0.29675759098E+03 0.25727714870E+03 0.20978445993E+03 0.16154886240E+03
 0.11909473527E+03 0.85877522169E+02 0.61542122137E+02 0.43765033725E+02 0.31178880178E+02
 0.22458452951E+02 0.16410338944E+02 0.12161477316E+02 0.91463100275E+01 0.70093437308E+01
 0.55102373548E+01 0.44728605026E+01 0.37662813373E+01 0.32922007226E+01 0.29763397123E+01
 0.27682824406E+01 0.26395067110E+01 0.25723407651E+01 0.22658387048E+01 0.22910415517E+01
 0.23738115112E+01 0.25290804361E+01 0.27738677769E+01 0.31374318385E+01 0.36746980691E+01
 0.44674984263E+01 0.56237500279E+01 0.72886069707E+01 0.96627448879E+01 0.13031134289E+02
 0.17832794039E+02 0.24783523034E+02 0.34996262205E+02 0.49981602689E+02 0.71387513058E+02
 0.10175763989E+03 0.14411043717E+03 0.19779105167E+03 0.25727714870E+03 0.31386435737E+03
 0.35912380343E+03 0.38764514262E+03 0.39728605195E+03 0.38764514262E+03 0.35912380343E+03
 0.31386435737E+03 0.25727714870E+03 0.19779105167E+03 0.14411043717E+03 0.10175763989E+03
 0.71387513058E+02 0.49981602689E+02 0.34996262205E+02 0.24783523034E+02 0.17832794039E+02
 0.13031134289E+02 0.96627448879E+01 0.72886069707E+01 0.56237500279E+01 0.44674984263E+01
 0.36746980691E+01 0.31374318385E+01 0.27738677769E+01 0.25290804361E+01 0.23738115112E+01
 0.22910415517E+01 0.21059522531E+01 0.21340795452E+01 0.22261585138E+01 0.23976865577E+01
 0.26655375170E+01 0.30599739664E+01 0.36399296969E+01 0.44935101629E+01 0.57363443182E+01
 0.75250812860E+01 0.10080978288E+02 0.13727599410E+02 0.18977065011E+02 0.26676524196E+02
 0.38146723169E+02 0.55164836489E+02 0.79764558183E+02 0.11567930952E+03 0.16600135367E+03
 0.22887464549E+03 0.29675759098E+03 0.35912380343E+03 0.40700789146E+03 0.43599783781E+03
 0.44554265711E+03 0.43599783781E+03 0.40700789146E+03 0.35912380343E+03 0.29675759098E+03
 0.22887464549E+03 0.16600135367E+03 0.11567930952E+03 0.79764558183E+02 0.55164836489E+02
 0.38146723169E+02 0.26676524196E+02 0.18977065011E+02 0.13727599410E+02 0.10080978288E+02
 0.75250812860E+01 0.57363443182E+01 0.44935101629E+01 0.36399296969E+01 0.30599739664E+01
 0.26655375170E+01 0.23976865577E+01 0.22261585138E+01 0.21340795452E+01 0.20268982658E+01
 0.20565310328E+01 0.21535211095E+01 0.23338423789E+01 0.26144006418E+01 0.30262431225E+01
 0.36310248131E+01 0.45209741047E+01 0.58167005403E+01 0.76823558417E+01 0.10352985350E+02
 0.14178500541E+02 0.19721239625E+02 0.27918437611E+02 0.40232247591E+02 0.58616436415E+02
 0.85465272989E+02 0.12527037730E+03 0.18097297466E+03 0.24973569695E+03 0.32253298922E+03
 0.38764514262E+03 0.43599783781E+03 0.46426125912E+03 0.47334136768E+03 0.46426125912E+03
 0.43599783781E+03 0.38764514262E+03 0.32253298922E+03 0.24973569695E+03 0.18097297466E+03
 0.12527037730E+03 0.85465272989E+02 0.58616436415E+02 0.40232247591E+02 0.27918437611E+02
 0.19721239625E+02 0.14178500541E+02 0.10352985350E+02 0.76823558417E+01 0.58167005403E+01
 0.45209741047E+01 0.36310248131E+01 0.30262431225E+01 0.26144006418E+01 0.23338423789E+01
 0.21535211095E+01 0.20565310328E+01 0.20032952416E+01 0.20333887046E+01 0.21319053999E+01
 0.23150020713E+01 0.25996153958E+01 0.30170847004E+01 0.36300257223E+01 0.45321021030E+01
 0.58456442253E+01 0.77374132581E+01 0.10447314951E+02 0.14334632205E+02 0.19979613279E+02
 0.28351588085E+02 0.40962858599E+02 0.59828822000E+02 0.87493503327E+02 0.12869589575E+03
 0.18629117592E+03 0.25706283406E+03 0.33143870648E+03 0.39728605195E+03 0.44554265711E+03
 0.47334136768E+03 0.48217775525E+03 0.47334136768E+03 0.44554265711E+03 0.39728605195E+03
 0.33143870648E+03 0.25706283406E+03 0.18629117592E+03 0.12869589575E+03 0.87493503327E+02
 0.59828822000E+02 0.40962858599E+02 0.28351588085E+02 0.19979613279E+02 0.14334632205E+02
 0.10447314951E+02 0.77374132581E+01 0.58456442253E+01 0.45321021030E+01 0.36300257223E+01
 0.30170847004E+01 0.25996153958E+01 0.23150020713E+01 0.21319053999E+01 0.20333887046E+01
 0.20268982658E+01 0.20565310328E+01 0.21535211095E+01 0.23338423789E+01 0.26144006418E+01
 0.30262431225E+01 0.36310248131E+01 0.45209741047E+01 0.58167005403E+01 0.76823558417E+01
 0.10352985350E+02 0.14178500541E+02 0.19721239625E+02 0.27918437611E+02 0.40232247591E+02
 0.58616436415E+02 0.85465272989E+02 0.12527037730E+03 0.18097297466E+03 0.24973569695E+03
 0.32253298922E+03 0.38764514262E+03 0.43599783781E+03 0.46426125912E+03 0.47334136768E+03
 0.46426125912E+03 0.43599783781E+03 0.38764514262E+03 0.32253298922E+03 0.24973569695E+03
 0.18097297466E+03 0.12527037730E+03 0.85465272989E+02 0.58616436415E+02 0.40232247591E+02
 0.27918437611E+02 0.19721239625E+02 0.14178500541E+02 0.10352985350E+02 0.76823558417E+01
 0.58167005403E+01 0.45209741047E+01 0.36310248131E+01 0.30262431225E+01 0.26144006418E+01
 0.23338423789E+01 0.21535211095E+01 0.20565310328E+01 0.21059522531E+01 0.21340795452E+01
 0.22261585138E+01 0.23976865577E+01 0.26655375170E+01 0.30599739664E+01 0.36399296969E+01
 0.44935101629E+01 0.57363443182E+01 0.75250812860E+01 0.10080978288E+02 0.13727599410E+02
 0.18977065011E+02 0.26676524196E+02 0.38146723169E+02 0.55164836489E+02 0.79764558183E+02
 0.11567930952E+03 0.16600135367E+03 0.22887464549E+03 0.29675759098E+03 0.35912380343E+03
 0.40700789146E+03 0.43599783781E+03 0.44554265711E+03 0.43599783781E+03 0.40700789146E+03
 0.35912380343E+03 0.29675759098E+03 0.22887464549E+03 0.16600135367E+03 0.11567930952E+03
 0.79764558183E+02 0.55164836489E+02 0.38146723169E+02 0.26676524196E+02 0.18977065011E+02
 0.13727599410E+02 0.10080978288E+02 0.75250812860E+01 0.57363443182E+01 0.44935101629E+01
 0.36399296969E+01 0.30599739664E+01 0.26655375170E+01 0.23976865577E+01 0.22261585138E+01
 0.21340795452E+01 0.22658387048E+01 0.22910415517E+01 0.23738115112E+01 0.25290804361E+01
 0.27738677769E+01 0.31374318385E+01 0.36746980691E+01 0.44674984263E+01 0.56237500279E+01
 0.72886069707E+01 0.96627448879E+01 0.13031134289E+02 0.17832794039E+02 0.24783523034E+02
 0.34996262205E+02 0.49981602689E+02 0.71387513058E+02 0.10175763989E+03 0.14411043717E+03
 0.19779105167E+03 0.25727714870E+03 0.31386435737E+03 0.35912380343E+03 0.38764514262E+03
 0.39728605195E+03 0.38764514262E+03 0.35912380343E+03 0.31386435737E+03 0.25727714870E+03
 0.19779105167E+03 0.14411043717E+03 0.10175763989E+03 0.71387513058E+02 0.49981602689E+02
 0.34996262205E+02 0.24783523034E+02 0.17832794039E+02 0.13031134289E+02 0.96627448879E+01
 0.72886069707E+01 0.56237500279E+01 0.44674984263E+01 0.36746980691E+01 0.31374318385E+01
 0.27738677769E+01 0.25290804361E+01 0.23738115112E+01 0.22910415517E+01 0.25521705781E+01
 0.25723407651E+01 0.26395067110E+01 0.27682824406E+01 0.29763397123E+01 0.32922007226E+01
 0.37662813373E+01 0.44728605026E+01 0.55102373548E+01 0.70093437308E+01 0.91463100275E+01
 0.12161477316E+02 0.16410338944E+02 0.22458452951E+02 0.31178880178E+02 0.43765033725E+02
 0.61542122137E+02 0.85877522169E+02 0.11909473527E+03 0.16154886240E+03 0.20978445993E+03
 0.25727714870E+03 0.29675759098E+03 0.32253298922E+03 0.33143870648E+03 0.32253298922E+03
 0.29675759098E+03 0.25727714870E+03 0.20978445993E+03 0.16154886240E+03 0.11909473527E+03
 0.85877522169E+02 0.61542122137E+02 0.43765033725E+02 0.31178880178E+02 0.22458452951E+02
 0.16410338944E+02 0.12161477316E+02 0.91463100275E+01 0.70093437308E+01 0.55102373548E+01
 0.44728605026E+01 0.37662813373E+01 0.32922007226E+01 0.29763397123E+01 0.27682824406E+01
 0.26395067110E+01 0.25723407651E+01 0.30396311957E+01 0.30514345216E+01 0.30932660298E+01
 0.31801996539E+01 0.33316741141E+01 0.35765782731E+01 0.39614873700E+01 0.45530722525E+01
 0.54391881750E+01 0.67351936942E+01 0.85914484395E+01 0.11203510343E+02 0.14844902148E+02
 0.19934005346E+02 0.27106883269E+02 0.37234926915E+02 0.51310929274E+02 0.70137258881E+02
 0.94681820825E+02 0.12573330627E+03 0.16154886240E+03 0.19779105167E+03 0.22887464549E+03
 0.24973569695E+03 0.25706283406E+03 0.24973569695E+03 0.22887464549E+03 0.19779105167E+03
 0.16154886240E+03 0.12573330627E+03 0.94681820825E+02 0.70137258881E+02 0.51310929274E+02
 0.37234926915E+02 0.27106883269E+02 0.19934005346E+02 0.14844902148E+02 0.11203510343E+02
 0.85914484395E+01 0.67351936942E+01 0.54391881750E+01 0.45530722525E+01 0.39614873700E+01
 0.35765782731E+01 0.33316741141E+01 0.31801996539E+01 0.30932660298E+01 0.30514345216E+01
 0.38508823444E+01 0.38487941760E+01 0.38493338916E+01 0.38696537021E+01 0.39331747912E+01
 0.40716719248E+01 0.43302842968E+01 0.47697243466E+01 0.54679746011E+01 0.65248255311E+01
 0.80657032262E+01 0.10245330173E+02 0.13265385424E+02 0.17416505030E+02 0.23127864575E+02
 0.30983836578E+02 0.41659211605E+02 0.55724107857E+02 0.73348893560E+02 0.94681820825E+02
 0.11909473527E+03 0.14411043717E+03 0.16600135367E+03 0.18097297466E+03 0.18629117592E+03
 0.18097297466E+03 0.16600135367E+03 0.14411043717E+03 0.11909473527E+03 0.94681820825E+02
 0.73348893560E+02 0.55724107857E+02 0.41659211605E+02 0.30983836578E+02 0.23127864575E+02
 0.17416505030E+02 0.13265385424E+02 0.10245330173E+02 0.80657032262E+01 0.65248255311E+01
 0.54679746011E+01 0.47697243466E+01 0.43302842968E+01 0.40716719248E+01 0.39331747912E+01
 0.38696537021E+01 0.38493338916E+01 0.38487941760E+01 0.51882331664E+01 0.51629702569E+01
 0.50954667232E+01 0.50078530655E+01 0.49315784817E+01 0.49061062391E+01 0.49801198184E+01
 0.52124666212E+01 0.56737670829E+01 0.64496957785E+01 0.76428363673E+01 0.93727376290E+01
 0.11783057713E+02 0.15064114593E+02 0.19482883284E+02 0.25395757922E+02 0.33213568077E+02
 0.43290122894E+02 0.55724107857E+02 0.70137258881E+02 0.85877522169E+02 0.10175763989E+03
 0.11567930952E+03 0.12527037730E+03 0.12869589575E+03 0.12527037730E+03 0.11567930952E+03
 0.10175763989E+03 0.85877522169E+02 0.70137258881E+02 0.55724107857E+02 0.43290122894E+02
 0.33213568077E+02 0.25395757922E+02 0.19482883284E+02 0.15064114593E+02 0.11783057713E+02
 0.93727376290E+01 0.76428363673E+01 0.64496957785E+01 0.56737670829E+01 0.52124666212E+01
 0.49801198184E+01 0.49061062391E+01 0.49315784817E+01 0.50078530655E+01 0.50954667232E+01
 0.51629702569E+01 0.73749650343E+01 0.73112955509E+01 0.71317847056E+01 0.68682290040E+01
 0.65668574161E+01 0.62829985939E+01 0.60775590916E+01 0.60151292924E+01 0.61643130437E+01
 0.65999917329E+01 0.74047669731E+01 0.86683386976E+01 0.10489232723E+02 0.12984539670E+02
 0.16305341294E+02 0.20644803397E+02 0.26220474800E+02 0.33213568077E+02 0.41659211605E+02
 0.51310929274E+02 0.61542122137E+02 0.71387513058E+02 0.79764558183E+02 0.85465272989E+02
 0.87493503327E+02 0.85465272989E+02 0.79764558183E+02 0.71387513058E+02 0.61542122137E+02
 0.51310929274E+02 0.41659211605E+02 0.33213568077E+02 0.26220474800E+02 0.20644803397E+02
 0.16305341294E+02 0.12984539670E+02 0.10489232723E+02 0.86683386976E+01 0.74047669731E+01
 0.65999917329E+01 0.61643130437E+01 0.60151292924E+01 0.60775590916E+01 0.62829985939E+01
 0.65668574161E+01 0.68682290040E+01 0.71317847056E+01 0.73112955509E+01 0.10891431886E+02
 0.10765813102E+02 0.10406096704E+02 0.98605103662E+01 0.92001586283E+01 0.85087424706E+01
 0.78729436032E+01 0.73755399575E+01 0.70925914147E+01 0.70942920307E+01 0.74470494539E+01
 0.82146616251E+01 0.94594253229E+01 0.11245880328E+02 0.13647376603E+02 0.16750115041E+02
 0.20644803397E+02 0.25395757922E+02 0.30983836578E+02 0.37234926915E+02 0.43765033725E+02
 0.49981602689E+02 0.55164836489E+02 0.58616436415E+02 0.59828822000E+02 0.58616436415E+02
 0.55164836489E+02 0.49981602689E+02 0.43765033725E+02 0.37234926915E+02 0.30983836578E+02
 0.25395757922E+02 0.20644803397E+02 0.16750115041E+02 0.13647376603E+02 0.11245880328E+02
 0.94594253229E+01 0.82146616251E+01 0.74470494539E+01 0.70942920307E+01 0.70925914147E+01