   5   5   0   0
  0.1191194E+02  0.3905268E-09  0.3905268E-09  0.3905268E-09  0.5000000E-15
  1.000000000000000E-004
  CAR 
 unknown system                          
     12.80463433    -32.12338653  301      2.65838962      1.00000000
    -32.123  0.0000E+00  0.0000E+00
    -31.974  0.0000E+00  0.0000E+00
    -31.824  0.0000E+00  0.0000E+00
    -31.674  0.0000E+00  0.0000E+00
    -31.524  0.0000E+00  0.0000E+00
    -31.375  0.0000E+00  0.0000E+00
    -31.225  0.0000E+00  0.0000E+00
    -31.075  0.0000E+00  0.0000E+00
    -30.925  0.0000E+00  0.0000E+00
    -30.776  0.0000E+00  0.0000E+00
    -30.626  0.0000E+00  0.0000E+00
    -30.476  0.0000E+00  0.0000E+00
    -30.326  0.0000E+00  0.0000E+00
    -30.177  0.0000E+00  0.0000E+00
    -30.027  0.1671E+02  0.1935E+01
    -29.877  0.0000E+00  0.2000E+01
    -29.727  0.0000E+00  0.2000E+01
    -29.577  0.0000E+00  0.2000E+01
    -29.428  0.0000E+00  0.2000E+01
    -29.278  0.0000E+00  0.2000E+01
    -29.128  0.0000E+00  0.2000E+01
    -28.978  0.0000E+00  0.2000E+01
    -28.829  0.0000E+00  0.2000E+01
    -28.679  0.0000E+00  0.2000E+01
    -28.529  0.0000E+00  0.2000E+01
    -28.379  0.0000E+00  0.2000E+01
    -28.230  0.0000E+00  0.2000E+01
    -28.080  0.0000E+00  0.2000E+01
    -27.930  0.0000E+00  0.2000E+01
    -27.780  0.0000E+00  0.2000E+01
    -27.631  0.0000E+00  0.2000E+01
    -27.481  0.0000E+00  0.2000E+01
    -27.331  0.0000E+00  0.2000E+01
    -27.181  0.0000E+00  0.2000E+01
    -27.032  0.0000E+00  0.2000E+01
    -26.882  0.0000E+00  0.2000E+01
    -26.732  0.0000E+00  0.2000E+01
    -26.582  0.0000E+00  0.2000E+01
    -26.433  0.0000E+00  0.2000E+01
    -26.283  0.0000E+00  0.2000E+01
    -26.133  0.0000E+00  0.2000E+01
    -25.983  0.0000E+00  0.2000E+01
    -25.833  0.0000E+00  0.2000E+01
    -25.684  0.0000E+00  0.2000E+01
    -25.534  0.0000E+00  0.2000E+01
    -25.384  0.0000E+00  0.2000E+01
    -25.234  0.0000E+00  0.2000E+01
    -25.085  0.0000E+00  0.2000E+01
    -24.935  0.0000E+00  0.2000E+01
    -24.785  0.0000E+00  0.2000E+01
    -24.635  0.0000E+00  0.2000E+01
    -24.486  0.0000E+00  0.2000E+01
    -24.336  0.0000E+00  0.2000E+01
    -24.186  0.0000E+00  0.2000E+01
    -24.036  0.0000E+00  0.2000E+01
    -23.887  0.0000E+00  0.2000E+01
    -23.737  0.0000E+00  0.2000E+01
    -23.587  0.0000E+00  0.2000E+01
    -23.437  0.0000E+00  0.2000E+01
    -23.288  0.0000E+00  0.2000E+01
    -23.138  0.0000E+00  0.2000E+01
    -22.988  0.0000E+00  0.2000E+01
    -22.838  0.0000E+00  0.2000E+01
    -22.689  0.0000E+00  0.2000E+01
    -22.539  0.0000E+00  0.2000E+01
    -22.389  0.0000E+00  0.2000E+01
    -22.239  0.0000E+00  0.2000E+01
    -22.089  0.0000E+00  0.2000E+01
    -21.940  0.0000E+00  0.2000E+01
    -21.790  0.0000E+00  0.2000E+01
    -21.640  0.0000E+00  0.2000E+01
    -21.490  0.0000E+00  0.2000E+01
    -21.341  0.0000E+00  0.2000E+01
    -21.191  0.0000E+00  0.2000E+01
    -21.041  0.0000E+00  0.2000E+01
    -20.891  0.0000E+00  0.2000E+01
    -20.742  0.0000E+00  0.2000E+01
    -20.592  0.0000E+00  0.2000E+01
    -20.442  0.0000E+00  0.2000E+01
    -20.292  0.0000E+00  0.2000E+01
    -20.143  0.0000E+00  0.2000E+01
    -19.993  0.0000E+00  0.2000E+01
    -19.843  0.0000E+00  0.2000E+01
    -19.693  0.0000E+00  0.2000E+01
    -19.544  0.0000E+00  0.2000E+01
    -19.394  0.0000E+00  0.2000E+01
    -19.244  0.0000E+00  0.2000E+01
    -19.094  0.0000E+00  0.2000E+01
    -18.945  0.0000E+00  0.2000E+01
    -18.795  0.0000E+00  0.2000E+01
    -18.645  0.0000E+00  0.2000E+01
    -18.495  0.0000E+00  0.2000E+01
    -18.345  0.0000E+00  0.2000E+01
    -18.196  0.0000E+00  0.2000E+01
    -18.046  0.0000E+00  0.2000E+01
    -17.896  0.0000E+00  0.2000E+01
    -17.746  0.0000E+00  0.2000E+01
    -17.597  0.0000E+00  0.2000E+01
    -17.447  0.0000E+00  0.2000E+01
    -17.297  0.0000E+00  0.2000E+01
    -17.147  0.0000E+00  0.2000E+01
    -16.998  0.0000E+00  0.2000E+01
    -16.848  0.0000E+00  0.2000E+01
    -16.698  0.0000E+00  0.2000E+01
    -16.548  0.0000E+00  0.2000E+01
    -16.399  0.0000E+00  0.2000E+01
    -16.249  0.0000E+00  0.2000E+01
    -16.099  0.0000E+00  0.2000E+01
    -15.949  0.0000E+00  0.2000E+01
    -15.800  0.0000E+00  0.2000E+01
    -15.650  0.0000E+00  0.2000E+01
    -15.500  0.0000E+00  0.2000E+01
    -15.350  0.0000E+00  0.2000E+01
    -15.200  0.0000E+00  0.2000E+01
    -15.051  0.0000E+00  0.2000E+01
    -14.901  0.1885E+01  0.2122E+01
    -14.751  0.3234E+01  0.2723E+01
    -14.601  0.2321E+01  0.3132E+01
    -14.452  0.1724E+01  0.3430E+01
    -14.302  0.1298E+01  0.3662E+01
    -14.152  0.7928E+00  0.3819E+01
    -14.002  0.3111E+01  0.3987E+01
    -13.853  0.1552E+02  0.5204E+01
    -13.703  0.6963E+01  0.7694E+01
    -13.553  0.0000E+00  0.8000E+01
    -13.403  0.0000E+00  0.8000E+01
    -13.254  0.0000E+00  0.8000E+01
    -13.104  0.0000E+00  0.8000E+01
    -12.954  0.0000E+00  0.8000E+01
    -12.804  0.0000E+00  0.8000E+01
    -12.655  0.0000E+00  0.8000E+01
    -12.505  0.0000E+00  0.8000E+01
    -12.355  0.7634E+00  0.8023E+01
    -12.205  0.4747E+01  0.8402E+01
    -12.056  0.9003E+01  0.1046E+02
    -11.906  0.9750E+01  0.1177E+02
    -11.756  0.1857E+02  0.1314E+02
    -11.606  0.1470E+01  0.1397E+02
    -11.456  0.0000E+00  0.1400E+02
    -11.307  0.0000E+00  0.1400E+02
    -11.157  0.0000E+00  0.1400E+02
    -11.007  0.0000E+00  0.1400E+02
    -10.857  0.0000E+00  0.1400E+02
    -10.708  0.0000E+00  0.1400E+02
    -10.558  0.0000E+00  0.1400E+02
    -10.408  0.0000E+00  0.1400E+02
    -10.258  0.0000E+00  0.1400E+02
    -10.109  0.0000E+00  0.1400E+02
     -9.959  0.0000E+00  0.1400E+02
     -9.809  0.0000E+00  0.1400E+02
     -9.659  0.0000E+00  0.1400E+02
     -9.510  0.0000E+00  0.1400E+02
     -9.360  0.0000E+00  0.1400E+02
     -9.210  0.0000E+00  0.1400E+02
     -9.060  0.0000E+00  0.1400E+02
     -8.911  0.0000E+00  0.1400E+02
     -8.761  0.0000E+00  0.1400E+02
     -8.611  0.0000E+00  0.1400E+02
     -8.461  0.0000E+00  0.1400E+02
     -8.312  0.0000E+00  0.1400E+02
     -8.162  0.0000E+00  0.1400E+02
     -8.012  0.0000E+00  0.1400E+02
     -7.862  0.0000E+00  0.1400E+02
     -7.712  0.0000E+00  0.1400E+02
     -7.563  0.0000E+00  0.1400E+02
     -7.413  0.0000E+00  0.1400E+02
     -7.263  0.0000E+00  0.1400E+02
     -7.113  0.0000E+00  0.1400E+02
     -6.964  0.0000E+00  0.1400E+02
     -6.814  0.0000E+00  0.1400E+02
     -6.664  0.0000E+00  0.1400E+02
     -6.514  0.0000E+00  0.1400E+02
     -6.365  0.0000E+00  0.1400E+02
     -6.215  0.0000E+00  0.1400E+02
     -6.065  0.0000E+00  0.1400E+02
     -5.915  0.0000E+00  0.1400E+02
     -5.766  0.0000E+00  0.1400E+02
     -5.616  0.0000E+00  0.1400E+02
     -5.466  0.0000E+00  0.1400E+02
     -5.316  0.0000E+00  0.1400E+02
     -5.167  0.0000E+00  0.1400E+02
     -5.017  0.0000E+00  0.1400E+02
     -4.867  0.0000E+00  0.1400E+02
     -4.717  0.0000E+00  0.1400E+02
     -4.568  0.0000E+00  0.1400E+02
     -4.418  0.0000E+00  0.1400E+02
     -4.268  0.0000E+00  0.1400E+02
     -4.118  0.0000E+00  0.1400E+02
     -3.968  0.0000E+00  0.1400E+02
     -3.819  0.0000E+00  0.1400E+02
     -3.669  0.0000E+00  0.1400E+02
     -3.519  0.0000E+00  0.1400E+02
     -3.369  0.0000E+00  0.1400E+02
     -3.220  0.0000E+00  0.1400E+02
     -3.070  0.0000E+00  0.1400E+02
     -2.920  0.0000E+00  0.1400E+02
     -2.770  0.0000E+00  0.1400E+02
     -2.621  0.0000E+00  0.1400E+02
     -2.471  0.0000E+00  0.1400E+02
     -2.321  0.0000E+00  0.1400E+02
     -2.171  0.0000E+00  0.1400E+02
     -2.022  0.0000E+00  0.1400E+02
     -1.872  0.1693E+01  0.1406E+02
     -1.722  0.6390E+01  0.1463E+02
     -1.572  0.3580E+01  0.1540E+02
     -1.423  0.5071E+01  0.1607E+02
     -1.273  0.3435E+01  0.1676E+02
     -1.123  0.3495E+01  0.1729E+02
     -0.973  0.4807E+01  0.1792E+02
     -0.824  0.4500E+01  0.1861E+02
     -0.674  0.5153E+01  0.1930E+02
     -0.524  0.5434E+01  0.2006E+02
     -0.374  0.7426E+01  0.2099E+02
     -0.224  0.7295E+01  0.2259E+02
     -0.075  0.2885E+01  0.2311E+02
      0.075  0.2508E+01  0.2351E+02
      0.225  0.2137E+01  0.2385E+02
      0.375  0.1756E+01  0.2414E+02
      0.524  0.1774E+01  0.2440E+02
      0.674  0.2327E+01  0.2469E+02
      0.824  0.3979E+01  0.2521E+02
      0.974  0.1832E+01  0.2568E+02
      1.123  0.2881E+01  0.2592E+02
      1.273  0.5147E+01  0.2661E+02
      1.423  0.4730E+01  0.2733E+02
      1.573  0.6305E+01  0.2819E+02
      1.722  0.4143E+01  0.2900E+02
      1.872  0.5611E+01  0.3005E+02
      2.022  0.3326E+01  0.3068E+02
      2.172  0.2656E+01  0.3112E+02
      2.321  0.2154E+01  0.3150E+02
      2.471  0.2510E+01  0.3182E+02
      2.621  0.2107E-01  0.3200E+02
      2.771  0.0000E+00  0.3200E+02
      2.920  0.0000E+00  0.3200E+02
      3.070  0.0000E+00  0.3200E+02
      3.220  0.0000E+00  0.3200E+02
      3.370  0.0000E+00  0.3200E+02
      3.520  0.0000E+00  0.3200E+02
      3.669  0.0000E+00  0.3200E+02
      3.819  0.0000E+00  0.3200E+02
      3.969  0.0000E+00  0.3200E+02
      4.119  0.0000E+00  0.3200E+02
      4.268  0.0000E+00  0.3200E+02
      4.418  0.1286E+00  0.3201E+02
      4.568  0.6948E+00  0.3206E+02
      4.718  0.1218E+01  0.3222E+02
      4.867  0.1076E+01  0.3239E+02
      5.017  0.1275E+01  0.3256E+02
      5.167  0.1643E+01  0.3277E+02
      5.317  0.1731E+01  0.3303E+02
      5.466  0.1889E+01  0.3330E+02
      5.616  0.2118E+01  0.3360E+02
      5.766  0.2853E+01  0.3397E+02
      5.916  0.3308E+01  0.3442E+02
      6.065  0.3729E+01  0.3495E+02
      6.215  0.7932E+01  0.3584E+02
      6.365  0.4309E+01  0.3677E+02
      6.515  0.3131E+01  0.3732E+02
      6.664  0.1886E+01  0.3770E+02
      6.814  0.3040E+00  0.3783E+02
      6.964  0.7409E-01  0.3786E+02
      7.114  0.7034E-01  0.3787E+02
      7.264  0.6670E-01  0.3788E+02
      7.413  0.6319E-01  0.3789E+02
      7.563  0.5980E-01  0.3790E+02
      7.713  0.5654E-01  0.3791E+02
      7.863  0.5339E-01  0.3791E+02
      8.012  0.5037E-01  0.3792E+02
      8.162  0.7645E-01  0.3793E+02
      8.312  0.1339E+00  0.3795E+02
      8.462  0.1542E+00  0.3797E+02
      8.611  0.1909E+00  0.3799E+02
      8.761  0.2295E+00  0.3803E+02
      8.911  0.2488E+00  0.3806E+02
      9.061  0.2905E+00  0.3810E+02
      9.210  0.3348E+00  0.3815E+02
      9.360  0.4053E+00  0.3820E+02
      9.510  0.5307E+00  0.3827E+02
      9.660  0.6844E+00  0.3836E+02
      9.809  0.9091E+00  0.3848E+02
      9.959  0.1193E+01  0.3863E+02
     10.109  0.1455E+01  0.3884E+02
     10.259  0.1655E+01  0.3907E+02
     10.408  0.2153E+01  0.3935E+02
     10.558  0.2584E+01  0.3975E+02
     10.708  0.3154E+00  0.3999E+02
     10.858  0.0000E+00  0.4000E+02
     11.008  0.0000E+00  0.4000E+02
     11.157  0.0000E+00  0.4000E+02
     11.307  0.0000E+00  0.4000E+02
     11.457  0.0000E+00  0.4000E+02
     11.607  0.0000E+00  0.4000E+02
     11.756  0.0000E+00  0.4000E+02
     11.906  0.0000E+00  0.4000E+02
     12.056  0.0000E+00  0.4000E+02
     12.206  0.0000E+00  0.4000E+02
     12.355  0.0000E+00  0.4000E+02
     12.505  0.0000E+00  0.4000E+02
     12.655  0.0000E+00  0.4000E+02
     12.805  0.0000E+00  0.4000E+02
