 vasp.5.4.4.18Apr17-6-g9f103f2a35 (build Jun 30 2017 11:15:00) complex          
  
 executed on    STALLO_VASP_5.4.4 date 2019.10.26  17:42:29
 running on    4 total cores
 distrk:  each k-point on    4 cores,    1 groups
 distr:  one band on NCORES_PER_BAND=   2 cores,    2 groups


--------------------------------------------------------------------------------------------------------


 INCAR:
 POTCAR:   PAW_PBE Sr_sv 07Sep2000                
 POTCAR:   PAW_PBE Ti 08Apr2002                   
 POTCAR:   PAW_PBE O 08Apr2002                    
 POTCAR:   PAW_PBE Sr_sv 07Sep2000                
   VRHFIN =Sr: 4s4p5s                                                           
   LEXCH  = PE                                                                  
   EATOM  =   842.4562 eV,   61.9188 Ry                                         
                                                                                
   TITEL  = PAW_PBE Sr_sv 07Sep2000                                             
   LULTRA =        F    use ultrasoft PP ?                                      
   IUNSCR =        1    unscreen: 0-lin 1-nonlin 2-no                           
   RPACOR =    2.200    partial core radius                                     
   POMASS =   87.620; ZVAL   =   10.000    mass and valenz                      
   RCORE  =    2.500    outmost cutoff radius                                   
   RWIGS  =    4.040; RWIGS  =    2.138    wigner-seitz radius (au A)           
   ENMAX  =  229.282; ENMIN  =  171.961 eV                                      
   RCLOC  =    2.201    cutoff for local pot                                    
   LCOR   =        T    correct aug charges                                     
   LPAW   =        T    paw PP                                                  
   EAUG   =  366.804                                                            
   DEXC   =     .000                                                            
   RMAX   =    3.045    core radius for proj-oper                               
   RAUG   =    1.300    factor for augmentation sphere                          
   RDEP   =    2.562    radius for radial grids                                 
   QCUT   =   -4.105; QGAM   =    8.210    optimization parameters              
                                                                                
   Description                                                                  
     l     E      TYP  RCUT    TYP  RCUT                                        
     0   .000     23  2.480                                                     
     0   .000     23  2.480                                                     
     1   .000     23  2.500                                                     
     1   .000     23  2.500                                                     
     2   .000     23  2.500                                                     
     2   .000     23  2.500                                                     
  local pseudopotential read in
  partial core-charges read in
  atomic valenz-charges read in
  non local Contribution for L=           0  read in
    real space projection operators read in
  non local Contribution for L=           0  read in
    real space projection operators read in
  non local Contribution for L=           1  read in
    real space projection operators read in
  non local Contribution for L=           1  read in
    real space projection operators read in
  non local Contribution for L=           2  read in
    real space projection operators read in
  non local Contribution for L=           2  read in
    real space projection operators read in
    PAW grid and wavefunctions read in
 
   number of l-projection  operators is LMAX  =           6
   number of lm-projection operators is LMMAX =          18
 
 POTCAR:   PAW_PBE Ti 08Apr2002                   
   VRHFIN =Ti: d3 s1                                                            
   LEXCH  = PE                                                                  
   EATOM  =    94.7929 eV,    6.9671 Ry                                         
                                                                                
   TITEL  = PAW_PBE Ti 08Apr2002                                                
   LULTRA =        F    use ultrasoft PP ?                                      
   IUNSCR =        1    unscreen: 0-lin 1-nonlin 2-no                           
   RPACOR =    2.200    partial core radius                                     
   POMASS =   47.880; ZVAL   =    4.000    mass and valenz                      
   RCORE  =    2.800    outmost cutoff radius                                   
   RWIGS  =    2.500; RWIGS  =    1.323    wigner-seitz radius (au A)           
   ENMAX  =  178.330; ENMIN  =  133.747 eV                                      
   RCLOC  =    2.215    cutoff for local pot                                    
   LCOR   =        T    correct aug charges                                     
   LPAW   =        T    paw PP                                                  
   EAUG   =  328.883                                                            
   DEXC   =    -.043                                                            
   RMAX   =    3.453    core radius for proj-oper                               
   RAUG   =    1.300    factor for augmentation sphere                          
   RDEP   =    2.885    radius for radial grids                                 
   QCUT   =   -3.620; QGAM   =    7.241    optimization parameters              
                                                                                
   Description                                                                  
     l     E      TYP  RCUT    TYP  RCUT                                        
     2   .000     23  2.800                                                     
     2   .000     23  2.800                                                     
     0   .000     23  2.800                                                     
     0  1.500     23  2.800                                                     
     1  -.400     23  2.800                                                     
     3   .000      7   .000                                                     
  local pseudopotential read in
  partial core-charges read in
  atomic valenz-charges read in
  non local Contribution for L=           2  read in
    real space projection operators read in
  non local Contribution for L=           2  read in
    real space projection operators read in
  non local Contribution for L=           0  read in
    real space projection operators read in
  non local Contribution for L=           0  read in
    real space projection operators read in
  non local Contribution for L=           1  read in
    real space projection operators read in
    PAW grid and wavefunctions read in
 
   number of l-projection  operators is LMAX  =           5
   number of lm-projection operators is LMMAX =          15
 
 POTCAR:   PAW_PBE O 08Apr2002                    
   VRHFIN =O: s2p4                                                              
   LEXCH  = PE                                                                  
   EATOM  =   432.3788 eV,   31.7789 Ry                                         
                                                                                
   TITEL  = PAW_PBE O 08Apr2002                                                 
   LULTRA =        F    use ultrasoft PP ?                                      
   IUNSCR =        0    unscreen: 0-lin 1-nonlin 2-no                           
   RPACOR =     .000    partial core radius                                     
   POMASS =   16.000; ZVAL   =    6.000    mass and valenz                      
   RCORE  =    1.520    outmost cutoff radius                                   
   RWIGS  =    1.550; RWIGS  =     .820    wigner-seitz radius (au A)           
   ENMAX  =  400.000; ENMIN  =  300.000 eV                                      
   ICORE  =        2    local potential                                         
   LCOR   =        T    correct aug charges                                     
   LPAW   =        T    paw PP                                                  
   EAUG   =  605.392                                                            
   DEXC   =     .000                                                            
   RMAX   =    2.264    core radius for proj-oper                               
   RAUG   =    1.300    factor for augmentation sphere                          
   RDEP   =    1.550    radius for radial grids                                 
   QCUT   =   -5.520; QGAM   =   11.041    optimization parameters              
                                                                                
   Description                                                                  
     l     E      TYP  RCUT    TYP  RCUT                                        
     0   .000     23  1.200                                                     
     0  -.700     23  1.200                                                     
     1   .000     23  1.520                                                     
     1   .600     23  1.520                                                     
     2   .000      7  1.500                                                     
  local pseudopotential read in
  atomic valenz-charges read in
  non local Contribution for L=           0  read in
    real space projection operators read in
  non local Contribution for L=           0  read in
    real space projection operators read in
  non local Contribution for L=           1  read in
    real space projection operators read in
  non local Contribution for L=           1  read in
    real space projection operators read in
    PAW grid and wavefunctions read in
 
   number of l-projection  operators is LMAX  =           4
   number of lm-projection operators is LMMAX =           8
 
 PAW_PBE Sr_sv 07Sep2000                :
 energy of atom  1       EATOM= -842.4562
 kinetic energy error for atom=    0.0012 (will be added to EATOM!!)
 PAW_PBE Ti 08Apr2002                   :
 energy of atom  2       EATOM=  -94.7929
 kinetic energy error for atom=    0.0002 (will be added to EATOM!!)
 PAW_PBE O 08Apr2002                    :
 energy of atom  3       EATOM= -432.3788
 kinetic energy error for atom=    0.0224 (will be added to EATOM!!)
 
 
 POSCAR: ICSD_CollCode262269                     
  positions in direct lattice
  No initial velocities read in
 exchange correlation table for  LEXCH =        8
   RHO(1)=    0.500       N(1)  =     2000
   RHO(2)=  100.500       N(2)  =     4000
 


--------------------------------------------------------------------------------------------------------


 ion  position               nearest neighbor table
   1  0.000  0.000  0.000-   3 2.76   4 2.76   5 2.76   4 2.76   5 2.76   3 2.76   5 2.76   5 2.76
                             3 2.76   4 2.76   4 2.76   3 2.76   2 3.38   2 3.38   2 3.38   2 3.38
   2  0.500  0.500  0.500-   3 1.95   4 1.95   5 1.95   3 1.95   4 1.95   5 1.95   1 3.38   1 3.38
                             1 3.38   1 3.38   1 3.38   1 3.38   1 3.38   1 3.38
   3  0.500  0.500  0.000-   2 1.95   2 1.95   1 2.76   1 2.76   1 2.76   1 2.76
   4  0.500  0.000  0.500-   2 1.95   2 1.95   1 2.76   1 2.76   1 2.76   1 2.76
   5  0.000  0.500  0.500-   2 1.95   2 1.95   1 2.76   1 2.76   1 2.76   1 2.76
 
  LATTYP: Found a simple cubic cell.
 ALAT       =     3.9052680000
  
  Lattice vectors:
  
 A1 = (   3.9052680000,   0.0000000000,   0.0000000000)
 A2 = (   0.0000000000,   3.9052680000,   0.0000000000)
 A3 = (   0.0000000000,   0.0000000000,   3.9052680000)


Analysis of symmetry for initial positions (statically):
=====================================================================
 Subroutine PRICEL returns:
 Original cell was already a primitive cell.
 

 Routine SETGRP: Setting up the symmetry group for a 
 simple cubic supercell.


 Subroutine GETGRP returns: Found 48 space group operations
 (whereof 48 operations were pure point group operations)
 out of a pool of 48 trial point group operations.


The static configuration has the point symmetry O_h .


Analysis of symmetry for dynamics (positions and initial velocities):
=====================================================================
 Subroutine PRICEL returns:
 Original cell was already a primitive cell.
 

 Routine SETGRP: Setting up the symmetry group for a 
 simple cubic supercell.


 Subroutine GETGRP returns: Found 48 space group operations
 (whereof 48 operations were pure point group operations)
 out of a pool of 48 trial point group operations.


The dynamic configuration has the point symmetry O_h .


 Subroutine INISYM returns: Found 48 space group operations
 (whereof 48 operations are pure point group operations),
 and found     1 'primitive' translations

 
 
 KPOINTS: k-density: 6.0                          

Automatic generation of k-mesh.
Space group operators:
 irot       det(A)        alpha          n_x          n_y          n_z        tau_x        tau_y        tau_z
    1     1.000000     0.000000     1.000000     0.000000     0.000000     0.000000     0.000000     0.000000
    2    -1.000000     0.000000     1.000000     0.000000     0.000000     0.000000     0.000000     0.000000
    3     1.000000   120.000000    -0.577350    -0.577350    -0.577350     0.000000     0.000000     0.000000
    4    -1.000000   120.000000    -0.577350    -0.577350    -0.577350     0.000000     0.000000     0.000000
    5     1.000000   120.000000     0.577350     0.577350     0.577350     0.000000     0.000000     0.000000
    6    -1.000000   120.000000     0.577350     0.577350     0.577350     0.000000     0.000000     0.000000
    7     1.000000    90.000000     0.000000     0.000000    -1.000000     0.000000     0.000000     0.000000
    8    -1.000000    90.000000     0.000000     0.000000    -1.000000     0.000000     0.000000     0.000000
    9     1.000000   180.000000     0.000000     0.707107     0.707107     0.000000     0.000000     0.000000
   10    -1.000000   180.000000     0.000000     0.707107     0.707107     0.000000     0.000000     0.000000
   11     1.000000    90.000000     0.000000     1.000000     0.000000     0.000000     0.000000     0.000000
   12    -1.000000    90.000000     0.000000     1.000000     0.000000     0.000000     0.000000     0.000000
   13     1.000000   180.000000     0.000000     0.000000     1.000000     0.000000     0.000000     0.000000
   14    -1.000000   180.000000     0.000000     0.000000     1.000000     0.000000     0.000000     0.000000
   15     1.000000   120.000000    -0.577350     0.577350     0.577350     0.000000     0.000000     0.000000
   16    -1.000000   120.000000    -0.577350     0.577350     0.577350     0.000000     0.000000     0.000000
   17     1.000000   120.000000    -0.577350     0.577350    -0.577350     0.000000     0.000000     0.000000
   18    -1.000000   120.000000    -0.577350     0.577350    -0.577350     0.000000     0.000000     0.000000
   19     1.000000    90.000000     0.000000     0.000000     1.000000     0.000000     0.000000     0.000000
   20    -1.000000    90.000000     0.000000     0.000000     1.000000     0.000000     0.000000     0.000000
   21     1.000000    90.000000    -1.000000     0.000000     0.000000     0.000000     0.000000     0.000000
   22    -1.000000    90.000000    -1.000000     0.000000     0.000000     0.000000     0.000000     0.000000
   23     1.000000   180.000000     0.707107     0.000000     0.707107     0.000000     0.000000     0.000000
   24    -1.000000   180.000000     0.707107     0.000000     0.707107     0.000000     0.000000     0.000000
   25     1.000000   120.000000     0.577350    -0.577350     0.577350     0.000000     0.000000     0.000000
   26    -1.000000   120.000000     0.577350    -0.577350     0.577350     0.000000     0.000000     0.000000
   27     1.000000   120.000000    -0.577350    -0.577350     0.577350     0.000000     0.000000     0.000000
   28    -1.000000   120.000000    -0.577350    -0.577350     0.577350     0.000000     0.000000     0.000000
   29     1.000000   180.000000     1.000000     0.000000     0.000000     0.000000     0.000000     0.000000
   30    -1.000000   180.000000     1.000000     0.000000     0.000000     0.000000     0.000000     0.000000
   31     1.000000    90.000000     0.000000    -1.000000     0.000000     0.000000     0.000000     0.000000
   32    -1.000000    90.000000     0.000000    -1.000000     0.000000     0.000000     0.000000     0.000000
   33     1.000000   180.000000     0.707107     0.707107     0.000000     0.000000     0.000000     0.000000
   34    -1.000000   180.000000     0.707107     0.707107     0.000000     0.000000     0.000000     0.000000
   35     1.000000    90.000000     1.000000     0.000000     0.000000     0.000000     0.000000     0.000000
   36    -1.000000    90.000000     1.000000     0.000000     0.000000     0.000000     0.000000     0.000000
   37     1.000000   120.000000     0.577350    -0.577350    -0.577350     0.000000     0.000000     0.000000
   38    -1.000000   120.000000     0.577350    -0.577350    -0.577350     0.000000     0.000000     0.000000
   39     1.000000   180.000000     0.000000     1.000000     0.000000     0.000000     0.000000     0.000000
   40    -1.000000   180.000000     0.000000     1.000000     0.000000     0.000000     0.000000     0.000000
   41     1.000000   120.000000     0.577350     0.577350    -0.577350     0.000000     0.000000     0.000000
   42    -1.000000   120.000000     0.577350     0.577350    -0.577350     0.000000     0.000000     0.000000
   43     1.000000   180.000000     0.000000    -0.707107     0.707107     0.000000     0.000000     0.000000
   44    -1.000000   180.000000     0.000000    -0.707107     0.707107     0.000000     0.000000     0.000000
   45     1.000000   180.000000     0.707107    -0.707107     0.000000     0.000000     0.000000     0.000000
   46    -1.000000   180.000000     0.707107    -0.707107     0.000000     0.000000     0.000000     0.000000
   47     1.000000   180.000000     0.707107     0.000000    -0.707107     0.000000     0.000000     0.000000
   48    -1.000000   180.000000     0.707107     0.000000    -0.707107     0.000000     0.000000     0.000000
 
 Subroutine IBZKPT returns following result:
 ===========================================
 
 Found     56 irreducible k-points:
 
 Following reciprocal coordinates:
            Coordinates               Weight
  0.000000  0.000000  0.000000      1.000000
  0.100000  0.000000  0.000000      6.000000
  0.200000  0.000000  0.000000      6.000000
  0.300000  0.000000  0.000000      6.000000
  0.400000  0.000000  0.000000      6.000000
  0.500000  0.000000  0.000000      3.000000
  0.100000  0.100000  0.000000     12.000000
  0.200000  0.100000  0.000000     24.000000
  0.300000  0.100000  0.000000     24.000000
  0.400000  0.100000  0.000000     24.000000
  0.500000  0.100000  0.000000     12.000000
  0.200000  0.200000  0.000000     12.000000
  0.300000  0.200000  0.000000     24.000000
  0.400000  0.200000  0.000000     24.000000
  0.500000  0.200000  0.000000     12.000000
  0.300000  0.300000  0.000000     12.000000
  0.400000  0.300000  0.000000     24.000000
  0.500000  0.300000  0.000000     12.000000
  0.400000  0.400000  0.000000     12.000000
  0.500000  0.400000  0.000000     12.000000
  0.500000  0.500000  0.000000      3.000000
  0.100000  0.100000  0.100000      8.000000
  0.200000  0.100000  0.100000     24.000000
  0.300000  0.100000  0.100000     24.000000
  0.400000  0.100000  0.100000     24.000000
  0.500000  0.100000  0.100000     12.000000
  0.200000  0.200000  0.100000     24.000000
  0.300000  0.200000  0.100000     48.000000
  0.400000  0.200000  0.100000     48.000000
  0.500000  0.200000  0.100000     24.000000
  0.300000  0.300000  0.100000     24.000000
  0.400000  0.300000  0.100000     48.000000
  0.500000  0.300000  0.100000     24.000000
  0.400000  0.400000  0.100000     24.000000
  0.500000  0.400000  0.100000     24.000000
  0.500000  0.500000  0.100000      6.000000
  0.200000  0.200000  0.200000      8.000000
  0.300000  0.200000  0.200000     24.000000
  0.400000  0.200000  0.200000     24.000000
  0.500000  0.200000  0.200000     12.000000
  0.300000  0.300000  0.200000     24.000000
  0.400000  0.300000  0.200000     48.000000
  0.500000  0.300000  0.200000     24.000000
  0.400000  0.400000  0.200000     24.000000
  0.500000  0.400000  0.200000     24.000000
  0.500000  0.500000  0.200000      6.000000
  0.300000  0.300000  0.300000      8.000000
  0.400000  0.300000  0.300000     24.000000
  0.500000  0.300000  0.300000     12.000000
  0.400000  0.400000  0.300000     24.000000
  0.500000  0.400000  0.300000     24.000000
  0.500000  0.500000  0.300000      6.000000
  0.400000  0.400000  0.400000      8.000000
  0.500000  0.400000  0.400000     12.000000
  0.500000  0.500000  0.400000      6.000000
  0.500000  0.500000  0.500000      1.000000
 
 Following cartesian coordinates:
            Coordinates               Weight
  0.000000  0.000000  0.000000      1.000000
  0.025606  0.000000  0.000000      6.000000
  0.051213  0.000000  0.000000      6.000000
  0.076819  0.000000  0.000000      6.000000
  0.102426  0.000000  0.000000      6.000000
  0.128032  0.000000  0.000000      3.000000
  0.025606  0.025606  0.000000     12.000000
  0.051213  0.025606  0.000000     24.000000
  0.076819  0.025606  0.000000     24.000000
  0.102426  0.025606  0.000000     24.000000
  0.128032  0.025606  0.000000     12.000000
  0.051213  0.051213  0.000000     12.000000
  0.076819  0.051213  0.000000     24.000000
  0.102426  0.051213  0.000000     24.000000
  0.128032  0.051213  0.000000     12.000000
  0.076819  0.076819  0.000000     12.000000
  0.102426  0.076819  0.000000     24.000000
  0.128032  0.076819  0.000000     12.000000
  0.102426  0.102426  0.000000     12.000000
  0.128032  0.102426  0.000000     12.000000
  0.128032  0.128032  0.000000      3.000000
  0.025606  0.025606  0.025606      8.000000
  0.051213  0.025606  0.025606     24.000000
  0.076819  0.025606  0.025606     24.000000
  0.102426  0.025606  0.025606     24.000000
  0.128032  0.025606  0.025606     12.000000
  0.051213  0.051213  0.025606     24.000000
  0.076819  0.051213  0.025606     48.000000
  0.102426  0.051213  0.025606     48.000000
  0.128032  0.051213  0.025606     24.000000
  0.076819  0.076819  0.025606     24.000000
  0.102426  0.076819  0.025606     48.000000
  0.128032  0.076819  0.025606     24.000000
  0.102426  0.102426  0.025606     24.000000
  0.128032  0.102426  0.025606     24.000000
  0.128032  0.128032  0.025606      6.000000
  0.051213  0.051213  0.051213      8.000000
  0.076819  0.051213  0.051213     24.000000
  0.102426  0.051213  0.051213     24.000000
  0.128032  0.051213  0.051213     12.000000
  0.076819  0.076819  0.051213     24.000000
  0.102426  0.076819  0.051213     48.000000
  0.128032  0.076819  0.051213     24.000000
  0.102426  0.102426  0.051213     24.000000
  0.128032  0.102426  0.051213     24.000000
  0.128032  0.128032  0.051213      6.000000
  0.076819  0.076819  0.076819      8.000000
  0.102426  0.076819  0.076819     24.000000
  0.128032  0.076819  0.076819     12.000000
  0.102426  0.102426  0.076819     24.000000
  0.128032  0.102426  0.076819     24.000000
  0.128032  0.128032  0.076819      6.000000
  0.102426  0.102426  0.102426      8.000000
  0.128032  0.102426  0.102426     12.000000
  0.128032  0.128032  0.102426      6.000000
  0.128032  0.128032  0.128032      1.000000
 
 TETIRR: Found    492 inequivalent tetrahedra from     6000


--------------------------------------------------------------------------------------------------------




 Dimension of arrays:
   k-points           NKPTS =     56   k-points in BZ     NKDIM =     56   number of bands    NBANDS=     20
   number of dos      NEDOS =    301   number of ions     NIONS =      5
   non local maximal  LDIM  =      6   non local SUM 2l+1 LMDIM =     18
   total plane-waves  NPLWV =  13824
   max r-space proj   IRMAX =      1   max aug-charges    IRDMAX=  16228
   dimension x,y,z NGX =    24 NGY =   24 NGZ =   24
   dimension x,y,z NGXF=    48 NGYF=   48 NGZF=   48
   support grid    NGXF=    48 NGYF=   48 NGZF=   48
   ions per type =               1   1   3
   NGX,Y,Z   is equivalent  to a cutoff of  10.22, 10.22, 10.22 a.u.
   NGXF,Y,Z  is equivalent  to a cutoff of  20.43, 20.43, 20.43 a.u.

 SYSTEM =  unknown system                          
 POSCAR =  ICSD_CollCode262269                     

 Startparameter for this run:
   NWRITE =      2    write-flag & timer
   PREC   = normal    normal or accurate (medium, high low for compatibility)
   ISTART =      0    job   : 0-new  1-cont  2-samecut
   ICHARG =      2    charge: 1-file 2-atom 10-const
   ISPIN  =      1    spin polarized calculation?
   LNONCOLLINEAR =      F non collinear calculations
   LSORBIT =      F    spin-orbit coupling
   INIWAV =      1    electr: 0-lowe 1-rand  2-diag
   LASPH  =      F    aspherical Exc in radial PAW
   METAGGA=      F    non-selfconsistent MetaGGA calc.

 Electronic Relaxation 1
   ENCUT  =  500.0 eV  36.75 Ry    6.06 a.u.   7.12  7.12  7.12*2*pi/ulx,y,z
   ENINI  =  500.0     initial cutoff
   ENAUG  =  605.4 eV  augmentation charge cutoff
   NELM   =     60;   NELMIN=  4; NELMDL=  0     # of ELM steps 
   EDIFF  = 0.1E-04   stopping-criterion for ELM
   LREAL  =      F    real-space projection
   NLSPLINE    = F    spline interpolate recip. space projectors
   LCOMPAT=      F    compatible to vasp.4.4
   GGA_COMPAT  = T    GGA compatible to vasp.4.4-vasp.4.6
   LMAXPAW     = -100 max onsite density
   LMAXMIX     =    2 max onsite mixed and CHGCAR
   VOSKOWN=      0    Vosko Wilk Nusair interpolation
   ROPT   =    0.00000   0.00000   0.00000
 Ionic relaxation
   EDIFFG = 0.1E-03   stopping-criterion for IOM
   NSW    =      0    number of steps for IOM
   NBLOCK =      1;   KBLOCK =      1    inner block; outer block 
   IBRION =     -1    ionic relax: 0-MD 1-quasi-New 2-CG
   NFREE  =      0    steps in history (QN), initial steepest desc. (CG)
   ISIF   =      2    stress and relaxation
   IWAVPR =     10    prediction:  0-non 1-charg 2-wave 3-comb
   ISYM   =      2    0-nonsym 1-usesym 2-fastsym
   LCORR  =      T    Harris-Foulkes like correction to forces

   POTIM  = 0.5000    time-step for ionic-motion
   TEIN   =    0.0    initial temperature
   TEBEG  =    0.0;   TEEND  =   0.0 temperature during run
   SMASS  =  -3.00    Nose mass-parameter (am)
   estimated Nose-frequenzy (Omega)   =  0.10E-29 period in steps =****** mass=  -0.349E-27a.u.
   SCALEE = 1.0000    scale energy and forces
   NPACO  =    256;   APACO  = 16.0  distance and # of slots for P.C.
   PSTRESS=    0.0 pullay stress

  Mass of Ions in am
   POMASS =  87.62 47.88 16.00
  Ionic Valenz
   ZVAL   =  10.00  4.00  6.00
  Atomic Wigner-Seitz radii
   RWIGS  =  -1.00 -1.00 -1.00
  virtual crystal weights 
   VCA    =   1.00  1.00  1.00
   NELECT =      32.0000    total number of electrons
   NUPDOWN=      -1.0000    fix difference up-down

 DOS related values:
   EMIN   =  10.00;   EMAX   =-10.00  energy-range for DOS
   EFERMI =   0.00
   ISMEAR =    -5;   SIGMA  =   0.20  broadening in eV -4-tet -1-fermi 0-gaus

 Electronic relaxation 2 (details)
   IALGO  =     68    algorithm
   LDIAG  =      T    sub-space diagonalisation (order eigenvalues)
   LSUBROT=      F    optimize rotation matrix (better conditioning)
   TURBO    =      0    0=normal 1=particle mesh
   IRESTART =      0    0=no restart 2=restart with 2 vectors
   NREBOOT  =      0    no. of reboots
   NMIN     =      0    reboot dimension
   EREF     =   0.00    reference energy to select bands
   IMIX   =      4    mixing-type and parameters
     AMIX     =   0.40;   BMIX     =  1.00
     AMIX_MAG =   1.60;   BMIX_MAG =  1.00
     AMIN     =   0.10
     WC   =   100.;   INIMIX=   1;  MIXPRE=   1;  MAXMIX= -45

 Intra band minimization:
   WEIMIN = 0.0000     energy-eigenvalue tresh-hold
   EBREAK =  0.13E-06  absolut break condition
   DEPER  =   0.30     relativ break condition  

   TIME   =   0.40     timestep for ELM

  volume/ion in A,a.u.               =      11.91        80.39
  Fermi-wavevector in a.u.,A,eV,Ry     =   1.330885  2.515009 24.099399  1.771256
  Thomas-Fermi vector in A             =   2.459938
 
 Write flags
   LWAVE        =      F    write WAVECAR
   LDOWNSAMPLE  =      F    k-point downsampling of WAVECAR
   LCHARG       =      T    write CHGCAR
   LVTOT        =      F    write LOCPOT, total local potential
   LVHAR        =      F    write LOCPOT, Hartree potential only
   LELF         =      F    write electronic localiz. function (ELF)
   LORBIT       =      0    0 simple, 1 ext, 2 COOP (PROOUT), +10 PAW based schemes


 Dipole corrections
   LMONO  =      F    monopole corrections only (constant potential shift)
   LDIPOL =      F    correct potential (dipole corrections)
   IDIPOL =      0    1-x, 2-y, 3-z, 4-all directions 
   EPSILON=  1.0000000 bulk dielectric constant

 Exchange correlation treatment:
   GGA     =    --    GGA type
   LEXCH   =     8    internal setting for exchange type
   VOSKOWN=      0    Vosko Wilk Nusair interpolation
   LHFCALC =     F    Hartree Fock is set to
   LHFONE  =     F    Hartree Fock one center treatment
   AEXX    =    0.0000 exact exchange contribution

 Linear response parameters
   LEPSILON=     F    determine dielectric tensor
   LRPA    =     F    only Hartree local field effects (RPA)
   LNABLA  =     F    use nabla operator in PAW spheres
   LVEL    =     F    velocity operator in full k-point grid
   LINTERFAST=   F  fast interpolation
   KINTER  =     0    interpolate to denser k-point grid
   CSHIFT  =0.1000    complex shift for real part using Kramers Kronig
   OMEGAMAX=  -1.0    maximum frequency
   DEG_THRESHOLD= 0.2000000E-02 threshold for treating states as degnerate
   RTIME   =   -0.100 relaxation time in fs
  (WPLASMAI=    0.000 imaginary part of plasma frequency in eV, 0.658/RTIME)
   DFIELD  = 0.0000000 0.0000000 0.0000000 field for delta impulse in time
 
 Orbital magnetization related:
   ORBITALMAG=     F  switch on orbital magnetization
   LCHIMAG   =     F  perturbation theory with respect to B field
   DQ        =  0.001000  dq finite difference perturbation B field
   LLRAUG    =     F  two centre corrections for induced B field



--------------------------------------------------------------------------------------------------------


 Static calculation
 charge density and potential will be updated during run
 non-spin polarized calculation
 RMM-DIIS sequential band-by-band and
  variant of blocked Davidson during initial phase
 perform sub-space diagonalisation
    before iterative eigenvector-optimisation
 modified Broyden-mixing scheme, WC =      100.0
 initial mixing is a Kerker type mixing with AMIX =  0.4000 and BMIX =      1.0000
 Hartree-type preconditioning will be used
 using additional bands            4
 reciprocal scheme for non local part
 use partial core corrections
 calculate Harris-corrections to forces 
   (improved forces if not selfconsistent)
 use gradient corrections 
 use of overlap-Matrix (Vanderbilt PP)
 Fermi weights with tetrahedron method with Bloechl corrections


--------------------------------------------------------------------------------------------------------


  energy-cutoff  :      500.00
  volume of cell :       59.56
      direct lattice vectors                 reciprocal lattice vectors
     3.905268000  0.000000000  0.000000000     0.256064373  0.000000000  0.000000000
     0.000000000  3.905268000  0.000000000     0.000000000  0.256064373  0.000000000
     0.000000000  0.000000000  3.905268000     0.000000000  0.000000000  0.256064373

  length of vectors
     3.905268000  3.905268000  3.905268000     0.256064373  0.256064373  0.256064373


 
 k-points in units of 2pi/SCALE and weight: k-density: 6.0                          
   0.00000000  0.00000000  0.00000000       0.001
   0.02560644  0.00000000  0.00000000       0.006
   0.05121287  0.00000000  0.00000000       0.006
   0.07681931  0.00000000  0.00000000       0.006
   0.10242575  0.00000000  0.00000000       0.006
   0.12803219  0.00000000  0.00000000       0.003
   0.02560644  0.02560644  0.00000000       0.012
   0.05121287  0.02560644  0.00000000       0.024
   0.07681931  0.02560644  0.00000000       0.024
   0.10242575  0.02560644  0.00000000       0.024
   0.12803219  0.02560644  0.00000000       0.012
   0.05121287  0.05121287  0.00000000       0.012
   0.07681931  0.05121287  0.00000000       0.024
   0.10242575  0.05121287  0.00000000       0.024
   0.12803219  0.05121287  0.00000000       0.012
   0.07681931  0.07681931  0.00000000       0.012
   0.10242575  0.07681931  0.00000000       0.024
   0.12803219  0.07681931  0.00000000       0.012
   0.10242575  0.10242575  0.00000000       0.012
   0.12803219  0.10242575  0.00000000       0.012
   0.12803219  0.12803219  0.00000000       0.003
   0.02560644  0.02560644  0.02560644       0.008
   0.05121287  0.02560644  0.02560644       0.024
   0.07681931  0.02560644  0.02560644       0.024
   0.10242575  0.02560644  0.02560644       0.024
   0.12803219  0.02560644  0.02560644       0.012
   0.05121287  0.05121287  0.02560644       0.024
   0.07681931  0.05121287  0.02560644       0.048
   0.10242575  0.05121287  0.02560644       0.048
   0.12803219  0.05121287  0.02560644       0.024
   0.07681931  0.07681931  0.02560644       0.024
   0.10242575  0.07681931  0.02560644       0.048
   0.12803219  0.07681931  0.02560644       0.024
   0.10242575  0.10242575  0.02560644       0.024
   0.12803219  0.10242575  0.02560644       0.024
   0.12803219  0.12803219  0.02560644       0.006
   0.05121287  0.05121287  0.05121287       0.008
   0.07681931  0.05121287  0.05121287       0.024
   0.10242575  0.05121287  0.05121287       0.024
   0.12803219  0.05121287  0.05121287       0.012
   0.07681931  0.07681931  0.05121287       0.024
   0.10242575  0.07681931  0.05121287       0.048
   0.12803219  0.07681931  0.05121287       0.024
   0.10242575  0.10242575  0.05121287       0.024
   0.12803219  0.10242575  0.05121287       0.024
   0.12803219  0.12803219  0.05121287       0.006
   0.07681931  0.07681931  0.07681931       0.008
   0.10242575  0.07681931  0.07681931       0.024
   0.12803219  0.07681931  0.07681931       0.012
   0.10242575  0.10242575  0.07681931       0.024
   0.12803219  0.10242575  0.07681931       0.024
   0.12803219  0.12803219  0.07681931       0.006
   0.10242575  0.10242575  0.10242575       0.008
   0.12803219  0.10242575  0.10242575       0.012
   0.12803219  0.12803219  0.10242575       0.006
   0.12803219  0.12803219  0.12803219       0.001
 
 k-points in reciprocal lattice and weights: k-density: 6.0                          
   0.00000000  0.00000000  0.00000000       0.001
   0.10000000  0.00000000  0.00000000       0.006
   0.20000000  0.00000000  0.00000000       0.006
   0.30000000  0.00000000  0.00000000       0.006
   0.40000000  0.00000000  0.00000000       0.006
   0.50000000  0.00000000  0.00000000       0.003
   0.10000000  0.10000000  0.00000000       0.012
   0.20000000  0.10000000  0.00000000       0.024
   0.30000000  0.10000000  0.00000000       0.024
   0.40000000  0.10000000  0.00000000       0.024
   0.50000000  0.10000000  0.00000000       0.012
   0.20000000  0.20000000  0.00000000       0.012
   0.30000000  0.20000000  0.00000000       0.024
   0.40000000  0.20000000  0.00000000       0.024
   0.50000000  0.20000000  0.00000000       0.012
   0.30000000  0.30000000  0.00000000       0.012
   0.40000000  0.30000000  0.00000000       0.024
   0.50000000  0.30000000  0.00000000       0.012
   0.40000000  0.40000000  0.00000000       0.012
   0.50000000  0.40000000  0.00000000       0.012
   0.50000000  0.50000000  0.00000000       0.003
   0.10000000  0.10000000  0.10000000       0.008
   0.20000000  0.10000000  0.10000000       0.024
   0.30000000  0.10000000  0.10000000       0.024
   0.40000000  0.10000000  0.10000000       0.024
   0.50000000  0.10000000  0.10000000       0.012
   0.20000000  0.20000000  0.10000000       0.024
   0.30000000  0.20000000  0.10000000       0.048
   0.40000000  0.20000000  0.10000000       0.048
   0.50000000  0.20000000  0.10000000       0.024
   0.30000000  0.30000000  0.10000000       0.024
   0.40000000  0.30000000  0.10000000       0.048
   0.50000000  0.30000000  0.10000000       0.024
   0.40000000  0.40000000  0.10000000       0.024
   0.50000000  0.40000000  0.10000000       0.024
   0.50000000  0.50000000  0.10000000       0.006
   0.20000000  0.20000000  0.20000000       0.008
   0.30000000  0.20000000  0.20000000       0.024
   0.40000000  0.20000000  0.20000000       0.024
   0.50000000  0.20000000  0.20000000       0.012
   0.30000000  0.30000000  0.20000000       0.024
   0.40000000  0.30000000  0.20000000       0.048
   0.50000000  0.30000000  0.20000000       0.024
   0.40000000  0.40000000  0.20000000       0.024
   0.50000000  0.40000000  0.20000000       0.024
   0.50000000  0.50000000  0.20000000       0.006
   0.30000000  0.30000000  0.30000000       0.008
   0.40000000  0.30000000  0.30000000       0.024
   0.50000000  0.30000000  0.30000000       0.012
   0.40000000  0.40000000  0.30000000       0.024
   0.50000000  0.40000000  0.30000000       0.024
   0.50000000  0.50000000  0.30000000       0.006
   0.40000000  0.40000000  0.40000000       0.008
   0.50000000  0.40000000  0.40000000       0.012
   0.50000000  0.50000000  0.40000000       0.006
   0.50000000  0.50000000  0.50000000       0.001
 
 position of ions in fractional coordinates (direct lattice) 
   0.00000000  0.00000000  0.00000000
   0.50000000  0.50000000  0.50000000
   0.50000000  0.50000000  0.00000000
   0.50000000  0.00000000  0.50000000
   0.00000000  0.50000000  0.50000000
 
 position of ions in cartesian coordinates  (Angst):
   0.00000000  0.00000000  0.00000000
   1.95263400  1.95263400  1.95263400
   1.95263400  1.95263400  0.00000000
   1.95263400  0.00000000  1.95263400
   0.00000000  1.95263400  1.95263400
 


--------------------------------------------------------------------------------------------------------


 k-point  1 :   0.0000 0.0000 0.0000  plane waves:    1503
 k-point  2 :   0.1000 0.0000 0.0000  plane waves:    1491
 k-point  3 :   0.2000 0.0000 0.0000  plane waves:    1506
 k-point  4 :   0.3000 0.0000 0.0000  plane waves:    1518
 k-point  5 :   0.4000 0.0000 0.0000  plane waves:    1502
 k-point  6 :   0.5000 0.0000 0.0000  plane waves:    1510
 k-point  7 :   0.1000 0.1000 0.0000  plane waves:    1496
 k-point  8 :   0.2000 0.1000 0.0000  plane waves:    1497
 k-point  9 :   0.3000 0.1000 0.0000  plane waves:    1500
 k-point 10 :   0.4000 0.1000 0.0000  plane waves:    1507
 k-point 11 :   0.5000 0.1000 0.0000  plane waves:    1510
 k-point 12 :   0.2000 0.2000 0.0000  plane waves:    1512
 k-point 13 :   0.3000 0.2000 0.0000  plane waves:    1515
 k-point 14 :   0.4000 0.2000 0.0000  plane waves:    1522
 k-point 15 :   0.5000 0.2000 0.0000  plane waves:    1520
 k-point 16 :   0.3000 0.3000 0.0000  plane waves:    1516
 k-point 17 :   0.4000 0.3000 0.0000  plane waves:    1522
 k-point 18 :   0.5000 0.3000 0.0000  plane waves:    1518
 k-point 19 :   0.4000 0.4000 0.0000  plane waves:    1516
 k-point 20 :   0.5000 0.4000 0.0000  plane waves:    1520
 k-point 21 :   0.5000 0.5000 0.0000  plane waves:    1516
 k-point 22 :   0.1000 0.1000 0.1000  plane waves:    1488
 k-point 23 :   0.2000 0.1000 0.1000  plane waves:    1505
 k-point 24 :   0.3000 0.1000 0.1000  plane waves:    1515
 k-point 25 :   0.4000 0.1000 0.1000  plane waves:    1509
 k-point 26 :   0.5000 0.1000 0.1000  plane waves:    1526
 k-point 27 :   0.2000 0.2000 0.1000  plane waves:    1514
 k-point 28 :   0.3000 0.2000 0.1000  plane waves:    1509
 k-point 29 :   0.4000 0.2000 0.1000  plane waves:    1511
 k-point 30 :   0.5000 0.2000 0.1000  plane waves:    1506
 k-point 31 :   0.3000 0.3000 0.1000  plane waves:    1514
 k-point 32 :   0.4000 0.3000 0.1000  plane waves:    1524
 k-point 33 :   0.5000 0.3000 0.1000  plane waves:    1508
 k-point 34 :   0.4000 0.4000 0.1000  plane waves:    1518
 k-point 35 :   0.5000 0.4000 0.1000  plane waves:    1520
 k-point 36 :   0.5000 0.5000 0.1000  plane waves:    1520
 k-point 37 :   0.2000 0.2000 0.2000  plane waves:    1496
 k-point 38 :   0.3000 0.2000 0.2000  plane waves:    1516
 k-point 39 :   0.4000 0.2000 0.2000  plane waves:    1522
 k-point 40 :   0.5000 0.2000 0.2000  plane waves:    1508
 k-point 41 :   0.3000 0.3000 0.2000  plane waves:    1511
 k-point 42 :   0.4000 0.3000 0.2000  plane waves:    1516
 k-point 43 :   0.5000 0.3000 0.2000  plane waves:    1514
 k-point 44 :   0.4000 0.4000 0.2000  plane waves:    1504
 k-point 45 :   0.5000 0.4000 0.2000  plane waves:    1516
 k-point 46 :   0.5000 0.5000 0.2000  plane waves:    1516
 k-point 47 :   0.3000 0.3000 0.3000  plane waves:    1523
 k-point 48 :   0.4000 0.3000 0.3000  plane waves:    1511
 k-point 49 :   0.5000 0.3000 0.3000  plane waves:    1514
 k-point 50 :   0.4000 0.4000 0.3000  plane waves:    1503
 k-point 51 :   0.5000 0.4000 0.3000  plane waves:    1510
 k-point 52 :   0.5000 0.5000 0.3000  plane waves:    1512
 k-point 53 :   0.4000 0.4000 0.4000  plane waves:    1523
 k-point 54 :   0.5000 0.4000 0.4000  plane waves:    1520
 k-point 55 :   0.5000 0.5000 0.4000  plane waves:    1520
 k-point 56 :   0.5000 0.5000 0.5000  plane waves:    1472

 maximum and minimum number of plane-waves per node :       782      722

 maximum number of plane-waves:      1526
 maximum index in each direction: 
   IXMAX=    7   IYMAX=    7   IZMAX=    7
   IXMIN=   -7   IYMIN=   -7   IZMIN=   -7


 parallel 3D FFT for wavefunctions:
    minimum data exchange during FFTs selected (reduces bandwidth)
 parallel 3D FFT for charge:
    minimum data exchange during FFTs selected (reduces bandwidth)


 total amount of memory used by VASP MPI-rank0    59618. kBytes
=======================================================================

   base      :      30000. kBytes
   nonl-proj :      18980. kBytes
   fftplans  :       1176. kBytes
   grid      :       2105. kBytes
   one-center:         46. kBytes
   wavefun   :       7311. kBytes
 
     INWAV:  cpu time    0.0000: real time    0.0005
 Broyden mixing: mesh for mixing (old mesh)
   NGX = 15   NGY = 15   NGZ = 15
  (NGX  = 48   NGY  = 48   NGZ  = 48)
  gives a total of   3375 points

 initial charge density was supplied:
 charge density of overlapping atoms calculated
 number of electron      32.0000000 magnetization 
 keeping initial charge density in first step


--------------------------------------------------------------------------------------------------------


 Maximum index for augmentation-charges         3835 (set IRDMAX)


--------------------------------------------------------------------------------------------------------


 First call to EWALD:  gamma=   0.454
 Maximum number of real-space cells 3x 3x 3
 Maximum number of reciprocal cells 3x 3x 3

    FEWALD:  cpu time    0.0010: real time    0.0015


--------------------------------------- Iteration      1(   1)  ---------------------------------------


    POTLOK:  cpu time    0.0180: real time    0.0690
    SETDIJ:  cpu time    0.0050: real time    0.0055
     EDDAV:  cpu time    0.6609: real time    0.6671
 BZINTS: Fermi energy: 19.076707; 32.000000 electrons
         Band energy:  97.901609;  BLOECHL correction: -0.134196
       DOS:  cpu time    0.0160: real time    0.0161
    --------------------------------------------
      LOOP:  cpu time    0.6999: real time    0.7578

 eigenvalue-minimisations  :  2240
 total energy-change (2. order) : 0.3115469E+03  (-0.1549860E+04)
 number of electron      32.0000000 magnetization 
 augmentation part       32.0000000 magnetization 

 Free energy of the ion-electron system (eV)
  ---------------------------------------------------
  alpha Z        PSCENC =       185.39985751
  Ewald energy   TEWEN  =     -1934.07799583
  -Hartree energ DENC   =      -403.14003404
  -exchange      EXHF   =         0.00000000
  -V(xc)+E(xc)   XCENC  =        82.31788258
  PAW double counting   =      1333.61297253    -1284.78446064
  entropy T*S    EENTRO =         0.00000000
  eigenvalues    EBANDS =        97.90160926
  atomic energy  EATOM  =      2234.31706254
  Solvation  Ediel_sol  =         0.00000000
  ---------------------------------------------------
  free energy    TOTEN  =       311.54689391 eV

  energy without entropy =      311.54689391  energy(sigma->0) =      311.54689391


--------------------------------------------------------------------------------------------------------




--------------------------------------- Iteration      1(   2)  ---------------------------------------


     EDDAV:  cpu time    0.8749: real time    0.8811
 BZINTS: Fermi energy:  8.311322; 32.000000 electrons
         Band energy:-236.042655;  BLOECHL correction: -0.003532
       DOS:  cpu time    0.0160: real time    0.0171
    --------------------------------------------
      LOOP:  cpu time    0.8909: real time    0.8981

 eigenvalue-minimisations  :  3172
 total energy-change (2. order) :-0.3339443E+03  (-0.3238873E+03)
 number of electron      32.0000000 magnetization 
 augmentation part       32.0000000 magnetization 

 Free energy of the ion-electron system (eV)
  ---------------------------------------------------
  alpha Z        PSCENC =       185.39985751
  Ewald energy   TEWEN  =     -1934.07799583
  -Hartree energ DENC   =      -403.14003404
  -exchange      EXHF   =         0.00000000
  -V(xc)+E(xc)   XCENC  =        82.31788258
  PAW double counting   =      1333.61297253    -1284.78446064
  entropy T*S    EENTRO =         0.00000000
  eigenvalues    EBANDS =      -236.04265493
  atomic energy  EATOM  =      2234.31706254
  Solvation  Ediel_sol  =         0.00000000
  ---------------------------------------------------
  free energy    TOTEN  =       -22.39737027 eV

  energy without entropy =      -22.39737027  energy(sigma->0) =      -22.39737027


--------------------------------------------------------------------------------------------------------




--------------------------------------- Iteration      1(   3)  ---------------------------------------


     EDDAV:  cpu time    0.7489: real time    0.7490
 BZINTS: Fermi energy:  0.361049; 32.000000 electrons
         Band energy:-262.926904;  BLOECHL correction:  0.000000
       DOS:  cpu time    0.0050: real time    0.0051
    --------------------------------------------
      LOOP:  cpu time    0.7539: real time    0.7541

 eigenvalue-minimisations  :  2668
 total energy-change (2. order) :-0.2688425E+02  (-0.2674860E+02)
 number of electron      32.0000000 magnetization 
 augmentation part       32.0000000 magnetization 

 Free energy of the ion-electron system (eV)
  ---------------------------------------------------
  alpha Z        PSCENC =       185.39985751
  Ewald energy   TEWEN  =     -1934.07799583
  -Hartree energ DENC   =      -403.14003404
  -exchange      EXHF   =         0.00000000
  -V(xc)+E(xc)   XCENC  =        82.31788258
  PAW double counting   =      1333.61297253    -1284.78446064
  entropy T*S    EENTRO =         0.00000000
  eigenvalues    EBANDS =      -262.92690439
  atomic energy  EATOM  =      2234.31706254
  Solvation  Ediel_sol  =         0.00000000
  ---------------------------------------------------
  free energy    TOTEN  =       -49.28161974 eV

  energy without entropy =      -49.28161974  energy(sigma->0) =      -49.28161974


--------------------------------------------------------------------------------------------------------




--------------------------------------- Iteration      1(   4)  ---------------------------------------


     EDDAV:  cpu time    1.0138: real time    1.0162
 BZINTS: Fermi energy: -0.385259; 32.000000 electrons
         Band energy:-263.856755;  BLOECHL correction:  0.000000
       DOS:  cpu time    0.0020: real time    0.0029
    --------------------------------------------
      LOOP:  cpu time    1.0158: real time    1.0191

 eigenvalue-minimisations  :  3824
 total energy-change (2. order) :-0.9298505E+00  (-0.9288050E+00)
 number of electron      32.0000000 magnetization 
 augmentation part       32.0000000 magnetization 

 Free energy of the ion-electron system (eV)
  ---------------------------------------------------
  alpha Z        PSCENC =       185.39985751
  Ewald energy   TEWEN  =     -1934.07799583
  -Hartree energ DENC   =      -403.14003404
  -exchange      EXHF   =         0.00000000
  -V(xc)+E(xc)   XCENC  =        82.31788258
  PAW double counting   =      1333.61297253    -1284.78446064
  entropy T*S    EENTRO =         0.00000000
  eigenvalues    EBANDS =      -263.85675488
  atomic energy  EATOM  =      2234.31706254
  Solvation  Ediel_sol  =         0.00000000
  ---------------------------------------------------
  free energy    TOTEN  =       -50.21147023 eV

  energy without entropy =      -50.21147023  energy(sigma->0) =      -50.21147023


--------------------------------------------------------------------------------------------------------




--------------------------------------- Iteration      1(   5)  ---------------------------------------


     EDDAV:  cpu time    0.7649: real time    0.7683
 BZINTS: Fermi energy: -0.472081; 32.000000 electrons
         Band energy:-263.872866;  BLOECHL correction:  0.000000
       DOS:  cpu time    0.0020: real time    0.0026
    CHARGE:  cpu time    0.0450: real time    0.0450
    MIXING:  cpu time    0.0010: real time    0.0008
    --------------------------------------------
      LOOP:  cpu time    0.8129: real time    0.8167

 eigenvalue-minimisations  :  2776
 total energy-change (2. order) :-0.1611120E-01  (-0.1610199E-01)
 number of electron      31.9999897 magnetization 
 augmentation part        3.4014165 magnetization 

 Broyden mixing:
  rms(total) = 0.18262E+01    rms(broyden)= 0.18260E+01
  rms(prec ) = 0.47645E+01
  weight for this iteration     100.00

 Free energy of the ion-electron system (eV)
  ---------------------------------------------------
  alpha Z        PSCENC =       185.39985751
  Ewald energy   TEWEN  =     -1934.07799583
  -Hartree energ DENC   =      -403.14003404
  -exchange      EXHF   =         0.00000000
  -V(xc)+E(xc)   XCENC  =        82.31788258
  PAW double counting   =      1333.61297253    -1284.78446064
  entropy T*S    EENTRO =         0.00000000
  eigenvalues    EBANDS =      -263.87286608
  atomic energy  EATOM  =      2234.31706254
  Solvation  Ediel_sol  =         0.00000000
  ---------------------------------------------------
  free energy    TOTEN  =       -50.22758143 eV

  energy without entropy =      -50.22758143  energy(sigma->0) =      -50.22758143


--------------------------------------------------------------------------------------------------------




--------------------------------------- Iteration      1(   6)  ---------------------------------------


    POTLOK:  cpu time    0.0160: real time    0.0159
    SETDIJ:  cpu time    0.0040: real time    0.0043
    EDDIAG:  cpu time    0.1450: real time    0.1460
  RMM-DIIS:  cpu time    0.4979: real time    0.4974
    ORTHCH:  cpu time    0.0150: real time    0.0155
 BZINTS: Fermi energy:  3.309550; 32.000000 electrons
         Band energy:-200.879391;  BLOECHL correction:  0.000000
       DOS:  cpu time    0.0030: real time    0.0030
    CHARGE:  cpu time    0.0440: real time    0.0434
    MIXING:  cpu time    0.0010: real time    0.0006
    --------------------------------------------
      LOOP:  cpu time    0.7259: real time    0.7260

 eigenvalue-minimisations  :  2447
 total energy-change (2. order) : 0.9824879E+01  (-0.5870624E+01)
 number of electron      31.9999925 magnetization 
 augmentation part        3.4822403 magnetization 

 Broyden mixing:
  rms(total) = 0.62333E+00    rms(broyden)= 0.62286E+00
  rms(prec ) = 0.11372E+01
  weight for this iteration     100.00

 eigenvalues of (default mixing * dielectric matrix)
  average eigenvalue GAMMA=   0.7961
  0.7961

 Free energy of the ion-electron system (eV)
  ---------------------------------------------------
  alpha Z        PSCENC =       185.39985751
  Ewald energy   TEWEN  =     -1934.07799583
  -Hartree energ DENC   =      -457.87160936
  -exchange      EXHF   =         0.00000000
  -V(xc)+E(xc)   XCENC  =        87.11076761
  PAW double counting   =      1487.77765656    -1442.17905054
  entropy T*S    EENTRO =         0.00000000
  eigenvalues    EBANDS =      -200.87939105
  atomic energy  EATOM  =      2234.31706254
  Solvation  Ediel_sol  =         0.00000000
  ---------------------------------------------------
  free energy    TOTEN  =       -40.40270257 eV

  energy without entropy =      -40.40270257  energy(sigma->0) =      -40.40270257


--------------------------------------------------------------------------------------------------------




--------------------------------------- Iteration      1(   7)  ---------------------------------------


    POTLOK:  cpu time    0.0150: real time    0.0227
    SETDIJ:  cpu time    0.0050: real time    0.0043
    EDDIAG:  cpu time    0.1450: real time    0.1453
  RMM-DIIS:  cpu time    0.5399: real time    0.5396
    ORTHCH:  cpu time    0.0150: real time    0.0156
 BZINTS: Fermi energy:  2.748463; 32.000000 electrons
         Band energy:-210.372647;  BLOECHL correction:  0.000000
       DOS:  cpu time    0.0030: real time    0.0030
    CHARGE:  cpu time    0.0440: real time    0.0435
    MIXING:  cpu time    0.0000: real time    0.0006
    --------------------------------------------
      LOOP:  cpu time    0.7669: real time    0.7744

 eigenvalue-minimisations  :  2676
 total energy-change (2. order) : 0.6090168E+00  (-0.1546588E+00)
 number of electron      31.9999922 magnetization 
 augmentation part        3.3968595 magnetization 

 Broyden mixing:
  rms(total) = 0.32155E+00    rms(broyden)= 0.32153E+00
  rms(prec ) = 0.56656E+00
  weight for this iteration     100.00

 eigenvalues of (default mixing * dielectric matrix)
  average eigenvalue GAMMA=   1.6999
  0.8840  2.5158

 Free energy of the ion-electron system (eV)
  ---------------------------------------------------
  alpha Z        PSCENC =       185.39985751
  Ewald energy   TEWEN  =     -1934.07799583
  -Hartree energ DENC   =      -445.61874917
  -exchange      EXHF   =         0.00000000
  -V(xc)+E(xc)   XCENC  =        86.24508389
  PAW double counting   =      1498.42074293    -1454.10704049
  entropy T*S    EENTRO =         0.00000000
  eigenvalues    EBANDS =      -210.37264711
  atomic energy  EATOM  =      2234.31706254
  Solvation  Ediel_sol  =         0.00000000
  ---------------------------------------------------
  free energy    TOTEN  =       -39.79368574 eV

  energy without entropy =      -39.79368574  energy(sigma->0) =      -39.79368574


--------------------------------------------------------------------------------------------------------




--------------------------------------- Iteration      1(   8)  ---------------------------------------


    POTLOK:  cpu time    0.0160: real time    0.0158
    SETDIJ:  cpu time    0.0040: real time    0.0042
    EDDIAG:  cpu time    0.1430: real time    0.1437
  RMM-DIIS:  cpu time    0.5199: real time    0.5194
    ORTHCH:  cpu time    0.0140: real time    0.0150
 BZINTS: Fermi energy:  2.442951; 32.000000 electrons
         Band energy:-216.548996;  BLOECHL correction:  0.000000
       DOS:  cpu time    0.0030: real time    0.0025
    CHARGE:  cpu time    0.0420: real time    0.0421
    MIXING:  cpu time    0.0020: real time    0.0013
    --------------------------------------------
      LOOP:  cpu time    0.7439: real time    0.7440

 eigenvalue-minimisations  :  2687
 total energy-change (2. order) : 0.8386350E-01  (-0.9297081E-01)
 number of electron      31.9999920 magnetization 
 augmentation part        3.4548549 magnetization 

 Broyden mixing:
  rms(total) = 0.82275E-01    rms(broyden)= 0.82218E-01
  rms(prec ) = 0.18755E+00
  weight for this iteration     100.00

 eigenvalues of (default mixing * dielectric matrix)
  average eigenvalue GAMMA=   1.3302
  2.2980  0.8463  0.8463

 Free energy of the ion-electron system (eV)
  ---------------------------------------------------
  alpha Z        PSCENC =       185.39985751
  Ewald energy   TEWEN  =     -1934.07799583
  -Hartree energ DENC   =      -437.01498431
  -exchange      EXHF   =         0.00000000
  -V(xc)+E(xc)   XCENC  =        85.89945623
  PAW double counting   =      1546.49563993    -1504.17986194
  entropy T*S    EENTRO =         0.00000000
  eigenvalues    EBANDS =      -216.54899637
  atomic energy  EATOM  =      2234.31706254
  Solvation  Ediel_sol  =         0.00000000
  ---------------------------------------------------
  free energy    TOTEN  =       -39.70982224 eV

  energy without entropy =      -39.70982224  energy(sigma->0) =      -39.70982224


--------------------------------------------------------------------------------------------------------




--------------------------------------- Iteration      1(   9)  ---------------------------------------


    POTLOK:  cpu time    0.0150: real time    0.0191
    SETDIJ:  cpu time    0.0040: real time    0.0041
    EDDIAG:  cpu time    0.1420: real time    0.1419
  RMM-DIIS:  cpu time    0.5799: real time    0.5802
    ORTHCH:  cpu time    0.0150: real time    0.0150
 BZINTS: Fermi energy:  2.589922; 32.000000 electrons
         Band energy:-214.705605;  BLOECHL correction:  0.000000
       DOS:  cpu time    0.0030: real time    0.0029
    CHARGE:  cpu time    0.0420: real time    0.0421
    MIXING:  cpu time    0.0010: real time    0.0006
    --------------------------------------------
      LOOP:  cpu time    0.8019: real time    0.8060

 eigenvalue-minimisations  :  3006
 total energy-change (2. order) : 0.1395968E-01  (-0.5652699E-02)
 number of electron      31.9999920 magnetization 
 augmentation part        3.4485106 magnetization 

 Broyden mixing:
  rms(total) = 0.57331E-01    rms(broyden)= 0.57330E-01
  rms(prec ) = 0.12735E+00
  weight for this iteration     100.00

 eigenvalues of (default mixing * dielectric matrix)
  average eigenvalue GAMMA=   1.5366
  0.9112  0.9112  2.1620  2.1620

 Free energy of the ion-electron system (eV)
  ---------------------------------------------------
  alpha Z        PSCENC =       185.39985751
  Ewald energy   TEWEN  =     -1934.07799583
  -Hartree energ DENC   =      -438.81024833
  -exchange      EXHF   =         0.00000000
  -V(xc)+E(xc)   XCENC  =        86.03207805
  PAW double counting   =      1554.71406300    -1512.56507476
  entropy T*S    EENTRO =         0.00000000
  eigenvalues    EBANDS =      -214.70560474
  atomic energy  EATOM  =      2234.31706254
  Solvation  Ediel_sol  =         0.00000000
  ---------------------------------------------------
  free energy    TOTEN  =       -39.69586256 eV

  energy without entropy =      -39.69586256  energy(sigma->0) =      -39.69586256


--------------------------------------------------------------------------------------------------------




--------------------------------------- Iteration      1(  10)  ---------------------------------------


    POTLOK:  cpu time    0.0140: real time    0.0150
    SETDIJ:  cpu time    0.0050: real time    0.0041
    EDDIAG:  cpu time    0.1380: real time    0.1389
  RMM-DIIS:  cpu time    0.5119: real time    0.5112
    ORTHCH:  cpu time    0.0150: real time    0.0150
 BZINTS: Fermi energy:  2.744698; 32.000000 electrons
         Band energy:-211.437543;  BLOECHL correction:  0.000000
       DOS:  cpu time    0.0030: real time    0.0029
    CHARGE:  cpu time    0.0420: real time    0.0421
    MIXING:  cpu time    0.0000: real time    0.0006
    --------------------------------------------
      LOOP:  cpu time    0.7289: real time    0.7299

 eigenvalue-minimisations  :  2721
 total energy-change (2. order) : 0.3132839E-02  (-0.1303274E-01)
 number of electron      31.9999921 magnetization 
 augmentation part        3.4149941 magnetization 

 Broyden mixing:
  rms(total) = 0.32279E-01    rms(broyden)= 0.32262E-01
  rms(prec ) = 0.65413E-01
  weight for this iteration     100.00

 eigenvalues of (default mixing * dielectric matrix)
  average eigenvalue GAMMA=   1.4072
  2.4813  0.9149  1.0335  1.3031  1.3031

 Free energy of the ion-electron system (eV)
  ---------------------------------------------------
  alpha Z        PSCENC =       185.39985751
  Ewald energy   TEWEN  =     -1934.07799583
  -Hartree energ DENC   =      -442.33678605
  -exchange      EXHF   =         0.00000000
  -V(xc)+E(xc)   XCENC  =        86.24430622
  PAW double counting   =      1561.46999749    -1519.27162872
  entropy T*S    EENTRO =         0.00000000
  eigenvalues    EBANDS =      -211.43754288
  atomic energy  EATOM  =      2234.31706254
  Solvation  Ediel_sol  =         0.00000000
  ---------------------------------------------------
  free energy    TOTEN  =       -39.69272972 eV

  energy without entropy =      -39.69272972  energy(sigma->0) =      -39.69272972


--------------------------------------------------------------------------------------------------------




--------------------------------------- Iteration      1(  11)  ---------------------------------------


    POTLOK:  cpu time    0.0150: real time    0.0196
    SETDIJ:  cpu time    0.0050: real time    0.0041
    EDDIAG:  cpu time    0.1390: real time    0.1397
  RMM-DIIS:  cpu time    0.5499: real time    0.5497
    ORTHCH:  cpu time    0.0160: real time    0.0152
 BZINTS: Fermi energy:  2.648306; 32.000000 electrons
         Band energy:-212.386181;  BLOECHL correction:  0.000000
       DOS:  cpu time    0.0020: real time    0.0025
    CHARGE:  cpu time    0.0410: real time    0.0423
    MIXING:  cpu time    0.0020: real time    0.0007
    --------------------------------------------
      LOOP:  cpu time    0.7699: real time    0.7739

 eigenvalue-minimisations  :  2931
 total energy-change (2. order) : 0.2066517E-02  (-0.1320653E-02)
 number of electron      31.9999921 magnetization 
 augmentation part        3.4202154 magnetization 

 Broyden mixing:
  rms(total) = 0.95163E-02    rms(broyden)= 0.95163E-02
  rms(prec ) = 0.21330E-01
  weight for this iteration     100.00

 eigenvalues of (default mixing * dielectric matrix)
  average eigenvalue GAMMA=   1.5475
  2.1781  2.1781  2.0805  0.9203  0.9203  1.0079

 Free energy of the ion-electron system (eV)
  ---------------------------------------------------
  alpha Z        PSCENC =       185.39985751
  Ewald energy   TEWEN  =     -1934.07799583
  -Hartree energ DENC   =      -441.31157601
  -exchange      EXHF   =         0.00000000
  -V(xc)+E(xc)   XCENC  =        86.19299733
  PAW double counting   =      1562.02345150    -1519.84827963
  entropy T*S    EENTRO =         0.00000000
  eigenvalues    EBANDS =      -212.38618061
  atomic energy  EATOM  =      2234.31706254
  Solvation  Ediel_sol  =         0.00000000
  ---------------------------------------------------
  free energy    TOTEN  =       -39.69066320 eV

  energy without entropy =      -39.69066320  energy(sigma->0) =      -39.69066320


--------------------------------------------------------------------------------------------------------




--------------------------------------- Iteration      1(  12)  ---------------------------------------


    POTLOK:  cpu time    0.0150: real time    0.0150
    SETDIJ:  cpu time    0.0040: real time    0.0041
    EDDIAG:  cpu time    0.1390: real time    0.1393
  RMM-DIIS:  cpu time    0.5539: real time    0.5534
    ORTHCH:  cpu time    0.0150: real time    0.0151
 BZINTS: Fermi energy:  2.628653; 32.000000 electrons
         Band energy:-213.123797;  BLOECHL correction:  0.000000
       DOS:  cpu time    0.0030: real time    0.0029
    CHARGE:  cpu time    0.0420: real time    0.0419
    MIXING:  cpu time    0.0000: real time    0.0007
    --------------------------------------------
      LOOP:  cpu time    0.7719: real time    0.7723

 eigenvalue-minimisations  :  2943
 total energy-change (2. order) :-0.1015526E-02  (-0.1129501E-02)
 number of electron      31.9999921 magnetization 
 augmentation part        3.4188875 magnetization 

 Broyden mixing:
  rms(total) = 0.18976E-01    rms(broyden)= 0.18973E-01
  rms(prec ) = 0.43760E-01
  weight for this iteration     100.00

 eigenvalues of (default mixing * dielectric matrix)
  average eigenvalue GAMMA=   1.5479
  2.9119  1.8274  1.8274  1.2402  1.2402  0.8941  0.8941

 Free energy of the ion-electron system (eV)
  ---------------------------------------------------
  alpha Z        PSCENC =       185.39985751
  Ewald energy   TEWEN  =     -1934.07799583
  -Hartree energ DENC   =      -440.66052702
  -exchange      EXHF   =         0.00000000
  -V(xc)+E(xc)   XCENC  =        86.14521926
  PAW double counting   =      1560.16543900    -1517.85693671
  entropy T*S    EENTRO =         0.00000000
  eigenvalues    EBANDS =      -213.12379748
  atomic energy  EATOM  =      2234.31706254
  Solvation  Ediel_sol  =         0.00000000
  ---------------------------------------------------
  free energy    TOTEN  =       -39.69167873 eV

  energy without entropy =      -39.69167873  energy(sigma->0) =      -39.69167873


--------------------------------------------------------------------------------------------------------




--------------------------------------- Iteration      1(  13)  ---------------------------------------


    POTLOK:  cpu time    0.0150: real time    0.0170
    SETDIJ:  cpu time    0.0050: real time    0.0041
    EDDIAG:  cpu time    0.1440: real time    0.1450
  RMM-DIIS:  cpu time    0.5319: real time    0.5320
    ORTHCH:  cpu time    0.0150: real time    0.0151
 BZINTS: Fermi energy:  2.636941; 32.000000 electrons
         Band energy:-212.372216;  BLOECHL correction:  0.000000
       DOS:  cpu time    0.0020: real time    0.0029
    CHARGE:  cpu time    0.0420: real time    0.0419
    MIXING:  cpu time    0.0020: real time    0.0007
    --------------------------------------------
      LOOP:  cpu time    0.7569: real time    0.7587

 eigenvalue-minimisations  :  2827
 total energy-change (2. order) : 0.4763173E-03  (-0.8046654E-03)
 number of electron      31.9999921 magnetization 
 augmentation part        3.4197664 magnetization 

 Broyden mixing:
  rms(total) = 0.78438E-02    rms(broyden)= 0.78390E-02
  rms(prec ) = 0.21364E-01
  weight for this iteration     100.00

 eigenvalues of (default mixing * dielectric matrix)
  average eigenvalue GAMMA=   1.5653
  2.4848  2.3252  2.3252  1.2856  1.2856  1.1916  0.8123  0.8123

 Free energy of the ion-electron system (eV)
  ---------------------------------------------------
  alpha Z        PSCENC =       185.39985751
  Ewald energy   TEWEN  =     -1934.07799583
  -Hartree energ DENC   =      -441.44087551
  -exchange      EXHF   =         0.00000000
  -V(xc)+E(xc)   XCENC  =        86.20560232
  PAW double counting   =      1562.51069163    -1520.23332938
  entropy T*S    EENTRO =         0.00000000
  eigenvalues    EBANDS =      -212.37221569
  atomic energy  EATOM  =      2234.31706254
  Solvation  Ediel_sol  =         0.00000000
  ---------------------------------------------------
  free energy    TOTEN  =       -39.69120241 eV

  energy without entropy =      -39.69120241  energy(sigma->0) =      -39.69120241


--------------------------------------------------------------------------------------------------------




--------------------------------------- Iteration      1(  14)  ---------------------------------------


    POTLOK:  cpu time    0.0140: real time    0.0150
    SETDIJ:  cpu time    0.0050: real time    0.0041
    EDDIAG:  cpu time    0.1390: real time    0.1391
  RMM-DIIS:  cpu time    0.5199: real time    0.5204
    ORTHCH:  cpu time    0.0160: real time    0.0160
 BZINTS: Fermi energy:  2.641944; 32.000000 electrons
         Band energy:-212.534969;  BLOECHL correction:  0.000000
       DOS:  cpu time    0.0030: real time    0.0030
    CHARGE:  cpu time    0.0420: real time    0.0428
    MIXING:  cpu time    0.0020: real time    0.0008
    --------------------------------------------
      LOOP:  cpu time    0.7409: real time    0.7411

 eigenvalue-minimisations  :  2704
 total energy-change (2. order) : 0.9724212E-04  (-0.1695282E-03)
 number of electron      31.9999921 magnetization 
 augmentation part        3.4148183 magnetization 

 Broyden mixing:
  rms(total) = 0.27862E-02    rms(broyden)= 0.27857E-02
  rms(prec ) = 0.74906E-02
  weight for this iteration     100.00

 eigenvalues of (default mixing * dielectric matrix)
  average eigenvalue GAMMA=   1.5951
  2.8955  2.8955  2.7708  1.2285  1.2285  1.1222  0.8036  0.7801  0.6310

 Free energy of the ion-electron system (eV)
  ---------------------------------------------------
  alpha Z        PSCENC =       185.39985751
  Ewald energy   TEWEN  =     -1934.07799583
  -Hartree energ DENC   =      -441.27731366
  -exchange      EXHF   =         0.00000000
  -V(xc)+E(xc)   XCENC  =        86.18839386
  PAW double counting   =      1562.05886848    -1519.76500955
  entropy T*S    EENTRO =         0.00000000
  eigenvalues    EBANDS =      -212.53496852
  atomic energy  EATOM  =      2234.31706254
  Solvation  Ediel_sol  =         0.00000000
  ---------------------------------------------------
  free energy    TOTEN  =       -39.69110517 eV

  energy without entropy =      -39.69110517  energy(sigma->0) =      -39.69110517


--------------------------------------------------------------------------------------------------------




--------------------------------------- Iteration      1(  15)  ---------------------------------------


    POTLOK:  cpu time    0.0150: real time    0.0240
    SETDIJ:  cpu time    0.0040: real time    0.0041
    EDDIAG:  cpu time    0.1400: real time    0.1394
  RMM-DIIS:  cpu time    0.4849: real time    0.4852
    ORTHCH:  cpu time    0.0150: real time    0.0155
 BZINTS: Fermi energy:  2.648406; 32.000000 electrons
         Band energy:-212.510503;  BLOECHL correction:  0.000000
       DOS:  cpu time    0.0030: real time    0.0030
    CHARGE:  cpu time    0.0440: real time    0.0434
    MIXING:  cpu time    0.0010: real time    0.0008
    --------------------------------------------
      LOOP:  cpu time    0.7069: real time    0.7154

 eigenvalue-minimisations  :  2423
 total energy-change (2. order) :-0.2962632E-04  (-0.5160284E-04)
 number of electron      31.9999921 magnetization 
 augmentation part        3.4143500 magnetization 

 Broyden mixing:
  rms(total) = 0.18296E-02    rms(broyden)= 0.18294E-02
  rms(prec ) = 0.45275E-02
  weight for this iteration     100.00

 eigenvalues of (default mixing * dielectric matrix)
  average eigenvalue GAMMA=   1.5656
  3.1052  3.1052  2.4262  1.2298  1.2298  0.9768  0.9768  1.0217  0.8163  0.7681

 Free energy of the ion-electron system (eV)
  ---------------------------------------------------
  alpha Z        PSCENC =       185.39985751
  Ewald energy   TEWEN  =     -1934.07799583
  -Hartree energ DENC   =      -441.31758864
  -exchange      EXHF   =         0.00000000
  -V(xc)+E(xc)   XCENC  =        86.19172895
  PAW double counting   =      1562.12786535    -1519.82156196
  entropy T*S    EENTRO =         0.00000000
  eigenvalues    EBANDS =      -212.51050271
  atomic energy  EATOM  =      2234.31706254
  Solvation  Ediel_sol  =         0.00000000
  ---------------------------------------------------
  free energy    TOTEN  =       -39.69113479 eV

  energy without entropy =      -39.69113479  energy(sigma->0) =      -39.69113479


--------------------------------------------------------------------------------------------------------




--------------------------------------- Iteration      1(  16)  ---------------------------------------


    POTLOK:  cpu time    0.0150: real time    0.0157
    SETDIJ:  cpu time    0.0050: real time    0.0043
    EDDIAG:  cpu time    0.1430: real time    0.1438
  RMM-DIIS:  cpu time    0.4839: real time    0.4830
    ORTHCH:  cpu time    0.0150: real time    0.0155
 BZINTS: Fermi energy:  2.654616; 32.000000 electrons
         Band energy:-212.543520;  BLOECHL correction:  0.000000
       DOS:  cpu time    0.0030: real time    0.0030
    CHARGE:  cpu time    0.0440: real time    0.0435
    MIXING:  cpu time    0.0010: real time    0.0009
    --------------------------------------------
      LOOP:  cpu time    0.7099: real time    0.7097

 eigenvalue-minimisations  :  2395
 total energy-change (2. order) :-0.2029194E-05  (-0.1372000E-04)
 number of electron      31.9999921 magnetization 
 augmentation part        3.4150396 magnetization 

 Broyden mixing:
  rms(total) = 0.49361E-03    rms(broyden)= 0.49361E-03
  rms(prec ) = 0.97485E-03
  weight for this iteration     100.00

 eigenvalues of (default mixing * dielectric matrix)
  average eigenvalue GAMMA=   1.5353
  2.8118  2.8118  2.8098  1.2134  1.2134  1.2599  1.2599  0.9823  0.9823  0.7720
  0.7720

 Free energy of the ion-electron system (eV)
  ---------------------------------------------------
  alpha Z        PSCENC =       185.39985751
  Ewald energy   TEWEN  =     -1934.07799583
  -Hartree energ DENC   =      -441.30873221
  -exchange      EXHF   =         0.00000000
  -V(xc)+E(xc)   XCENC  =        86.19156051
  PAW double counting   =      1562.02401216    -1519.69338130
  entropy T*S    EENTRO =         0.00000000
  eigenvalues    EBANDS =      -212.54352021
  atomic energy  EATOM  =      2234.31706254
  Solvation  Ediel_sol  =         0.00000000
  ---------------------------------------------------
  free energy    TOTEN  =       -39.69113682 eV

  energy without entropy =      -39.69113682  energy(sigma->0) =      -39.69113682


--------------------------------------------------------------------------------------------------------




--------------------------------------- Iteration      1(  17)  ---------------------------------------


    POTLOK:  cpu time    0.0150: real time    0.0238
    SETDIJ:  cpu time    0.0050: real time    0.0043
    EDDIAG:  cpu time    0.1430: real time    0.1437
  RMM-DIIS:  cpu time    0.3919: real time    0.3916
    ORTHCH:  cpu time    0.0150: real time    0.0158
 BZINTS: Fermi energy:  2.658390; 32.000000 electrons
         Band energy:-212.503232;  BLOECHL correction:  0.000000
       DOS:  cpu time    0.0030: real time    0.0030
    --------------------------------------------
      LOOP:  cpu time    0.5729: real time    0.5822

 eigenvalue-minimisations  :  1909
 total energy-change (2. order) :-0.6361959E-05  (-0.6231569E-05)
 number of electron      31.9999921 magnetization 
 augmentation part        3.4150396 magnetization 

 Free energy of the ion-electron system (eV)
  ---------------------------------------------------
  alpha Z        PSCENC =       185.39985751
  Ewald energy   TEWEN  =     -1934.07799583
  -Hartree energ DENC   =      -441.35414405
  -exchange      EXHF   =         0.00000000
  -V(xc)+E(xc)   XCENC  =        86.19462236
  PAW double counting   =      1562.15487028    -1519.82218355
  entropy T*S    EENTRO =         0.00000000
  eigenvalues    EBANDS =      -212.50323245
  atomic energy  EATOM  =      2234.31706254
  Solvation  Ediel_sol  =         0.00000000
  ---------------------------------------------------
  free energy    TOTEN  =       -39.69114318 eV

  energy without entropy =      -39.69114318  energy(sigma->0) =      -39.69114318


--------------------------------------------------------------------------------------------------------




 average (electrostatic) potential at core
  the test charge radii are     1.1929  1.2598  0.7215
  (the norm of the test charge is              1.0000)
       1 -36.1345       2 -26.7936       3 -71.0544       4 -71.0544       5 -71.0544
 
 
 
 E-fermi :   2.6584     XC(G=0): -11.1506     alpha+bet :-12.6354


 k-point     1 :       0.0000    0.0000    0.0000
  band No.  band energies     occupation 
      1     -30.0812      2.00000
      2     -14.8169      2.00000
      3     -13.8110      2.00000
      4     -13.8110      2.00000
      5     -12.1452      2.00000
      6     -12.1452      2.00000
      7     -12.1452      2.00000
      8      -0.2101      2.00000
      9      -0.2101      2.00000
     10      -0.2101      2.00000
     11       1.4781      2.00000
     12       1.4781      2.00000
     13       1.4781      2.00000
     14       2.3186      2.00000
     15       2.3186      2.00000
     16       2.3186      2.00000
     17       4.3450      0.00000
     18       4.3450      0.00000
     19       4.3451      0.00000
     20       8.0311      0.00000

 k-point     2 :       0.1000    0.0000    0.0000
  band No.  band energies     occupation 
      1     -30.0790      2.00000
      2     -14.8212      2.00000
      3     -13.8268      2.00000
      4     -13.8069      2.00000
      5     -12.1406      2.00000
      6     -12.1406      2.00000
      7     -12.0746      2.00000
      8      -0.3434      2.00000
      9      -0.2171      2.00000
     10      -0.2171      2.00000
     11       1.3383      2.00000
     12       1.3383      2.00000
     13       1.3867      2.00000
     14       1.9913      2.00000
     15       2.2455      2.00000
     16       2.2455      2.00000
     17       4.3597      0.00000
     18       4.5850      0.00000
     19       4.5850      0.00000
     20       8.1960      0.00000

 k-point     3 :       0.2000    0.0000    0.0000
  band No.  band energies     occupation 
      1     -30.0731      2.00000
      2     -14.8540      2.00000
      3     -13.8246      2.00000
      4     -13.7967      2.00000
      5     -12.1285      2.00000
      6     -12.1285      2.00000
      7     -11.9092      2.00000
      8      -0.7012      2.00000
      9      -0.2329      2.00000
     10      -0.2329      2.00000
     11       1.0042      2.00000
     12       1.0042      2.00000
     13       1.1638      2.00000
     14       1.3164      2.00000
     15       2.1224      2.00000
     16       2.1224      2.00000
     17       4.3985      0.00000
     18       5.1174      0.00000
     19       5.1174      0.00000
     20       8.6787      0.00000

 k-point     4 :       0.3000    0.0000    0.0000
  band No.  band energies     occupation 
      1     -30.0658      2.00000
      2     -14.9273      2.00000
      3     -13.7845      2.00000
      4     -13.7536      2.00000
      5     -12.1135      2.00000
      6     -12.1135      2.00000
      7     -11.7325      2.00000
      8      -1.1648      2.00000
      9      -0.2435      2.00000
     10      -0.2435      2.00000
     11       0.6421      2.00000
     12       0.6421      2.00000
     13       0.6968      2.00000
     14       0.9145      2.00000
     15       2.0207      2.00000
     16       2.0207      2.00000
     17       4.4478      0.00000
     18       5.6802      0.00000
     19       5.6802      0.00000
     20       9.4287      0.00000

 k-point     5 :       0.4000    0.0000    0.0000
  band No.  band energies     occupation 
      1     -30.0599      2.00000
      2     -15.0018      2.00000
      3     -13.7743      2.00000
      4     -13.6577      2.00000
      5     -12.1012      2.00000
      6     -12.1012      2.00000
[...]
      1     -30.0352      2.00000
      2     -14.2665      2.00000
      3     -13.9184      2.00000
      4     -13.7386      2.00000
      5     -12.1965      2.00000
      6     -11.9558      2.00000
      7     -11.8477      2.00000
      8      -1.7376      2.00000
      9      -1.5081      2.00000
     10      -1.4077      2.00000
     11      -0.6971      2.00000
     12      -0.5920      2.00000
     13      -0.0848      2.00000
     14       1.6602      2.00000
     15       1.7319      2.00000
     16       2.4105      2.00000
     17       6.2806      0.00000
     18       6.3107      0.00000
     19       6.5943      0.00000
     20      10.4278      0.00000

 k-point    45 :       0.5000    0.4000    0.2000
  band No.  band energies     occupation 
      1     -30.0333      2.00000
      2     -14.1833      2.00000
      3     -13.9133      2.00000
      4     -13.7790      2.00000
      5     -12.1968      2.00000
      6     -11.9177      2.00000
      7     -11.9078      2.00000
      8      -1.8161      2.00000
      9      -1.6321      2.00000
     10      -1.4640      2.00000
     11      -0.6783      2.00000
     12      -0.6460      2.00000
     13      -0.1013      2.00000
     14       1.7022      2.00000
     15       1.7153      2.00000
     16       2.4785      2.00000
     17       6.3083      0.00000
     18       6.4258      0.00000
     19       6.6846      0.00000
     20      10.4254      0.00000

 k-point    46 :       0.5000    0.5000    0.2000
  band No.  band energies     occupation 
      1     -30.0315      2.00000
      2     -13.9696      2.00000
      3     -13.9300      2.00000
      4     -13.9300      2.00000
      5     -12.1716      2.00000
      6     -11.9370      2.00000
      7     -11.9370      2.00000
      8      -1.8917      2.00000
      9      -1.7064      2.00000
     10      -1.5728      2.00000
     11      -0.6685      2.00000
     12      -0.6685      2.00000
     13      -0.1399      2.00000
     14       1.7305      2.00000
     15       1.7305      2.00000
     16       2.5624      2.00000
     17       6.4377      0.00000
     18       6.4377      0.00000
     19       6.7660      0.00000
     20      10.2229      0.00000

 k-point    47 :       0.3000    0.3000    0.3000
  band No.  band energies     occupation 
      1     -30.0391      2.00000
      2     -14.3883      2.00000
      3     -13.7859      2.00000
      4     -13.7859      2.00000
      5     -12.1340      2.00000
      6     -12.1340      2.00000
      7     -11.7899      2.00000
      8      -1.5478      2.00000
      9      -0.9723      2.00000
     10      -0.9723      2.00000
     11      -0.6844      2.00000
     12      -0.6472      2.00000
     13      -0.6472      2.00000
     14       1.8603      2.00000
     15       1.8603      2.00000
     16       2.1979      2.00000
     17       6.1665      0.00000
     18       6.2112      0.00000
     19       6.2112      0.00000
     20      10.3762      0.00000

 k-point    48 :       0.4000    0.3000    0.3000
  band No.  band energies     occupation 
      1     -30.0342      2.00000
      2     -14.2694      2.00000
      3     -13.8175      2.00000
      4     -13.6905      2.00000
      5     -12.2521      2.00000
      6     -12.0685      2.00000
      7     -11.8688      2.00000
      8      -1.6540      2.00000
      9      -1.2756      2.00000
     10      -1.0092      2.00000
     11      -0.9586      2.00000
     12      -0.8378      2.00000
     13      -0.5644      2.00000
     14       1.8986      2.00000
     15       2.0071      2.00000
     16       2.2857      2.00000
     17       6.2443      0.00000
     18       6.4452      0.00000
     19       6.4675      0.00000
     20      10.4758      0.00000

 k-point    49 :       0.5000    0.3000    0.3000
  band No.  band energies     occupation 
      1     -30.0323      2.00000
      2     -14.2241      2.00000
      3     -13.8297      2.00000
      4     -13.6497      2.00000
      5     -12.3016      2.00000
      6     -11.9917      2.00000
      7     -11.9488      2.00000
      8      -1.7636      2.00000
      9      -1.3422      2.00000
     10      -1.1034      2.00000
     11      -0.9337      2.00000
     12      -0.9222      2.00000
     13      -0.5263      2.00000
     14       1.9083      2.00000
     15       2.0529      2.00000
     16       2.3103      2.00000
     17       6.2642      0.00000
     18       6.5524      0.00000
     19       6.5808      0.00000
     20      10.5612      0.00000

 k-point    50 :       0.4000    0.4000    0.3000
  band No.  band energies     occupation 
      1     -30.0294      2.00000
      2     -14.0872      2.00000
      3     -13.7875      2.00000
      4     -13.6738      2.00000
      5     -12.2838      2.00000
      6     -12.1356      2.00000
      7     -11.9746      2.00000
      8      -1.7140      2.00000
      9      -1.4000      2.00000
     10      -1.3166      2.00000
     11      -1.0050      2.00000
     12      -0.8495      2.00000
     13      -0.7910      2.00000
     14       2.0650      2.00000
     15       2.1186      2.00000
     16       2.4429      2.00000
     17       6.4946      0.00000
     18       6.5139      0.00000
     19       6.6594      0.00000
     20      10.1687      0.00000

 k-point    51 :       0.5000    0.4000    0.3000
  band No.  band energies     occupation 
      1     -30.0276      2.00000
      2     -13.9944      2.00000
      3     -13.7989      2.00000
      4     -13.6661      2.00000
      5     -12.3115      2.00000
      6     -12.0974      2.00000
      7     -12.0629      2.00000
      8      -1.8158      2.00000
      9      -1.4552      2.00000
     10      -1.3892      2.00000
     11      -0.9753      2.00000
     12      -0.9342      2.00000
     13      -0.7797      2.00000
     14       2.1060      2.00000
     15       2.1589      2.00000
     16       2.5075      2.00000
     17       6.5234      0.00000
     18       6.6137      0.00000
     19       6.7502      0.00000
     20      10.0555      0.00000

 k-point    52 :       0.5000    0.5000    0.3000
  band No.  band energies     occupation 
      1     -30.0258      2.00000
      2     -13.7912      2.00000
      3     -13.7884      2.00000
      4     -13.7884      2.00000
      5     -12.2851      2.00000
      6     -12.1351      2.00000
      7     -12.1351      2.00000
      8      -1.8924      2.00000
      9      -1.5674      2.00000
     10      -1.4282      2.00000
     11      -0.9096      2.00000
     12      -0.9095      2.00000
     13      -0.9095      2.00000
     14       2.1777      2.00000
     15       2.1777      2.00000
     16       2.5912      2.00000
     17       6.6327      0.00000
     18       6.6327      0.00000
     19       6.8328      0.00000
     20       9.7630      0.00000

 k-point    53 :       0.4000    0.4000    0.4000
  band No.  band energies     occupation 
      1     -30.0247      2.00000
      2     -13.9039      2.00000
      3     -13.6576      2.00000
      4     -13.6576      2.00000
      5     -12.3046      2.00000
      6     -12.3046      2.00000
      7     -12.1197      2.00000
      8      -1.7708      2.00000
      9      -1.3927      2.00000
     10      -1.3927      2.00000
     11      -1.1938      2.00000
     12      -1.0144      2.00000
     13      -1.0144      2.00000
     14       2.3470      2.00000
     15       2.3470      2.00000
     16       2.5024      2.00000
     17       6.6965      0.00000
     18       6.7191      0.00000
     19       6.7191      0.00000
     20       9.9576      0.00000

 k-point    54 :       0.5000    0.4000    0.4000
  band No.  band energies     occupation 
      1     -30.0229      2.00000
      2     -13.7942      2.00000
      3     -13.6912      2.00000
      4     -13.5988      2.00000
      5     -12.3783      2.00000
      6     -12.2579      2.00000
      7     -12.2269      2.00000
      8      -1.8689      2.00000
      9      -1.4765      2.00000
     10      -1.3893      2.00000
     11      -1.2160      2.00000
     12      -1.0710      2.00000
     13      -1.0019      2.00000
     14       2.3978      2.00000
     15       2.4468      2.00000
     16       2.5529      2.00000
     17       6.8093      0.00000
     18       9.8021      0.00000
     19       9.8468      0.00000
     20       9.9827      0.00000

 k-point    55 :       0.5000    0.5000    0.4000
  band No.  band energies     occupation 
      1     -30.0211      2.00000
      2     -13.6451      2.00000
      3     -13.6451      2.00000
      4     -13.6390      2.00000
      5     -12.3740      2.00000
      6     -12.3237      2.00000
      7     -12.3237      2.00000
      8      -1.9442      2.00000
      9      -1.5630      2.00000
     10      -1.4216      2.00000
     11      -1.2023      2.00000
     12      -1.0634      2.00000
     13      -1.0634      2.00000
     14       2.5041      2.00000
     15       2.5041      2.00000
     16       2.6149      2.00000
     17       6.8603      0.00000
     18       9.6172      0.00000
     19       9.7749      0.00000
     20       9.7819      0.00000

 k-point    56 :       0.5000    0.5000    0.5000
  band No.  band energies     occupation 
      1     -30.0194      2.00000
      2     -13.5782      2.00000
      3     -13.5782      2.00000
      4     -13.5782      2.00000
      5     -12.4072      2.00000
      6     -12.4072      2.00000
      7     -12.4072      2.00000
      8      -2.0098      2.00000
      9      -1.5614      2.00000
     10      -1.5614      2.00000
     11      -1.1158      2.00000
     12      -1.1158      2.00000
     13      -1.1158      2.00000
     14       2.6241      2.00000
     15       2.6241      2.00000
     16       2.6241      2.00000
     17       6.9092      0.00000
     18       9.5698      0.00000
     19       9.5702      0.00000
     20       9.5863      0.00000


--------------------------------------------------------------------------------------------------------


 soft charge-density along one line, spin component           1
         0         1         2         3         4         5         6         7         8         9
 total charge-density along one line
 
 pseudopotential strength for first ion, spin component:           1
-11.346  -7.402   0.000   0.000  -0.000  -0.000  -0.000   0.000
 -7.402  -5.734   0.000   0.000  -0.000  -0.000  -0.000   0.000
  0.000   0.000 -14.872   0.000  -0.000   0.103  -0.000   0.000
  0.000   0.000   0.000 -14.872   0.000  -0.000   0.103  -0.000
 -0.000  -0.000  -0.000   0.000 -14.872   0.000  -0.000   0.103
 -0.000  -0.000   0.103  -0.000   0.000   0.037  -0.000   0.000
 -0.000  -0.000  -0.000   0.103  -0.000  -0.000   0.037  -0.000
  0.000   0.000   0.000  -0.000   0.103   0.000  -0.000   0.037
 -0.000  -0.000  -0.000   0.000   0.000   0.000  -0.000  -0.000
  0.000   0.000   0.000   0.000   0.000  -0.000  -0.000  -0.000
  0.000   0.000  -0.000   0.000   0.000   0.000  -0.000  -0.000
  0.000   0.000   0.000  -0.000   0.000  -0.000   0.000  -0.000
  0.000   0.000  -0.000   0.000  -0.000   0.000  -0.000   0.000
 -0.000  -0.000  -0.000   0.000   0.000  -0.000   0.000   0.000
  0.000   0.000   0.000   0.000   0.000   0.000   0.000   0.000
  0.000   0.000  -0.000   0.000   0.000  -0.000  -0.000  -0.000
  0.000   0.000   0.000  -0.000   0.000   0.000  -0.000   0.000
  0.000   0.000  -0.000   0.000  -0.000   0.000   0.000   0.000
 total augmentation occupancy for first ion, spin component:           1
  2.105  -0.226   0.000   0.000   0.000   0.000   0.000   0.000   0.000   0.000  -0.000  -0.000   0.000  -0.000   0.000   0.000
 -0.226   0.472   0.000   0.000   0.000   0.000   0.000   0.000   0.000   0.000  -0.000   0.000   0.000  -0.000  -0.000   0.000
  0.000   0.000   2.025   0.000   0.000   0.071   0.000   0.000   0.000   0.000   0.000   0.000   0.000   0.000   0.000   0.000
  0.000   0.000   0.000   2.025  -0.000   0.000   0.071  -0.000   0.000   0.000   0.000   0.000   0.000   0.000   0.000   0.000
  0.000   0.000   0.000  -0.000   2.025  -0.000   0.000   0.071   0.000   0.000   0.000   0.000   0.000   0.000   0.000   0.000
  0.000   0.000   0.071   0.000  -0.000   0.297   0.000  -0.000   0.000   0.000   0.000   0.000   0.000   0.000   0.000   0.000
  0.000   0.000   0.000   0.071   0.000   0.000   0.297  -0.000   0.000   0.000   0.000   0.000   0.000   0.000   0.000   0.000
  0.000   0.000   0.000  -0.000   0.071  -0.000   0.000   0.297   0.000   0.000   0.000   0.000   0.000   0.000   0.000   0.000
 -0.000   0.000   0.000   0.000   0.000   0.000   0.000   0.000   0.094   0.000   0.000   0.000  -0.000  -0.425   0.000  -0.000
  0.000  -0.000   0.000   0.000   0.000   0.000   0.000   0.000   0.000   0.094  -0.000  -0.000  -0.000  -0.000  -0.425   0.000
  0.000  -0.000   0.000   0.000   0.000   0.000   0.000   0.000   0.000   0.000   0.063   0.000   0.000  -0.000   0.000  -0.276
  0.000   0.000   0.000   0.000   0.000   0.000   0.000   0.000   0.000   0.000   0.000   0.094   0.000  -0.000  -0.000   0.000
  0.000   0.000   0.000   0.000   0.000   0.000   0.000   0.000   0.000  -0.000  -0.000   0.000   0.063   0.000   0.000   0.000
  0.000  -0.000   0.000   0.000   0.000   0.000   0.000   0.000  -0.425  -0.000   0.000  -0.000   0.000   2.038   0.000  -0.000
  0.000  -0.000   0.000   0.000   0.000   0.000   0.000   0.000   0.000  -0.425  -0.000   0.000   0.000   0.000   2.038  -0.000
  0.000   0.000   0.000   0.000   0.000   0.000   0.000   0.000  -0.000   0.000  -0.276   0.000   0.000  -0.000   0.000   1.273
  0.000  -0.000   0.000   0.000   0.000   0.000   0.000   0.000   0.000   0.000  -0.000  -0.425   0.000   0.000   0.000   0.000
  0.000   0.000   0.000   0.000   0.000   0.000   0.000   0.000   0.000  -0.000   0.000   0.000  -0.276   0.000  -0.000  -0.000


------------------------ aborting loop because EDIFF is reached ----------------------------------------


    CHARGE:  cpu time    0.0440: real time    0.0445
    FORLOC:  cpu time    0.0020: real time    0.0021
    FORNL :  cpu time    0.1310: real time    0.1303
    STRESS:  cpu time    0.5239: real time    0.5235
    FORCOR:  cpu time    0.0160: real time    0.0164
    FORHAR:  cpu time    0.0040: real time    0.0041
    MIXING:  cpu time    0.0010: real time    0.0009
    OFIELD:  cpu time    0.0000: real time    0.0000

  FORCE on cell =-STRESS in cart. coord.  units (eV):
  Direction    XX          YY          ZZ          XY          YZ          ZX
  --------------------------------------------------------------------------------------
  Alpha Z   185.39986   185.39986   185.39986
  Ewald    -644.69310  -644.69310  -644.69310     0.00000    -0.00000    -0.00000
  Hartree   147.09597   147.09597   147.09597    -0.00000    -0.00000    -0.00000
  E(xc)    -145.39207  -145.39207  -145.39207    -0.00000     0.00000     0.00000
  Local      -9.63677    -9.63677    -9.63677     0.00000     0.00000    -0.00000
  n-local  -123.46507  -119.17080  -114.69155    -0.43174    -0.43059    -0.26762
  augment    28.91794    28.91794    28.91794    -0.00000     0.00000    -0.00000
  Kinetic   549.94997   562.47800   566.81555    -2.38575    -2.97770    -1.63994
  Fock        0.00000     0.00000     0.00000     0.00000     0.00000     0.00000
  -------------------------------------------------------------------------------------
  Total       2.33052     2.33052     2.33052    -0.00000    -0.00000    -0.00000
  in kB      62.69190    62.69190    62.69190    -0.00000    -0.00000    -0.00000
  external pressure =       62.69 kB  Pullay stress =        0.00 kB


 VOLUME and BASIS-vectors are now :
 -----------------------------------------------------------------------------
  energy-cutoff  :      500.00
  volume of cell :       59.56
      direct lattice vectors                 reciprocal lattice vectors
     3.905268000  0.000000000  0.000000000     0.256064373  0.000000000  0.000000000
     0.000000000  3.905268000  0.000000000     0.000000000  0.256064373  0.000000000
     0.000000000  0.000000000  3.905268000     0.000000000  0.000000000  0.256064373

  length of vectors
     3.905268000  3.905268000  3.905268000     0.256064373  0.256064373  0.256064373


 FORCES acting on ions
    electron-ion (+dipol)            ewald-force                    non-local-force                 convergence-correction
 -----------------------------------------------------------------------------------------------
   -.427E-14 -.362E-14 -.431E-14   -.987E-14 0.226E-14 -.502E-14   0.000E+00 0.000E+00 0.000E+00   0.405E-14 0.403E-14 -.443E-15
   0.548E-14 -.459E-12 -.462E-13   0.387E-14 0.424E-14 -.122E-14   0.000E+00 0.000E+00 0.000E+00   -.456E-15 -.316E-14 0.982E-15
   0.157E-12 -.142E-11 -.152E-11   0.648E-14 0.208E-14 -.144E-14   0.000E+00 0.000E+00 0.000E+00   0.191E-14 0.123E-13 -.569E-14
   0.156E-12 -.487E-14 -.193E-11   0.284E-14 -.378E-14 0.434E-14   0.000E+00 0.000E+00 0.000E+00   0.814E-14 0.185E-13 -.448E-14
   -.621E-14 0.154E-12 0.151E-12   -.327E-14 -.425E-14 0.433E-14   0.000E+00 0.000E+00 0.000E+00   0.526E-14 0.440E-14 -.826E-14
 -----------------------------------------------------------------------------------------------
   0.308E-12 -.173E-11 -.336E-11   0.432E-16 0.547E-15 0.100E-14   0.000E+00 0.000E+00 0.000E+00   0.189E-13 0.360E-13 -.179E-13
 
 
 POSITION                                       TOTAL-FORCE (eV/Angst)
 -----------------------------------------------------------------------------------
      0.00000      0.00000      0.00000         0.000000      0.000000      0.000000
      1.95263      1.95263      1.95263         0.000000      0.000000      0.000000
      1.95263      1.95263      0.00000         0.000000      0.000000      0.000000
      1.95263      0.00000      1.95263         0.000000      0.000000      0.000000
      0.00000      1.95263      1.95263         0.000000      0.000000      0.000000
 -----------------------------------------------------------------------------------
    total drift:                                0.000000     -0.000000     -0.000000


--------------------------------------------------------------------------------------------------------



  FREE ENERGIE OF THE ION-ELECTRON SYSTEM (eV)
  ---------------------------------------------------
  free  energy   TOTEN  =       -39.69114318 eV

  energy  without entropy=      -39.69114318  energy(sigma->0) =      -39.69114318
 


--------------------------------------------------------------------------------------------------------


    POTLOK:  cpu time    0.0200: real time    0.0198


--------------------------------------------------------------------------------------------------------


     LOOP+:  cpu time   13.8339: real time   14.0434
    4ORBIT:  cpu time    0.0000: real time    0.0000
 BZINTS: Fermi energy:  2.658390; 32.000000 electrons
         Band energy:-212.503232;  BLOECHL correction:  0.000000

 total amount of memory used by VASP MPI-rank0    59618. kBytes
=======================================================================

   base      :      30000. kBytes
   nonl-proj :      18980. kBytes
   fftplans  :       1176. kBytes
   grid      :       2105. kBytes
   one-center:         46. kBytes
   wavefun   :       7311. kBytes
 
  
  
 General timing and accounting informations for this job:
 ========================================================
  
                  Total CPU time used (sec):       14.684
                            User time (sec):       14.444
                          System time (sec):        0.240
                         Elapsed time (sec):       15.427
  
                   Maximum memory used (kb):       58136.
                   Average memory used (kb):           0.
  
                          Minor page faults:        23544
                          Major page faults:          178
                 Voluntary context switches:         3347
