Starting job 28610805 ("jobname") on c16-3 at Thu Nov 28 12:43:56 CET 2019
 running on    4 total cores
 distrk:  each k-point on    4 cores,    1 groups
 distr:  one band on    2 cores,    2 groups
 using from now: INCAR     
 vasp.5.4.4.18Apr17-6-g9f103f2a35 (build Jun 30 2017 11:15:00) complex          
  
 POSCAR found type information on POSCAR  Sr Ti O 
 POSCAR found :  3 types and       5 ions
 scaLAPACK will be used
 LDA part: xc-table for Pade appr. of Perdew
 POSCAR, INCAR and KPOINTS ok, starting setup
 FFT: planning ...
 WAVECAR not read
 WARNING: random wavefunctions but no delay for mixing, default for NELMDL
 entering main loop
       N       E                     dE             d eps       ncg     rms          rms(c)
DAV:   1     0.311546893911E+03    0.31155E+03   -0.15499E+04  2240   0.157E+03
DAV:   2    -0.223973702748E+02   -0.33394E+03   -0.32389E+03  3172   0.362E+02
DAV:   3    -0.492816197375E+02   -0.26884E+02   -0.26749E+02  2668   0.123E+02
DAV:   4    -0.502114702251E+02   -0.92985E+00   -0.92881E+00  3824   0.213E+01
DAV:   5    -0.502275814280E+02   -0.16111E-01   -0.16102E-01  2776   0.229E+00    0.183E+01
RMM:   6    -0.404027025672E+02    0.98249E+01   -0.58706E+01  2447   0.444E+01    0.623E+00
RMM:   7    -0.397936857378E+02    0.60902E+00   -0.15466E+00  2676   0.101E+01    0.322E+00
RMM:   8    -0.397098222355E+02    0.83864E-01   -0.92971E-01  2687   0.750E+00    0.823E-01
RMM:   9    -0.396958625562E+02    0.13960E-01   -0.56527E-02  3006   0.192E+00    0.573E-01
RMM:  10    -0.396927297172E+02    0.31328E-02   -0.13033E-01  2721   0.208E+00    0.323E-01
RMM:  11    -0.396906632000E+02    0.20665E-02   -0.13207E-02  2931   0.677E-01    0.952E-02
RMM:  12    -0.396916787265E+02   -0.10155E-02   -0.11295E-02  2943   0.573E-01    0.190E-01
RMM:  13    -0.396912024092E+02    0.47632E-03   -0.80467E-03  2827   0.488E-01    0.784E-02
RMM:  14    -0.396911051671E+02    0.97242E-04   -0.16953E-03  2704   0.235E-01    0.279E-02
RMM:  15    -0.396911347934E+02   -0.29626E-04   -0.51603E-04  2423   0.678E-02    0.183E-02
RMM:  16    -0.396911368226E+02   -0.20292E-05   -0.13720E-04  2395   0.587E-02    0.494E-03
RMM:  17    -0.396911431845E+02   -0.63620E-05   -0.62316E-05  1909   0.381E-02
   1 F= -.39691143E+02 E0= -.39691143E+02  d E =0.000000E+00

Currently Loaded Modulefiles:
  1) intel/2017.4         2) perf-reports/7.0.6

Job script resource usage:
       JobID  MaxVMSize     MaxRSS 
------------ ---------- ---------- 
28610805.ba+    216884K      2444K 

Job step resource usage:
       JobID    JobName  AllocCPUS  MaxVMSize     MaxRSS    Elapsed ExitCode 
------------ ---------- ---------- ---------- ---------- ---------- -------- 
28610805        jobname          4                         00:00:17      0:0 
28610805.0    pmi_proxy          1    279832K       531K   00:00:16      0:0 

Job 28610805 ("jobname") completed on c16-3 at Thu Nov 28 12:44:12 CET 2019
