unknown system                          
   4.00000000000000     
     1.000000    0.000000    0.000000
     0.000000    1.000000    0.000000
     0.000000    0.000000    1.000000
   Pt
     4
Direct
 -0.005000  0.000000  0.000000
  0.000000  0.500000  0.500000
  0.500000  0.000000  0.500000
  0.500000  0.500000  0.000000
 
   60   60   60
 0.24476951735E+03 0.24009968167E+03 0.23029588225E+03 0.21686156330E+03 0.20156944040E+03
 0.18594779617E+03 0.17089869142E+03 0.15657705692E+03 0.14255656837E+03 0.12819684461E+03
 0.11305210812E+03 0.97154688337E+02 0.81069449829E+02 0.65717478409E+02 0.52061849310E+02
 0.40793221152E+02 0.32133916419E+02 0.25813912471E+02 0.21199322414E+02 0.17688519152E+02
 0.15047594368E+02 0.13075887996E+02 0.11596653627E+02 0.10476038518E+02 0.96223632725E+01
 0.89762597248E+01 0.84990448970E+01 0.81636027220E+01 0.79494159915E+01 0.78413201054E+01
 0.78303521185E+01 0.79148993195E+01 0.81009563143E+01 0.84012638523E+01 0.88341274956E+01
 0.94235372854E+01 0.10202430843E+02 0.11220176111E+02 0.12553573416E+02 0.14318208648E+02
 0.16674038663E+02 0.19815799330E+02 0.23943533024E+02 0.29487208787E+02 0.37143871050E+02
 0.47349982103E+02 0.60085896042E+02 0.74833546511E+02 0.90705888792E+02 0.10672542055E+03
 0.12215551174E+03 0.13674705466E+03 0.15078198241E+03 0.16487376415E+03 0.17959012798E+03
 0.19504701003E+03 0.21064553286E+03 0.22507420226E+03 0.23659673387E+03 0.24353382308E+03
 0.24180006997E+03 0.23723331638E+03 0.22764288327E+03 0.21449330982E+03 0.19950961709E+03
 0.18417602839E+03 0.16936480628E+03 0.15522103997E+03 0.14132780126E+03 0.12706689162E+03
 0.11201786413E+03 0.96232258396E+02 0.80282244791E+02 0.65083576262E+02 0.51585158799E+02
 0.40460810336E+02 0.31919213600E+02 0.25683453972E+02 0.21120574791E+02 0.17645376402E+02
 0.15030751552E+02 0.13077781291E+02 0.11611764707E+02 0.10500606450E+02 0.96538978378E+01
 0.90130744695E+01 0.85399017085E+01 0.82074846053E+01 0.79954039908E+01 0.78885353316E+01
 0.78779286503E+01 0.79619677978E+01 0.81466296126E+01 0.84446182268E+01 0.88741640259E+01
 0.94590939174E+01 0.10232005259E+02 0.11241625870E+02 0.12563689984E+02 0.14312222198E+02
 0.16645214872E+02 0.19755448980E+02 0.23840494828E+02 0.29313861015E+02 0.36866191246E+02
 0.46937810636E+02 0.59520250336E+02 0.74111565588E+02 0.89840675052E+02 0.10573952582E+03
 0.12106938052E+03 0.13556621275E+03 0.14948808087E+03 0.16342379922E+03 0.17792559308E+03
 0.19311115055E+03 0.20840380820E+03 0.22253153799E+03 0.23380580924E+03 0.24059119933E+03
 0.23338554954E+03 0.22910823776E+03 0.22011634356E+03 0.20776388127E+03 0.19364081267E+03
 0.17910739175E+03 0.16495326512E+03 0.15129817834E+03 0.13775453783E+03 0.12376911195E+03
 0.10899412750E+03 0.93534940740E+02 0.77982486427E+02 0.63234730132E+02 0.50197729597E+02
 0.39495531103E+02 0.31297066640E+02 0.25305780894E+02 0.20892808586E+02 0.17522529264E+02
 0.14985441078E+02 0.13087821924E+02 0.11660990588E+02 0.10577994248E+02 0.97521288556E+01
 0.91271650467E+01 0.86661656147E+01 0.83428731554E+01 0.81371509652E+01 0.80339907082E+01
 0.80244805109E+01 0.81069940046E+01 0.82874552905E+01 0.85784611112E+01 0.89980242103E+01
 0.95695011227E+01 0.10324505877E+02 0.11309909186E+02 0.12598340840E+02 0.14299262666E+02
 0.16564899244E+02 0.19582238218E+02 0.23542562625E+02 0.28812336320E+02 0.36061002996E+02
 0.45739618200E+02 0.57872074698E+02 0.72003814585E+02 0.87311492602E+02 0.10285662056E+03
 0.11789679616E+03 0.13212691469E+03 0.14573705792E+03 0.15924448021E+03 0.17315489457E+03
 0.18758825501E+03 0.20202868339E+03 0.21531474103E+03 0.22589285809E+03 0.23225216370E+03
 0.22085127829E+03 0.21699580534E+03 0.20887454291E+03 0.19767656070E+03 0.18479163118E+03
 0.17139871492E+03 0.15817047043E+03 0.14519689206E+03 0.13214221699E+03 0.11855603739E+03
 0.10420097807E+03 0.89260108758E+02 0.74345970760E+02 0.60321632341E+02 0.48021140485E+02
 0.37988281582E+02 0.30329698190E+02 0.24719464750E+02 0.20540480354E+02 0.17338890138E+02
 0.14926596265E+02 0.13118437997E+02 0.11755386193E+02 0.10718641357E+02 0.99273281456E+01
 0.93288628144E+01 0.88883152212E+01 0.85804041557E+01 0.83854222771E+01 0.82885383630E+01
 0.82808988802E+01 0.83608598145E+01 0.85342601406E+01 0.88135280929E+01 0.92163425775E+01
 0.97653411208E+01 0.10490622631E+02 0.11436168436E+02 0.12669737388E+02 0.14293577494E+02
 0.16450708591E+02 0.19318703955E+02 0.23081070655E+02 0.28034956753E+02 0.34807409950E+02
 0.43864591542E+02 0.55280445784E+02 0.68675976788E+02 0.83306509488E+02 0.98286188617E+02
 0.11287458957E+03 0.12670956149E+03 0.13987957410E+03 0.15279057144E+03 0.16587136618E+03
 0.17923694514E+03 0.19245497134E+03 0.20452429185E+03 0.21409056671E+03 0.21982843608E+03
 0.20594260198E+03 0.20256792539E+03 0.19543601645E+03 0.18554102524E+03 0.17403875652E+03
 0.16190097379E+03 0.14967397772E+03 0.13742769565E+03 0.12490245697E+03 0.11177984328E+03
 0.97955815385E+02 0.83699492475E+02 0.69636099741E+02 0.56571182028E+02 0.45238237122E+02
 0.36075022069E+02 0.29109298606E+02 0.23980810766E+02 0.20101202379E+02 0.17123333217E+02
 0.14876857180E+02 0.13188353097E+02 0.11911535152E+02 0.10938189983E+02 0.10194917360E+02
 0.96337453365E+01 0.92222362665E+01 0.89362907250E+01 0.87567049405E+01 0.86688486618E+01
 0.86639298801E+01 0.87402751368E+01 0.89036132570E+01 0.91661670125E+01 0.95452188363E+01
 0.10062543080E+02 0.10746375945E+02 0.11637071187E+02 0.12796174763E+02 0.14316613962E+02
 0.16329342878E+02 0.18999269445E+02 0.22501322455E+02 0.27058763450E+02 0.33223284431E+02
 0.41476640460E+02 0.51954826972E+02 0.64377071843E+02 0.78105769359E+02 0.92333738511E+02
 0.10633762698E+03 0.11969678118E+03 0.13238013185E+03 0.14465425680E+03 0.15684341776E+03
 0.16904119188E+03 0.18090046453E+03 0.19160048908E+03 0.20001821297E+03 0.20504679918E+03
 0.19030751408E+03 0.18739914642E+03 0.18122291029E+03 0.17257451326E+03 0.16237546701E+03
 0.15139711017E+03 0.14007472861E+03 0.12847991889E+03 0.11645174720E+03 0.10382041298E+03
 0.90620124526E+02 0.77197087349E+02 0.64168630555E+02 0.52256337042E+02 0.42067881770E+02
 0.33916663551E+02 0.27743051929E+02 0.23153494721E+02 0.19621408099E+02 0.16911186952E+02
 0.14863747366E+02 0.13320267914E+02 0.12149597492E+02 0.11255817784E+02 0.10574049688E+02
 0.10061454693E+02 0.96882675252E+01 0.94315763989E+01 0.92726282931E+01 0.91969391171E+01
 0.91957379351E+01 0.92672965826E+01 0.94172256415E+01 0.96575573157E+01 0.10005212913E+02
 0.10481124475E+02 0.11111580173E+02 0.11932960662E+02 0.12999803536E+02 0.14394298711E+02
 0.16233213636E+02 0.18666066265E+02 0.21856606522E+02 0.25972325636E+02 0.31447136561E+02
 0.38771141147E+02 0.48146904399E+02 0.59406462906E+02 0.72042361361E+02 0.85352919343E+02
 0.98655605722E+02 0.11148534010E+03 0.12369204742E+03 0.13539033834E+03 0.14677872349E+03
 0.15790637126E+03 0.16849298054E+03 0.17788803019E+03 0.18519770493E+03 0.18953659318E+03
 0.17505905961E+03 0.17254740555E+03 0.16718037732E+03 0.15957474842E+03 0.15044579334E+03
 0.14039757854E+03 0.12978759030E+03 0.11871639548E+03 0.10713766404E+03 0.95031267267E+02
 0.82556040012E+02 0.70110837139E+02 0.58276297064E+02 0.47663842122E+02 0.38736977176E+02
 0.31676470058E+02 0.26336282605E+02 0.22298189414E+02 0.19151196387E+02 0.16740323370E+02
 0.14916842099E+02 0.13538913004E+02 0.12492099402E+02 0.11693674383E+02 0.11087641869E+02
 0.10636287857E+02 0.10312304515E+02 0.10093683992E+02 0.99618598340E+01 0.99022905735E+01
 0.99060956301E+01 0.99714369019E+01 0.10103831574E+02 0.10315234088E+02 0.10622407646E+02
 0.11045713087E+02 0.11609761183E+02 0.12347104130E+02 0.13305121349E+02 0.14554641532E+02
 0.16196981527E+02 0.18364224018E+02 0.21206050015E+02 0.24860993274E+02 0.29617721142E+02
 0.35948945522E+02 0.44119851318E+02 0.54079642040E+02 0.65465456915E+02 0.77704701373E+02
 0.90184243195E+02 0.10242161351E+03 0.11416627552E+03 0.12538581083E+03 0.13614266047E+03
 0.14641812576E+03 0.15596702833E+03 0.16427517526E+03 0.17064743325E+03 0.17439670086E+03
 0.16056894126E+03 0.15835940112E+03 0.15360633430E+03 0.14678242444E+03 0.13844259540E+03
 0.12907139913E+03 0.11898845501E+03 0.10834738480E+03 0.97220384830E+02 0.85721439887E+02
 0.74104501844E+02 0.62786268395E+02 0.52279627370E+02 0.43065144516E+02 0.35454330281E+02
 0.29498803758E+02 0.24976775890E+02 0.21475708341E+02 0.18739418361E+02 0.16647890561E+02
 0.15065983231E+02 0.13870571677E+02 0.12964629861E+02 0.12278656526E+02 0.11765152436E+02
 0.11390900649E+02 0.11130331669E+02 0.10961646384E+02 0.10865868805E+02 0.10827945404E+02
 0.10838596172E+02 0.10895763246E+02 0.11004951244E+02 0.11178314077E+02 0.11432926372E+02
 0.11789215035E+02 0.12270857920E+02 0.12907321860E+02 0.13739415797E+02 0.14826852765E+02
 0.16255174069E+02 0.18137805690E+02 0.20607768185E+02 0.23793429265E+02 0.27854980121E+02
 0.33191984004E+02 0.40120055687E+02 0.48698660197E+02 0.58712487291E+02 0.69733672673E+02
 0.81246032928E+02 0.92784061490E+02 0.10402952334E+03 0.11482495582E+03 0.12510085578E+03
 0.13475422246E+03 0.14354044654E+03 0.15103580067E+03 0.15669600564E+03 0.15999211961E+03
 0.14655193293E+03 0.14455692343E+03 0.14024104992E+03 0.13397331469E+03 0.12619903013E+03
 0.11733185383E+03 0.10768823195E+03 0.97487611864E+02 0.86909618760E+02 0.76172047878E+02
 0.65584121180E+02 0.55542464641E+02 0.46465730989E+02 0.38693281213E+02 0.32389575507E+02
 0.27492306812E+02 0.23722955305E+02 0.20744472432E+02 0.18430253290E+02 0.16668813106E+02
 0.15341546909E+02 0.14344965526E+02 0.13599218235E+02 0.13047166643E+02 0.12648610980E+02
 0.12373485169E+02 0.12196602074E+02 0.12095112418E+02 0.12048550694E+02 0.12040516338E+02
 0.12060794570E+02 0.12106912395E+02 0.12184527401E+02 0.12306517655E+02 0.12491128267E+02
 0.12759998195E+02 0.13137231543E+02 0.13650673922E+02 0.14335984112E+02 0.15242942936E+02
 0.16441995079E+02 0.18027645091E+02 0.20114301540E+02 0.22819934897E+02 0.26245346508E+02
 0.30643782826E+02 0.36354438480E+02 0.43529533075E+02 0.52091500694E+02 0.61761068275E+02
 0.72139313845E+02 0.82812012107E+02 0.93433701010E+02 0.10375736060E+03 0.11360117047E+03
 0.12277462424E+03 0.13100691790E+03 0.13792030464E+03 0.14306985063E+03 0.14603888835E+03
 0.13238707300E+03 0.13055013195E+03 0.12656284270E+03 0.12072723161E+03 0.11342273900E+03
 0.10502982995E+03 0.95882099104E+02 0.86261638426E+02 0.76429897945E+02 0.66668327384E+02
 0.57298679311E+02 0.48664115755E+02 0.41072921422E+02 0.34726091007E+02 0.29658677342E+02
 0.25719362053E+02 0.22612194466E+02 0.20153521908E+02 0.18262277175E+02 0.16836807314E+02
 0.15777225869E+02 0.14999647834E+02 0.14440192173E+02 0.14052287892E+02 0.13800958199E+02
 0.13657115346E+02 0.13593819744E+02 0.13585188003E+02 0.13607542668E+02 0.13641788492E+02
 0.13675907702E+02 0.13706700444E+02 0.13740256495E+02 0.13791033991E+02 0.13879822268E+02
 0.14031273063E+02 0.14272034765E+02 0.14630640757E+02 0.15139946466E+02 0.15841986946E+02
 0.16793850094E+02 0.18071926458E+02 0.19771023760E+02 0.21994592454E+02 0.24833286956E+02
 0.28396700110E+02 0.32974416888E+02 0.38785783211E+02 0.45869406262E+02 0.54085058677E+02
 0.63159465439E+02 0.72756838787E+02 0.82544851470E+02 0.92229718795E+02 0.10154999894E+03
 0.11024030334E+03 0.11799220959E+03 0.12444189066E+03 0.12920074902E+03 0.13192335126E+03
 0.11753200578E+03 0.11583748669E+03 0.11215689574E+03 0.10675182557E+03 0.99964841377E+02
 0.92163240347E+02 0.83699947764E+02 0.74900937683E+02 0.66073737149E+02 0.57520469091E+02
 0.49537384913E+02 0.42391368075E+02 0.36277679589E+02 0.31274848560E+02 0.27316249064E+02
 0.24193070150E+02 0.21691013856E+02 0.19742375787E+02 0.18270300170E+02 0.17187801569E+02
 0.16414783977E+02 0.15885875837E+02 0.15550951747E+02 0.15371239889E+02 0.15313966823E+02
 0.15347934034E+02 0.15441427276E+02 0.15562708049E+02 0.15682422844E+02 0.15776846731E+02
 0.15830912841E+02 0.15840251626E+02 0.15811792573E+02 0.15762803902E+02 0.15718575706E+02
 0.15709313969E+02 0.15767179918E+02 0.15924632804E+02 0.16215066296E+02 0.16676011222E+02
 0.17354048299E+02 0.18309425683E+02 0.19617579735E+02 0.21364521790E+02 0.23633636399E+02
 0.26486317639E+02 0.30066238309E+02 0.34615945072E+02 0.40260129637E+02 0.46975905351E+02
 0.54610298365E+02 0.62920935007E+02 0.71621614759E+02 0.80414318802E+02 0.88998091444E+02
 0.97059066312E+02 0.10425732884E+03 0.11022914333E+03 0.11461539841E+03 0.11711293666E+03
 0.10185829396E+03 0.10032551382E+03 0.97002020339E+02 0.92122955243E+02 0.86006122790E+02
 0.79007543228E+02 0.71485750214E+02 0.63781328558E+02 0.56209029538E+02 0.49053254347E+02
 0.42557346566E+02 0.36902729780E+02 0.32182186971E+02 0.28377723193E+02 0.25354357662E+02
 0.22917070134E+02 0.20996945840E+02 0.19543672452E+02 0.18489256952E+02 0.17764589279E+02
 0.17309097906E+02 0.17073683823E+02 0.17018698371E+02 0.17109378300E+02 0.17311151783E+02
 0.17586689364E+02 0.17895616864E+02 0.18196751426E+02 0.18451960510E+02 0.18630477533E+02
 0.18712647588E+02 0.18692390376E+02 0.18577980730E+02 0.18391016329E+02 0.18163712601E+02
 0.17934997731E+02 0.17746275900E+02 0.17638047727E+02 0.17648567320E+02 0.17815175242E+02
 0.18177948086E+02 0.18784208263E+02 0.19691649828E+02 0.20967578566E+02 0.22682126362E+02
 0.24894473672E+02 0.27647196286E+02 0.31093859317E+02 0.35409395469E+02 0.40658183384E+02
 0.46789950308E+02 0.53656798994E+02 0.61039357762E+02 0.68670584085E+02 0.76250070522E+02
 0.83449631892E+02 0.89918143725E+02 0.95295857019E+02 0.99244104389E+02 0.10148762444E+03
 0.85779214300E+02 0.84445342579E+02 0.81563826102E+02 0.77346365214E+02 0.72084323410E+02
 0.66111186455E+02 0.59768247117E+02 0.53378742223E+02 0.47230275595E+02 0.41561545239E+02
 0.36549112736E+02 0.32292976482E+02 0.28803949425E+02 0.25998631027E+02 0.23725674854E+02
 0.21920945680E+02 0.20557140802E+02 0.19587388208E+02 0.18958559962E+02 0.18620672949E+02
 0.18530903518E+02 0.18652893911E+02 0.18953006464E+02 0.19395607345E+02 0.19939383582E+02
 0.20536114128E+02 0.21132369938E+02 0.21673651609E+02 0.22109846812E+02 0.22400777283E+02
 0.22520719537E+02 0.22461230378E+02 0.22232552398E+02 0.21862073187E+02 0.21391305493E+02
 0.20871144979E+02 0.20356228571E+02 0.19899711652E+02 0.19549788865E+02 0.19348925455E+02
 0.19335895824E+02 0.19549676027E+02 0.20033415880E+02 0.20836383577E+02 0.22011979305E+02
 0.23610656035E+02 0.25667946973E+02 0.28212790501E+02 0.31377935893E+02 0.35281523450E+02
 0.39950186705E+02 0.45319296521E+02 0.51243122030E+02 0.57508698299E+02 0.63849102919E+02
 0.69955808838E+02 0.75493581700E+02 0.80122542028E+02 0.83529425021E+02 0.85464943749E+02
 0.70136479240E+02 0.69035822676E+02 0.66671084794E+02 0.63226824498E+02 0.58958849370E+02
 0.54161585321E+02 0.49135590535E+02 0.44159926397E+02 0.39470992565E+02 0.35247070903E+02
 0.31597177495E+02 0.28553919523E+02 0.26071750600E+02 0.24045347792E+02 0.22432301889E+02
 0.21223680833E+02 0.20392817990E+02 0.19904934604E+02 0.19724870583E+02 0.19820851105E+02
 0.20164248762E+02 0.20726323807E+02 0.21473559507E+02 0.22363440308E+02 0.23342316070E+02
 0.24351770614E+02 0.25332809569E+02 0.26213780823E+02 0.26919559224E+02 0.27384546631E+02
 0.27564286797E+02 0.27443480884E+02 0.27038848916E+02 0.26396229946E+02 0.25582418546E+02
 0.24673297025E+02 0.23740630690E+02 0.22842940459E+02 0.22037984106E+02 0.21379344654E+02
 0.20910905630E+02 0.20669448736E+02 0.20688628058E+02 0.21002548168E+02 0.21647210418E+02
 0.22658538230E+02 0.24066531059E+02 0.25886301680E+02 0.28129307632E+02 0.30890061190E+02
 0.34243193089E+02 0.38187893637E+02 0.42646636977E+02 0.47469970148E+02 0.52445517562E+02
 0.57311007660E+02 0.61772608603E+02 0.65529898263E+02 0.68306929583E+02 0.69885807101E+02
 0.55914063668E+02 0.55061524307E+02 0.53243590683E+02 0.50612266751E+02 0.47378146019E+02
 0.43782483927E+02 0.40068131655E+02 0.36453635286E+02 0.33113058223E+02 0.30162389223E+02
 0.27652416090E+02 0.25567824632E+02 0.23847892888E+02 0.22484321625E+02 0.21482826599E+02
 0.20834580288E+02 0.20523402555E+02 0.20531348715E+02 0.20841301343E+02 0.21436258621E+02
 0.22295931788E+02 0.23391945351E+02 0.24684115048E+02 0.26140030256E+02 0.27724387244E+02
 0.29364874730E+02 0.30957909886E+02 0.32382034018E+02 0.33515212490E+02 0.34253289885E+02
 0.34526390529E+02 0.34310244437E+02 0.33630257996E+02 0.32557472816E+02 0.31197120803E+02
 0.29671941290E+02 0.28103434347E+02 0.26594495105E+02 0.25216340925E+02 0.24003449290E+02
 0.22988336442E+02 0.22212748205E+02 0.21708229389E+02 0.21499270454E+02 0.21606920389E+02
 0.22050621531E+02 0.22847319214E+02 0.24007661382E+02 0.25530046812E+02 0.27404316969E+02
 0.29677889159E+02 0.32390539130E+02 0.35519053121E+02 0.38974824129E+02 0.42607808491E+02
 0.46216847014E+02 0.49566825191E+02 0.52412404503E+02 0.54526458203E+02 0.55729375306E+02
 0.43909953916E+02 0.43293666395E+02 0.41993264946E+02 0.40125045483E+02 0.37849250502E+02
 0.35347308707E+02 0.32797709327E+02 0.30354302315E+02 0.28129794793E+02 0.26185879032E+02
 0.24530411354E+02 0.23151312917E+02 0.22072437117E+02 0.21310545132E+02 0.20871987717E+02
 0.20758076174E+02 0.20968850582E+02 0.21504143620E+02 0.22361634508E+02 0.23532453970E+02
 0.24995658314E+02 0.26735006862E+02 0.28766043070E+02 0.31064985961E+02 0.33554249945E+02
 0.36107445605E+02 0.38561318831E+02 0.40734027005E+02 0.42447908529E+02 0.43553632002E+02
 0.43951739701E+02 0.43607615733E+02 0.42556879691E+02 0.40900044941E+02 0.38787439876E+02
 0.36397367529E+02 0.33911622237E+02 0.31492579915E+02 0.29265143755E+02 0.27305386426E+02
 0.25636301443E+02 0.24242857492E+02 0.23143074874E+02 0.22360792840E+02 0.21908234869E+02
 0.21790443823E+02 0.22008474578E+02 0.22560301743E+02 0.23439155039E+02 0.24629811067E+02
 0.26105179448E+02 0.27860431578E+02 0.29905063081E+02 0.32200141737E+02 0.34654208747E+02
 0.37129635219E+02 0.39456085576E+02 0.41450280416E+02 0.42939773248E+02 0.43787091775E+02
 0.34496153594E+02 0.34080019817E+02 0.33215402799E+02 0.31983870155E+02 0.30496773631E+02
 0.28877896307E+02 0.27245016555E+02 0.25693524110E+02 0.24284595921E+02 0.23046608695E+02
 0.22017723778E+02 0.21234750914E+02 0.20723117854E+02 0.20501654120E+02 0.20587139039E+02
 0.20997010296E+02 0.21749112495E+02 0.22858129005E+02 0.24329306138E+02 0.26153301223E+02
 0.28359356972E+02 0.31002230807E+02 0.34077742371E+02 0.37515200419E+02 0.41180164575E+02
 0.44883487377E+02 0.48396904776E+02 0.51475089755E+02 0.53882852820E+02 0.55424376693E+02
 0.55969792187E+02 0.55473903062E+02 0.53982977212E+02 0.51627969437E+02 0.48605666500E+02
 0.45151816351E+02 0.41511565837E+02 0.37912105087E+02 0.34540783838E+02 0.31530025380E+02
 0.28948976140E+02 0.26801376923E+02 0.25033448564E+02 0.23617935135E+02 0.22566670559E+02
 0.21876895650E+02 0.21535534454E+02 0.21524632991E+02 0.21824317454E+02 0.22412805750E+02
 0.23263913346E+02 0.24343175016E+02 0.25607926462E+02 0.27030745020E+02 0.28566984039E+02
 0.30134919649E+02 0.31624483161E+02 0.32911859409E+02 0.33877604940E+02 0.34425138412E+02
 0.27542444970E+02 0.27275669345E+02 0.26734115028E+02 0.25969563628E+02 0.25051761190E+02
 0.24056138120E+02 0.23050885608E+02 0.22093038858E+02 0.21241300215E+02 0.20545951709E+02
 0.20046466171E+02 0.19774422966E+02 0.19758055794E+02 0.20026692432E+02 0.20613261131E+02
 0.21553395222E+02 0.22880418972E+02 0.24616633016E+02 0.26768829045E+02 0.29409011139E+02
 0.32632041221E+02 0.36460339436E+02 0.40837950711E+02 0.45634138711E+02 0.50651817780E+02
 0.55639904972E+02 0.60310348846E+02 0.64361227096E+02 0.67506138296E+02 0.69507330924E+02
 0.70207107175E+02 0.69550585969E+02 0.67594014462E+02 0.64496364427E+02 0.60496387225E+02
 0.55880933279E+02 0.50951553263E+02 0.45994996730E+02 0.41260280265E+02 0.36942109353E+02
 0.33169150216E+02 0.29996200819E+02 0.27400973996E+02 0.25290033460E+02 0.23593415922E+02
 0.22306329321E+02 0.21408149234E+02 0.20866280844E+02 0.20644344062E+02 0.20706873342E+02
 0.21020173242E+02 0.21550072787E+02 0.22258042338E+02 0.23097458680E+02 0.24012109977E+02
 0.24945358686E+02 0.25834910066E+02 0.26606406960E+02 0.27185296852E+02 0.27509911179E+02
 0.22504107891E+02 0.22333076288E+02 0.21996991462E+02 0.21526210530E+02 0.20964405570E+02
 0.20363590550E+02 0.19778483275E+02 0.19261300382E+02 0.18858243853E+02 0.18608662076E+02
 0.18547110083E+02 0.18707529631E+02 0.19127903165E+02 0.19853298843E+02 0.20935298357E+02
 0.22426380762E+02 0.24369003466E+02 0.26787050117E+02 0.29782041093E+02 0.33495476079E+02
 0.37982785769E+02 0.43205487483E+02 0.49039132651E+02 0.55287012224E+02 0.61694380566E+02
 0.67961409630E+02 0.73757262257E+02 0.78739838253E+02 0.82584374225E+02 0.85019486688E+02
 0.85863968779E+02 0.85054603458E+02 0.82656485791E+02 0.78852439511E+02 0.73914937462E+02
 0.68169057530E+02 0.61956272662E+02 0.55605842837E+02 0.49415275845E+02 0.43636673613E+02
 0.38464331810E+02 0.34021062851E+02 0.30344869612E+02 0.27381086078E+02 0.24989964900E+02
 0.23071856518E+02 0.21604326977E+02 0.20545887348E+02 0.19844147640E+02 0.19446445743E+02
 0.19305342990E+02 0.19379266294E+02 0.19629740860E+02 0.20017230781E+02 0.20497648767E+02
 0.21021104838E+02 0.21533538287E+02 0.21980840044E+02 0.22314329286E+02 0.22496278346E+02
 0.18699276050E+02 0.18589207197E+02 0.18387268206E+02 0.18116717730E+02 0.17810931353E+02
 0.17509395097E+02 0.17253400559E+02 0.17082542351E+02 0.17033160267E+02 0.17139450493E+02
 0.17437083867E+02 0.17968097427E+02 0.18784968337E+02 0.19951394812E+02 0.21537486415E+02
 0.23607956891E+02 0.26206065726E+02 0.29441652479E+02 0.33510485635E+02 0.38513245785E+02
 0.44433260330E+02 0.51148459072E+02 0.58456145674E+02 0.66098881419E+02 0.73782414539E+02
 0.81183800895E+02 0.87955821852E+02 0.93737853013E+02 0.98180983478E+02 0.10098740263E+03
 0.10195499451E+03 0.10101278674E+03 0.98234308349E+02 0.93823759816E+02 0.88080187952E+02
 0.81352674700E+02 0.74000913369E+02 0.66370224068E+02 0.58780972562E+02 0.51524565650E+02
 0.44855818496E+02 0.38975500887E+02 0.34004803066E+02 0.29960684628E+02 0.26743761436E+02
 0.24160128392E+02 0.22101407876E+02 0.20525237160E+02 0.19367307535E+02 0.18557203426E+02
 0.18030087838E+02 0.17731505260E+02 0.17616724811E+02 0.17646943414E+02 0.17784830864E+02
 0.17991470909E+02 0.18225840005E+02 0.18446854361E+02 0.18617130076E+02 0.18707228642E+02
 0.15819981879E+02 0.15755485443E+02 0.15654019402E+02 0.15533458119E+02 0.15419522089E+02
 0.15342588001E+02 0.15334568248E+02 0.15426958785E+02 0.15651074176E+02 0.16040910800E+02
 0.16638051743E+02 0.17496878881E+02 0.18687472995E+02 0.20293188426E+02 0.22400182552E+02
 0.25077640151E+02 0.28421107702E+02 0.32675354006E+02 0.38009469119E+02 0.44445379288E+02
 0.51865578455E+02 0.60048401999E+02 0.68714352304E+02 0.77564016829E+02 0.86294492391E+02
 0.94594282294E+02 0.10212957207E+03 0.10854063763E+03 0.11346241783E+03 0.11657034140E+03
 0.11763801223E+03 0.11658497615E+03 0.11349499936E+03 0.10859709978E+03 0.10221728339E+03
 0.94720661377E+02 0.86465714832E+02 0.77784014902E+02 0.68984210493E+02 0.60366187183E+02
 0.52226607976E+02 0.44842890656E+02 0.38435589702E+02 0.33122190399E+02 0.28881723470E+02
 0.25546705739E+02 0.22874043296E+02 0.20769078837E+02 0.19163053236E+02 0.17969837815E+02
 0.17105621469E+02 0.16499354623E+02 0.16095218236E+02 0.15849859955E+02 0.15727429723E+02
 0.15695023382E+02 0.15720213968E+02 0.15771166021E+02 0.15818793195E+02 0.15839869964E+02
 0.13666735920E+02 0.13634796911E+02 0.13605389887E+02 0.13592821959E+02 0.13617799242E+02
 0.13704860316E+02 0.13880235839E+02 0.14171264837E+02 0.14608267327E+02 0.15229000355E+02
 0.16084633565E+02 0.17244929704E+02 0.18799343189E+02 0.20850291681E+02 0.23495363977E+02
 0.26819477054E+02 0.31069032690E+02 0.36510581836E+02 0.43240382115E+02 0.51169562240E+02
 0.60057735537E+02 0.69578821848E+02 0.79391647502E+02 0.89186542977E+02 0.98691686792E+02
 0.10764396798E+03 0.11574797872E+03 0.12265366275E+03 0.12797407261E+03 0.13134425341E+03
 0.13250058621E+03 0.13134791260E+03 0.12798542224E+03 0.12267989023E+03 0.11579794346E+03
 0.10772651850E+03 0.98814166233E+02 0.89353726606E+02 0.79605192036E+02 0.69837198132E+02
 0.60356577513E+02 0.51502356747E+02 0.43599400447E+02 0.36887904852E+02 0.31457477869E+02
 0.27213241597E+02 0.23890265253E+02 0.21243294632E+02 0.19187774325E+02 0.17626218255E+02
 0.16456066792E+02 0.15587460458E+02 0.14949974931E+02 0.14491572378E+02 0.14173538375E+02
 0.13964698358E+02 0.13837201923E+02 0.13764880650E+02 0.13723982220E+02 0.13695326605E+02
 0.12052837895E+02 0.12043689698E+02 0.12065077229E+02 0.12129209129E+02 0.12253889761E+02
 0.12460408711E+02 0.12772210898E+02 0.13215532953E+02 0.13822782223E+02 0.14638441324E+02
 0.15725906848E+02 0.17172274953E+02 0.19086949611E+02 0.21589400427E+02 0.24783149714E+02
 0.28849280942E+02 0.34145860128E+02 0.40891491579E+02 0.49078793800E+02 0.58483031320E+02
 0.68730097069E+02 0.79398355757E+02 0.90113185529E+02 0.10059546631E+03 0.11064656375E+03
 0.12008324389E+03 0.12866109094E+03 0.13603153701E+03 0.14176188261E+03 0.14541728466E+03
 0.14667317068E+03 0.14541059855E+03 0.14175311627E+03 0.13602890810E+03 0.12867474183E+03
 0.12012333252E+03 0.11072158593E+03 0.10071110062E+03 0.90271749136E+02 0.79598811041E+02
 0.68968488641E+02 0.58753230449E+02 0.49373430586E+02 0.41202936939E+02 0.34467096217E+02
 0.29174507234E+02 0.25108033953E+02 0.21910908856E+02 0.19402510476E+02 0.17479365759E+02
 0.16021959108E+02 0.14920747792E+02 0.14088399154E+02 0.13461184327E+02 0.12994227164E+02
 0.12654751260E+02 0.12416306417E+02 0.12255532259E+02 0.12151627447E+02 0.12087706110E+02
 0.10831442119E+02 0.10838314908E+02 0.10895757075E+02 0.11014902546E+02 0.11212126567E+02
 0.11507282013E+02 0.11923067233E+02 0.12486772858E+02 0.13235050601E+02 0.14221121764E+02
 0.15522267797E+02 0.17243848977E+02 0.19514717391E+02 0.22468272119E+02 0.26231485114E+02
 0.31143621191E+02 0.37581221574E+02 0.45687627649E+02 0.55328233366E+02 0.66128549875E+02
 0.77583425890E+02 0.89197494364E+02 0.10060000378E+03 0.11158573356E+03 0.12206620390E+03
 0.13195750405E+03 0.14106210855E+03 0.14900644335E+03 0.15527116413E+03 0.15930852119E+03
 0.16070067648E+03 0.15929287534E+03 0.15524483359E+03 0.14897831761E+03 0.14104323666E+03
 0.13195906549E+03 0.12209769692E+03 0.11165371254E+03 0.10070748896E+03 0.89344001985E+02
 0.77765472720E+02 0.66340464554E+02 0.55563116811E+02 0.45938312986E+02 0.37841090046E+02
 0.31407154932E+02 0.26494496081E+02 0.22727822457E+02 0.19768538046E+02 0.17489674639E+02
 0.15757777482E+02 0.14443950197E+02 0.13442795611E+02 0.12676982424E+02 0.12093213874E+02
 0.11654756871E+02 0.11334293067E+02 0.11109232830E+02 0.10960041285E+02 0.10870900435E+02
 0.98994529053E+01 0.99178456696E+01 0.10001509831E+02 0.10161136751E+02 0.10412587865E+02
 0.10775419677E+02 0.11272879727E+02 0.11934676082E+02 0.12803020549E+02 0.13940990985E+02
 0.15440465332E+02 0.17425025339E+02 0.20041547956E+02 0.23433613020E+02 0.27805455188E+02
 0.33625313227E+02 0.41241079908E+02 0.50702316069E+02 0.61734387376E+02 0.73812329281E+02
 0.86315318922E+02 0.98704955716E+02 0.11065404794E+03 0.12206948636E+03 0.13299834991E+03
 0.14346019508E+03 0.15328451256E+03 0.16203274954E+03 0.16904828599E+03 0.17362153971E+03
 0.17520619889E+03 0.17359882895E+03 0.16900794031E+03 0.16198392093E+03 0.15323869344E+03
 0.14342918189E+03 0.13299236908E+03 0.12209583738E+03 0.11071643362E+03 0.98803484870E+02
 0.86447038661E+02 0.73972088101E+02 0.61915828451E+02 0.50898825845E+02 0.41446554472E+02
 0.33834653190E+02 0.28014760800E+02 0.23640117164E+02 0.20243268852E+02 0.17620038533E+02
 0.15626751016E+02 0.14116501370E+02 0.12965747495E+02 0.12082690668E+02 0.11404336267E+02
 0.10888542819E+02 0.10505676309E+02 0.10232611500E+02 0.10050012709E+02 0.99423674294E+01
 0.91894232841E+01 0.92163292174E+01 0.93195932888E+01 0.95098067895E+01 0.98028178178E+01
 0.10218517224E+02 0.10781412395E+02 0.11524332868E+02 0.12495621461E+02 0.13768492514E+02
 0.15449217171E+02 0.17678638037E+02 0.20619515162E+02 0.24427342679E+02 0.29433080256E+02
 0.36168304546E+02 0.44936649243E+02 0.55684890461E+02 0.67997929073E+02 0.81212031763E+02
 0.94614997624E+02 0.10765845264E+03 0.12009299873E+03 0.13196380136E+03 0.14346359977E+03
 0.15470526476E+03 0.16551578182E+03 0.17534833993E+03 0.18336077518E+03 0.18863818836E+03
 0.19047572590E+03 0.18861048712E+03 0.18331035637E+03 0.17528425033E+03 0.16544950810E+03
 0.15464878084E+03 0.14342750677E+03 0.13195591847E+03 0.12011761507E+03 0.10771627200E+03
 0.94703655189E+02 0.81326970682E+02 0.68133403841E+02 0.55834896956E+02 0.45095643863E+02
 0.36331645750E+02 0.29597192004E+02 0.24589653132E+02 0.20778229274E+02 0.17832140267E+02
 0.15595775133E+02 0.13906342500E+02 0.12623064196E+02 0.11639799969E+02 0.10883488635E+02
 0.10305928367E+02 0.98744115403E+01 0.95645552218E+01 0.93566309000E+01 0.92350183918E+01
 0.86578452847E+01 0.86911300437E+01 0.88092277449E+01 0.90227832653E+01 0.93478553692E+01
 0.98049450530E+01 0.10420093716E+02 0.11229421487E+02 0.12287317949E+02 0.13676629151E+02
 0.15516934024E+02 0.17964526476E+02 0.21195418280E+02 0.25390657151E+02 0.31010938545E+02
 0.38609494863E+02 0.48439851062E+02 0.60347564301E+02 0.73788411388E+02 0.87980987409E+02
 0.10214936838E+03 0.11576346159E+03 0.12867346111E+03 0.14107227288E+03 0.15329262242E+03
 0.16552089496E+03 0.17755183165E+03 0.18869652768E+03 0.19789516647E+03 0.20400174483E+03
 0.20613636836E+03 0.20397097590E+03 0.19783838567E+03 0.18862242184E+03 0.17747153861E+03
 0.16544618527E+03 0.15323411536E+03 0.14103803207E+03 0.12866820148E+03 0.11578843539E+03
 0.10220283461E+03 0.88059055451E+02 0.73886012641E+02 0.60459340078E+02 0.48560821168E+02
 0.38735455382E+02 0.31138605792E+02 0.25517619711E+02 0.21319975197E+02 0.18085263902E+02
 0.15632341757E+02 0.13785170370E+02 0.12387533304E+02 0.11320004606E+02 0.10499920922E+02
 0.98730638649E+01 0.94034543790E+01 0.90651706172E+01 0.88378355343E+01 0.87055442597E+01
 0.82749975309E+01 0.83129853604E+01 0.84421080157E+01 0.86731090542E+01 0.90223151268E+01