   4   4   0   0
  0.1600000E+02  0.4000000E-09  0.4000000E-09  0.4000000E-09  0.2000000E-16
  1.000000000000000E-004
  CAR 
 unknown system                          
     15.84886944     -4.56437727  301      7.01409400      1.00000000
     -4.564  0.0000E+00  0.0000E+00
     -4.496  0.0000E+00  0.0000E+00
     -4.428  0.0000E+00  0.0000E+00
     -4.360  0.0000E+00  0.0000E+00
     -4.292  0.0000E+00  0.0000E+00
     -4.224  0.0000E+00  0.0000E+00
     -4.156  0.0000E+00  0.0000E+00
     -4.088  0.0000E+00  0.0000E+00
     -4.020  0.0000E+00  0.0000E+00
     -3.952  0.0000E+00  0.0000E+00
     -3.884  0.0000E+00  0.0000E+00
     -3.816  0.0000E+00  0.0000E+00
     -3.748  0.4757E-17  0.3237E-18
     -3.680  0.1284E-15  0.9063E-17
     -3.612  0.5437E-14  0.3790E-15
     -3.544  0.1813E-12  0.1271E-13
     -3.476  0.4805E-11  0.3397E-12
     -3.408  0.1013E-09  0.7235E-11
     -3.340  0.1700E-08  0.1229E-09
     -3.272  0.2271E-07  0.1668E-08
     -3.203  0.2415E-06  0.1810E-07
     -3.135  0.2044E-05  0.1572E-06
     -3.067  0.1378E-04  0.1095E-05
     -2.999  0.7410E-04  0.6137E-05
     -2.931  0.3180E-03  0.2778E-04
     -2.863  0.1093E-02  0.1022E-03
     -2.795  0.3034E-02  0.3086E-03
     -2.727  0.6907E-02  0.7786E-03
     -2.659  0.1333E-01  0.1686E-02
     -2.591  0.2299E-01  0.3250E-02
     -2.523  0.3751E-01  0.5802E-02
     -2.455  0.5913E-01  0.9825E-02
     -2.387  0.8801E-01  0.1581E-01
     -2.319  0.1207E+00  0.2403E-01
     -2.251  0.1540E+00  0.3451E-01
     -2.183  0.1878E+00  0.4729E-01
     -2.115  0.2211E+00  0.6233E-01
     -2.047  0.2453E+00  0.7903E-01
     -1.979  0.2512E+00  0.9612E-01
     -1.911  0.2394E+00  0.1124E+00
     -1.843  0.2191E+00  0.1273E+00
     -1.775  0.1979E+00  0.1408E+00
     -1.707  0.1820E+00  0.1532E+00
     -1.638  0.1814E+00  0.1655E+00
     -1.570  0.2088E+00  0.1797E+00
     -1.502  0.2734E+00  0.1983E+00
     -1.434  0.3720E+00  0.2236E+00
     -1.366  0.4836E+00  0.2565E+00
     -1.298  0.5754E+00  0.2957E+00
     -1.230  0.6199E+00  0.3379E+00
     -1.162  0.6030E+00  0.3789E+00
     -1.094  0.5241E+00  0.4146E+00
     -1.026  0.4012E+00  0.4419E+00
     -0.958  0.2777E+00  0.4608E+00
     -0.890  0.2068E+00  0.4748E+00
     -0.822  0.2226E+00  0.4900E+00
     -0.754  0.3224E+00  0.5119E+00
     -0.686  0.4664E+00  0.5437E+00
     -0.618  0.5955E+00  0.5842E+00
     -0.550  0.6653E+00  0.6294E+00
     -0.482  0.6807E+00  0.6758E+00
     -0.414  0.6924E+00  0.7229E+00
     -0.346  0.7457E+00  0.7736E+00
     -0.278  0.8273E+00  0.8299E+00
     -0.210  0.8728E+00  0.8893E+00
     -0.142  0.8326E+00  0.9459E+00
     -0.073  0.7369E+00  0.9961E+00
     -0.005  0.7007E+00  0.1044E+01
      0.063  0.8554E+00  0.1102E+01
      0.131  0.1240E+01  0.1186E+01
      0.199  0.1729E+01  0.1304E+01
      0.267  0.2101E+01  0.1447E+01
      0.335  0.2196E+01  0.1596E+01
      0.403  0.2047E+01  0.1736E+01
      0.471  0.1854E+01  0.1862E+01
      0.539  0.1864E+01  0.1989E+01
      0.607  0.2228E+01  0.2140E+01
      0.675  0.2897E+01  0.2337E+01
      0.743  0.3619E+01  0.2584E+01
      0.811  0.4122E+01  0.2864E+01
      0.879  0.4320E+01  0.3158E+01
      0.947  0.4341E+01  0.3453E+01
      1.015  0.4407E+01  0.3753E+01
      1.083  0.4690E+01  0.4072E+01
      1.151  0.5240E+01  0.4429E+01
      1.219  0.5919E+01  0.4832E+01
      1.287  0.6431E+01  0.5269E+01
      1.355  0.6506E+01  0.5712E+01
      1.424  0.6105E+01  0.6127E+01
      1.492  0.5461E+01  0.6499E+01
      1.560  0.4938E+01  0.6835E+01
      1.628  0.4814E+01  0.7162E+01
      1.696  0.5121E+01  0.7511E+01
      1.764  0.5634E+01  0.7894E+01
      1.832  0.6006E+01  0.8303E+01
      1.900  0.5941E+01  0.8707E+01
      1.968  0.5350E+01  0.9071E+01
      2.036  0.4452E+01  0.9374E+01
      2.104  0.3695E+01  0.9626E+01
      2.172  0.3453E+01  0.9861E+01
      2.240  0.3764E+01  0.1012E+02
      2.308  0.4375E+01  0.1041E+02
      2.376  0.5018E+01  0.1076E+02
      2.444  0.5594E+01  0.1114E+02
      2.512  0.6094E+01  0.1155E+02
      2.580  0.6412E+01  0.1199E+02
      2.648  0.6363E+01  0.1242E+02
      2.716  0.5919E+01  0.1282E+02
      2.784  0.5352E+01  0.1319E+02
      2.852  0.5025E+01  0.1353E+02
      2.920  0.5082E+01  0.1388E+02
      2.989  0.5396E+01  0.1424E+02
      3.057  0.5782E+01  0.1464E+02
      3.125  0.6209E+01  0.1506E+02
      3.193  0.6755E+01  0.1552E+02
      3.261  0.7389E+01  0.1602E+02
      3.329  0.7880E+01  0.1656E+02
      3.397  0.8021E+01  0.1710E+02
      3.465  0.7922E+01  0.1764E+02
      3.533  0.7919E+01  0.1818E+02
      3.601  0.8193E+01  0.1874E+02
      3.669  0.8561E+01  0.1932E+02
      3.737  0.8729E+01  0.1991E+02
      3.805  0.8630E+01  0.2050E+02
      3.873  0.8449E+01  0.2108E+02
      3.941  0.8326E+01  0.2164E+02
      4.009  0.8170E+01  0.2220E+02
      4.077  0.7814E+01  0.2273E+02
      4.145  0.7243E+01  0.2322E+02
      4.213  0.6614E+01  0.2367E+02
      4.281  0.6105E+01  0.2409E+02
      4.349  0.5805E+01  0.2448E+02
      4.417  0.5714E+01  0.2487E+02
      4.485  0.5777E+01  0.2527E+02
      4.554  0.5897E+01  0.2567E+02
      4.622  0.5964E+01  0.2607E+02
      4.690  0.5899E+01  0.2647E+02
      4.758  0.5722E+01  0.2686E+02
      4.826  0.5543E+01  0.2724E+02
      4.894  0.5416E+01  0.2761E+02
      4.962  0.5248E+01  0.2797E+02
      5.030  0.4961E+01  0.2830E+02
      5.098  0.4711E+01  0.2862E+02
      5.166  0.4803E+01  0.2895E+02
      5.234  0.5341E+01  0.2931E+02
      5.302  0.6077E+01  0.2973E+02
      5.370  0.6651E+01  0.3018E+02
      5.438  0.6909E+01  0.3065E+02
      5.506  0.6913E+01  0.3112E+02
      5.574  0.6749E+01  0.3158E+02
      5.642  0.6419E+01  0.3202E+02
      5.710  0.5916E+01  0.3242E+02
      5.778  0.5302E+01  0.3278E+02
      5.846  0.4690E+01  0.3310E+02
      5.914  0.4203E+01  0.3339E+02
      5.982  0.3963E+01  0.3366E+02
      6.051  0.4058E+01  0.3393E+02
      6.119  0.4493E+01  0.3424E+02
      6.187  0.5159E+01  0.3459E+02
      6.255  0.5839E+01  0.3499E+02
      6.323  0.6265E+01  0.3541E+02
      6.391  0.6246E+01  0.3584E+02
      6.459  0.5848E+01  0.3623E+02
      6.527  0.5433E+01  0.3660E+02
      6.595  0.5421E+01  0.3697E+02
      6.663  0.5937E+01  0.3738E+02
      6.731  0.6713E+01  0.3783E+02
      6.799  0.7362E+01  0.3833E+02
      6.867  0.7703E+01  0.3886E+02
      6.935  0.7799E+01  0.3939E+02
      7.003  0.7738E+01  0.3992E+02
      7.071  0.7456E+01  0.4042E+02
      7.139  0.6792E+01  0.4089E+02
      7.207  0.5701E+01  0.4127E+02
      7.275  0.4391E+01  0.4157E+02
      7.343  0.3224E+01  0.4179E+02
      7.411  0.2483E+01  0.4196E+02
      7.479  0.2252E+01  0.4211E+02
      7.547  0.2412E+01  0.4228E+02
      7.616  0.2698E+01  0.4246E+02
      7.684  0.2802E+01  0.4265E+02
      7.752  0.2551E+01  0.4283E+02
      7.820  0.2020E+01  0.4296E+02
      7.888  0.1455E+01  0.4306E+02
      7.956  0.1055E+01  0.4313E+02
      8.024  0.8484E+00  0.4319E+02
      8.092  0.7487E+00  0.4324E+02
      8.160  0.6659E+00  0.4329E+02
      8.228  0.5790E+00  0.4333E+02
      8.296  0.5356E+00  0.4336E+02
      8.364  0.5980E+00  0.4340E+02
      8.432  0.7778E+00  0.4346E+02
      8.500  0.1020E+01  0.4353E+02
      8.568  0.1252E+01  0.4361E+02
      8.636  0.1433E+01  0.4371E+02
      8.704  0.1538E+01  0.4381E+02
      8.772  0.1546E+01  0.4392E+02
      8.840  0.1466E+01  0.4402E+02
      8.908  0.1375E+01  0.4411E+02
      8.976  0.1356E+01  0.4421E+02
      9.044  0.1413E+01  0.4430E+02
      9.112  0.1443E+01  0.4440E+02
      9.181  0.1328E+01  0.4449E+02
      9.249  0.1048E+01  0.4456E+02
      9.317  0.7168E+00  0.4461E+02
      9.385  0.4833E+00  0.4464E+02
      9.453  0.4278E+00  0.4467E+02
      9.521  0.5390E+00  0.4471E+02
      9.589  0.7632E+00  0.4476E+02
      9.657  0.1044E+01  0.4483E+02
      9.725  0.1314E+01  0.4492E+02
      9.793  0.1479E+01  0.4502E+02
      9.861  0.1468E+01  0.4512E+02
      9.929  0.1309E+01  0.4521E+02
      9.997  0.1128E+01  0.4529E+02
     10.065  0.1050E+01  0.4536E+02
     10.133  0.1111E+01  0.4543E+02
     10.201  0.1250E+01  0.4552E+02
     10.269  0.1369E+01  0.4561E+02
     10.337  0.1405E+01  0.4571E+02
     10.405  0.1361E+01  0.4580E+02
     10.473  0.1265E+01  0.4589E+02
     10.541  0.1131E+01  0.4596E+02
     10.609  0.9710E+00  0.4603E+02
     10.678  0.8091E+00  0.4609E+02
     10.746  0.6756E+00  0.4613E+02
     10.814  0.6008E+00  0.4617E+02
     10.882  0.6172E+00  0.4621E+02
     10.950  0.7498E+00  0.4627E+02
     11.018  0.9980E+00  0.4633E+02
     11.086  0.1320E+01  0.4642E+02
     11.154  0.1615E+01  0.4653E+02
     11.222  0.1747E+01  0.4665E+02
     11.290  0.1618E+01  0.4676E+02
     11.358  0.1258E+01  0.4685E+02
     11.426  0.8123E+00  0.4690E+02
     11.494  0.4345E+00  0.4693E+02
     11.562  0.2029E+00  0.4695E+02
     11.630  0.1165E+00  0.4695E+02
     11.698  0.1448E+00  0.4696E+02
     11.766  0.2579E+00  0.4698E+02
     11.834  0.4206E+00  0.4701E+02
     11.902  0.5895E+00  0.4705E+02
     11.970  0.7422E+00  0.4710E+02
     12.038  0.9031E+00  0.4716E+02
     12.106  0.1107E+01  0.4724E+02
     12.174  0.1319E+01  0.4733E+02
     12.243  0.1421E+01  0.4742E+02
     12.311  0.1313E+01  0.4751E+02
     12.379  0.1032E+01  0.4758E+02
     12.447  0.7311E+00  0.4763E+02
     12.515  0.5494E+00  0.4767E+02
     12.583  0.5161E+00  0.4771E+02
     12.651  0.5658E+00  0.4774E+02
     12.719  0.6157E+00  0.4779E+02
     12.787  0.6151E+00  0.4783E+02
     12.855  0.5480E+00  0.4786E+02
     12.923  0.4249E+00  0.4789E+02
     12.991  0.2791E+00  0.4791E+02
     13.059  0.1518E+00  0.4792E+02
     13.127  0.6727E-01  0.4793E+02
     13.195  0.2404E-01  0.4793E+02
     13.263  0.6907E-02  0.4793E+02
     13.331  0.1706E-02  0.4793E+02
     13.399  0.9982E-03  0.4793E+02
     13.467  0.3172E-02  0.4793E+02
     13.535  0.1100E-01  0.4793E+02
     13.603  0.3078E-01  0.4793E+02
     13.671  0.6865E-01  0.4794E+02
     13.740  0.1221E+00  0.4795E+02
     13.808  0.1730E+00  0.4796E+02
     13.876  0.1954E+00  0.4797E+02
     13.944  0.1759E+00  0.4798E+02
     14.012  0.1262E+00  0.4799E+02
     14.080  0.7218E-01  0.4800E+02
     14.148  0.3290E-01  0.4800E+02
     14.216  0.1195E-01  0.4800E+02
     14.284  0.3459E-02  0.4800E+02
     14.352  0.7978E-03  0.4800E+02
     14.420  0.1466E-03  0.4800E+02
     14.488  0.2145E-04  0.4800E+02
     14.556  0.2501E-05  0.4800E+02
     14.624  0.2321E-06  0.4800E+02
     14.692  0.1715E-07  0.4800E+02
     14.760  0.1009E-08  0.4800E+02
     14.828  0.4724E-10  0.4800E+02
     14.896  0.1760E-11  0.4800E+02
     14.964  0.5217E-13  0.4800E+02
     15.032  0.1256E-14  0.4800E+02
     15.100  0.0000E+00  0.4800E+02
     15.168  0.0000E+00  0.4800E+02
     15.236  0.0000E+00  0.4800E+02
     15.305  0.0000E+00  0.4800E+02
     15.373  0.0000E+00  0.4800E+02
     15.441  0.0000E+00  0.4800E+02
     15.509  0.0000E+00  0.4800E+02
     15.577  0.0000E+00  0.4800E+02
     15.645  0.0000E+00  0.4800E+02
     15.713  0.0000E+00  0.4800E+02
     15.781  0.0000E+00  0.4800E+02
     15.849  0.0000E+00  0.4800E+02
