    4    4    1    1
  0.1600000E+02  0.4000000E-09  0.4000000E-09  0.4000000E-09  0.2000000E-16
  1.000000000000000E-004
  CAR 
 unknown system                          
     40     20     24
 
  0.0000000E+00  0.0000000E+00  0.0000000E+00  0.2915452E-02
    1       -2.564377   1.000000
    2        0.560797   1.000000
    3        0.561294   1.000000
    4        0.561668   1.000000
    5        0.977013   1.000000
    6        0.977379   1.000000
    7        0.977379   1.000000
    8        3.562662   1.000000
    9        3.562662   1.000000
   10        3.563947   1.000000
   11        5.528528   1.000000
   12        5.529911   1.000000
   13        7.007965   0.517633
   14        7.010280   0.511106
   15        7.010549   0.510347
   16        7.438220   0.001358
   17        7.438451   0.001351
   18        7.438451   0.001351
   19        7.439112   0.001330
   20        7.439448   0.001320
   21        7.439448   0.001320
   22        8.926775   0.000000
   23        8.926775   0.000000
   24        8.929809   0.000000
 
  0.1428571E+00  0.0000000E+00  0.0000000E+00  0.1749271E-01
    1       -2.305969   1.000000
    2        0.648800   1.000000
    3        0.747703   1.000000
    4        0.747945   1.000000
    5        1.081845   1.000000
    6        1.134880   1.000000
    7        1.134880   1.000000
    8        3.403539   1.000000
    9        3.693094   1.000000
   10        3.693094   1.000000
   11        5.353490   1.000000
   12        5.594679   1.000000
   13        6.259300   1.000000
   14        6.259300   1.000000
   15        6.742838   0.972504
   16        6.746044   0.971038
   17        6.929394   0.725679
   18        7.128571   0.209372
   19        7.128571   0.209372
   20        7.438848   0.001338
   21        7.439655   0.001314
   22        7.684605   0.000001
   23       10.254216   0.000000
   24       10.254216   0.000000
 
  0.2857143E+00  0.0000000E+00  0.0000000E+00  0.1749271E-01
    1       -1.563867   1.000000
    2        0.787733   1.000000
    3        1.244230   1.000000
    4        1.244589   1.000000
    5        1.384860   1.000000
    6        1.604160   1.000000
    7        1.604160   1.000000
    8        2.978439   1.000000
    9        4.077855   1.000000
   10        4.077855   1.000000
   11        4.749731   1.000000
   12        4.749731   1.000000
   13        4.895822   1.000000
   14        5.676507   1.000000
   15        5.781519   1.000000
   16        6.057546   1.000000
   17        6.060375   1.000000
   18        6.379147   0.999996
   19        6.379147   0.999996
   20        6.706423   0.985239
   21        7.440296   0.001294
   22        7.440931   0.001275
   23       12.184790   0.000000
   24       12.184792   0.000000
 
  0.4285714E+00  0.0000000E+00  0.0000000E+00  0.1749271E-01
    1       -0.479624   1.000000
    2        0.509730   1.000000
    3        1.779289   1.000000
    4        1.779868   1.000000
    5        1.850469   1.000000
    6        2.375389   1.000000
    7        2.375389   1.000000
    8        2.417898   1.000000
    9        3.434387   1.000000
   10        3.434387   1.000000
   11        4.381329   1.000000
   12        4.463396   1.000000
   13        4.696893   1.000000
   14        4.696893   1.000000
   15        5.345881   1.000000
   16        5.350027   1.000000
   17        5.500312   1.000000
   18        5.500312   1.000000
   19        6.067500   1.000000
   20        6.397678   0.999993
   21        7.441454   0.001260
   22        7.441967   0.001245
   23       13.839270   0.000000
   24       13.848869   0.000000
 
  0.1428571E+00  0.1428571E+00  0.0000000E+00  0.3498542E-01
    1       -2.056252   1.000000
    2        0.839726   1.000000
    3        0.840744   1.000000
    4        0.878432   1.000000
    5        1.229311   1.000000
    6        1.237658   1.000000
    7        1.325010   1.000000
    8        3.337109   1.000000
    9        3.743662   1.000000
   10        3.786379   1.000000
   11        5.312203   1.000000
   12        5.571368   1.000000
   13        5.731898   1.000000
   14        5.741793   1.000000
   15        5.744914   1.000000
   16        6.532608   0.999670
   17        6.738802   0.974261
   18        6.748855   0.969700
   19        7.114914   0.238222
   20        7.139040   0.188718
   21        7.240770   0.054581
   22        9.111781   0.000000
   23        9.112504   0.000000
   24       11.124849   0.000000
 
  0.2857143E+00  0.1428571E+00  0.0000000E+00  0.6997085E-01
    1       -1.339114   1.000000
    2        0.990985   1.000000
    3        1.270259   1.000000
    4        1.356209   1.000000
    5        1.518471   1.000000
    6        1.684027   1.000000
    7        1.822455   1.000000
    8        2.989188   1.000000
    9        4.018936   1.000000
   10        4.086106   1.000000
   11        4.311000   1.000000
   12        4.587828   1.000000
   13        4.683516   1.000000
   14        4.990432   1.000000
   15        5.802765   1.000000
   16        5.951017   1.000000
   17        6.136070   1.000000
   18        6.374918   0.999997
   19        6.392612   0.999994
   20        7.121421   0.224212
   21        7.138248   0.190236
   22        7.607606   0.000014
   23       10.694639   0.000000
   24       12.822991   0.000000
 
  0.4285714E+00  0.1428571E+00  0.0000000E+00  0.6997085E-01
    1       -0.285915   1.000000
    2        0.703205   1.000000
    3        1.846214   1.000000
    4        1.930370   1.000000
    5        1.954236   1.000000
    6        2.397459   1.000000
    7        2.417946   1.000000
    8        2.481040   1.000000
    9        3.135570   1.000000
   10        3.410011   1.000000
   11        3.931357   1.000000
   12        4.031324   1.000000
   13        4.695174   1.000000
   14        4.998631   1.000000
   15        5.351511   1.000000
   16        5.452349   1.000000
   17        5.495717   1.000000
   18        5.652052   1.000000
   19        6.217584   1.000000
   20        6.755089   0.966548
   21        7.112657   0.243192
   22        7.122701   0.221513
   23       11.890760   0.000000
   24       12.627806   0.000000
 
  0.2857143E+00  0.2857143E+00  0.0000000E+00  0.3498542E-01
    1       -0.696558   1.000000
    2        1.467419   1.000000
    3        1.548264   1.000000
    4        1.556867   1.000000
    5        1.903277   1.000000
    6        1.918479   1.000000
    7        2.286880   1.000000
    8        2.903597   1.000000
    9        3.534087   1.000000
   10        3.548564   1.000000
   11        3.954651   1.000000
   12        4.069799   1.000000
   13        4.258164   1.000000
   14        4.887653   1.000000
   15        5.601880   1.000000
   16        5.941197   1.000000
   17        5.949697   1.000000
   18        6.169282   1.000000
   19        6.347842   0.999999
   20        6.387969   0.999995
   21        6.684078   0.990214
   22        8.926417   0.000000
   23        8.945942   0.000000
   24       11.990514   0.000000
 
  0.4285714E+00  0.2857143E+00  0.0000000E+00  0.6997085E-01
    1        0.250146   1.000000
    2        1.213947   1.000000
    3        1.909212   1.000000
    4        2.245325   1.000000
    5        2.266353   1.000000
    6        2.529722   1.000000
    7        2.592448   1.000000
    8        2.620855   1.000000
    9        2.625329   1.000000
   10        3.305767   1.000000
   11        3.311759   1.000000
   12        3.712025   1.000000
   13        4.749923   1.000000
   14        4.887523   1.000000
   15        5.212876   1.000000
   16        5.377282   1.000000
   17        5.389138   1.000000
   18        5.503088   1.000000
   19        6.375514   0.999997
   20        6.453715   0.999963
   21        6.855298   0.869436
   22        7.724250   0.000000
   23       10.063064   0.000000
   24       10.969606   0.000000
 
  0.4285714E+00  0.4285714E+00  0.0000000E+00  0.3498542E-01
    1        0.989100   1.000000
    2        1.732633   1.000000
    3        1.757623   1.000000
    4        1.908283   1.000000
    5        2.641610   1.000000
    6        2.660218   1.000000
    7        2.716030   1.000000
    8        2.931891   1.000000
    9        2.997370   1.000000
   10        3.026511   1.000000
   11        3.054573   1.000000
   12        3.498054   1.000000
   13        4.656729   1.000000
   14        4.885054   1.000000
   15        4.944222   1.000000
   16        4.949852   1.000000
   17        5.015791   1.000000
   18        5.568469   1.000000
   19        5.617003   1.000000
   20        5.887705   1.000000
   21        7.756195   0.000000
   22        8.748121   0.000000
   23        8.776834   0.000000
   24        9.756521   0.000000
 
  0.1428571E+00  0.1428571E+00  0.1428571E+00  0.2332362E-01
    1       -1.819145   1.000000
    2        0.958742   1.000000
    3        0.961861   1.000000
    4        0.964639   1.000000
    5        1.419396   1.000000
    6        1.427957   1.000000
    7        1.436178   1.000000
    8        3.300892   1.000000
    9        3.810808   1.000000
   10        3.811720   1.000000
   11        5.290930   1.000000
   12        5.298981   1.000000
   13        5.306122   1.000000
   14        5.436705   1.000000
   15        5.440012   1.000000
   16        6.229531   1.000000
   17        6.231828   1.000000
   18        6.231903   1.000000
   19        7.245930   0.050663
   20        7.246827   0.050006
   21        7.248477   0.048814
   22        9.833988   0.000000
   23        9.843010   0.000000
   24        9.851792   0.000000
 
  0.2857143E+00  0.1428571E+00  0.1428571E+00  0.6997085E-01
    1       -1.140228   1.000000
    2        1.087149   1.000000
    3        1.333401   1.000000
    4        1.333673   1.000000
    5        1.723096   1.000000
    6        1.926013   1.000000
    7        1.926029   1.000000
    8        3.037883   1.000000
    9        3.984462   1.000000
   10        4.027656   1.000000
   11        4.233041   1.000000
   12        4.233197   1.000000
   13        4.342737   1.000000
   14        5.177793   1.000000
   15        5.610814   1.000000
   16        5.762320   1.000000
   17        5.788071   1.000000
   18        5.799008   1.000000
   19        7.084006   0.310837
   20        7.099210   0.273924
   21        7.100009   0.272046
   22        7.978964   0.000000
   23       11.171614   0.000000
   24       11.171836   0.000000
 
  0.4285714E+00  0.1428571E+00  0.1428571E+00  0.6997085E-01
    1       -0.147016   1.000000
    2        0.792895   1.000000
    3        1.917338   1.000000
    4        1.917813   1.000000
    5        2.138048   1.000000
    6        2.354710   1.000000
    7        2.355180   1.000000
    8        2.602752   1.000000
    9        3.336269   1.000000
   10        3.336758   1.000000
   11        3.734032   1.000000
   12        3.905331   1.000000
   13        4.415854   1.000000
   14        4.964234   1.000000
   15        5.301946   1.000000
   16        5.302595   1.000000
   17        5.449586   1.000000
   18        6.232823   1.000000
   19        6.466014   0.999947
   20        6.710859   0.984026
   21        6.976706   0.604591
   22        6.977248   0.603113
   23       12.255215   0.000000
   24       12.255368   0.000000
 
  0.2857143E+00  0.2857143E+00  0.1428571E+00  0.6997085E-01
    1       -0.578855   1.000000
    2        1.368819   1.000000
    3        1.374935   1.000000
    4        1.445284   1.000000
    5        2.243748   1.000000
    6        2.255258   1.000000
    7        2.375761   1.000000
    8        3.068563   1.000000
    9        3.579426   1.000000
   10        3.583068   1.000000
   11        3.930420   1.000000
   12        3.940090   1.000000
   13        4.042572   1.000000
   14        5.241547   1.000000
   15        5.258967   1.000000
   16        5.271314   1.000000
   17        5.285168   1.000000
   18        6.072091   1.000000
   19        6.908519   0.772589
   20        6.923456   0.739493
   21        6.937954   0.705148
   22        9.125801   0.000000
   23        9.134343   0.000000
   24       12.189568   0.000000
 
  0.4285714E+00  0.2857143E+00  0.1428571E+00  0.1399417E+00
    1        0.225253   1.000000
    2        1.011497   1.000000
    3        1.708898   1.000000
    4        1.738270   1.000000
    5        2.572190   1.000000
    6        2.573378   1.000000
    7        2.664549   1.000000
    8        2.928856   1.000000
    9        3.297373   1.000000
   10        3.342314   1.000000
   11        3.626058   1.000000
   12        3.703926   1.000000
   13        4.241411   1.000000
   14        4.676648   1.000000
   15        4.902138   1.000000
   16        4.977407   1.000000
   17        5.568194   1.000000
   18        6.350531   0.999999
   19        6.666541   0.993023
   20        6.685601   0.989928
   21        6.747063   0.970559
   22        7.643457   0.000004
   23       10.251960   0.000000
   24       11.267417   0.000000
 
  0.4285714E+00  0.4285714E+00  0.1428571E+00  0.6997085E-01
    1        0.725184   1.000000
    2        1.248205   1.000000
    3        1.264964   1.000000
    4        1.475374   1.000000
    5        2.877160   1.000000
    6        3.052476   1.000000
    7        3.079317   1.000000
    8        3.225542   1.000000
    9        3.360127   1.000000
   10        3.385862   1.000000
   11        3.577345   1.000000
   12        3.751473   1.000000
   13        4.174866   1.000000
   14        4.470469   1.000000
   15        4.484305   1.000000
   16        4.508414   1.000000
   17        5.612418   1.000000
   18        6.117713   1.000000
   19        6.151241   1.000000
   20        6.287604   1.000000
   21        7.639058   0.000005
   22        8.697610   0.000000
   23        8.723878   0.000000
   24        9.808898   0.000000
 
  0.2857143E+00  0.2857143E+00  0.2857143E+00  0.2332362E-01
    1       -0.248873   1.000000
    2        1.235152   1.000000
    3        1.236342   1.000000
    4        1.236831   1.000000
    5        2.701755   1.000000
    6        2.703004   1.000000
    7        2.704490   1.000000
    8        3.468469   1.000000
    9        3.720498   1.000000
   10        3.737297   1.000000
   11        3.752524   1.000000
   12        3.856766   1.000000
   13        3.861439   1.000000
   14        4.659297   1.000000
   15        4.660749   1.000000
   16        4.661963   1.000000
   17        5.923448   1.000000
   18        5.924242   1.000000
   19        7.121110   0.224871
   20        7.124448   0.217857
   21        7.128769   0.208970
   22        9.741491   0.000000
   23        9.748628   0.000000
   24        9.754707   0.000000
 
  0.4285714E+00  0.2857143E+00  0.2857143E+00  0.6997085E-01
    1        0.233919   1.000000
    2        0.778792   1.000000
    3        1.201942   1.000000
    4        1.202095   1.000000
    5        2.838056   1.000000
    6        2.838626   1.000000
    7        3.221752   1.000000
    8        3.638068   1.000000
    9        3.687880   1.000000
   10        3.737827   1.000000
   11        3.896694   1.000000
   12        4.094155   1.000000
   13        4.097675   1.000000
   14        4.177626   1.000000
   15        4.386288   1.000000
   16        4.388073   1.000000
   17        6.307209   1.000000
   18        6.556933   0.999389
   19        6.925655   0.734418
   20        6.926055   0.733489
   21        7.001822   0.534921
   22        7.680573   0.000001
   23       10.474499   0.000000
   24       10.475022   0.000000
 
  0.4285714E+00  0.4285714E+00  0.2857143E+00  0.6997085E-01
    1        0.384897   1.000000
    2        0.711854   1.000000
    3        0.720988   1.000000
    4        0.855908   1.000000
    5        3.116081   1.000000
    6        3.237361   1.000000
    7        3.255978   1.000000
    8        3.564161   1.000000
    9        3.747644   1.000000
   10        3.925587   1.000000
   11        3.933156   1.000000
   12        3.987414   1.000000
   13        4.518337   1.000000
   14        4.535433   1.000000
   15        4.560647   1.000000
   16        4.710405   1.000000
   17        6.334638   0.999999
   18        6.778207   0.952426
   19        6.796311   0.938321
   20        6.817999   0.917351
   21        7.284023   0.028208
   22        8.491028   0.000000
   23        8.510103   0.000000
   24        9.564318   0.000000
 
  0.4285714E+00  0.4285714E+00  0.4285714E+00  0.2332362E-01
    1        0.266909   1.000000
    2        0.425409   1.000000
    3        0.427510   1.000000
    4        0.429502   1.000000
    5        3.395965   1.000000
    6        3.399018   1.000000
    7        3.402609   1.000000
    8        3.564648   1.000000
    9        3.566148   1.000000
   10        3.649437   1.000000
   11        3.650779   1.000000
   12        3.651433   1.000000
   13        5.607740   1.000000
   14        5.624837   1.000000
   15        5.640035   1.000000
   16        5.912991   1.000000
   17        6.869299   0.847255
   18        6.870041   0.846013
   19        7.046035   0.410997
   20        7.047246   0.407669
   21        7.049761   0.400780
   22        8.140245   0.000000
   23        8.145029   0.000000
   24        8.148254   0.000000
