 vasp.5.4.1 05Feb16 (build Mar 02 2016 14:09:44) complex                        
  
 executed on   Abel-impi-ifc-cuda date 2019.09.20  12:22:17
 running on    4 total cores
 distrk:  each k-point on    4 cores,    1 groups
 distr:  one band on NCORES_PER_BAND=   1 cores,    4 groups


--------------------------------------------------------------------------------------------------------


 INCAR:
 POTCAR:   PAW_PBE Pt 05Jan2001                   
 POTCAR:   PAW_PBE Pt 05Jan2001                   
  local pseudopotential read in
  partial core-charges read in
  atomic valenz-charges read in
  non local Contribution for L=           2  read in
    real space projection operators read in
  non local Contribution for L=           2  read in
    real space projection operators read in
  non local Contribution for L=           0  read in
    real space projection operators read in
  non local Contribution for L=           0  read in
    real space projection operators read in
  non local Contribution for L=           1  read in
    real space projection operators read in
  non local Contribution for L=           1  read in
    real space projection operators read in
    PAW grid and wavefunctions read in
 
   number of l-projection  operators is LMAX  =           6
   number of lm-projection operators is LMMAX =          18
 

 ----------------------------------------------------------------------------- 
|                                                                             |
|  ADVICE TO THIS USER RUNNING 'VASP/VAMP'   (HEAR YOUR MASTER'S VOICE ...):  |
|                                                                             |
|      You have a (more or less) 'small supercell' and for smaller cells      |
|      it is recommended  to use the reciprocal-space projection scheme!      |
|      The real space optimization is not  efficient for small cells and it   |
|      is also less accurate ...                                              |
|      Therefore set LREAL=.FALSE. in the  INCAR file                         |
|                                                                             |
 ----------------------------------------------------------------------------- 

 Optimization of the real space projectors (new method)

 maximal supplied QI-value         = 15.12
 optimisation between [QCUT,QGAM] = [ 11.34, 22.83] = [ 36.00,145.93] Ry 
 Optimized for a Real-space Cutoff    1.56 Angstroem

   l    n(q)    QCUT    max X(q) W(low)/X(q) W(high)/X(q)  e(spline) 
   2     10    11.338     3.643    0.58E-05    0.18E-04    0.79E-07
   2     10    11.338    46.462    0.14E-03    0.41E-03    0.78E-06
   0     11    11.338    13.796    0.17E-04    0.37E-05    0.56E-08
   0     11    11.338    57.669    0.42E-04    0.70E-04    0.20E-06
   1     10    11.338     7.440    0.30E-05    0.11E-04    0.38E-07
   1     10    11.338    10.255    0.32E-04    0.36E-04    0.14E-06
 PAW_PBE Pt 05Jan2001                   :
 energy of atom  1       EATOM= -729.1171
 kinetic energy error for atom=    0.0039 (will be added to EATOM!!)
 
 
 POSCAR: Pt_fcc                                  
  positions in direct lattice
  No initial velocities read in
 exchange correlation table for  LEXCH =        8
   RHO(1)=    0.500       N(1)  =     2000
   RHO(2)=  100.500       N(2)  =     4000
 


--------------------------------------------------------------------------------------------------------


 ion  position               nearest neighbor table
   1  0.000  0.000  0.000-   2 2.83   3 2.83   4 2.83   2 2.83   3 2.83   2 2.83   4 2.83   2 2.83
                             3 2.83   4 2.83   3 2.83   4 2.83
   2  0.000  0.500  0.500-   1 2.83   3 2.83   4 2.83   1 2.83   4 2.83   1 2.83   3 2.83   1 2.83
                             3 2.83   4 2.83   4 2.83   3 2.83
   3  0.500  0.000  0.500-   1 2.83   2 2.83   4 2.83   1 2.83   4 2.83   2 2.83   4 2.83   4 2.83
                             1 2.83   2 2.83   1 2.83   2 2.83
   4  0.500  0.500  0.000-   1 2.83   2 2.83   3 2.83   2 2.83   3 2.83   1 2.83   3 2.83   3 2.83
                             1 2.83   2 2.83   2 2.83   1 2.83
 
  LATTYP: Found a simple cubic cell.
 ALAT       =     4.0000000000
  
  Lattice vectors:
  
 A1 = (   4.0000000000,   0.0000000000,   0.0000000000)
 A2 = (   0.0000000000,   4.0000000000,   0.0000000000)
 A3 = (   0.0000000000,   0.0000000000,   4.0000000000)


Analysis of symmetry for initial positions (statically):
=====================================================================
 Subroutine PRICEL returns following result:
 
  LATTYP: Found a face centered cubic cell.
 ALAT       =     4.0000000000
  
  Lattice vectors:
  
 A1 = (   2.0000000000,   2.0000000000,   0.0000000000)
 A2 = (   2.0000000000,   0.0000000000,  -2.0000000000)
 A3 = (   0.0000000000,   2.0000000000,  -2.0000000000)
 
   4 primitive cells build up your supercell.
 

 Routine SETGRP: Setting up the symmetry group for a 
 simple cubic supercell.


 Subroutine GETGRP returns: Found 48 space group operations
 (whereof 48 operations were pure point group operations)
 out of a pool of 48 trial point group operations.


The static configuration has the point symmetry O_h .


Analysis of symmetry for dynamics (positions and initial velocities):
=====================================================================
 Subroutine PRICEL returns following result:
 
  LATTYP: Found a face centered cubic cell.
 ALAT       =     4.0000000000
  
  Lattice vectors:
  
 A1 = (   2.0000000000,   2.0000000000,   0.0000000000)
 A2 = (   2.0000000000,   0.0000000000,  -2.0000000000)
 A3 = (   0.0000000000,   2.0000000000,  -2.0000000000)
 
   4 primitive cells build up your supercell.
 

 Routine SETGRP: Setting up the symmetry group for a 
 simple cubic supercell.


 Subroutine GETGRP returns: Found 48 space group operations
 (whereof 48 operations were pure point group operations)
 out of a pool of 48 trial point group operations.


The dynamic configuration has the point symmetry O_h .


 Subroutine INISYM returns: Found 48 space group operations
 (whereof 48 operations are pure point group operations),
 and found     4 'primitive' translations

 
 
 KPOINTS: k-density: 4.0                          

Automatic generation of k-mesh.
Space group operators:
 irot       det(A)        alpha          n_x          n_y          n_z        tau_x        tau_y        tau_z
    1     1.000000     0.000000     1.000000     0.000000     0.000000     0.000000     0.000000     0.000000
    2    -1.000000     0.000000     1.000000     0.000000     0.000000     0.000000     0.000000     0.000000
    3     1.000000   120.000000    -0.577350    -0.577350    -0.577350     0.000000     0.000000     0.000000
    4    -1.000000   120.000000    -0.577350    -0.577350    -0.577350     0.000000     0.000000     0.000000
    5     1.000000   120.000000     0.577350     0.577350     0.577350     0.000000     0.000000     0.000000
    6    -1.000000   120.000000     0.577350     0.577350     0.577350     0.000000     0.000000     0.000000
    7     1.000000    90.000000     0.000000     0.000000    -1.000000     0.000000     0.000000     0.000000
    8    -1.000000    90.000000     0.000000     0.000000    -1.000000     0.000000     0.000000     0.000000
    9     1.000000   180.000000     0.000000     0.707107     0.707107     0.000000     0.000000     0.000000
   10    -1.000000   180.000000     0.000000     0.707107     0.707107     0.000000     0.000000     0.000000
   11     1.000000    90.000000     0.000000     1.000000     0.000000     0.000000     0.000000     0.000000
   12    -1.000000    90.000000     0.000000     1.000000     0.000000     0.000000     0.000000     0.000000
   13     1.000000   180.000000     0.000000     0.000000     1.000000     0.000000     0.000000     0.000000
   14    -1.000000   180.000000     0.000000     0.000000     1.000000     0.000000     0.000000     0.000000
   15     1.000000   120.000000    -0.577350     0.577350     0.577350     0.000000     0.000000     0.000000
   16    -1.000000   120.000000    -0.577350     0.577350     0.577350     0.000000     0.000000     0.000000
   17     1.000000   120.000000    -0.577350     0.577350    -0.577350     0.000000     0.000000     0.000000
   18    -1.000000   120.000000    -0.577350     0.577350    -0.577350     0.000000     0.000000     0.000000
   19     1.000000    90.000000     0.000000     0.000000     1.000000     0.000000     0.000000     0.000000
   20    -1.000000    90.000000     0.000000     0.000000     1.000000     0.000000     0.000000     0.000000
   21     1.000000    90.000000    -1.000000     0.000000     0.000000     0.000000     0.000000     0.000000
   22    -1.000000    90.000000    -1.000000     0.000000     0.000000     0.000000     0.000000     0.000000
   23     1.000000   180.000000     0.707107     0.000000     0.707107     0.000000     0.000000     0.000000
   24    -1.000000   180.000000     0.707107     0.000000     0.707107     0.000000     0.000000     0.000000
   25     1.000000   120.000000     0.577350    -0.577350     0.577350     0.000000     0.000000     0.000000
   26    -1.000000   120.000000     0.577350    -0.577350     0.577350     0.000000     0.000000     0.000000
   27     1.000000   120.000000    -0.577350    -0.577350     0.577350     0.000000     0.000000     0.000000
   28    -1.000000   120.000000    -0.577350    -0.577350     0.577350     0.000000     0.000000     0.000000
   29     1.000000   180.000000     1.000000     0.000000     0.000000     0.000000     0.000000     0.000000
   30    -1.000000   180.000000     1.000000     0.000000     0.000000     0.000000     0.000000     0.000000
   31     1.000000    90.000000     0.000000    -1.000000     0.000000     0.000000     0.000000     0.000000
   32    -1.000000    90.000000     0.000000    -1.000000     0.000000     0.000000     0.000000     0.000000
   33     1.000000   180.000000     0.707107     0.707107     0.000000     0.000000     0.000000     0.000000
   34    -1.000000   180.000000     0.707107     0.707107     0.000000     0.000000     0.000000     0.000000
   35     1.000000    90.000000     1.000000     0.000000     0.000000     0.000000     0.000000     0.000000
   36    -1.000000    90.000000     1.000000     0.000000     0.000000     0.000000     0.000000     0.000000
   37     1.000000   120.000000     0.577350    -0.577350    -0.577350     0.000000     0.000000     0.000000
   38    -1.000000   120.000000     0.577350    -0.577350    -0.577350     0.000000     0.000000     0.000000
   39     1.000000   180.000000     0.000000     1.000000     0.000000     0.000000     0.000000     0.000000
   40    -1.000000   180.000000     0.000000     1.000000     0.000000     0.000000     0.000000     0.000000
   41     1.000000   120.000000     0.577350     0.577350    -0.577350     0.000000     0.000000     0.000000
   42    -1.000000   120.000000     0.577350     0.577350    -0.577350     0.000000     0.000000     0.000000
   43     1.000000   180.000000     0.000000    -0.707107     0.707107     0.000000     0.000000     0.000000
   44    -1.000000   180.000000     0.000000    -0.707107     0.707107     0.000000     0.000000     0.000000
   45     1.000000   180.000000     0.707107    -0.707107     0.000000     0.000000     0.000000     0.000000
   46    -1.000000   180.000000     0.707107    -0.707107     0.000000     0.000000     0.000000     0.000000
   47     1.000000   180.000000     0.707107     0.000000    -0.707107     0.000000     0.000000     0.000000
   48    -1.000000   180.000000     0.707107     0.000000    -0.707107     0.000000     0.000000     0.000000
 
 Subroutine IBZKPT returns following result:
 ===========================================
 
 Found     20 irreducible k-points:
 
 Following reciprocal coordinates:
            Coordinates               Weight
  0.000000  0.000000  0.000000      1.000000
  0.142857  0.000000  0.000000      6.000000
  0.285714  0.000000  0.000000      6.000000
  0.428571  0.000000  0.000000      6.000000
  0.142857  0.142857  0.000000     12.000000
  0.285714  0.142857  0.000000     24.000000
  0.428571  0.142857  0.000000     24.000000
  0.285714  0.285714  0.000000     12.000000
  0.428571  0.285714  0.000000     24.000000
  0.428571  0.428571  0.000000     12.000000
  0.142857  0.142857  0.142857      8.000000
  0.285714  0.142857  0.142857     24.000000
  0.428571  0.142857  0.142857     24.000000
  0.285714  0.285714  0.142857     24.000000
  0.428571  0.285714  0.142857     48.000000
  0.428571  0.428571  0.142857     24.000000
  0.285714  0.285714  0.285714      8.000000
  0.428571  0.285714  0.285714     24.000000
  0.428571  0.428571  0.285714     24.000000
  0.428571  0.428571  0.428571      8.000000
 
 Following cartesian coordinates:
            Coordinates               Weight
  0.000000  0.000000  0.000000      1.000000
  0.142857  0.000000  0.000000      6.000000
  0.285714  0.000000  0.000000      6.000000
  0.428571  0.000000  0.000000      6.000000
  0.142857  0.142857  0.000000     12.000000
  0.285714  0.142857  0.000000     24.000000
  0.428571  0.142857  0.000000     24.000000
  0.285714  0.285714  0.000000     12.000000
  0.428571  0.285714  0.000000     24.000000
  0.428571  0.428571  0.000000     12.000000
  0.142857  0.142857  0.142857      8.000000
  0.285714  0.142857  0.142857     24.000000
  0.428571  0.142857  0.142857     24.000000
  0.285714  0.285714  0.142857     24.000000
  0.428571  0.285714  0.142857     48.000000
  0.428571  0.428571  0.142857     24.000000
  0.285714  0.285714  0.285714      8.000000
  0.428571  0.285714  0.285714     24.000000
  0.428571  0.428571  0.285714     24.000000
  0.428571  0.428571  0.428571      8.000000
 
 
 Subroutine IBZKPT_HF returns following result:
 ==============================================
 
 Found    343 k-points in 1st BZ
 the following    343 k-points will be used (e.g. in the exchange kernel)
 Following reciprocal coordinates:   # in IRBZ
  0.000000  0.000000  0.000000    0.00291545   1 t-inv F
  0.142857  0.000000  0.000000    0.00291545   2 t-inv F
  0.285714  0.000000  0.000000    0.00291545   3 t-inv F
  0.428571  0.000000  0.000000    0.00291545   4 t-inv F
  0.142857  0.142857  0.000000    0.00291545   5 t-inv F
  0.285714  0.142857  0.000000    0.00291545   6 t-inv F
  0.428571  0.142857  0.000000    0.00291545   7 t-inv F
  0.285714  0.285714  0.000000    0.00291545   8 t-inv F
  0.428571  0.285714  0.000000    0.00291545   9 t-inv F
  0.428571  0.428571  0.000000    0.00291545  10 t-inv F
  0.142857  0.142857  0.142857    0.00291545  11 t-inv F
  0.285714  0.142857  0.142857    0.00291545  12 t-inv F
  0.428571  0.142857  0.142857    0.00291545  13 t-inv F
  0.285714  0.285714  0.142857    0.00291545  14 t-inv F
  0.428571  0.285714  0.142857    0.00291545  15 t-inv F
  0.428571  0.428571  0.142857    0.00291545  16 t-inv F
  0.285714  0.285714  0.285714    0.00291545  17 t-inv F
  0.428571  0.285714  0.285714    0.00291545  18 t-inv F
  0.428571  0.428571  0.285714    0.00291545  19 t-inv F
  0.428571  0.428571  0.428571    0.00291545  20 t-inv F
 -0.142857  0.000000  0.000000    0.00291545   2 t-inv F
  0.000000  0.142857  0.000000    0.00291545   2 t-inv F
  0.000000 -0.142857  0.000000    0.00291545   2 t-inv F
  0.000000  0.000000  0.142857    0.00291545   2 t-inv F
  0.000000  0.000000 -0.142857    0.00291545   2 t-inv F
 -0.285714  0.000000  0.000000    0.00291545   3 t-inv F
  0.000000  0.285714  0.000000    0.00291545   3 t-inv F
  0.000000 -0.285714  0.000000    0.00291545   3 t-inv F
  0.000000  0.000000  0.285714    0.00291545   3 t-inv F
  0.000000  0.000000 -0.285714    0.00291545   3 t-inv F
 -0.428571  0.000000  0.000000    0.00291545   4 t-inv F
  0.000000  0.428571  0.000000    0.00291545   4 t-inv F
  0.000000 -0.428571  0.000000    0.00291545   4 t-inv F
  0.000000  0.000000  0.428571    0.00291545   4 t-inv F
  0.000000  0.000000 -0.428571    0.00291545   4 t-inv F
 -0.142857 -0.142857  0.000000    0.00291545   5 t-inv F
  0.000000  0.142857  0.142857    0.00291545   5 t-inv F
  0.000000 -0.142857 -0.142857    0.00291545   5 t-inv F
  0.142857  0.000000  0.142857    0.00291545   5 t-inv F
 -0.142857  0.000000 -0.142857    0.00291545   5 t-inv F
 -0.142857  0.142857  0.000000    0.00291545   5 t-inv F
  0.142857 -0.142857  0.000000    0.00291545   5 t-inv F
 -0.142857  0.000000  0.142857    0.00291545   5 t-inv F
  0.142857  0.000000 -0.142857    0.00291545   5 t-inv F
  0.000000 -0.142857  0.142857    0.00291545   5 t-inv F
  0.000000  0.142857 -0.142857    0.00291545   5 t-inv F
 -0.285714 -0.142857  0.000000    0.00291545   6 t-inv F
  0.000000  0.285714  0.142857    0.00291545   6 t-inv F
  0.000000 -0.285714 -0.142857    0.00291545   6 t-inv F
  0.142857  0.000000  0.285714    0.00291545   6 t-inv F
 -0.142857  0.000000 -0.285714    0.00291545   6 t-inv F
 -0.142857  0.285714  0.000000    0.00291545   6 t-inv F
  0.142857 -0.285714  0.000000    0.00291545   6 t-inv F
 -0.285714  0.000000  0.142857    0.00291545   6 t-inv F
  0.285714  0.000000 -0.142857    0.00291545   6 t-inv F
  0.000000  0.142857  0.285714    0.00291545   6 t-inv F
  0.000000 -0.142857 -0.285714    0.00291545   6 t-inv F
  0.000000 -0.285714  0.142857    0.00291545   6 t-inv F
  0.000000  0.285714 -0.142857    0.00291545   6 t-inv F
 -0.142857  0.000000  0.285714    0.00291545   6 t-inv F
  0.142857  0.000000 -0.285714    0.00291545   6 t-inv F
  0.285714  0.000000  0.142857    0.00291545   6 t-inv F
 -0.285714  0.000000 -0.142857    0.00291545   6 t-inv F
  0.000000 -0.142857  0.285714    0.00291545   6 t-inv F
  0.000000  0.142857 -0.285714    0.00291545   6 t-inv F
  0.285714 -0.142857  0.000000    0.00291545   6 t-inv F
 -0.285714  0.142857  0.000000    0.00291545   6 t-inv F
  0.142857  0.285714  0.000000    0.00291545   6 t-inv F
 -0.142857 -0.285714  0.000000    0.00291545   6 t-inv F
 -0.428571 -0.142857  0.000000    0.00291545   7 t-inv F
  0.000000  0.428571  0.142857    0.00291545   7 t-inv F
  0.000000 -0.428571 -0.142857    0.00291545   7 t-inv F
  0.142857  0.000000  0.428571    0.00291545   7 t-inv F
 -0.142857  0.000000 -0.428571    0.00291545   7 t-inv F
 -0.142857  0.428571  0.000000    0.00291545   7 t-inv F
  0.142857 -0.428571  0.000000    0.00291545   7 t-inv F
 -0.428571  0.000000  0.142857    0.00291545   7 t-inv F
  0.428571  0.000000 -0.142857    0.00291545   7 t-inv F
  0.000000  0.142857  0.428571    0.00291545   7 t-inv F
  0.000000 -0.142857 -0.428571    0.00291545   7 t-inv F
  0.000000 -0.428571  0.142857    0.00291545   7 t-inv F
  0.000000  0.428571 -0.142857    0.00291545   7 t-inv F
 -0.142857  0.000000  0.428571    0.00291545   7 t-inv F
  0.142857  0.000000 -0.428571    0.00291545   7 t-inv F
  0.428571  0.000000  0.142857    0.00291545   7 t-inv F
 -0.428571  0.000000 -0.142857    0.00291545   7 t-inv F
  0.000000 -0.142857  0.428571    0.00291545   7 t-inv F
  0.000000  0.142857 -0.428571    0.00291545   7 t-inv F
  0.428571 -0.142857  0.000000    0.00291545   7 t-inv F
 -0.428571  0.142857  0.000000    0.00291545   7 t-inv F
  0.142857  0.428571  0.000000    0.00291545   7 t-inv F
 -0.142857 -0.428571  0.000000    0.00291545   7 t-inv F
 -0.285714 -0.285714  0.000000    0.00291545   8 t-inv F
  0.000000  0.285714  0.285714    0.00291545   8 t-inv F
  0.000000 -0.285714 -0.285714    0.00291545   8 t-inv F
  0.285714  0.000000  0.285714    0.00291545   8 t-inv F
 -0.285714  0.000000 -0.285714    0.00291545   8 t-inv F
 -0.285714  0.285714  0.000000    0.00291545   8 t-inv F
  0.285714 -0.285714  0.000000    0.00291545   8 t-inv F
 -0.285714  0.000000  0.285714    0.00291545   8 t-inv F
  0.285714  0.000000 -0.285714    0.00291545   8 t-inv F
  0.000000 -0.285714  0.285714    0.00291545   8 t-inv F
  0.000000  0.285714 -0.285714    0.00291545   8 t-inv F
 -0.428571 -0.285714  0.000000    0.00291545   9 t-inv F
  0.000000  0.428571  0.285714    0.00291545   9 t-inv F
  0.000000 -0.428571 -0.285714    0.00291545   9 t-inv F
  0.285714  0.000000  0.428571    0.00291545   9 t-inv F
 -0.285714  0.000000 -0.428571    0.00291545   9 t-inv F
 -0.285714  0.428571  0.000000    0.00291545   9 t-inv F
  0.285714 -0.428571  0.000000    0.00291545   9 t-inv F
 -0.428571  0.000000  0.285714    0.00291545   9 t-inv F
  0.428571  0.000000 -0.285714    0.00291545   9 t-inv F
  0.000000  0.285714  0.428571    0.00291545   9 t-inv F
  0.000000 -0.285714 -0.428571    0.00291545   9 t-inv F
  0.000000 -0.428571  0.285714    0.00291545   9 t-inv F
  0.000000  0.428571 -0.285714    0.00291545   9 t-inv F
 -0.285714  0.000000  0.428571    0.00291545   9 t-inv F
  0.285714  0.000000 -0.428571    0.00291545   9 t-inv F
  0.428571  0.000000  0.285714    0.00291545   9 t-inv F
 -0.428571  0.000000 -0.285714    0.00291545   9 t-inv F
  0.000000 -0.285714  0.428571    0.00291545   9 t-inv F
  0.000000  0.285714 -0.428571    0.00291545   9 t-inv F
  0.428571 -0.285714  0.000000    0.00291545   9 t-inv F
 -0.428571  0.285714  0.000000    0.00291545   9 t-inv F
  0.285714  0.428571  0.000000    0.00291545   9 t-inv F
 -0.285714 -0.428571  0.000000    0.00291545   9 t-inv F
 -0.428571 -0.428571  0.000000    0.00291545  10 t-inv F
  0.000000  0.428571  0.428571    0.00291545  10 t-inv F
  0.000000 -0.428571 -0.428571    0.00291545  10 t-inv F
  0.428571  0.000000  0.428571    0.00291545  10 t-inv F
 -0.428571  0.000000 -0.428571    0.00291545  10 t-inv F
 -0.428571  0.428571  0.000000    0.00291545  10 t-inv F
  0.428571 -0.428571  0.000000    0.00291545  10 t-inv F
 -0.428571  0.000000  0.428571    0.00291545  10 t-inv F
  0.428571  0.000000 -0.428571    0.00291545  10 t-inv F
  0.000000 -0.428571  0.428571    0.00291545  10 t-inv F
  0.000000  0.428571 -0.428571    0.00291545  10 t-inv F
 -0.142857 -0.142857 -0.142857    0.00291545  11 t-inv F
 -0.142857  0.142857  0.142857    0.00291545  11 t-inv F
  0.142857 -0.142857 -0.142857    0.00291545  11 t-inv F
 -0.142857 -0.142857  0.142857    0.00291545  11 t-inv F
  0.142857  0.142857 -0.142857    0.00291545  11 t-inv F
  0.142857 -0.142857  0.142857    0.00291545  11 t-inv F
 -0.142857  0.142857 -0.142857    0.00291545  11 t-inv F
 -0.285714 -0.142857 -0.142857    0.00291545  12 t-inv F
  0.142857  0.285714  0.142857    0.00291545  12 t-inv F
 -0.142857 -0.285714 -0.142857    0.00291545  12 t-inv F
  0.142857  0.142857  0.285714    0.00291545  12 t-inv F
 -0.142857 -0.142857 -0.285714    0.00291545  12 t-inv F
 -0.142857  0.285714  0.142857    0.00291545  12 t-inv F
  0.142857 -0.285714 -0.142857    0.00291545  12 t-inv F
 -0.285714  0.142857  0.142857    0.00291545  12 t-inv F
  0.285714 -0.142857 -0.142857    0.00291545  12 t-inv F
 -0.142857  0.142857  0.285714    0.00291545  12 t-inv F
  0.142857 -0.142857 -0.285714    0.00291545  12 t-inv F
 -0.285714 -0.142857  0.142857    0.00291545  12 t-inv F
  0.285714  0.142857 -0.142857    0.00291545  12 t-inv F
 -0.142857 -0.285714  0.142857    0.00291545  12 t-inv F
  0.142857  0.285714 -0.142857    0.00291545  12 t-inv F
 -0.142857 -0.142857  0.285714    0.00291545  12 t-inv F
  0.142857  0.142857 -0.285714    0.00291545  12 t-inv F
  0.142857 -0.285714  0.142857    0.00291545  12 t-inv F
 -0.142857  0.285714 -0.142857    0.00291545  12 t-inv F
  0.285714 -0.142857  0.142857    0.00291545  12 t-inv F
 -0.285714  0.142857 -0.142857    0.00291545  12 t-inv F
  0.142857 -0.142857  0.285714    0.00291545  12 t-inv F
 -0.142857  0.142857 -0.285714    0.00291545  12 t-inv F
 -0.428571 -0.142857 -0.142857    0.00291545  13 t-inv F
  0.142857  0.428571  0.142857    0.00291545  13 t-inv F
 -0.142857 -0.428571 -0.142857    0.00291545  13 t-inv F
  0.142857  0.142857  0.428571    0.00291545  13 t-inv F
 -0.142857 -0.142857 -0.428571    0.00291545  13 t-inv F
 -0.142857  0.428571  0.142857    0.00291545  13 t-inv F
  0.142857 -0.428571 -0.142857    0.00291545  13 t-inv F
 -0.428571  0.142857  0.142857    0.00291545  13 t-inv F
  0.428571 -0.142857 -0.142857    0.00291545  13 t-inv F
 -0.142857  0.142857  0.428571    0.00291545  13 t-inv F
  0.142857 -0.142857 -0.428571    0.00291545  13 t-inv F
 -0.428571 -0.142857  0.142857    0.00291545  13 t-inv F
  0.428571  0.142857 -0.142857    0.00291545  13 t-inv F
 -0.142857 -0.428571  0.142857    0.00291545  13 t-inv F
  0.142857  0.428571 -0.142857    0.00291545  13 t-inv F
 -0.142857 -0.142857  0.428571    0.00291545  13 t-inv F
  0.142857  0.142857 -0.428571    0.00291545  13 t-inv F
  0.142857 -0.428571  0.142857    0.00291545  13 t-inv F
 -0.142857  0.428571 -0.142857    0.00291545  13 t-inv F
  0.428571 -0.142857  0.142857    0.00291545  13 t-inv F
 -0.428571  0.142857 -0.142857    0.00291545  13 t-inv F
  0.142857 -0.142857  0.428571    0.00291545  13 t-inv F
 -0.142857  0.142857 -0.428571    0.00291545  13 t-inv F
 -0.285714 -0.285714 -0.142857    0.00291545  14 t-inv F
  0.142857  0.285714  0.285714    0.00291545  14 t-inv F
 -0.142857 -0.285714 -0.285714    0.00291545  14 t-inv F
  0.285714  0.142857  0.285714    0.00291545  14 t-inv F
 -0.285714 -0.142857 -0.285714    0.00291545  14 t-inv F
 -0.285714  0.285714  0.142857    0.00291545  14 t-inv F
  0.285714 -0.285714 -0.142857    0.00291545  14 t-inv F
 -0.285714  0.142857  0.285714    0.00291545  14 t-inv F
  0.285714 -0.142857 -0.285714    0.00291545  14 t-inv F
 -0.142857  0.285714  0.285714    0.00291545  14 t-inv F
  0.142857 -0.285714 -0.285714    0.00291545  14 t-inv F
 -0.285714 -0.285714  0.142857    0.00291545  14 t-inv F
  0.285714  0.285714 -0.142857    0.00291545  14 t-inv F
 -0.142857 -0.285714  0.285714    0.00291545  14 t-inv F
  0.142857  0.285714 -0.285714    0.00291545  14 t-inv F
 -0.285714 -0.142857  0.285714    0.00291545  14 t-inv F
  0.285714  0.142857 -0.285714    0.00291545  14 t-inv F
  0.285714 -0.285714  0.142857    0.00291545  14 t-inv F
 -0.285714  0.285714 -0.142857    0.00291545  14 t-inv F
  0.285714 -0.142857  0.285714    0.00291545  14 t-inv F
 -0.285714  0.142857 -0.285714    0.00291545  14 t-inv F
  0.142857 -0.285714  0.285714    0.00291545  14 t-inv F
 -0.142857  0.285714 -0.285714    0.00291545  14 t-inv F
 -0.428571 -0.285714 -0.142857    0.00291545  15 t-inv F
  0.142857  0.428571  0.285714    0.00291545  15 t-inv F
 -0.142857 -0.428571 -0.285714    0.00291545  15 t-inv F
  0.285714  0.142857  0.428571    0.00291545  15 t-inv F
 -0.285714 -0.142857 -0.428571    0.00291545  15 t-inv F
 -0.285714  0.428571  0.142857    0.00291545  15 t-inv F
  0.285714 -0.428571 -0.142857    0.00291545  15 t-inv F
 -0.428571  0.142857  0.285714    0.00291545  15 t-inv F
  0.428571 -0.142857 -0.285714    0.00291545  15 t-inv F
 -0.142857  0.285714  0.428571    0.00291545  15 t-inv F
  0.142857 -0.285714 -0.428571    0.00291545  15 t-inv F
 -0.428571 -0.285714  0.142857    0.00291545  15 t-inv F
  0.428571  0.285714 -0.142857    0.00291545  15 t-inv F
 -0.142857 -0.428571  0.285714    0.00291545  15 t-inv F
  0.142857  0.428571 -0.285714    0.00291545  15 t-inv F
 -0.285714 -0.142857  0.428571    0.00291545  15 t-inv F
  0.285714  0.142857 -0.428571    0.00291545  15 t-inv F
  0.285714 -0.428571  0.142857    0.00291545  15 t-inv F
 -0.285714  0.428571 -0.142857    0.00291545  15 t-inv F
  0.428571 -0.142857  0.285714    0.00291545  15 t-inv F
 -0.428571  0.142857 -0.285714    0.00291545  15 t-inv F
  0.142857 -0.285714  0.428571    0.00291545  15 t-inv F
 -0.142857  0.285714 -0.428571    0.00291545  15 t-inv F
  0.142857 -0.428571 -0.285714    0.00291545  15 t-inv F
 -0.142857  0.428571  0.285714    0.00291545  15 t-inv F
  0.285714 -0.142857 -0.428571    0.00291545  15 t-inv F
 -0.285714  0.142857  0.428571    0.00291545  15 t-inv F
  0.428571 -0.285714 -0.142857    0.00291545  15 t-inv F
 -0.428571  0.285714  0.142857    0.00291545  15 t-inv F
  0.142857  0.285714 -0.428571    0.00291545  15 t-inv F
 -0.142857 -0.285714  0.428571    0.00291545  15 t-inv F
  0.285714  0.428571 -0.142857    0.00291545  15 t-inv F
 -0.285714 -0.428571  0.142857    0.00291545  15 t-inv F
  0.428571  0.142857 -0.285714    0.00291545  15 t-inv F
 -0.428571 -0.142857  0.285714    0.00291545  15 t-inv F
 -0.285714  0.142857 -0.428571    0.00291545  15 t-inv F
  0.285714 -0.142857  0.428571    0.00291545  15 t-inv F
 -0.428571  0.285714 -0.142857    0.00291545  15 t-inv F
  0.428571 -0.285714  0.142857    0.00291545  15 t-inv F
 -0.142857  0.428571 -0.285714    0.00291545  15 t-inv F
  0.142857 -0.428571  0.285714    0.00291545  15 t-inv F
 -0.428571 -0.142857 -0.285714    0.00291545  15 t-inv F
  0.428571  0.142857  0.285714    0.00291545  15 t-inv F
 -0.285714 -0.428571 -0.142857    0.00291545  15 t-inv F
  0.285714  0.428571  0.142857    0.00291545  15 t-inv F
 -0.142857 -0.285714 -0.428571    0.00291545  15 t-inv F
  0.142857  0.285714  0.428571    0.00291545  15 t-inv F
 -0.428571 -0.428571 -0.142857    0.00291545  16 t-inv F
  0.142857  0.428571  0.428571    0.00291545  16 t-inv F
 -0.142857 -0.428571 -0.428571    0.00291545  16 t-inv F
  0.428571  0.142857  0.428571    0.00291545  16 t-inv F
 -0.428571 -0.142857 -0.428571    0.00291545  16 t-inv F
 -0.428571  0.428571  0.142857    0.00291545  16 t-inv F
  0.428571 -0.428571 -0.142857    0.00291545  16 t-inv F
 -0.428571  0.142857  0.428571    0.00291545  16 t-inv F
  0.428571 -0.142857 -0.428571    0.00291545  16 t-inv F
 -0.142857  0.428571  0.428571    0.00291545  16 t-inv F
  0.142857 -0.428571 -0.428571    0.00291545  16 t-inv F
 -0.428571 -0.428571  0.142857    0.00291545  16 t-inv F
  0.428571  0.428571 -0.142857    0.00291545  16 t-inv F
 -0.142857 -0.428571  0.428571    0.00291545  16 t-inv F
  0.142857  0.428571 -0.428571    0.00291545  16 t-inv F
 -0.428571 -0.142857  0.428571    0.00291545  16 t-inv F
  0.428571  0.142857 -0.428571    0.00291545  16 t-inv F
  0.428571 -0.428571  0.142857    0.00291545  16 t-inv F
 -0.428571  0.428571 -0.142857    0.00291545  16 t-inv F
  0.428571 -0.142857  0.428571    0.00291545  16 t-inv F
 -0.428571  0.142857 -0.428571    0.00291545  16 t-inv F
  0.142857 -0.428571  0.428571    0.00291545  16 t-inv F
 -0.142857  0.428571 -0.428571    0.00291545  16 t-inv F
 -0.285714 -0.285714 -0.285714    0.00291545  17 t-inv F
 -0.285714  0.285714  0.285714    0.00291545  17 t-inv F
  0.285714 -0.285714 -0.285714    0.00291545  17 t-inv F
 -0.285714 -0.285714  0.285714    0.00291545  17 t-inv F
  0.285714  0.285714 -0.285714    0.00291545  17 t-inv F
  0.285714 -0.285714  0.285714    0.00291545  17 t-inv F
 -0.285714  0.285714 -0.285714    0.00291545  17 t-inv F
 -0.428571 -0.285714 -0.285714    0.00291545  18 t-inv F
  0.285714  0.428571  0.285714    0.00291545  18 t-inv F
 -0.285714 -0.428571 -0.285714    0.00291545  18 t-inv F
  0.285714  0.285714  0.428571    0.00291545  18 t-inv F
 -0.285714 -0.285714 -0.428571    0.00291545  18 t-inv F
 -0.285714  0.428571  0.285714    0.00291545  18 t-inv F
  0.285714 -0.428571 -0.285714    0.00291545  18 t-inv F
 -0.428571  0.285714  0.285714    0.00291545  18 t-inv F
  0.428571 -0.285714 -0.285714    0.00291545  18 t-inv F
 -0.285714  0.285714  0.428571    0.00291545  18 t-inv F
  0.285714 -0.285714 -0.428571    0.00291545  18 t-inv F
 -0.428571 -0.285714  0.285714    0.00291545  18 t-inv F
  0.428571  0.285714 -0.285714    0.00291545  18 t-inv F
 -0.285714 -0.428571  0.285714    0.00291545  18 t-inv F
  0.285714  0.428571 -0.285714    0.00291545  18 t-inv F
 -0.285714 -0.285714  0.428571    0.00291545  18 t-inv F
  0.285714  0.285714 -0.428571    0.00291545  18 t-inv F
  0.285714 -0.428571  0.285714    0.00291545  18 t-inv F
 -0.285714  0.428571 -0.285714    0.00291545  18 t-inv F
  0.428571 -0.285714  0.285714    0.00291545  18 t-inv F
 -0.428571  0.285714 -0.285714    0.00291545  18 t-inv F
  0.285714 -0.285714  0.428571    0.00291545  18 t-inv F
 -0.285714  0.285714 -0.428571    0.00291545  18 t-inv F
 -0.428571 -0.428571 -0.285714    0.00291545  19 t-inv F
  0.285714  0.428571  0.428571    0.00291545  19 t-inv F
 -0.285714 -0.428571 -0.428571    0.00291545  19 t-inv F
  0.428571  0.285714  0.428571    0.00291545  19 t-inv F
 -0.428571 -0.285714 -0.428571    0.00291545  19 t-inv F
 -0.428571  0.428571  0.285714    0.00291545  19 t-inv F
  0.428571 -0.428571 -0.285714    0.00291545  19 t-inv F
 -0.428571  0.285714  0.428571    0.00291545  19 t-inv F
  0.428571 -0.285714 -0.428571    0.00291545  19 t-inv F
 -0.285714  0.428571  0.428571    0.00291545  19 t-inv F
  0.285714 -0.428571 -0.428571    0.00291545  19 t-inv F
 -0.428571 -0.428571  0.285714    0.00291545  19 t-inv F
  0.428571  0.428571 -0.285714    0.00291545  19 t-inv F
 -0.285714 -0.428571  0.428571    0.00291545  19 t-inv F
  0.285714  0.428571 -0.428571    0.00291545  19 t-inv F
 -0.428571 -0.285714  0.428571    0.00291545  19 t-inv F
  0.428571  0.285714 -0.428571    0.00291545  19 t-inv F
  0.428571 -0.428571  0.285714    0.00291545  19 t-inv F
 -0.428571  0.428571 -0.285714    0.00291545  19 t-inv F
  0.428571 -0.285714  0.428571    0.00291545  19 t-inv F
 -0.428571  0.285714 -0.428571    0.00291545  19 t-inv F
  0.285714 -0.428571  0.428571    0.00291545  19 t-inv F
 -0.285714  0.428571 -0.428571    0.00291545  19 t-inv F
 -0.428571 -0.428571 -0.428571    0.00291545  20 t-inv F
 -0.428571  0.428571  0.428571    0.00291545  20 t-inv F
  0.428571 -0.428571 -0.428571    0.00291545  20 t-inv F
 -0.428571 -0.428571  0.428571    0.00291545  20 t-inv F
  0.428571  0.428571 -0.428571    0.00291545  20 t-inv F
  0.428571 -0.428571  0.428571    0.00291545  20 t-inv F
 -0.428571  0.428571 -0.428571    0.00291545  20 t-inv F


--------------------------------------------------------------------------------------------------------




 Dimension of arrays:
   k-points           NKPTS =     20   k-points in BZ     NKDIM =     20   number of bands    NBANDS=     24
   number of dos      NEDOS =    301   number of ions     NIONS =      4
   non local maximal  LDIM  =      6   non local SUM 2l+1 LMDIM =     18
   total plane-waves  NPLWV =  27000
   max r-space proj   IRMAX =   6813   max aug-charges    IRDMAX=  25748
   dimension x,y,z NGX =    30 NGY =   30 NGZ =   30
   dimension x,y,z NGXF=    60 NGYF=   60 NGZF=   60
   support grid    NGXF=    60 NGYF=   60 NGZF=   60
   ions per type =               4
 NGX,Y,Z   is equivalent  to a cutoff of  12.47, 12.47, 12.47 a.u.
 NGXF,Y,Z  is equivalent  to a cutoff of  24.94, 24.94, 24.94 a.u.


 I would recommend the setting:
   dimension x,y,z NGX =    29 NGY =   29 NGZ =   29
 SYSTEM =  unknown system                          
 POSCAR =  Pt_fcc                                  

 Startparameter for this run:
   NWRITE =      1    write-flag & timer
   PREC   = accura    normal or accurate (medium, high low for compatibility)
   ISTART =      0    job   : 0-new  1-cont  2-samecut
   ICHARG =      2    charge: 1-file 2-atom 10-const
   ISPIN  =      1    spin polarized calculation?
   LNONCOLLINEAR =      F non collinear calculations
   LSORBIT =      F    spin-orbit coupling
   INIWAV =      1    electr: 0-lowe 1-rand  2-diag
   LASPH  =      F    aspherical Exc in radial PAW
   METAGGA=      F    non-selfconsistent MetaGGA calc.

 Electronic Relaxation 1
   ENCUT  =  500.0 eV  36.75 Ry    6.06 a.u.   7.29  7.29  7.29*2*pi/ulx,y,z
   ENINI  =  500.0     initial cutoff
   ENAUG  =  359.0 eV  augmentation charge cutoff
   NELM   =     60;   NELMIN=  4; NELMDL= -5     # of ELM steps 
   EDIFF  = 0.1E-04   stopping-criterion for ELM
   LREAL  =      T    real-space projection
   NLSPLINE    = F    spline interpolate recip. space projectors
   LCOMPAT=      F    compatible to vasp.4.4
   GGA_COMPAT  = T    GGA compatible to vasp.4.4-vasp.4.6
   LMAXPAW     = -100 max onsite density
   LMAXMIX     =    2 max onsite mixed and CHGCAR
   VOSKOWN=      0    Vosko Wilk Nusair interpolation
   ROPT   =   -0.00025
 Ionic relaxation
   EDIFFG = 0.1E-03   stopping-criterion for IOM
   NSW    =     85    number of steps for IOM
   NBLOCK =      1;   KBLOCK =      1    inner block; outer block 
   IBRION =      6    ionic relax: 0-MD 1-quasi-New 2-CG
   NFREE  =      2    steps in history (QN), initial steepest desc. (CG)
   ISIF   =      3    stress and relaxation
   IWAVPR =     11    prediction:  0-non 1-charg 2-wave 3-comb
   ISYM   =      2    0-nonsym 1-usesym 2-fastsym
   LCORR  =      T    Harris-Foulkes like correction to forces

   POTIM  = 0.0200    time-step for ionic-motion
   TEIN   =    0.0    initial temperature
   TEBEG  =    0.0;   TEEND  =   0.0 temperature during run
   SMASS  =  -3.00    Nose mass-parameter (am)
   estimated Nose-frequenzy (Omega)   =  0.10E-29 period in steps =****** mass=  -0.366E-27a.u.
   SCALEE = 1.0000    scale energy and forces
   NPACO  =    256;   APACO  = 16.0  distance and # of slots for P.C.
   PSTRESS=    0.0 pullay stress

  Mass of Ions in am
   POMASS = 195.08
  Ionic Valenz
   ZVAL   =  10.00
  Atomic Wigner-Seitz radii
   RWIGS  =  -1.00
  virtual crystal weights 
   VCA    =   1.00
   NELECT =      40.0000    total number of electrons
   NUPDOWN=      -1.0000    fix difference up-down

 DOS related values:
   EMIN   =  10.00;   EMAX   =-10.00  energy-range for DOS
   EFERMI =   0.00
   ISMEAR =     0;   SIGMA  =   0.20  broadening in eV -4-tet -1-fermi 0-gaus

 Electronic relaxation 2 (details)
   IALGO  =     68    algorithm
   LDIAG  =      T    sub-space diagonalisation (order eigenvalues)
   LSUBROT=      F    optimize rotation matrix (better conditioning)
   TURBO    =      0    0=normal 1=particle mesh
   IRESTART =      0    0=no restart 2=restart with 2 vectors
   NREBOOT  =      0    no. of reboots
   NMIN     =      0    reboot dimension
   EREF     =   0.00    reference energy to select bands
   IMIX   =      4    mixing-type and parameters
     AMIX     =   0.40;   BMIX     =  1.00
     AMIX_MAG =   1.60;   BMIX_MAG =  1.00
     AMIN     =   0.10
     WC   =   100.;   INIMIX=   1;  MIXPRE=   1;  MAXMIX= -45

 Intra band minimization:
   WEIMIN = 0.0010     energy-eigenvalue tresh-hold
   EBREAK =  0.10E-06  absolut break condition
   DEPER  =   0.30     relativ break condition  

   TIME   =   0.40     timestep for ELM

  volume/ion in A,a.u.               =      16.00       107.97
  Fermi-wavevector in a.u.,A,eV,Ry     =   1.399700  2.645049 26.655976  1.959159
  Thomas-Fermi vector in A             =   2.522733
 
 Write flags
   LWAVE  =      T    write WAVECAR
   LCHARG =      T    write CHGCAR
   LVTOT  =      F    write LOCPOT, total local potential
   LVHAR  =      F    write LOCPOT, Hartree potential only
   LELF   =      F    write electronic localiz. function (ELF)
   LORBIT =      0    0 simple, 1 ext, 2 COOP (PROOUT)


 Dipole corrections
   LMONO  =      F    monopole corrections only (constant potential shift)
   LDIPOL =      F    correct potential (dipole corrections)
   IDIPOL =      0    1-x, 2-y, 3-z, 4-all directions 
   EPSILON=  1.0000000 bulk dielectric constant

 Exchange correlation treatment:
   GGA     =    --    GGA type
   LEXCH   =     8    internal setting for exchange type
   VOSKOWN=      0    Vosko Wilk Nusair interpolation
   LHFCALC =     F    Hartree Fock is set to
   LHFONE  =     F    Hartree Fock one center treatment
   AEXX    =    0.0000 exact exchange contribution

 Linear response parameters
   LEPSILON=     F    determine dielectric tensor
   LRPA    =     F    only Hartree local field effects (RPA)
   LNABLA  =     F    use nabla operator in PAW spheres
   LVEL    =     F    velocity operator in full k-point grid
   LINTERFAST=   F  fast interpolation
   KINTER  =     0    interpolate to denser k-point grid
   CSHIFT  =0.1000    complex shift for real part using Kramers Kronig
   OMEGAMAX=  -1.0    maximum frequency
   DEG_THRESHOLD= 0.2000000E-02 threshold for treating states as degnerate
   RTIME   =    0.100 relaxation time in fs

 Orbital magnetization related:
   ORBITALMAG=     F  switch on orbital magnetization
   LCHIMAG   =     F  perturbation theory with respect to B field
   DQ        =  0.001000  dq finite difference perturbation B field



--------------------------------------------------------------------------------------------------------


 finite differences with symmetry
 charge density and potential will be updated during run
 non-spin polarized calculation
 RMM-DIIS sequential band-by-band and
  variant of blocked Davidson during initial phase
 perform sub-space diagonalisation
    before iterative eigenvector-optimisation
 modified Broyden-mixing scheme, WC =      100.0
 initial mixing is a Kerker type mixing with AMIX =  0.4000 and BMIX =      1.0000
 Hartree-type preconditioning will be used
 using additional bands            4
 real space projection scheme for non local part
 use partial core corrections
 calculate Harris-corrections to forces 
   (improved forces if not selfconsistent)
 use gradient corrections 
 use of overlap-Matrix (Vanderbilt PP)
 Gauss-broadening in eV      SIGMA  =   0.20


--------------------------------------------------------------------------------------------------------


  energy-cutoff  :      500.00
  volume of cell :       64.00
      direct lattice vectors                 reciprocal lattice vectors
     4.000000000  0.000000000  0.000000000     0.250000000  0.000000000  0.000000000
     0.000000000  4.000000000  0.000000000     0.000000000  0.250000000  0.000000000
     0.000000000  0.000000000  4.000000000     0.000000000  0.000000000  0.250000000

  length of vectors
     4.000000000  4.000000000  4.000000000     0.250000000  0.250000000  0.250000000


 
 k-points in units of 2pi/SCALE and weight: k-density: 4.0                          
   0.00000000  0.00000000  0.00000000       0.003
   0.14285714  0.00000000  0.00000000       0.017
   0.28571429  0.00000000  0.00000000       0.017
   0.42857143  0.00000000  0.00000000       0.017
   0.14285714  0.14285714  0.00000000       0.035
   0.28571429  0.14285714  0.00000000       0.070
   0.42857143  0.14285714  0.00000000       0.070
   0.28571429  0.28571429  0.00000000       0.035
   0.42857143  0.28571429  0.00000000       0.070
   0.42857143  0.42857143  0.00000000       0.035
   0.14285714  0.14285714  0.14285714       0.023
   0.28571429  0.14285714  0.14285714       0.070
   0.42857143  0.14285714  0.14285714       0.070
   0.28571429  0.28571429  0.14285714       0.070
   0.42857143  0.28571429  0.14285714       0.140
   0.42857143  0.42857143  0.14285714       0.070
   0.28571429  0.28571429  0.28571429       0.023
   0.42857143  0.28571429  0.28571429       0.070
   0.42857143  0.42857143  0.28571429       0.070
   0.42857143  0.42857143  0.42857143       0.023
 
 k-points in reciprocal lattice and weights: k-density: 4.0                          
   0.00000000  0.00000000  0.00000000       0.003
   0.14285714  0.00000000  0.00000000       0.017
   0.28571429  0.00000000  0.00000000       0.017
   0.42857143  0.00000000  0.00000000       0.017
   0.14285714  0.14285714  0.00000000       0.035
   0.28571429  0.14285714  0.00000000       0.070
   0.42857143  0.14285714  0.00000000       0.070
   0.28571429  0.28571429  0.00000000       0.035
   0.42857143  0.28571429  0.00000000       0.070
   0.42857143  0.42857143  0.00000000       0.035
   0.14285714  0.14285714  0.14285714       0.023
   0.28571429  0.14285714  0.14285714       0.070
   0.42857143  0.14285714  0.14285714       0.070
   0.28571429  0.28571429  0.14285714       0.070
   0.42857143  0.28571429  0.14285714       0.140
   0.42857143  0.42857143  0.14285714       0.070
   0.28571429  0.28571429  0.28571429       0.023
   0.42857143  0.28571429  0.28571429       0.070
   0.42857143  0.42857143  0.28571429       0.070
   0.42857143  0.42857143  0.42857143       0.023
 
 position of ions in fractional coordinates (direct lattice) 
   0.00000000  0.00000000  0.00000000
   0.00000000  0.50000000  0.50000000
   0.50000000  0.00000000  0.50000000
   0.50000000  0.50000000  0.00000000
 
 position of ions in cartesian coordinates  (Angst):
   0.00000000  0.00000000  0.00000000
   0.00000000  2.00000000  2.00000000
   2.00000000  0.00000000  2.00000000
   2.00000000  2.00000000  0.00000000
 


--------------------------------------------------------------------------------------------------------


 k-point  1 :   0.0000 0.0000 0.0000  plane waves:    1647
 k-point  2 :   0.1429 0.0000 0.0000  plane waves:    1639
 k-point  3 :   0.2857 0.0000 0.0000  plane waves:    1643
 k-point  4 :   0.4286 0.0000 0.0000  plane waves:    1638
 k-point  5 :   0.1429 0.1429 0.0000  plane waves:    1643
 k-point  6 :   0.2857 0.1429 0.0000  plane waves:    1617
 k-point  7 :   0.4286 0.1429 0.0000  plane waves:    1621
 k-point  8 :   0.2857 0.2857 0.0000  plane waves:    1616
 k-point  9 :   0.4286 0.2857 0.0000  plane waves:    1623
 k-point 10 :   0.4286 0.4286 0.0000  plane waves:    1636
 k-point 11 :   0.1429 0.1429 0.1429  plane waves:    1635
 k-point 12 :   0.2857 0.1429 0.1429  plane waves:    1629
 k-point 13 :   0.4286 0.1429 0.1429  plane waves:    1628
 k-point 14 :   0.2857 0.2857 0.1429  plane waves:    1627
 k-point 15 :   0.4286 0.2857 0.1429  plane waves:    1623
 k-point 16 :   0.4286 0.4286 0.1429  plane waves:    1616
 k-point 17 :   0.2857 0.2857 0.2857  plane waves:    1616
 k-point 18 :   0.4286 0.2857 0.2857  plane waves:    1627
 k-point 19 :   0.4286 0.4286 0.2857  plane waves:    1620
 k-point 20 :   0.4286 0.4286 0.4286  plane waves:    1622

 maximum and minimum number of plane-waves per node :      1647     1616

 maximum number of plane-waves:      1647
 maximum index in each direction: 
   IXMAX=    7   IYMAX=    7   IZMAX=    7
   IXMIN=   -7   IYMIN=   -7   IZMIN=   -7

 NGX is ok and might be reduce to  30
 NGY is ok and might be reduce to  30
 NGZ is ok and might be reduce to  30

 serial   3D FFT for wavefunctions
 parallel 3D FFT for charge:
    minimum data exchange during FFTs selected (reduces bandwidth)


 total amount of memory used by VASP on root node    43752. kBytes
========================================================================

   base      :      30000. kBytes
   nonlr-proj:       4658. kBytes
   fftplans  :       1986. kBytes
   grid      :       3744. kBytes
   one-center:         62. kBytes
   wavefun   :       3302. kBytes
 
     INWAV:  cpu time    0.0000: real time    0.0003
 Broyden mixing: mesh for mixing (old mesh)
   NGX = 15   NGY = 15   NGZ = 15
  (NGX  = 60   NGY  = 60   NGZ  = 60)
  gives a total of   3375 points

 initial charge density was supplied:
 charge density of overlapping atoms calculated
 number of electron      40.0000000 magnetization 
 keeping initial charge density in first step


--------------------------------------------------------------------------------------------------------


 Maximum index for non-local projection operator         6619
 Maximum index for augmentation-charges         6233 (set IRDMAX)


--------------------------------------------------------------------------------------------------------


 First call to EWALD:  gamma=   0.443
 Maximum number of real-space cells 3x 3x 3
 Maximum number of reciprocal cells 3x 3x 3

 FEWALD executed in parallel
    FEWALD:  cpu time    0.0020: real time    0.0015


----------------------------------------- Iteration    1(   1)  ---------------------------------------


    POTLOK:  cpu time    0.0310: real time    0.0304
    SETDIJ:  cpu time    0.0060: real time    0.0069
     EDDAV:  cpu time    0.8709: real time    0.8710
       DOS:  cpu time    0.0010: real time    0.0006
    --------------------------------------------
      LOOP:  cpu time    0.9119: real time    0.9192

 eigenvalue-minimisations  :   960
 total energy-change (2. order) : 0.4661447E+03  (-0.1835565E+04)
 number of electron      40.0000000 magnetization 
 augmentation part       40.0000000 magnetization 

 Free energy of the ion-electron system (eV)
  ---------------------------------------------------
  alpha Z        PSCENC =       363.73820000
  Ewald energy   TEWEN  =     -3301.05193786
  -Hartree energ DENC   =      -307.27343439
  -exchange      EXHF   =         0.00000000
  -V(xc)+E(xc)   XCENC  =        14.24297471
  PAW double counting   =      2292.98197300    -2179.84848231
  entropy T*S    EENTRO =        -0.04211034
  eigenvalues    EBANDS =       666.94488542
  atomic energy  EATOM  =      2916.45266723
  Solvation  Ediel_sol  =         0.00000000
  ---------------------------------------------------
  free energy    TOTEN  =       466.14473546 eV

  energy without entropy =      466.18684581  energy(sigma->0) =      466.16579064


--------------------------------------------------------------------------------------------------------




----------------------------------------- Iteration    1(   2)  ---------------------------------------


     EDDAV:  cpu time    0.9019: real time    0.9021
       DOS:  cpu time    0.0010: real time    0.0006
    --------------------------------------------
      LOOP:  cpu time    0.9039: real time    0.9088

 eigenvalue-minimisations  :   976
 total energy-change (2. order) :-0.4598878E+03  (-0.4450672E+03)
 number of electron      40.0000000 magnetization 
 augmentation part       40.0000000 magnetization 

 Free energy of the ion-electron system (eV)
  ---------------------------------------------------
  alpha Z        PSCENC =       363.73820000
  Ewald energy   TEWEN  =     -3301.05193786
  -Hartree energ DENC   =      -307.27343439
  -exchange      EXHF   =         0.00000000
  -V(xc)+E(xc)   XCENC  =        14.24297471
  PAW double counting   =      2292.98197300    -2179.84848231
  entropy T*S    EENTRO =        -0.04546479
  eigenvalues    EBANDS =       207.06039621
  atomic energy  EATOM  =      2916.45266723
  Solvation  Ediel_sol  =         0.00000000
  ---------------------------------------------------
  free energy    TOTEN  =         6.25689181 eV

  energy without entropy =        6.30235659  energy(sigma->0) =        6.27962420


--------------------------------------------------------------------------------------------------------




----------------------------------------- Iteration    1(   3)  ---------------------------------------


     EDDAV:  cpu time    1.1488: real time    1.1491
       DOS:  cpu time    0.0000: real time    0.0007
    --------------------------------------------
      LOOP:  cpu time    1.1498: real time    1.1553

 eigenvalue-minimisations  :  1320
 total energy-change (2. order) :-0.3099052E+02  (-0.3012335E+02)
 number of electron      40.0000000 magnetization 
 augmentation part       40.0000000 magnetization 

 Free energy of the ion-electron system (eV)
  ---------------------------------------------------
  alpha Z        PSCENC =       363.73820000
  Ewald energy   TEWEN  =     -3301.05193786
  -Hartree energ DENC   =      -307.27343439
  -exchange      EXHF   =         0.00000000
  -V(xc)+E(xc)   XCENC  =        14.24297471
  PAW double counting   =      2292.98197300    -2179.84848231
  entropy T*S    EENTRO =        -0.13470787
  eigenvalues    EBANDS =       176.15911491
  atomic energy  EATOM  =      2916.45266723
  Solvation  Ediel_sol  =         0.00000000
  ---------------------------------------------------
  free energy    TOTEN  =       -24.73363257 eV

  energy without entropy =      -24.59892470  energy(sigma->0) =      -24.66627863


--------------------------------------------------------------------------------------------------------




----------------------------------------- Iteration    1(   4)  ---------------------------------------


     EDDAV:  cpu time    0.9249: real time    0.9256
       DOS:  cpu time    0.0010: real time    0.0007
    --------------------------------------------
      LOOP:  cpu time    0.9279: real time    0.9310

 eigenvalue-minimisations  :  1016
 total energy-change (2. order) :-0.1033383E+01  (-0.1027714E+01)
 number of electron      40.0000000 magnetization 
 augmentation part       40.0000000 magnetization 

 Free energy of the ion-electron system (eV)
  ---------------------------------------------------
  alpha Z        PSCENC =       363.73820000
  Ewald energy   TEWEN  =     -3301.05193786
  -Hartree energ DENC   =      -307.27343439
  -exchange      EXHF   =         0.00000000
  -V(xc)+E(xc)   XCENC  =        14.24297471
  PAW double counting   =      2292.98197300    -2179.84848231
  entropy T*S    EENTRO =        -0.13790983
  eigenvalues    EBANDS =       175.12893342
  atomic energy  EATOM  =      2916.45266723
  Solvation  Ediel_sol  =         0.00000000
  ---------------------------------------------------
  free energy    TOTEN  =       -25.76701602 eV

  energy without entropy =      -25.62910619  energy(sigma->0) =      -25.69806111


--------------------------------------------------------------------------------------------------------




----------------------------------------- Iteration    1(   5)  ---------------------------------------


     EDDAV:  cpu time    1.0278: real time    1.0284
       DOS:  cpu time    0.0010: real time    0.0008
    CHARGE:  cpu time    0.0610: real time    0.0609
    MIXING:  cpu time    0.0010: real time    0.0009
    --------------------------------------------
      LOOP:  cpu time    1.0918: real time    1.0944

 eigenvalue-minimisations  :  1184
 total energy-change (2. order) :-0.2862764E-01  (-0.2860930E-01)
 number of electron      40.0000010 magnetization 
 augmentation part       11.7775002 magnetization 

 Broyden mixing:
  rms(total) = 0.72529E+00    rms(broyden)= 0.72529E+00
  rms(prec ) = 0.18075E+01
  weight for this iteration     100.00

 Free energy of the ion-electron system (eV)
  ---------------------------------------------------
  alpha Z        PSCENC =       363.73820000
  Ewald energy   TEWEN  =     -3301.05193786
  -Hartree energ DENC   =      -307.27343439
  -exchange      EXHF   =         0.00000000
  -V(xc)+E(xc)   XCENC  =        14.24297471
  PAW double counting   =      2292.98197300    -2179.84848231
  entropy T*S    EENTRO =        -0.13778891
  eigenvalues    EBANDS =       175.10018486
  atomic energy  EATOM  =      2916.45266723
  Solvation  Ediel_sol  =         0.00000000
  ---------------------------------------------------
  free energy    TOTEN  =       -25.79564366 eV

  energy without entropy =      -25.65785475  energy(sigma->0) =      -25.72674921


--------------------------------------------------------------------------------------------------------




----------------------------------------- Iteration    1(   6)  ---------------------------------------


    POTLOK:  cpu time    0.0290: real time    0.0301
    SETDIJ:  cpu time    0.0070: real time    0.0068
    EDDIAG:  cpu time    0.1030: real time    0.1024
  RMM-DIIS:  cpu time    0.5719: real time    0.5714
    ORTHCH:  cpu time    0.0080: real time    0.0080
       DOS:  cpu time    0.0010: real time    0.0007
    CHARGE:  cpu time    0.0600: real time    0.0604
    MIXING:  cpu time    0.0010: real time    0.0009
    --------------------------------------------
      LOOP:  cpu time    0.7819: real time    0.7853

 eigenvalue-minimisations  :   960
 total energy-change (2. order) : 0.1363856E+01  (-0.3121721E+00)
 number of electron      40.0000011 magnetization 
 augmentation part       12.2984107 magnetization 

 Broyden mixing:
  rms(total) = 0.23748E+00    rms(broyden)= 0.23748E+00
  rms(prec ) = 0.58737E+00
  weight for this iteration     100.00

 eigenvalues of (default mixing * dielectric matrix)
  average eigenvalue GAMMA=   1.4133
  1.4133

 Free energy of the ion-electron system (eV)
  ---------------------------------------------------
  alpha Z        PSCENC =       363.73820000
  Ewald energy   TEWEN  =     -3301.05193786
  -Hartree energ DENC   =      -279.47023319
  -exchange      EXHF   =         0.00000000
  -V(xc)+E(xc)   XCENC  =        13.21073897
  PAW double counting   =      2290.94406527    -2182.83160000
  entropy T*S    EENTRO =        -0.15002921
  eigenvalues    EBANDS =       154.72634103
  atomic energy  EATOM  =      2916.45266723
  Solvation  Ediel_sol  =         0.00000000
  ---------------------------------------------------
  free energy    TOTEN  =       -24.43178776 eV

  energy without entropy =      -24.28175854  energy(sigma->0) =      -24.35677315


--------------------------------------------------------------------------------------------------------




----------------------------------------- Iteration    1(   7)  ---------------------------------------


    POTLOK:  cpu time    0.0290: real time    0.0298
    SETDIJ:  cpu time    0.0070: real time    0.0068
    EDDIAG:  cpu time    0.1020: real time    0.1018
  RMM-DIIS:  cpu time    0.5689: real time    0.5684
    ORTHCH:  cpu time    0.0070: real time    0.0080
       DOS:  cpu time    0.0000: real time    0.0007
    CHARGE:  cpu time    0.0600: real time    0.0599
    MIXING:  cpu time    0.0010: real time    0.0009
    --------------------------------------------
      LOOP:  cpu time    0.7769: real time    0.7803

 eigenvalue-minimisations  :   977
 total energy-change (2. order) : 0.9586935E-01  (-0.1184492E+00)
 number of electron      40.0000011 magnetization 
 augmentation part       12.5584303 magnetization 

 Broyden mixing:
  rms(total) = 0.62545E-01    rms(broyden)= 0.62544E-01
  rms(prec ) = 0.92573E-01
  weight for this iteration     100.00

 eigenvalues of (default mixing * dielectric matrix)
  average eigenvalue GAMMA=   1.6887
  1.6887  1.6887

 Free energy of the ion-electron system (eV)
  ---------------------------------------------------
  alpha Z        PSCENC =       363.73820000
  Ewald energy   TEWEN  =     -3301.05193786
  -Hartree energ DENC   =      -266.98280708
  -exchange      EXHF   =         0.00000000
  -V(xc)+E(xc)   XCENC  =        12.75753155
  PAW double counting   =      2312.15696196    -2207.30920213
  entropy T*S    EENTRO =        -0.15333108
  eigenvalues    EBANDS =       146.05599899
  atomic energy  EATOM  =      2916.45266723
  Solvation  Ediel_sol  =         0.00000000
  ---------------------------------------------------
  free energy    TOTEN  =       -24.33591841 eV

  energy without entropy =      -24.18258733  energy(sigma->0) =      -24.25925287


--------------------------------------------------------------------------------------------------------




----------------------------------------- Iteration    1(   8)  ---------------------------------------


    POTLOK:  cpu time    0.0290: real time    0.0296
    SETDIJ:  cpu time    0.0070: real time    0.0068
    EDDIAG:  cpu time    0.1020: real time    0.1021
  RMM-DIIS:  cpu time    0.5779: real time    0.5774
    ORTHCH:  cpu time    0.0080: real time    0.0081
       DOS:  cpu time    0.0010: real time    0.0008
    CHARGE:  cpu time    0.0600: real time    0.0602
    MIXING:  cpu time    0.0010: real time    0.0009
    --------------------------------------------
      LOOP:  cpu time    0.7869: real time    0.7908

 eigenvalue-minimisations  :   976
 total energy-change (2. order) : 0.1360801E-01  (-0.5441307E-02)
 number of electron      40.0000011 magnetization 
 augmentation part       12.5236642 magnetization 

 Broyden mixing:
  rms(total) = 0.19125E-01    rms(broyden)= 0.19124E-01
  rms(prec ) = 0.42588E-01
  weight for this iteration     100.00

 eigenvalues of (default mixing * dielectric matrix)
  average eigenvalue GAMMA=   1.6916
  1.2745  1.2745  2.5260

 Free energy of the ion-electron system (eV)
  ---------------------------------------------------
  alpha Z        PSCENC =       363.73820000
  Ewald energy   TEWEN  =     -3301.05193786
  -Hartree energ DENC   =      -268.67276216
  -exchange      EXHF   =         0.00000000
  -V(xc)+E(xc)   XCENC  =        12.81126218
  PAW double counting   =      2347.39347881    -2243.50110712
  entropy T*S    EENTRO =        -0.15176583
  eigenvalues    EBANDS =       148.65965435
  atomic energy  EATOM  =      2916.45266723
  Solvation  Ediel_sol  =         0.00000000
  ---------------------------------------------------
  free energy    TOTEN  =       -24.32231040 eV

  energy without entropy =      -24.17054456  energy(sigma->0) =      -24.24642748


--------------------------------------------------------------------------------------------------------




----------------------------------------- Iteration    1(   9)  ---------------------------------------


    POTLOK:  cpu time    0.0300: real time    0.0301
    SETDIJ:  cpu time    0.0070: real time    0.0069
    EDDIAG:  cpu time    0.1020: real time    0.1025
  RMM-DIIS:  cpu time    0.5929: real time    0.5923
    ORTHCH:  cpu time    0.0080: real time    0.0081
       DOS:  cpu time    0.0010: real time    0.0007
    CHARGE:  cpu time    0.0600: real time    0.0602
    MIXING:  cpu time    0.0010: real time    0.0009
    --------------------------------------------
      LOOP:  cpu time    0.8029: real time    0.8068

 eigenvalue-minimisations  :  1017
 total energy-change (2. order) : 0.3715388E-04  (-0.9178926E-03)
 number of electron      40.0000011 magnetization 
 augmentation part       12.5370865 magnetization 

 Broyden mixing:
  rms(total) = 0.42399E-02    rms(broyden)= 0.42392E-02
  rms(prec ) = 0.50751E-02
  weight for this iteration     100.00

 eigenvalues of (default mixing * dielectric matrix)
  average eigenvalue GAMMA=   1.9669
  2.9447  1.0396  1.4298  2.4536

 Free energy of the ion-electron system (eV)
  ---------------------------------------------------
  alpha Z        PSCENC =       363.73820000
  Ewald energy   TEWEN  =     -3301.05193786
  -Hartree energ DENC   =      -267.70930086
  -exchange      EXHF   =         0.00000000
  -V(xc)+E(xc)   XCENC  =        12.77594623
  PAW double counting   =      2358.34267791    -2254.92704062
  entropy T*S    EENTRO =        -0.15193603
  eigenvalues    EBANDS =       148.20845076
  atomic energy  EATOM  =      2916.45266723
  Solvation  Ediel_sol  =         0.00000000
  ---------------------------------------------------
  free energy    TOTEN  =       -24.32227324 eV

  energy without entropy =      -24.17033721  energy(sigma->0) =      -24.24630522


--------------------------------------------------------------------------------------------------------




----------------------------------------- Iteration    1(  10)  ---------------------------------------


    POTLOK:  cpu time    0.0300: real time    0.0297
    SETDIJ:  cpu time    0.0060: real time    0.0067
    EDDIAG:  cpu time    0.1020: real time    0.1012
  RMM-DIIS:  cpu time    0.5609: real time    0.5609
    ORTHCH:  cpu time    0.0080: real time    0.0080
       DOS:  cpu time    0.0000: real time    0.0007
    CHARGE:  cpu time    0.0600: real time    0.0598
    MIXING:  cpu time    0.0010: real time    0.0010
    --------------------------------------------
      LOOP:  cpu time    0.7689: real time    0.7743

 eigenvalue-minimisations  :   971
 total energy-change (2. order) :-0.1836896E-03  (-0.1602222E-03)
 number of electron      40.0000011 magnetization 
 augmentation part       12.5470721 magnetization 

 Broyden mixing:
  rms(total) = 0.74215E-02    rms(broyden)= 0.74215E-02
  rms(prec ) = 0.17074E-01
  weight for this iteration     100.00

 eigenvalues of (default mixing * dielectric matrix)
  average eigenvalue GAMMA=   1.6895
  2.8250  2.3014  1.2087  1.2087  0.9038

 Free energy of the ion-electron system (eV)
  ---------------------------------------------------
  alpha Z        PSCENC =       363.73820000
  Ewald energy   TEWEN  =     -3301.05193786
  -Hartree energ DENC   =      -267.47485624
  -exchange      EXHF   =         0.00000000
  -V(xc)+E(xc)   XCENC  =        12.76769621
  PAW double counting   =      2360.09942368    -2256.61160321
  entropy T*S    EENTRO =        -0.15205331
  eigenvalues    EBANDS =       147.91000657
  atomic energy  EATOM  =      2916.45266723
  Solvation  Ediel_sol  =         0.00000000
  ---------------------------------------------------
  free energy    TOTEN  =       -24.32245693 eV

  energy without entropy =      -24.17040362  energy(sigma->0) =      -24.24643028


--------------------------------------------------------------------------------------------------------




----------------------------------------- Iteration    1(  11)  ---------------------------------------


    POTLOK:  cpu time    0.0290: real time    0.0291
    SETDIJ:  cpu time    0.0070: real time    0.0067
    EDDIAG:  cpu time    0.1000: real time    0.1012
  RMM-DIIS:  cpu time    0.5489: real time    0.5473
    ORTHCH:  cpu time    0.0070: real time    0.0081
       DOS:  cpu time    0.0010: real time    0.0007
    CHARGE:  cpu time    0.0600: real time    0.0600
    MIXING:  cpu time    0.0010: real time    0.0010
    --------------------------------------------
      LOOP:  cpu time    0.7549: real time    0.7587

 eigenvalue-minimisations  :   962
 total energy-change (2. order) : 0.1627658E-03  (-0.6677847E-04)
 number of electron      40.0000011 magnetization 
 augmentation part       12.5393257 magnetization 

 Broyden mixing:
  rms(total) = 0.31194E-03    rms(broyden)= 0.31161E-03
  rms(prec ) = 0.56171E-03
  weight for this iteration     100.00

 eigenvalues of (default mixing * dielectric matrix)
  average eigenvalue GAMMA=   1.6846
  2.6181  2.6181  1.5001  0.9528  1.2093  1.2093

 Free energy of the ion-electron system (eV)
  ---------------------------------------------------
  alpha Z        PSCENC =       363.73820000
  Ewald energy   TEWEN  =     -3301.05193786
  -Hartree energ DENC   =      -267.83656695
  -exchange      EXHF   =         0.00000000
  -V(xc)+E(xc)   XCENC  =        12.78024852
  PAW double counting   =      2360.85299354    -2257.34423109
  entropy T*S    EENTRO =        -0.15189097
  eigenvalues    EBANDS =       148.23822341
  atomic energy  EATOM  =      2916.45266723
  Solvation  Ediel_sol  =         0.00000000
  ---------------------------------------------------
  free energy    TOTEN  =       -24.32229417 eV

  energy without entropy =      -24.17040320  energy(sigma->0) =      -24.24634868


--------------------------------------------------------------------------------------------------------




----------------------------------------- Iteration    1(  12)  ---------------------------------------


    POTLOK:  cpu time    0.0280: real time    0.0279
    SETDIJ:  cpu time    0.0070: real time    0.0065
    EDDIAG:  cpu time    0.1000: real time    0.1003
  RMM-DIIS:  cpu time    0.3859: real time    0.3855
    ORTHCH:  cpu time    0.0070: real time    0.0078
       DOS:  cpu time    0.0010: real time    0.0007
    --------------------------------------------
      LOOP:  cpu time    0.5299: real time    0.5349

 eigenvalue-minimisations  :   621
 total energy-change (2. order) :-0.1368890E-05  (-0.3696683E-05)
 number of electron      40.0000011 magnetization 
 augmentation part       12.5393257 magnetization 

 Free energy of the ion-electron system (eV)
  ---------------------------------------------------
  alpha Z        PSCENC =       363.73820000
  Ewald energy   TEWEN  =     -3301.05193786
  -Hartree energ DENC   =      -267.83490205
  -exchange      EXHF   =         0.00000000
  -V(xc)+E(xc)   XCENC  =        12.78021122
  PAW double counting   =      2360.68511112    -2257.17005063
  entropy T*S    EENTRO =        -0.15189739
  eigenvalues    EBANDS =       148.23030281
  atomic energy  EATOM  =      2916.45266723
  Solvation  Ediel_sol  =         0.00000000
  ---------------------------------------------------
  free energy    TOTEN  =       -24.32229553 eV

  energy without entropy =      -24.17039815  energy(sigma->0) =      -24.24634684


--------------------------------------------------------------------------------------------------------




 average (electrostatic) potential at core
  the test charge radii are     1.2059
  (the norm of the test charge is              1.0000)
       1 -49.6269       2 -49.6269       3 -49.6269       4 -49.6269
 
 
 
 E-fermi :   7.0146     XC(G=0): -13.1344     alpha+bet :-12.4952


 k-point     1 :       0.0000    0.0000    0.0000
  band No.  band energies     occupation 
      1      -2.5643      2.00000
      2       0.5616      2.00000
      3       0.5616      2.00000
      4       0.5616      2.00000
      5       0.9777      2.00000
      6       0.9777      2.00000
      7       0.9777      2.00000
      8       3.5636      2.00000
      9       3.5636      2.00000
     10       3.5636      2.00000
     11       5.5300      2.00000
     12       5.5300      2.00000
     13       7.0109      1.02063
     14       7.0109      1.02063
     15       7.0109      1.02063
     16       7.4397      0.00264
     17       7.4397      0.00264
     18       7.4397      0.00264
     19       7.4397      0.00264
     20       7.4397      0.00264
     21       7.4397      0.00264
     22       8.9267      0.00000
     23       8.9267      0.00000
     24       8.9267      0.00000

 k-point     2 :       0.1429    0.0000    0.0000
  band No.  band energies     occupation 
      1      -2.3058      2.00000
      2       0.6491      2.00000
      3       0.7483      2.00000
      4       0.7483      2.00000
      5       1.0826      2.00000
      6       1.1353      2.00000
      7       1.1353      2.00000
      8       3.4033      2.00000
      9       3.6942      2.00000
     10       3.6942      2.00000
     11       5.3538      2.00000
     12       5.5964      2.00000
     13       6.2594      2.00000
     14       6.2594      2.00000
     15       6.7467      1.94180
     16       6.7467      1.94180
     17       6.9294      1.45277
     18       7.1295      0.41639
     19       7.1295      0.41639
     20       7.4403      0.00261
     21       7.4403      0.00261
     22       7.6807      0.00000
     23      10.2544      0.00000
     24      10.2544      0.00000

 k-point     3 :       0.2857    0.0000    0.0000
  band No.  band energies     occupation 
      1      -1.5637      2.00000
      2       0.7880      2.00000
      3       1.2450      2.00000
      4       1.2450      2.00000
      5       1.3857      2.00000
      6       1.6047      2.00000
      7       1.6047      2.00000
      8       2.9781      2.00000
      9       4.0796      2.00000
     10       4.0796      2.00000
     11       4.7491      2.00000
     12       4.7491      2.00000
     13       4.8972      2.00000
     14       5.6798      2.00000
     15       5.7857      2.00000
     16       6.0557      2.00000
     17       6.0557      2.00000
     18       6.3798      1.99999
     19       6.3798      1.99999
     20       6.7063      1.97074
     21       7.4415      0.00253
     22       7.4415      0.00253
     23      12.1851      0.00000
     24      12.1851      0.00000

 k-point     4 :       0.4286    0.0000    0.0000
  band No.  band energies     occupation 
      1      -0.4791      2.00000
      2       0.5096      2.00000
      3       1.7804      2.00000
      4       1.7804      2.00000
      5       1.8522      2.00000
      6       2.3766      2.00000
      7       2.3766      2.00000
      8       2.4168      2.00000
      9       3.4341      2.00000
     10       3.4341      2.00000
     11       4.4057      2.00000
     12       4.4405      2.00000
     13       4.6982      2.00000
     14       4.6982      2.00000
     15       5.3480      2.00000
     16       5.3480      2.00000
     17       5.5002      2.00000
     18       5.5002      2.00000
     19       6.0685      2.00000
     20       6.3965      1.99999
     21       7.4426      0.00247
     22       7.4426      0.00247
     23      13.8380      0.00000
     24      13.8394      0.00000

 k-point     5 :       0.1429    0.1429    0.0000
  band No.  band energies     occupation 
      1      -2.0561      2.00000
      2       0.8408      2.00000
      3       0.8408      2.00000
      4       0.8786      2.00000
      5       1.2341      2.00000
      6       1.2341      2.00000
      7       1.3253      2.00000
      8       3.3375      2.00000
      9       3.7441      2.00000
     10       3.7875      2.00000
     11       5.3138      2.00000
     12       5.5741      2.00000
     13       5.7380      2.00000
     14       5.7380      2.00000
     15       5.7421      2.00000
     16       6.5333      1.99933
     17       6.7436      1.94466
     18       6.7436      1.94466
     19       7.1281      0.42194
     20       7.1281      0.42194
     21       7.2407      0.10987
     22       9.1121      0.00000
     23       9.1121      0.00000
     24      11.1251      0.00000

 k-point     6 :       0.2857    0.1429    0.0000
  band No.  band energies     occupation 
      1      -1.3389      2.00000
      2       0.9914      2.00000
      3       1.2708      2.00000
      4       1.3568      2.00000
      5       1.5195      2.00000
      6       1.6845      2.00000
      7       1.8230      2.00000
      8       2.9890      2.00000
      9       4.0211      2.00000
     10       4.0879      2.00000
     11       4.3105      2.00000
     12       4.5871      2.00000
     13       4.6855      2.00000
     14       4.9891      2.00000
     15       5.8066      2.00000
     16       5.9497      2.00000
     17       6.1357      2.00000
     18       6.3757      1.99999
     19       6.3916      1.99999
     20       7.1242      0.43807
     21       7.1366      0.38834
     22       7.6079      0.00003
     23      10.6949      0.00000
     24      12.8235      0.00000

 k-point     7 :       0.4286    0.1429    0.0000
  band No.  band energies     occupation 
      1      -0.2854      2.00000
      2       0.7032      2.00000
      3       1.8471      2.00000
      4       1.9312      2.00000
      5       1.9561      2.00000
      6       2.3987      2.00000
      7       2.4197      2.00000
      8       2.4795      2.00000
      9       3.1350      2.00000
     10       3.4098      2.00000
     11       3.9433      2.00000
     12       4.0203      2.00000
     13       4.6965      2.00000
     14       5.0003      2.00000
     15       5.3530      2.00000
     16       5.4518      2.00000
     17       5.4956      2.00000
     18       5.6520      2.00000
     19       6.2169      2.00000
     20       6.7552      1.93334
     21       7.1175      0.46665
     22       7.1190      0.46021
     23      11.8912      0.00000
     24      12.6271      0.00000

 k-point     8 :       0.2857    0.2857    0.0000
  band No.  band energies     occupation 
      1      -0.6963      2.00000
      2       1.4694      2.00000
      3       1.5524      2.00000
      4       1.5524      2.00000
      5       1.9119      2.00000
      6       1.9119      2.00000
      7       2.2874      2.00000
      8       2.9037      2.00000
      9       3.5423      2.00000
     10       3.5423      2.00000
     11       3.9550      2.00000
     12       4.0715      2.00000
     13       4.2573      2.00000
     14       4.8875      2.00000
     15       5.6027      2.00000
     16       5.9463      2.00000
     17       5.9463      2.00000
     18       6.1678      2.00000
     19       6.3686      2.00000
     20       6.3686      2.00000
     21       6.6834      1.98080
     22       8.9366      0.00000
     23       8.9366      0.00000
     24      11.9899      0.00000

 k-point     9 :       0.4286    0.2857    0.0000
  band No.  band energies     occupation 
      1       0.2507      2.00000
      2       1.2142      2.00000
      3       1.9100      2.00000
      4       2.2478      2.00000
      5       2.2671      2.00000
      6       2.5318      2.00000
      7       2.6053      2.00000
      8       2.6131      2.00000
      9       2.6190      2.00000
     10       3.3054      2.00000
     11       3.3136      2.00000
     12       3.7111      2.00000
     13       4.7513      2.00000
     14       4.8884      2.00000
     15       5.2143      2.00000
     16       5.3768      2.00000
     17       5.3887      2.00000
     18       5.5030      2.00000
     19       6.3780      1.99999
     20       6.4510      1.99993
     21       6.8556      1.73911
     22       7.7248      0.00000
     23      10.0635      0.00000
     24      10.9687      0.00000

 k-point    10 :       0.4286    0.4286    0.0000
  band No.  band energies     occupation 
      1       0.9898      2.00000
      2       1.7459      2.00000
      3       1.7459      2.00000
      4       1.9077      2.00000
      5       2.6578      2.00000
      6       2.6578      2.00000
      7       2.7063      2.00000
      8       2.9327      2.00000
      9       3.0129      2.00000
     10       3.0129      2.00000
     11       3.0535      2.00000
     12       3.4985      2.00000
     13       4.6568      2.00000
     14       4.8859      2.00000
     15       4.9466      2.00000
     16       4.9466      2.00000
     17       5.0177      2.00000
     18       5.5930      2.00000
     19       5.5930      2.00000
     20       5.8853      2.00000
     21       7.7567      0.00000
     22       8.7630      0.00000
     23       8.7630      0.00000
     24       9.7563      0.00000

 k-point    11 :       0.1429    0.1429    0.1429
  band No.  band energies     occupation 
      1      -1.8190      2.00000
      2       0.9622      2.00000
      3       0.9622      2.00000
      4       0.9622      2.00000
      5       1.4284      2.00000
      6       1.4284      2.00000
      7       1.4284      2.00000
      8       3.3014      2.00000
      9       3.8120      2.00000
     10       3.8120      2.00000
     11       5.3010      2.00000
     12       5.3010      2.00000
     13       5.3010      2.00000
     14       5.4370      2.00000
     15       5.4370      2.00000
     16       6.2308      2.00000
     17       6.2308      2.00000
     18       6.2308      2.00000
     19       7.2477      0.09926
     20       7.2477      0.09926
     21       7.2477      0.09926
     22       9.8432      0.00000
     23       9.8432      0.00000
     24       9.8432      0.00000

 k-point    12 :       0.2857    0.1429    0.1429
  band No.  band energies     occupation 
      1      -1.1400      2.00000
      2       1.0877      2.00000
      3       1.3341      2.00000
      4       1.3341      2.00000
      5       1.7241      2.00000
      6       1.9266      2.00000
      7       1.9266      2.00000
      8       3.0378      2.00000
      9       3.9873      2.00000
     10       4.0298      2.00000
     11       4.2325      2.00000
     12       4.2325      2.00000
     13       4.3423      2.00000
     14       5.1777      2.00000
     15       5.6151      2.00000
     16       5.7717      2.00000
     17       5.7873      2.00000
     18       5.7873      2.00000
     19       7.0845      0.62090
     20       7.1004      0.54402
     21       7.1004      0.54402
     22       7.9790      0.00000
     23      11.1720      0.00000
     24      11.1720      0.00000

 k-point    13 :       0.4286    0.1429    0.1429
  band No.  band energies     occupation 
      1      -0.1465      2.00000
      2       0.7930      2.00000
      3       1.9184      2.00000
      4       1.9184      2.00000
      5       2.1398      2.00000
      6       2.3560      2.00000
      7       2.3560      2.00000
      8       2.6018      2.00000
      9       3.3363      2.00000
     10       3.3363      2.00000
     11       3.7405      2.00000
     12       3.8993      2.00000
     13       4.4174      2.00000
     14       4.9656      2.00000
     15       5.3023      2.00000
     16       5.3023      2.00000
     17       5.4503      2.00000
     18       6.2328      2.00000
     19       6.4666      1.99989
     20       6.7110      1.96815
     21       6.9771      1.20882
     22       6.9771      1.20882
     23      12.2555      0.00000
     24      12.2557      0.00000

[...]

 INTERNAL STRAIN TENSOR FOR ION    1 for displacements in x,y,z  (eV/Angst):
          X           Y           Z          XY          YZ          ZX
  --------------------------------------------------------------------------------
  x     0.00000     0.00000     0.00000     0.00000     0.00000    -0.00000
  y     0.00000     0.00000     0.00000    -0.00000     0.00000     0.00000
  z     0.00000     0.00000     0.00000     0.00000    -0.00000     0.00000

 INTERNAL STRAIN TENSOR FOR ION    2 for displacements in x,y,z  (eV/Angst):
          X           Y           Z          XY          YZ          ZX
  --------------------------------------------------------------------------------
  x     0.00000     0.00000     0.00000     0.00000     0.00000    -0.00000
  y     0.00000     0.00000     0.00000    -0.00000     0.00000     0.00000
  z     0.00000     0.00000     0.00000     0.00000    -0.00000     0.00000

 INTERNAL STRAIN TENSOR FOR ION    3 for displacements in x,y,z  (eV/Angst):
          X           Y           Z          XY          YZ          ZX
  --------------------------------------------------------------------------------
  x     0.00000     0.00000     0.00000     0.00000     0.00000    -0.00000
  y     0.00000     0.00000     0.00000    -0.00000     0.00000     0.00000
  z     0.00000     0.00000     0.00000     0.00000    -0.00000     0.00000

 INTERNAL STRAIN TENSOR FOR ION    4 for displacements in x,y,z  (eV/Angst):
          X           Y           Z          XY          YZ          ZX
  --------------------------------------------------------------------------------
  x     0.00000     0.00000     0.00000     0.00000     0.00000    -0.00000
  y     0.00000     0.00000     0.00000    -0.00000     0.00000     0.00000
  z     0.00000     0.00000     0.00000     0.00000    -0.00000     0.00000


--------------------------------------------------------------------------------------------------------


 
 Eigenvectors and eigenvalues of the dynamical matrix
 ----------------------------------------------------
 
 
   1 f  =    5.204607 THz    32.701510 2PiTHz  173.606998 cm-1    21.524532 meV
             X         Y         Z           dx          dy          dz
      0.000000  0.000000  0.000000     0.000000    0.000000    0.500000  
      0.000000  2.000000  2.000000     0.000000   -0.000000   -0.500000  
      2.000000  0.000000  2.000000     0.000000    0.000000   -0.500000  
      2.000000  2.000000  0.000000     0.000000   -0.000000    0.500000  
 
   2 f  =    5.204607 THz    32.701510 2PiTHz  173.606998 cm-1    21.524532 meV
             X         Y         Z           dx          dy          dz
      0.000000  0.000000  0.000000     0.494639    0.073025   -0.000000  
      0.000000  2.000000  2.000000     0.494639   -0.073025   -0.000000  
      2.000000  0.000000  2.000000    -0.494639    0.073025    0.000000  
      2.000000  2.000000  0.000000    -0.494639   -0.073025    0.000000  
 
   3 f  =    5.204607 THz    32.701510 2PiTHz  173.606998 cm-1    21.524532 meV
             X         Y         Z           dx          dy          dz
      0.000000  0.000000  0.000000     0.073025   -0.494639    0.000000  
      0.000000  2.000000  2.000000     0.073025    0.494639    0.000000  
      2.000000  0.000000  2.000000    -0.073025   -0.494639   -0.000000  
      2.000000  2.000000  0.000000    -0.073025    0.494639   -0.000000  
 
   4 f  =    3.566703 THz    22.410253 2PiTHz  118.972389 cm-1    14.750702 meV
             X         Y         Z           dx          dy          dz
      0.000000  0.000000  0.000000    -0.270086   -0.005870   -0.266179  
      0.000000  2.000000  2.000000     0.270086    0.413035    0.094227  
      2.000000  0.000000  2.000000     0.420347    0.005870   -0.094227  
      2.000000  2.000000  0.000000    -0.420347   -0.413035    0.266179  
 
   5 f  =    3.566703 THz    22.410253 2PiTHz  118.972389 cm-1    14.750702 meV
             X         Y         Z           dx          dy          dz
      0.000000  0.000000  0.000000     0.056524   -0.189195    0.396818  
      0.000000  2.000000  2.000000    -0.056524    0.433575    0.273181  
      2.000000  0.000000  2.000000    -0.202314    0.189195   -0.273181  
      2.000000  2.000000  0.000000     0.202314   -0.433575   -0.396818  
 
   6 f  =    3.566703 THz    22.410253 2PiTHz  118.972389 cm-1    14.750702 meV
             X         Y         Z           dx          dy          dz
      0.000000  0.000000  0.000000     0.545859   -0.281429   -0.330670  
      0.000000  2.000000  2.000000    -0.545859    0.082751    0.070910  
      2.000000  0.000000  2.000000     0.040202    0.281429   -0.070910  
      2.000000  2.000000  0.000000    -0.040202   -0.082751    0.330670  
 
   7 f  =    3.566703 THz    22.410253 2PiTHz  118.972389 cm-1    14.750702 meV
             X         Y         Z           dx          dy          dz
      0.000000  0.000000  0.000000    -0.150339    0.182176   -0.378491  
      0.000000  2.000000  2.000000     0.150339    0.035411    0.324130  
      2.000000  0.000000  2.000000    -0.441181   -0.182176   -0.324130  
      2.000000  2.000000  0.000000     0.441181   -0.035411    0.378491  
 
   8 f  =    3.566703 THz    22.410253 2PiTHz  118.972389 cm-1    14.750702 meV
             X         Y         Z           dx          dy          dz
      0.000000  0.000000  0.000000     0.305368    0.548595    0.118939  
      0.000000  2.000000  2.000000    -0.305368    0.035297    0.230731  
      2.000000  0.000000  2.000000     0.192781   -0.548595   -0.230731  
      2.000000  2.000000  0.000000    -0.192781   -0.035297   -0.118939  
 
   9 f  =    3.566703 THz    22.410253 2PiTHz  118.972389 cm-1    14.750702 meV
             X         Y         Z           dx          dy          dz
      0.000000  0.000000  0.000000     0.100222    0.225442   -0.070282  
      0.000000  2.000000  2.000000    -0.100222    0.363411   -0.503158  
      2.000000  0.000000  2.000000    -0.221261   -0.225442    0.503158  
      2.000000  2.000000  0.000000     0.221261   -0.363411    0.070282  
 
  10 f/i=    0.000000 THz     0.000002 2PiTHz    0.000008 cm-1     0.000001 meV
             X         Y         Z           dx          dy          dz
      0.000000  0.000000  0.000000     0.000000   -0.000000    0.500000  
      0.000000  2.000000  2.000000     0.000000    0.000000    0.500000  
      2.000000  0.000000  2.000000     0.000000   -0.000000    0.500000  
      2.000000  2.000000  0.000000    -0.000000    0.000000    0.500000  
 
  11 f/i=    0.000000 THz     0.000002 2PiTHz    0.000008 cm-1     0.000001 meV
             X         Y         Z           dx          dy          dz
      0.000000  0.000000  0.000000    -0.373432   -0.332489   -0.000000  
      0.000000  2.000000  2.000000    -0.373432   -0.332489    0.000000  
      2.000000  0.000000  2.000000    -0.373432   -0.332489   -0.000000  
      2.000000  2.000000  0.000000    -0.373432   -0.332489    0.000000  
 
  12 f/i=    0.000000 THz     0.000002 2PiTHz    0.000009 cm-1     0.000001 meV
             X         Y         Z           dx          dy          dz
      0.000000  0.000000  0.000000    -0.332489    0.373432    0.000000  
      0.000000  2.000000  2.000000    -0.332489    0.373432    0.000000  
      2.000000  0.000000  2.000000    -0.332489    0.373432   -0.000000  
      2.000000  2.000000  0.000000    -0.332489    0.373432   -0.000000  
 


--------------------------------------------------------------------------------------------------------



 ELASTIC MODULI CONTR FROM IONIC RELAXATION (kBar)
 Direction    XX          YY          ZZ          XY          YZ          ZX
 --------------------------------------------------------------------------------
 XX          -0.0000     -0.0000     -0.0000      0.0000      0.0000     -0.0000
 YY          -0.0000     -0.0000     -0.0000      0.0000     -0.0000      0.0000
 ZZ          -0.0000     -0.0000     -0.0000      0.0000      0.0000     -0.0000
 XY           0.0000      0.0000     -0.0000     -0.0000      0.0000     -0.0000
 YZ          -0.0000     -0.0000      0.0000      0.0000     -0.0000      0.0000
 ZX           0.0000      0.0000     -0.0000     -0.0000      0.0000     -0.0000
 --------------------------------------------------------------------------------


 TOTAL ELASTIC MODULI (kBar)
 Direction    XX          YY          ZZ          XY          YZ          ZX
 --------------------------------------------------------------------------------
 XX        2820.6255   2009.0830   2009.0830      0.0000     -0.0000      0.0000
 YY        2009.0830   2820.6255   2009.0830     -0.0000      0.0000     -0.0000
 ZZ        2009.0830   2009.0830   2820.6255     -0.0000     -0.0000      0.0000
 XY           0.0000     -0.0000     -0.0000    673.2480      0.0000     -0.0000
 YZ          -0.0000      0.0000     -0.0000      0.0000    673.2480      0.0000
 ZX           0.0000     -0.0000      0.0000     -0.0000      0.0000    673.2480
 --------------------------------------------------------------------------------



--------------------------------------------------------------------------------------------------------


  LATTYP: Found a simple cubic cell.
 ALAT       =     4.0000000000
  
  Lattice vectors:
  
 A1 = (   4.0000000000,   0.0000000000,   0.0000000000)
 A2 = (   0.0000000000,   4.0000000000,   0.0000000000)
 A3 = (   0.0000000000,   0.0000000000,   4.0000000000)


Analysis of symmetry for initial positions (statically):
=====================================================================
 Subroutine PRICEL returns following result:
 
  LATTYP: Found a face centered cubic cell.
 ALAT       =     4.0000000000
  
  Lattice vectors:
  
 A1 = (   2.0000000000,   2.0000000000,   0.0000000000)
 A2 = (   2.0000000000,   0.0000000000,  -2.0000000000)
 A3 = (   0.0000000000,   2.0000000000,  -2.0000000000)
 
   4 primitive cells build up your supercell.
 

 Routine SETGRP: Setting up the symmetry group for a 
 simple cubic supercell.


 Subroutine GETGRP returns: Found 48 space group operations
 (whereof 48 operations were pure point group operations)
 out of a pool of 48 trial point group operations.


The static configuration has the point symmetry O_h .


Analysis of symmetry for dynamics (positions and initial velocities):
=====================================================================
 Subroutine PRICEL returns following result:
 
  LATTYP: Found a face centered cubic cell.
 ALAT       =     4.0000000000
  
  Lattice vectors:
  
 A1 = (   2.0000000000,   2.0000000000,   0.0000000000)
 A2 = (   2.0000000000,   0.0000000000,  -2.0000000000)
 A3 = (   0.0000000000,   2.0000000000,  -2.0000000000)
 
   4 primitive cells build up your supercell.
 

 Routine SETGRP: Setting up the symmetry group for a 
 simple cubic supercell.


 Subroutine GETGRP returns: Found 48 space group operations
 (whereof 48 operations were pure point group operations)
 out of a pool of 48 trial point group operations.


The dynamic configuration has the point symmetry O_h .


 Subroutine INISYM returns: Found 48 space group operations
 (whereof 48 operations are pure point group operations),
 and found     4 'primitive' translations

 
 KPOINTS: k-density: 4.0                          

Automatic generation of k-mesh.
Space group operators:
 irot       det(A)        alpha          n_x          n_y          n_z        tau_x        tau_y        tau_z
    1     1.000000     0.000000     1.000000     0.000000     0.000000     0.000000     0.000000     0.000000
    2    -1.000000     0.000000     1.000000     0.000000     0.000000     0.000000     0.000000     0.000000
    3     1.000000   120.000000    -0.577350    -0.577350    -0.577350     0.000000     0.000000     0.000000
    4    -1.000000   120.000000    -0.577350    -0.577350    -0.577350     0.000000     0.000000     0.000000
    5     1.000000   120.000000     0.577350     0.577350     0.577350     0.000000     0.000000     0.000000
    6    -1.000000   120.000000     0.577350     0.577350     0.577350     0.000000     0.000000     0.000000
    7     1.000000    90.000000     0.000000     0.000000    -1.000000     0.000000     0.000000     0.000000
    8    -1.000000    90.000000     0.000000     0.000000    -1.000000     0.000000     0.000000     0.000000
    9     1.000000   180.000000     0.000000     0.707107     0.707107     0.000000     0.000000     0.000000
   10    -1.000000   180.000000     0.000000     0.707107     0.707107     0.000000     0.000000     0.000000
   11     1.000000    90.000000     0.000000     1.000000     0.000000     0.000000     0.000000     0.000000
   12    -1.000000    90.000000     0.000000     1.000000     0.000000     0.000000     0.000000     0.000000
   13     1.000000   180.000000     0.000000     0.000000     1.000000     0.000000     0.000000     0.000000
   14    -1.000000   180.000000     0.000000     0.000000     1.000000     0.000000     0.000000     0.000000
   15     1.000000   120.000000    -0.577350     0.577350     0.577350     0.000000     0.000000     0.000000
   16    -1.000000   120.000000    -0.577350     0.577350     0.577350     0.000000     0.000000     0.000000
   17     1.000000   120.000000    -0.577350     0.577350    -0.577350     0.000000     0.000000     0.000000
   18    -1.000000   120.000000    -0.577350     0.577350    -0.577350     0.000000     0.000000     0.000000
   19     1.000000    90.000000     0.000000     0.000000     1.000000     0.000000     0.000000     0.000000
   20    -1.000000    90.000000     0.000000     0.000000     1.000000     0.000000     0.000000     0.000000
   21     1.000000    90.000000    -1.000000     0.000000     0.000000     0.000000     0.000000     0.000000
   22    -1.000000    90.000000    -1.000000     0.000000     0.000000     0.000000     0.000000     0.000000
   23     1.000000   180.000000     0.707107     0.000000     0.707107     0.000000     0.000000     0.000000
   24    -1.000000   180.000000     0.707107     0.000000     0.707107     0.000000     0.000000     0.000000
   25     1.000000   120.000000     0.577350    -0.577350     0.577350     0.000000     0.000000     0.000000
   26    -1.000000   120.000000     0.577350    -0.577350     0.577350     0.000000     0.000000     0.000000
   27     1.000000   120.000000    -0.577350    -0.577350     0.577350     0.000000     0.000000     0.000000
   28    -1.000000   120.000000    -0.577350    -0.577350     0.577350     0.000000     0.000000     0.000000
   29     1.000000   180.000000     1.000000     0.000000     0.000000     0.000000     0.000000     0.000000
   30    -1.000000   180.000000     1.000000     0.000000     0.000000     0.000000     0.000000     0.000000
   31     1.000000    90.000000     0.000000    -1.000000     0.000000     0.000000     0.000000     0.000000
   32    -1.000000    90.000000     0.000000    -1.000000     0.000000     0.000000     0.000000     0.000000
   33     1.000000   180.000000     0.707107     0.707107     0.000000     0.000000     0.000000     0.000000
   34    -1.000000   180.000000     0.707107     0.707107     0.000000     0.000000     0.000000     0.000000
   35     1.000000    90.000000     1.000000     0.000000     0.000000     0.000000     0.000000     0.000000
   36    -1.000000    90.000000     1.000000     0.000000     0.000000     0.000000     0.000000     0.000000
   37     1.000000   120.000000     0.577350    -0.577350    -0.577350     0.000000     0.000000     0.000000
   38    -1.000000   120.000000     0.577350    -0.577350    -0.577350     0.000000     0.000000     0.000000
   39     1.000000   180.000000     0.000000     1.000000     0.000000     0.000000     0.000000     0.000000
   40    -1.000000   180.000000     0.000000     1.000000     0.000000     0.000000     0.000000     0.000000
   41     1.000000   120.000000     0.577350     0.577350    -0.577350     0.000000     0.000000     0.000000
   42    -1.000000   120.000000     0.577350     0.577350    -0.577350     0.000000     0.000000     0.000000
   43     1.000000   180.000000     0.000000    -0.707107     0.707107     0.000000     0.000000     0.000000
   44    -1.000000   180.000000     0.000000    -0.707107     0.707107     0.000000     0.000000     0.000000
   45     1.000000   180.000000     0.707107    -0.707107     0.000000     0.000000     0.000000     0.000000
   46    -1.000000   180.000000     0.707107    -0.707107     0.000000     0.000000     0.000000     0.000000
   47     1.000000   180.000000     0.707107     0.000000    -0.707107     0.000000     0.000000     0.000000
   48    -1.000000   180.000000     0.707107     0.000000    -0.707107     0.000000     0.000000     0.000000
 
 Subroutine IBZKPT returns following result:
 ===========================================
 
 Found     20 irreducible k-points:
 
 Following reciprocal coordinates:
            Coordinates               Weight
  0.000000  0.000000  0.000000      1.000000
  0.142857  0.000000  0.000000      6.000000
  0.285714  0.000000  0.000000      6.000000
  0.428571  0.000000  0.000000      6.000000
  0.142857  0.142857  0.000000     12.000000
  0.285714  0.142857  0.000000     24.000000
  0.428571  0.142857  0.000000     24.000000
  0.285714  0.285714  0.000000     12.000000
  0.428571  0.285714  0.000000     24.000000
  0.428571  0.428571  0.000000     12.000000
  0.142857  0.142857  0.142857      8.000000
  0.285714  0.142857  0.142857     24.000000
  0.428571  0.142857  0.142857     24.000000
  0.285714  0.285714  0.142857     24.000000
  0.428571  0.285714  0.142857     48.000000
  0.428571  0.428571  0.142857     24.000000
  0.285714  0.285714  0.285714      8.000000
  0.428571  0.285714  0.285714     24.000000
  0.428571  0.428571  0.285714     24.000000
  0.428571  0.428571  0.428571      8.000000
 
 Following cartesian coordinates:
            Coordinates               Weight
  0.000000  0.000000  0.000000      1.000000
  0.142857  0.000000  0.000000      6.000000
  0.285714  0.000000  0.000000      6.000000
  0.428571  0.000000  0.000000      6.000000
  0.142857  0.142857  0.000000     12.000000
  0.285714  0.142857  0.000000     24.000000
  0.428571  0.142857  0.000000     24.000000
  0.285714  0.285714  0.000000     12.000000
  0.428571  0.285714  0.000000     24.000000
  0.428571  0.428571  0.000000     12.000000
  0.142857  0.142857  0.142857      8.000000
  0.285714  0.142857  0.142857     24.000000
  0.428571  0.142857  0.142857     24.000000
  0.285714  0.285714  0.142857     24.000000
  0.428571  0.285714  0.142857     48.000000
  0.428571  0.428571  0.142857     24.000000
  0.285714  0.285714  0.285714      8.000000
  0.428571  0.285714  0.285714     24.000000
  0.428571  0.428571  0.285714     24.000000
  0.428571  0.428571  0.428571      8.000000
 
 writing wavefunctions
     LOOP+:  cpu time   14.9427: real time   15.1196
    4ORBIT:  cpu time    0.0000: real time    0.0000

 total amount of memory used by VASP on root node    43752. kBytes
========================================================================

   base      :      30000. kBytes
   nonlr-proj:       4658. kBytes
   fftplans  :       1986. kBytes
   grid      :       3744. kBytes
   one-center:         62. kBytes
   wavefun   :       3302. kBytes
 
  
  
 General timing and accounting informations for this job:
 ========================================================
  
                  Total CPU time used (sec):      299.388
                            User time (sec):      298.721
                          System time (sec):        0.668
                         Elapsed time (sec):      301.390
  
                   Maximum memory used (kb):       89408.
                   Average memory used (kb):           0.
  
                          Minor page faults:        39942
                          Major page faults:          281
                 Voluntary context switches:         5814
