unknown system                          
           1
     4.080000    0.000000    0.000000
     0.000000    4.000000    0.000000
     0.000000    0.000000    4.000000
   Pt
   4
Direct configuration=     1
   0.00000000  0.00000000  0.00000000
   0.00000000  0.50000000  0.50000000
   0.50000000  0.00000000  0.50000000
   0.50000000  0.50000000  0.00000000
unknown system                          
           1
     3.920000    0.000000    0.000000
     0.000000    4.000000    0.000000
     0.000000    0.000000    4.000000
   Pt
   4
Direct configuration=     2
   0.00000000  0.00000000  0.00000000
   0.00000000  0.50000000  0.50000000
   0.50000000  0.00000000  0.50000000
   0.50000000  0.50000000  0.00000000
unknown system                          
           1
     4.000000    0.000000    0.000000
     0.000000    4.080000    0.000000
     0.000000    0.000000    4.000000
   Pt
   4
Direct configuration=     3
   0.00000000  0.00000000  0.00000000
   0.00000000  0.50000000  0.50000000
   0.50000000  0.00000000  0.50000000
   0.50000000  0.50000000  0.00000000
unknown system                          
           1
     4.000000    0.000000    0.000000
     0.000000    3.920000    0.000000
     0.000000    0.000000    4.000000
   Pt
   4
Direct configuration=     4
   0.00000000  0.00000000  0.00000000
   0.00000000  0.50000000  0.50000000
   0.50000000  0.00000000  0.50000000
   0.50000000  0.50000000  0.00000000
unknown system                          
           1
     4.000000    0.000000    0.000000
     0.000000    4.000000    0.000000
     0.000000    0.000000    4.080000
   Pt
   4
Direct configuration=     5
   0.00000000  0.00000000  0.00000000
   0.00000000  0.50000000  0.50000000
   0.50000000  0.00000000  0.50000000
   0.50000000  0.50000000  0.00000000
unknown system                          
           1
     4.000000    0.000000    0.000000
     0.000000    4.000000    0.000000
     0.000000    0.000000    3.920000
   Pt
   4
Direct configuration=     6
   0.00000000  0.00000000  0.00000000
   0.00000000  0.50000000  0.50000000
   0.50000000  0.00000000  0.50000000
   0.50000000  0.50000000  0.00000000
unknown system                          
           1
     4.000000    0.080000    0.000000
     0.000000    4.000000    0.000000
     0.000000    0.000000    4.000000
   Pt
   4
Direct configuration=     7
   0.00000000  0.00000000  0.00000000
   0.00000000  0.50000000  0.50000000
   0.50000000  0.00000000  0.50000000
   0.50000000  0.50000000  0.00000000
unknown system                          
           1
     4.000000   -0.080000    0.000000
     0.000000    4.000000    0.000000
     0.000000    0.000000    4.000000
   Pt
   4
Direct configuration=     8
   0.00000000  0.00000000  0.00000000
   0.00000000  0.50000000  0.50000000
   0.50000000  0.00000000  0.50000000
   0.50000000  0.50000000  0.00000000
unknown system                          
           1
     4.000000    0.000000    0.000000
     0.000000    4.000000    0.080000
     0.000000    0.000000    4.000000
   Pt
   4
Direct configuration=     9
   0.00000000  0.00000000  0.00000000
   0.00000000  0.50000000  0.50000000
   0.50000000  0.00000000  0.50000000
   0.50000000  0.50000000  0.00000000
unknown system                          
           1
     4.000000    0.000000    0.000000
     0.000000    4.000000   -0.080000
     0.000000    0.000000    4.000000
   Pt
   4
Direct configuration=    10
   0.00000000  0.00000000  0.00000000
   0.00000000  0.50000000  0.50000000
   0.50000000  0.00000000  0.50000000
   0.50000000  0.50000000  0.00000000
unknown system                          
           1
     4.000000    0.000000    0.000000
     0.000000    4.000000    0.000000
     0.080000    0.000000    4.000000
   Pt
   4
Direct configuration=    11
   0.00000000  0.00000000  0.00000000
   0.00000000  0.50000000  0.50000000
   0.50000000  0.00000000  0.50000000
   0.50000000  0.50000000  0.00000000
unknown system                          
           1
     4.000000    0.000000    0.000000
     0.000000    4.000000    0.000000
    -0.080000    0.000000    4.000000
   Pt
   4
Direct configuration=    12
   0.00000000  0.00000000  0.00000000
   0.00000000  0.50000000  0.50000000
   0.50000000  0.00000000  0.50000000
   0.50000000  0.50000000  0.00000000
unknown system                          
           1
     4.000000    0.000000    0.000000
     0.000000    4.000000    0.000000
     0.000000    0.000000    4.000000
   Pt
   4
Direct configuration=    13
   0.00000000  0.00000000  0.00000000
   0.00000000  0.50000000  0.50000000
   0.50000000  0.00000000  0.50000000
   0.50000000  0.50000000  0.00000000
unknown system                          
           1
     4.000000    0.000000    0.000000
     0.000000    4.000000    0.000000
     0.000000    0.000000    4.000000
   Pt
   4
Direct configuration=    14
   0.00500000  0.00000000  0.00000000
   0.00000000  0.50000000  0.50000000
   0.50000000  0.00000000  0.50000000
   0.50000000  0.50000000  0.00000000
unknown system                          
           1
     4.000000    0.000000    0.000000
     0.000000    4.000000    0.000000
     0.000000    0.000000    4.000000
   Pt
   4
Direct configuration=    15
  -0.00500000  0.00000000  0.00000000
   0.00000000  0.50000000  0.50000000
   0.50000000  0.00000000  0.50000000
   0.50000000  0.50000000  0.00000000
