unknown system                          
   1.00000000000000     
     3.905268    0.000000    0.000000
     0.000000    3.905268    0.000000
     0.000000    0.000000    3.905268
   Sr   Ti   O 
     1     1     3
Direct
  0.000000  0.000000  0.000000
  0.500000  0.500000  0.500000
  0.500000  0.500000  0.000000
  0.500000  0.000000  0.500000
  0.000000  0.500000  0.500000
 
   56   56   56
  193.20      193.22      193.03      191.91      188.92      183.08      173.71      160.63      144.22      125.37    
  105.28      85.274      66.592      50.198      36.670      26.152      18.407      12.943      9.1824      6.6471    
  4.9641      3.8559      3.1311      2.6625      2.3659      2.1843      2.0792      2.0255      2.0091      2.0255    
  2.0792      2.1843      2.3659      2.6625      3.1311      3.8559      4.9641      6.6471      9.1824      12.943    
  18.407      26.152      36.670      50.198      66.592      85.274      105.28      125.37      144.22      160.63    
  173.71      183.08      188.92      191.91      193.03      193.22      193.22      193.20      192.88      191.58    
  188.37      182.32      172.77      159.57      143.11      124.28      104.27      84.395      65.867      49.632    
  36.254      25.863      18.217      12.825      9.1130      6.6105      4.9491      3.8550      3.1395      2.6771    
  2.3844      2.2053      2.1016      2.0485      2.0323      2.0485      2.1016      2.2053      2.3844      2.6771    
  3.1395      3.8550      4.9491      6.6105      9.1130      12.825      18.217      25.863      36.254      49.632    
  65.867      84.395      104.27      124.28      143.11      159.57      172.77      182.32      188.37      191.58    
  192.88      193.20      193.03      192.88      192.21      190.39      186.57      179.92      169.87      156.35    
  139.78      121.03      101.28      81.798      63.729      47.971      35.034      25.019      17.665      12.481    
  8.9117      6.5052      4.9070      3.8542      3.1658      2.7212      2.4402      2.2683      2.1687      2.1177    
  2.1022      2.1177      2.1687      2.2683      2.4402      2.7212      3.1658      3.8542      4.9070      6.5052    
  8.9117      12.481      17.665      25.019      35.034      47.971      63.729      81.798      101.28      121.03    
  139.78      156.35      169.87      179.92      186.57      190.39      192.21      192.88      191.91      191.58    
  190.39      187.80      183.09      175.57      164.84      150.90      134.22      115.69      96.423      77.602    
  60.299      45.319      33.099      23.686      16.796      11.942      8.5987      6.3446      4.8469      3.8600    
  3.2151      2.7995      2.5375      2.3778      2.2856      2.2386      2.2242      2.2386      2.2856      2.3778    
  2.5375      2.7995      3.2151      3.8600      4.8469      6.3446      8.5987      11.942      16.796      23.686    
  33.099      45.319      60.299      77.602      96.423      115.69      134.22      150.90      164.84      175.57    
  183.09      187.80      190.39      191.58      188.92      188.37      186.57      183.09      177.36      168.90    
  157.45      143.15      126.51      108.40      89.871      72.009      55.771      41.848      30.585      21.965    
  15.681      11.255      8.2062      6.1512      4.7856      3.8866      3.3007      2.9251      2.6903      2.5486    
  2.4677      2.4268      2.4144      2.4268      2.4677      2.5486      2.6903      2.9251      3.3007      3.8866    
  4.7856      6.1512      8.2062      11.255      15.681      21.965      30.585      41.848      55.771      72.009    
  89.871      108.40      126.51      143.15      157.45      168.90      177.36      183.09      186.57      188.37    
  183.08      182.32      179.92      175.57      168.90      159.60      147.61      133.15      116.80      99.396    
  81.906      65.299      50.402      37.777      27.665      19.984      14.408      10.479      7.7759      5.9556    
  4.7477      3.9554      3.4432      3.1190      2.9201      2.8030      2.7378      2.7056      2.6960      2.7056    
  2.7378      2.8030      2.9201      3.1190      3.4432      3.9554      4.7477      5.9556      7.7759      10.479    
  14.408      19.984      27.665      37.777      50.402      65.299      81.906      99.396      116.80      133.15    
  147.61      159.60      168.90      175.57      179.92      182.32      173.71      172.77      169.87      164.84    
  157.45      147.61      135.38      121.11      105.40      89.032      72.894      57.823      44.501      33.359    
  24.532      17.882      13.071      9.6820      7.3562      5.7945      4.7633      4.0934      3.6678      3.4059    
  3.2518      3.1660      3.1215      3.1010      3.0952      3.1010      3.1215      3.1660      3.2518      3.4059    
  3.6678      4.0934      4.7633      5.7945      7.3562      9.6820      13.071      17.882      24.532      33.359    
  44.501      57.823      72.894      89.032      105.40      121.11      135.38      147.61      157.45      164.84    
  169.87      172.77      160.63      159.57      156.35      150.90      143.15      133.15      121.11      107.44    
  92.751      77.773      63.280      49.978      38.402      28.856      21.381      15.794      11.763      8.9306    
  6.9968      5.7073      4.8659      4.3311      4.0040      3.8151      3.7152      3.6688      3.6511      3.6464    
  3.6457      3.6464      3.6511      3.6688      3.7152      3.8151      4.0040      4.3311      4.8659      5.7073    
  6.9968      8.9306      11.763      15.794      21.381      28.856      38.402      49.978      63.280      77.773    
  92.751      107.44      121.11      133.15      143.15      150.90      156.35      159.57      144.22      143.11    
  139.78      134.22      126.51      116.80      105.40      92.751      79.454      66.167      53.551      42.174    
  32.435      24.518      18.390      13.843      10.570      8.2879      6.7453      5.7328      5.0905      4.7028    
  4.4874      4.3850      4.3520      4.3561      4.3740      4.3904      4.3968      4.3904      4.3740      4.3561    
  4.3520      4.3850      4.4874      4.7028      5.0905      5.7328      6.7453      8.2879      10.570      13.843    
  18.390      24.518      32.435      42.174      53.551      66.167      79.454      92.751      105.40      116.80    
  126.51      134.22      139.78      143.11      125.37      124.28      121.03      115.69      108.40      99.396    
  89.032      77.773      66.167      54.793      44.191      34.798      26.889      20.551      15.699      12.120    
  9.5638      7.8064      6.6436      5.9086      5.4747      5.2491      5.1639      5.1676      5.2205      5.2918    
  5.3582      5.4041      5.4204      5.4041      5.3582      5.2918      5.2205      5.1676      5.1639      5.2491    
  5.4747      5.9086      6.6436      7.8064      9.5638      12.120      15.699      20.551      26.889      34.798    
  44.191      54.793      66.167      77.773      89.032      99.396      108.40      115.69      121.03      124.28    
  105.28      104.27      101.28      96.423      89.871      81.906      72.894      63.280      53.551      44.191    
  35.624      28.166      21.987      17.104      13.402      10.694      8.7957      7.5273      6.7295      6.2741    
  6.0632      6.0229      6.0958      6.2354      6.4031      6.5668      6.7014      6.7893      6.8197      6.7893    
  6.7014      6.5668      6.4031      6.2354      6.0958      6.0229      6.0632      6.2741      6.7295      7.5273    
  8.7957      10.694      13.402      17.104      21.987      28.166      35.624      44.191      53.551      63.280    
  72.894      81.906      89.871      96.423      101.28      104.27      85.274      84.395      81.798      77.602    
  72.009      65.299      57.823      49.978      42.174      34.798      28.166      22.490      17.861      14.250    
  11.543      9.6068      8.2993      7.4834      7.0409      6.8766      6.9156      7.0978      7.3720      7.6924    
  8.0177      8.3116      8.5440      8.6925      8.7435      8.6925      8.5440      8.3116      8.0177      7.6924    
  7.3720      7.0978      6.9156      6.8766      7.0409      7.4834      8.2993      9.6068      11.543      14.250    
  17.861      22.490      28.166      34.798      42.174      49.978      57.823      65.299      72.009      77.602    
  81.798      84.395      66.592      65.867      63.729      60.299      55.771      50.402      44.501      38.402    
  32.435      26.889      21.987      17.861      14.547      12.000      10.141      8.8739      8.0946      7.7050    
  7.6219      7.7768      8.1115      8.5737      9.1131      9.6799      10.225      10.704      11.077      11.313    
  11.394      11.313      11.077      10.704      10.225      9.6799      9.1131      8.5737      8.1115      7.7768    
  7.6219      7.7050      8.0946      8.8739      10.141      12.000      14.547      17.861      21.987      26.889    
  32.435      38.402      44.501      50.402      55.771      60.299      63.729      65.867      50.198      49.632    
  47.971      45.319      41.848      37.777      33.359      28.856      24.518      20.551      17.104      14.250    
  12.000      10.327      9.1811      8.4940      8.1965      8.2255      8.5266      9.0509      9.7506      10.576    
  11.471      12.377      13.231      13.973      14.549      14.913      15.037      14.913      14.549      13.973    
  13.231      12.377      11.471      10.576      9.7506      9.0509      8.5266      8.2255      8.1965      8.4940    
  9.1811      10.327      12.000      14.250      17.104      20.551      24.518      28.856      33.359      37.777    
  41.848      45.319      47.971      49.632      36.670      36.254      35.034      33.099      30.585      27.665    
  24.532      21.381      18.390      15.699      13.402      11.543      10.141      9.1811      8.6330      8.4582    
  8.6197      9.0838      9.8181      10.787      11.949      13.251      14.628      16.006      17.301      18.427    
  19.302      19.857      20.047      19.857      19.302      18.427      17.301      16.006      14.628      13.251    
  11.949      10.787      9.8181      9.0838      8.6197      8.4582      8.6330      9.1811      10.141      11.543    
  13.402      15.699      18.390      21.381      24.532      27.665      30.585      33.099      35.034      36.254    
  26.152      25.863      25.019      23.686      21.965      19.984      17.882      15.794      13.843      12.120    
  10.694      9.6068      8.8739      8.4940      8.4582      8.7568      9.3813      10.322      11.565      13.083    
  14.840      16.778      18.821      20.873      22.816      24.521      25.856      26.709      27.002      26.709    
  25.856      24.521      22.816      20.873      18.821      16.778      14.840      13.083      11.565      10.322    
  9.3813      8.7568      8.4582      8.4940      8.8739      9.6068      10.694      12.120      13.843      15.794    
  17.882      19.984      21.965      23.686      25.019      25.863      18.407      18.217      17.665      16.796    
  15.681      14.408      13.071      11.763      10.570      9.5638      8.7957      8.2993      8.0946      8.1965    
  8.6197      9.3813      10.498      11.982      13.835      16.044      18.580      21.388      24.379      27.425    
  30.351      32.954      35.014      36.341      36.799      36.341      35.014      32.954      30.351      27.425    
  24.379      21.388      18.580      16.044      13.835      11.982      10.498      9.3813      8.6197      8.1965    
  8.0946      8.2993      8.7957      9.5638      10.570      11.763      13.071      14.408      15.681      16.796    
  17.665      18.217      12.943      12.825      12.481      11.942      11.255      10.479      9.6820      8.9306    
  8.2879      7.8064      7.5273      7.4834      7.7050      8.2255      9.0838      10.322      11.982      14.098    
  16.695      19.788      23.369      27.395      31.764      36.296      40.726      44.718      47.911      49.979    
  50.696      49.979      47.911      44.718      40.726      36.296      31.764      27.395      23.369      19.788    
  16.695      14.098      11.982      10.322      9.0838      8.2255      7.7050      7.4834      7.5273      7.8064    
  8.2879      8.9306      9.6820      10.479      11.255      11.942      12.481      12.825      9.1824      9.1130    
  8.9117      8.5987      8.2062      7.7759      7.3562      6.9968      6.7453      6.6436      6.7295      7.0409    
  7.6219      8.5266      9.8181      11.565      13.835      16.695      20.214      24.454      29.454      35.198    
  41.565      48.291      54.955      61.016      65.893      69.072      70.178      69.072      65.893      61.016    
  54.955      48.291      41.565      35.198      29.454      24.454      20.214      16.695      13.835      11.565    
  9.8181      8.5266      7.6219      7.0409      6.7295      6.6436      6.7453      6.9968      7.3562      7.7759    
  8.2062      8.5987      8.9117      9.1130      6.6471      6.6105      6.5052      6.3446      6.1512      5.9556    
  5.7945      5.7073      5.7328      5.9086      6.2741      6.8766      7.7768      9.0509      10.787      13.083    
  16.044      19.788      24.454      30.187      37.108      45.237      54.413      64.227      74.077      83.258    
  90.840      95.866      97.628      95.866      90.840      83.258      74.077      64.227      54.413      45.237    
  37.108      30.187      24.454      19.788      16.044      13.083      10.787      9.0509      7.7768      6.8766    
  6.2741      5.9086      5.7328      5.7073      5.7945      5.9556      6.1512      6.3446      6.5052      6.6105    
  4.9641      4.9491      4.9070      4.8469      4.7856      4.7477      4.7633      4.8659      5.0905      5.4747    
  6.0632      6.9156      8.1115      9.7506      11.949      14.840      18.580      23.369      29.454      37.108    
  46.558      57.860      70.782      84.996      99.820      113.94      125.69      133.49      136.22      133.49    
  125.69      113.94      99.820      84.996      70.782      57.860      46.558      37.108      29.454      23.369    
  18.580      14.840      11.949      9.7506      8.1115      6.9156      6.0632      5.4747      5.0905      4.8659    
  4.7633      4.7477      4.7856      4.8469      4.9070      4.9491      3.8559      3.8550      3.8542      3.8600    
  3.8866      3.9554      4.0934      4.3311      4.7028      5.2491      6.0229      7.0978      8.5737      10.576    
  13.251      16.778      21.388      27.395      35.198      45.237      57.860      73.168      91.316      111.99    
  133.81      154.55      171.67      182.96      186.89      182.96      171.67      154.55      133.81      111.99    
  91.316      73.168      57.860      45.237      35.198      27.395      21.388      16.778      13.251      10.576    
  8.5737      7.0978      6.0229      5.2491      4.7028      4.3311      4.0934      3.9554      3.8866      3.8600    
  3.8542      3.8550      3.1311      3.1395      3.1658      3.2151      3.3007      3.4432      3.6678      4.0040    
  4.4874      5.1639      6.0958      7.3720      9.1131      11.471      14.628      18.821      24.379      31.764    
  41.565      54.413      70.782      91.316      116.49      145.38      175.59      203.86      226.82      241.75    
  246.91      241.75      226.82      203.86      175.59      145.38      116.49      91.316      70.782      54.413    
  41.565      31.764      24.379      18.821      14.628      11.471      9.1131      7.3720      6.0958      5.1639    
  4.4874      4.0040      3.6678      3.4432      3.3007      3.2151      3.1658      3.1395      2.6625      2.6771    
  2.7212      2.7995      2.9251      3.1190      3.4059      3.8151      4.3850      5.1676      6.2354      7.6924    
  9.6799      12.377      16.006      20.873      27.425      36.296      48.291      64.227      84.996      111.99    
  145.38      183.30      222.20      257.77      286.05      304.12      310.31      304.12      286.05      257.77    
  222.20      183.30      145.38      111.99      84.996      64.227      48.291      36.296      27.425      20.873    
  16.006      12.377      9.6799      7.6924      6.2354      5.1676      4.3850      3.8151      3.4059      3.1190    
  2.9251      2.7995      2.7212      2.6771      2.3659      2.3844      2.4402      2.5375      2.6903      2.9201    
  3.2518      3.7152      4.3520      5.2205      6.4031      8.0177      10.225      13.231      17.301      22.816    
  30.351      40.726      54.955      74.077      99.820      133.81      175.59      222.20      268.87      310.46    
  342.73      362.96      369.83      362.96      342.73      310.46      268.87      222.20      175.59      133.81    
  99.820      74.077      54.955      40.726      30.351      22.816      17.301      13.231      10.225      8.0177    
  6.4031      5.2205      4.3520      3.7152      3.2518      2.9201      2.6903      2.5375      2.4402      2.3844    
  2.1843      2.2053      2.2683      2.3778      2.5486      2.8030      3.1660      3.6688      4.3561      5.2918    
  6.5668      8.3116      10.704      13.973      18.427      24.521      32.954      44.718      61.016      83.258    
  113.94      154.55      203.86      257.77      310.46      356.21      390.88      412.20      419.37      412.20    
  390.88      356.21      310.46      257.77      203.86      154.55      113.94      83.258      61.016      44.718    
  32.954      24.521      18.427      13.973      10.704      8.3116      6.5668      5.2918      4.3561      3.6688    
  3.1660      2.8030      2.5486      2.3778      2.2683      2.2053      2.0792      2.1016      2.1687      2.2856    
  2.4677      2.7378      3.1215      3.6511      4.3740      5.3582      6.7014      8.5440      11.077      14.549    
  19.302      25.856      35.014      47.911      65.893      90.840      125.69      171.67      226.82      286.05    
  342.73      390.88      426.59      448.21      455.40      448.21      426.59      390.88      342.73      286.05    
  226.82      171.67      125.69      90.840      65.893      47.911      35.014      25.856      19.302      14.549    
  11.077      8.5440      6.7014      5.3582      4.3740      3.6511      3.1215      2.7378      2.4677      2.2856    
  2.1687      2.1016      2.0255      2.0485      2.1177      2.2386      2.4268      2.7056      3.1010      3.6464    
  4.3904      5.4041      6.7893      8.6925      11.313      14.913      19.857      26.709      36.341      49.979    
  69.072      95.866      133.49      182.96      241.75      304.12      362.96      412.20      448.21      469.74    
  476.86      469.74      448.21      412.20      362.96      304.12      241.75      182.96      133.49      95.866    
  69.072      49.979      36.341      26.709      19.857      14.913      11.313      8.6925      6.7893      5.4041    
  4.3904      3.6464      3.1010      2.7056      2.4268      2.2386      2.1177      2.0485      2.0091      2.0323    
  2.1022      2.2242      2.4144      2.6960      3.0952      3.6457      4.3968      5.4204      6.8197      8.7435    
  11.394      15.037      20.047      27.002      36.799      50.696      70.178      97.628      136.22      186.89    
  246.91      310.31      369.83      419.37      455.40      476.86      483.94      476.86      455.40      419.37    
  369.83      310.31      246.91      186.89      136.22      97.628      70.178      50.696      36.799      27.002    
  20.047      15.037      11.394      8.7435      6.8197      5.4204      4.3968      3.6457      3.0952      2.6960    
  2.4144      2.2242      2.1022      2.0323      2.0255      2.0485      2.1177      2.2386      2.4268      2.7056    
  3.1010      3.6464      4.3904      5.4041      6.7893      8.6925      11.313      14.913      19.857      26.709    
  36.341      49.979      69.072      95.866      133.49      182.96      241.75      304.12      362.96      412.20    
  448.21      469.74      476.86      469.74      448.21      412.20      362.96      304.12      241.75      182.96    
  133.49      95.866      69.072      49.979      36.341      26.709      19.857      14.913      11.313      8.6925    
  6.7893      5.4041      4.3904      3.6464      3.1010      2.7056      2.4268      2.2386      2.1177      2.0485    
  2.0792      2.1016      2.1687      2.2856      2.4677      2.7378      3.1215      3.6511      4.3740      5.3582    
  6.7014      8.5440      11.077      14.549      19.302      25.856      35.014      47.911      65.893      90.840    
  125.69      171.67      226.82      286.05      342.73      390.88      426.59      448.21      455.40      448.21    
  426.59      390.88      342.73      286.05      226.82      171.67      125.69      90.840      65.893      47.911    
  35.014      25.856      19.302      14.549      11.077      8.5440      6.7014      5.3582      4.3740      3.6511    
  3.1215      2.7378      2.4677      2.2856      2.1687      2.1016      2.1843      2.2053      2.2683      2.3778    
  2.5486      2.8030      3.1660      3.6688      4.3561      5.2918      6.5668      8.3116      10.704      13.973    
  18.427      24.521      32.954      44.718      61.016      83.258      113.94      154.55      203.86      257.77    
  310.46      356.21      390.88      412.20      419.37      412.20      390.88      356.21      310.46      257.77    
  203.86      154.55      113.94      83.258      61.016      44.718      32.954      24.521      18.427      13.973    
  10.704      8.3116      6.5668      5.2918      4.3561      3.6688      3.1660      2.8030      2.5486      2.3778    
  2.2683      2.2053      2.3659      2.3844      2.4402      2.5375      2.6903      2.9201      3.2518      3.7152    
  4.3520      5.2205      6.4031      8.0177      10.225      13.231      17.301      22.816      30.351      40.726    
  54.955      74.077      99.820      133.81      175.59      222.20      268.87      310.46      342.73      362.96    
  369.83      362.96      342.73      310.46      268.87      222.20      175.59      133.81      99.820      74.077    
  54.955      40.726      30.351      22.816      17.301      13.231      10.225      8.0177      6.4031      5.2205    
  4.3520      3.7152      3.2518      2.9201      2.6903      2.5375      2.4402      2.3844      2.6625      2.6771    
  2.7212      2.7995      2.9251      3.1190      3.4059      3.8151      4.3850      5.1676      6.2354      7.6924    
  9.6799      12.377      16.006      20.873      27.425      36.296      48.291      64.227      84.996      111.99    
  145.38      183.30      222.20      257.77      286.05      304.12      310.31      304.12      286.05      257.77    
  222.20      183.30      145.38      111.99      84.996      64.227      48.291      36.296      27.425      20.873    
  16.006      12.377      9.6799      7.6924      6.2354      5.1676      4.3850      3.8151      3.4059      3.1190    
  2.9251      2.7995      2.7212      2.6771      3.1311      3.1395      3.1658      3.2151      3.3007      3.4432    
  3.6678      4.0040      4.4874      5.1639      6.0958      7.3720      9.1131      11.471      14.628      18.821    
  24.379      31.764      41.565      54.413      70.782      91.316      116.49      145.38      175.59      203.86    
  226.82      241.75      246.91      241.75      226.82      203.86      175.59      145.38      116.49      91.316    
  70.782      54.413      41.565      31.764      24.379      18.821      14.628      11.471      9.1131      7.3720    
  6.0958      5.1639      4.4874      4.0040      3.6678      3.4432      3.3007      3.2151      3.1658      3.1395    
  3.8559      3.8550      3.8542      3.8600      3.8866      3.9554      4.0934      4.3311      4.7028      5.2491    
  6.0229      7.0978      8.5737      10.576      13.251      16.778      21.388      27.395      35.198      45.237    
  57.860      73.168      91.316      111.99      133.81      154.55      171.67      182.96      186.89      182.96    
  171.67      154.55      133.81      111.99      91.316      73.168      57.860      45.237      35.198      27.395    
  21.388      16.778      13.251      10.576      8.5737      7.0978      6.0229      5.2491      4.7028      4.3311    
  4.0934      3.9554      3.8866      3.8600      3.8542      3.8550      4.9641      4.9491      4.9070      4.8469    
  4.7856      4.7477      4.7633      4.8659      5.0905      5.4747      6.0632      6.9156      8.1115      9.7506    
  11.949      14.840      18.580      23.369      29.454      37.108      46.558      57.860      70.782      84.996    
  99.820      113.94      125.69      133.49      136.22      133.49      125.69      113.94      99.820      84.996    
  70.782      57.860      46.558      37.108      29.454      23.369      18.580      14.840      11.949      9.7506    
  8.1115      6.9156      6.0632      5.4747      5.0905      4.8659      4.7633      4.7477      4.7856      4.8469    
  4.9070      4.9491      6.6471      6.6105      6.5052      6.3446      6.1512      5.9556      5.7945      5.7073    
  5.7328      5.9086      6.2741      6.8766      7.7768      9.0509      10.787      13.083      16.044      19.788    
  24.454      30.187      37.108      45.237      54.413      64.227      74.077      83.258      90.840      95.866    
  97.628      95.866      90.840      83.258      74.077      64.227      54.413      45.237      37.108      30.187    
  24.454      19.788      16.044      13.083      10.787      9.0509      7.7768      6.8766      6.2741      5.9086    
  5.7328      5.7073      5.7945      5.9556      6.1512      6.3446      6.5052      6.6105      9.1824      9.1130    
  8.9117      8.5987      8.2062      7.7759      7.3562      6.9968      6.7453      6.6436      6.7295      7.0409    
  7.6219      8.5266      9.8181      11.565      13.835      16.695      20.214      24.454      29.454      35.198    
  41.565      48.291      54.955      61.016      65.893      69.072      70.178      69.072      65.893      61.016    
  54.955      48.291      41.565      35.198      29.454      24.454      20.214      16.695      13.835      11.565    
  9.8181      8.5266      7.6219      7.0409      6.7295      6.6436      6.7453      6.9968      7.3562      7.7759    
  8.2062      8.5987      8.9117      9.1130      12.943      12.825      12.481      11.942      11.255      10.479    
  9.6820      8.9306      8.2879      7.8064      7.5273      7.4834      7.7050      8.2255      9.0838      10.322    
  11.982      14.098      16.695      19.788      23.369      27.395      31.764      36.296      40.726      44.718    
  47.911      49.979      50.696      49.979      47.911      44.718      40.726      36.296      31.764      27.395    
  23.369      19.788      16.695      14.098      11.982      10.322      9.0838      8.2255      7.7050      7.4834    
  7.5273      7.8064      8.2879      8.9306      9.6820      10.479      11.255      11.942      12.481      12.825    
  18.407      18.217      17.665      16.796      15.681      14.408      13.071      11.763      10.570      9.5638    
  8.7957      8.2993      8.0946      8.1965      8.6197      9.3813      10.498      11.982      13.835      16.044    
  18.580      21.388      24.379      27.425      30.351      32.954      35.014      36.341      36.799      36.341    
  35.014      32.954      30.351      27.425      24.379      21.388      18.580      16.044      13.835      11.982    
  10.498      9.3813      8.6197      8.1965      8.0946      8.2993      8.7957      9.5638      10.570      11.763    
  13.071      14.408      15.681      16.796      17.665      18.217      26.152      25.863      25.019      23.686    
  21.965      19.984      17.882      15.794      13.843      12.120      10.694      9.6068      8.8739      8.4940    
  8.4582      8.7568      9.3813      10.322      11.565      13.083      14.840      16.778      18.821      20.873    
  22.816      24.521      25.856      26.709      27.002      26.709      25.856      24.521      22.816      20.873    
  18.821      16.778      14.840      13.083      11.565      10.322      9.3813      8.7568      8.4582      8.4940    
  8.8739      9.6068      10.694      12.120      13.843      15.794      17.882      19.984      21.965      23.686    
  25.019      25.863      36.670      36.254      35.034      33.099      30.585      27.665      24.532      21.381    
  18.390      15.699      13.402      11.543      10.141      9.1811      8.6330      8.4582      8.6197      9.0838    
  9.8181      10.787      11.949      13.251      14.628      16.006      17.301      18.427      19.302      19.857    
  20.047      19.857      19.302      18.427      17.301      16.006      14.628      13.251      11.949      10.787    
  9.8181      9.0838      8.6197      8.4582      8.6330      9.1811      10.141      11.543      13.402      15.699    
  18.390      21.381      24.532      27.665      30.585      33.099      35.034      36.254      50.198      49.632    
  47.971      45.319      41.848      37.777      33.359      28.856      24.518      20.551      17.104      14.250    
  12.000      10.327      9.1811      8.4940      8.1965      8.2255      8.5266      9.0509      9.7506      10.576    
  11.471      12.377      13.231      13.973      14.549      14.913      15.037      14.913      14.549      13.973    