unknown system                          
   1.00000000000000     
     3.905268    0.000000    0.000000
     0.000000    3.905268    0.000000
     0.000000    0.000000    3.905268
   Sr   Ti   O 
     1     1     3
Direct
  0.000000  0.000000  0.000000
  0.500000  0.500000  0.500000
  0.500000  0.500000  0.000000
  0.500000  0.000000  0.500000
  0.000000  0.500000  0.500000
 
   56   56   56
 0.19320150061E+03 0.19322116453E+03 0.19302525671E+03 0.19191256883E+03 0.18891745876E+03
 0.18307610185E+03 0.17370855850E+03 0.16062942564E+03 0.14422217982E+03 0.12536866961E+03
 0.10527784754E+03 0.85274448457E+02 0.66592363132E+02 0.50198469742E+02 0.36669992873E+02
 0.26151724420E+02 0.18406786422E+02 0.12943042796E+02 0.91823701427E+01 0.66471288017E+01
 0.49641152514E+01 0.38558974744E+01 0.31310808034E+01 0.26624926244E+01 0.23658521479E+01
 0.21842930919E+01 0.20792066274E+01 0.20255035025E+01 0.20091080076E+01 0.20255035025E+01
 0.20792066274E+01 0.21842930919E+01 0.23658521479E+01 0.26624926244E+01 0.31310808034E+01
 0.38558974744E+01 0.49641152514E+01 0.66471288017E+01 0.91823701427E+01 0.12943042796E+02
 0.18406786422E+02 0.26151724420E+02 0.36669992873E+02 0.50198469742E+02 0.66592363132E+02
 0.85274448457E+02 0.10527784754E+03 0.12536866961E+03 0.14422217982E+03 0.16062942564E+03
 0.17370855850E+03 0.18307610185E+03 0.18891745876E+03 0.19191256883E+03 0.19302525671E+03
 0.19322116453E+03 0.19322116453E+03 0.19319766545E+03 0.19287874190E+03 0.19158200377E+03
 0.18837066032E+03 0.18231500322E+03 0.17276771459E+03 0.15956786242E+03 0.14311120044E+03
 0.12427937696E+03 0.10427129069E+03 0.84395427466E+02 0.65866568830E+02 0.49632418423E+02
 0.36253525294E+02 0.25862752899E+02 0.18217325663E+02 0.12824987867E+02 0.91129648280E+01
 0.66105396760E+01 0.49491194498E+01 0.38550303789E+01 0.31395186323E+01 0.26770758488E+01
 0.23844145422E+01 0.22052936581E+01 0.21015643673E+01 0.20485049224E+01 0.20322933455E+01
 0.20485049224E+01 0.21015643673E+01 0.22052936581E+01 0.23844145422E+01 0.26770758488E+01
 0.31395186323E+01 0.38550303789E+01 0.49491194498E+01 0.66105396760E+01 0.91129648280E+01
 0.12824987867E+02 0.18217325663E+02 0.25862752899E+02 0.36253525294E+02 0.49632418423E+02
 0.65866568830E+02 0.84395427466E+02 0.10427129069E+03 0.12427937696E+03 0.14311120044E+03
 0.15956786242E+03 0.17276771459E+03 0.18231500322E+03 0.18837066032E+03 0.19158200377E+03
 0.19287874190E+03 0.19319766545E+03 0.19302525671E+03 0.19287874190E+03 0.19220984210E+03
 0.19039134009E+03 0.18657034966E+03 0.17991544905E+03 0.16987237145E+03 0.15634917987E+03
 0.13977545146E+03 0.12103101744E+03 0.10128489072E+03 0.81797968798E+02 0.63729242180E+02
 0.47970562376E+02 0.35034154080E+02 0.25018696543E+02 0.17665019943E+02 0.12481329087E+02
 0.89116559487E+01 0.65052241107E+01 0.49069606899E+01 0.38541608333E+01 0.31657785209E+01
 0.27212138789E+01 0.24401649493E+01 0.22682760879E+01 0.21687206295E+01 0.21177484295E+01
 0.21021604018E+01 0.21177484295E+01 0.21687206295E+01 0.22682760879E+01 0.24401649493E+01
 0.27212138789E+01 0.31657785209E+01 0.38541608333E+01 0.49069606899E+01 0.65052241107E+01
 0.89116559487E+01 0.12481329087E+02 0.17665019943E+02 0.25018696543E+02 0.35034154080E+02
 0.47970562376E+02 0.63729242180E+02 0.81797968798E+02 0.10128489072E+03 0.12103101744E+03
 0.13977545146E+03 0.15634917987E+03 0.16987237145E+03 0.17991544905E+03 0.18657034966E+03
 0.19039134009E+03 0.19220984210E+03 0.19287874190E+03 0.19191256883E+03 0.19158200377E+03
 0.19039134009E+03 0.18780053367E+03 0.18308740947E+03 0.17557109083E+03 0.16483723671E+03
 0.15089533858E+03 0.13422231287E+03 0.11569143356E+03 0.96422885486E+02 0.77601908476E+02
 0.60299373770E+02 0.45319400829E+02 0.33099169141E+02 0.23685528098E+02 0.16796078577E+02
 0.11942367313E+02 0.85986699478E+01 0.63446304951E+01 0.48468537796E+01 0.38599908408E+01
 0.32151359158E+01 0.27994646261E+01 0.25374635384E+01 0.23777919019E+01 0.22856321428E+01
 0.22385775640E+01 0.22242102699E+01 0.22385775640E+01 0.22856321429E+01 0.23777919019E+01
 0.25374635384E+01 0.27994646261E+01 0.32151359158E+01 0.38599908408E+01 0.48468537796E+01
 0.63446304951E+01 0.85986699478E+01 0.11942367313E+02 0.16796078577E+02 0.23685528098E+02
 0.33099169141E+02 0.45319400829E+02 0.60299373770E+02 0.77601908476E+02 0.96422885486E+02
 0.11569143356E+03 0.13422231287E+03 0.15089533858E+03 0.16483723671E+03 0.17557109083E+03
 0.18308740947E+03 0.18780053367E+03 0.19039134009E+03 0.19158200377E+03 0.18891745876E+03
 0.18837066032E+03 0.18657034966E+03 0.18308740947E+03 0.17736314111E+03 0.16890094702E+03
 0.15745358815E+03 0.14314773816E+03 0.12651059135E+03 0.10840033203E+03 0.89870938158E+02
 0.72008725591E+02 0.55770577757E+02 0.41848334745E+02 0.30585027772E+02 0.21965049569E+02
 0.15681287942E+02 0.11255215166E+02 0.82061594348E+01 0.61512043433E+01 0.47856212157E+01
 0.38865796008E+01 0.33007330197E+01 0.29251302265E+01 0.26902834053E+01 0.25485994400E+01
 0.24677124062E+01 0.24268169259E+01 0.24144049828E+01 0.24268169259E+01 0.24677124062E+01
 0.25485994400E+01 0.26902834053E+01 0.29251302265E+01 0.33007330197E+01 0.38865796008E+01
 0.47856212157E+01 0.61512043433E+01 0.82061594348E+01 0.11255215166E+02 0.15681287942E+02
 0.21965049569E+02 0.30585027772E+02 0.41848334745E+02 0.55770577757E+02 0.72008725591E+02
 0.89870938158E+02 0.10840033203E+03 0.12651059135E+03 0.14314773816E+03 0.15745358815E+03
 0.16890094702E+03 0.17736314111E+03 0.18308740947E+03 0.18657034966E+03 0.18837066032E+03
 0.18307610185E+03 0.18231500322E+03 0.17991544905E+03 0.17557109083E+03 0.16890094702E+03
 0.15960411170E+03 0.14760569786E+03 0.13314795625E+03 0.11680096381E+03 0.99395996792E+02
 0.81905539819E+02 0.65299242212E+02 0.50401795827E+02 0.37777231696E+02 0.27664760722E+02
 0.19984127166E+02 0.14408043854E+02 0.10479498466E+02 0.77759448625E+01 0.59556046493E+01
 0.47476889655E+01 0.39554294896E+01 0.34431841189E+01 0.31190469198E+01 0.29201485027E+01
 0.28029586728E+01 0.27377833462E+01 0.27056104007E+01 0.26959893056E+01 0.27056104007E+01
 0.27377833462E+01 0.28029586728E+01 0.29201485027E+01 0.31190469198E+01 0.34431841189E+01
 0.39554294896E+01 0.47476889655E+01 0.59556046493E+01 0.77759448625E+01 0.10479498466E+02
 0.14408043854E+02 0.19984127166E+02 0.27664760722E+02 0.37777231696E+02 0.50401795827E+02
 0.65299242212E+02 0.81905539819E+02 0.99395996792E+02 0.11680096381E+03 0.13314795625E+03
 0.14760569786E+03 0.15960411170E+03 0.16890094702E+03 0.17557109083E+03 0.17991544905E+03
 0.18231500322E+03 0.17370855850E+03 0.17276771459E+03 0.16987237145E+03 0.16483723671E+03
 0.15745358815E+03 0.14760569786E+03 0.13537637784E+03 0.12110720453E+03 0.10539561477E+03
 0.89031953693E+02 0.72894204904E+02 0.57823156676E+02 0.44501182745E+02 0.33358781458E+02
 0.24531789383E+02 0.17881672630E+02 0.13070992171E+02 0.96820293595E+01 0.73561626437E+01
 0.57945214860E+01 0.47632974997E+01 0.40934272521E+01 0.36677942815E+01 0.34059349127E+01
 0.32517920798E+01 0.31659808229E+01 0.31214834142E+01 0.31010415625E+01 0.30952198376E+01
 0.31010415625E+01 0.31214834142E+01 0.31659808229E+01 0.32517920798E+01 0.34059349127E+01
 0.36677942815E+01 0.40934272521E+01 0.47632974997E+01 0.57945214860E+01 0.73561626437E+01
 0.96820293595E+01 0.13070992171E+02 0.17881672630E+02 0.24531789383E+02 0.33358781458E+02
 0.44501182745E+02 0.57823156676E+02 0.72894204904E+02 0.89031953693E+02 0.10539561477E+03
 0.12110720453E+03 0.13537637784E+03 0.14760569786E+03 0.15745358815E+03 0.16483723671E+03
 0.16987237145E+03 0.17276771459E+03 0.16062942564E+03 0.15956786242E+03 0.15634917987E+03
 0.15089533858E+03 0.14314773816E+03 0.13314795625E+03 0.12110720453E+03 0.10744008284E+03
 0.92750647214E+02 0.77773181187E+02 0.63280446491E+02 0.49977524860E+02 0.38402423215E+02
 0.28856152610E+02 0.21381191092E+02 0.15794401723E+02 0.11762956117E+02 0.89306466041E+01
 0.69968220580E+01 0.57072947212E+01 0.48659101209E+01 0.43311217766E+01 0.40039655975E+01
 0.38151431124E+01 0.37152325073E+01 0.36687876841E+01 0.36511367028E+01 0.36463622474E+01
 0.36456969868E+01 0.36463622474E+01 0.36511367028E+01 0.36687876841E+01 0.37152325073E+01
 0.38151431124E+01 0.40039655975E+01 0.43311217766E+01 0.48659101209E+01 0.57072947212E+01
 0.69968220580E+01 0.89306466041E+01 0.11762956117E+02 0.15794401723E+02 0.21381191092E+02
 0.28856152610E+02 0.38402423215E+02 0.49977524860E+02 0.63280446491E+02 0.77773181187E+02
 0.92750647214E+02 0.10744008284E+03 0.12110720453E+03 0.13314795625E+03 0.14314773816E+03
 0.15089533858E+03 0.15634917987E+03 0.15956786242E+03 0.14422217982E+03 0.14311120044E+03
 0.13977545146E+03 0.13422231287E+03 0.12651059135E+03 0.11680096381E+03 0.10539561477E+03
 0.92750647214E+02 0.79453509762E+02 0.66167299083E+02 0.53551459320E+02 0.42174020267E+02
 0.32434546927E+02 0.24517573128E+02 0.18390026205E+02 0.13842668066E+02 0.10570096801E+02
 0.82879239710E+01 0.67452773800E+01 0.57327725120E+01 0.50905208321E+01 0.47028140596E+01
 0.44874017083E+01 0.43850409758E+01 0.43520468698E+01 0.43560757236E+01 0.43739757108E+01
 0.43904342363E+01 0.43968412764E+01 0.43904342363E+01 0.43739757108E+01 0.43560757236E+01
 0.43520468698E+01 0.43850409758E+01 0.44874017083E+01 0.47028140596E+01 0.50905208321E+01
 0.57327725120E+01 0.67452773800E+01 0.82879239710E+01 0.10570096801E+02 0.13842668066E+02
 0.18390026205E+02 0.24517573128E+02 0.32434546927E+02 0.42174020267E+02 0.53551459320E+02
 0.66167299083E+02 0.79453509762E+02 0.92750647214E+02 0.10539561477E+03 0.11680096381E+03
 0.12651059135E+03 0.13422231287E+03 0.13977545146E+03 0.14311120044E+03 0.12536866961E+03
 0.12427937696E+03 0.12103101744E+03 0.11569143356E+03 0.10840033203E+03 0.99395996792E+02
 0.89031953693E+02 0.77773181187E+02 0.66167299083E+02 0.54792625891E+02 0.44190937324E+02
 0.34798021381E+02 0.26888596673E+02 0.20551014592E+02 0.15699388768E+02 0.12119666488E+02
 0.95637676402E+01 0.78064046356E+01 0.66435837559E+01 0.59085631570E+01 0.54746651586E+01
 0.52491026879E+01 0.51638507292E+01 0.51676042745E+01 0.52205435493E+01 0.52917549021E+01
 0.53581923383E+01 0.54040948916E+01 0.54203799669E+01 0.54040948916E+01 0.53581923383E+01
 0.52917549021E+01 0.52205435493E+01 0.51676042745E+01 0.51638507292E+01 0.52491026879E+01
 0.54746651586E+01 0.59085631570E+01 0.66435837559E+01 0.78064046356E+01 0.95637676402E+01
 0.12119666488E+02 0.15699388768E+02 0.20551014592E+02 0.26888596673E+02 0.34798021381E+02
 0.44190937324E+02 0.54792625891E+02 0.66167299083E+02 0.77773181187E+02 0.89031953693E+02
 0.99395996792E+02 0.10840033203E+03 0.11569143356E+03 0.12103101744E+03 0.12427937696E+03
 0.10527784754E+03 0.10427129069E+03 0.10128489072E+03 0.96422885486E+02 0.89870938158E+02
 0.81905539819E+02 0.72894204904E+02 0.63280446491E+02 0.53551459320E+02 0.44190937324E+02
 0.35624074342E+02 0.28165998266E+02 0.21986805855E+02 0.17103560971E+02 0.13401707545E+02
 0.10693886541E+02 0.87957411871E+01 0.75272928355E+01 0.67294638366E+01 0.62740834670E+01
 0.60632158939E+01 0.60229069648E+01 0.60958086015E+01 0.62354485439E+01 0.64030924640E+01
 0.65667743311E+01 0.67014445986E+01 0.67892815694E+01 0.68197221747E+01 0.67892815694E+01
 0.67014445986E+01 0.65667743311E+01 0.64030924640E+01 0.62354485439E+01 0.60958086015E+01
 0.60229069648E+01 0.60632158939E+01 0.62740834670E+01 0.67294638366E+01 0.75272928355E+01
 0.87957411871E+01 0.10693886541E+02 0.13401707545E+02 0.17103560971E+02 0.21986805855E+02
 0.28165998266E+02 0.35624074342E+02 0.44190937324E+02 0.53551459320E+02 0.63280446491E+02
 0.72894204904E+02 0.81905539819E+02 0.89870938158E+02 0.96422885486E+02 0.10128489072E+03
 0.10427129069E+03 0.85274448457E+02 0.84395427466E+02 0.81797968798E+02 0.77601908476E+02
 0.72008725591E+02 0.65299242212E+02 0.57823156676E+02 0.49977524860E+02 0.42174020267E+02
 0.34798021381E+02 0.28165998266E+02 0.22490371129E+02 0.17861195357E+02 0.14250265339E+02
 0.11543185813E+02 0.96067758639E+01 0.82992702227E+01 0.74833991886E+01 0.70408784838E+01
 0.68765632760E+01 0.69156348037E+01 0.70978401317E+01 0.73719783128E+01 0.76923770084E+01
 0.80177115626E+01 0.83115883946E+01 0.85439531461E+01 0.86924862568E+01 0.87435263922E+01
 0.86924862568E+01 0.85439531461E+01 0.83115883946E+01 0.80177115626E+01 0.76923770084E+01
 0.73719783128E+01 0.70978401317E+01 0.69156348037E+01 0.68765632760E+01 0.70408784838E+01
 0.74833991886E+01 0.82992702227E+01 0.96067758639E+01 0.11543185813E+02 0.14250265339E+02
 0.17861195357E+02 0.22490371129E+02 0.28165998266E+02 0.34798021381E+02 0.42174020267E+02
 0.49977524860E+02 0.57823156676E+02 0.65299242212E+02 0.72008725591E+02 0.77601908476E+02
 0.81797968798E+02 0.84395427466E+02 0.66592363132E+02 0.65866568830E+02 0.63729242180E+02
 0.60299373770E+02 0.55770577757E+02 0.50401795827E+02 0.44501182745E+02 0.38402423215E+02
 0.32434546927E+02 0.26888596673E+02 0.21986805855E+02 0.17861195357E+02 0.14547386264E+02
 0.11999617163E+02 0.10140627474E+02 0.88739438189E+01 0.80946161804E+01 0.77049980523E+01
 0.76219258959E+01 0.77767759976E+01 0.81114978326E+01 0.85737279456E+01 0.91131303448E+01
 0.96798934876E+01 0.10225341198E+02 0.10704064418E+02 0.11076783395E+02 0.11313182543E+02
 0.11394155696E+02 0.11313182543E+02 0.11076783395E+02 0.10704064418E+02 0.10225341198E+02
 0.96798934876E+01 0.91131303448E+01 0.85737279456E+01 0.81114978326E+01 0.77767759976E+01
 0.76219258959E+01 0.77049980523E+01 0.80946161804E+01 0.88739438189E+01 0.10140627474E+02
 0.11999617163E+02 0.14547386264E+02 0.17861195357E+02 0.21986805855E+02 0.26888596673E+02
 0.32434546927E+02 0.38402423215E+02 0.44501182745E+02 0.50401795827E+02 0.55770577757E+02
 0.60299373770E+02 0.63729242180E+02 0.65866568830E+02 0.50198469742E+02 0.49632418423E+02
 0.47970562376E+02 0.45319400829E+02 0.41848334745E+02 0.37777231696E+02 0.33358781458E+02
 0.28856152610E+02 0.24517573128E+02 0.20551014592E+02 0.17103560971E+02 0.14250265339E+02
 0.11999617163E+02 0.10327051630E+02 0.91811054692E+01 0.84940383478E+01 0.81964517930E+01
 0.82254934956E+01 0.85266098893E+01 0.90508730180E+01 0.97506006567E+01 0.10575512345E+02
 0.11470666873E+02 0.12376538677E+02 0.13231086000E+02 0.13973438697E+02 0.14548658375E+02
 0.14912814221E+02 0.15037479602E+02 0.14912814221E+02 0.14548658375E+02 0.13973438697E+02
 0.13231086000E+02 0.12376538677E+02 0.11470666873E+02 0.10575512345E+02 0.97506006567E+01
 0.90508730180E+01 0.85266098893E+01 0.82254934956E+01 0.81964517930E+01 0.84940383478E+01
 0.91811054692E+01 0.10327051630E+02 0.11999617163E+02 0.14250265339E+02 0.17103560971E+02
 0.20551014592E+02 0.24517573128E+02 0.28856152610E+02 0.33358781458E+02 0.37777231696E+02
 0.41848334745E+02 0.45319400829E+02 0.47970562376E+02 0.49632418423E+02 0.36669992873E+02
 0.36253525294E+02 0.35034154080E+02 0.33099169141E+02 0.30585027772E+02 0.27664760722E+02
 0.24531789383E+02 0.21381191092E+02 0.18390026205E+02 0.15699388768E+02 0.13401707545E+02
 0.11543185813E+02 0.10140627474E+02 0.91811054692E+01 0.86330260897E+01 0.84582292579E+01
 0.86196934784E+01 0.90837852048E+01 0.98181496638E+01 0.10787474971E+02 0.11949254763E+02
 0.13250814745E+02 0.14628030094E+02 0.16005856875E+02 0.17300963127E+02 0.18426862709E+02
 0.19301561134E+02 0.19856821357E+02 0.20047225812E+02 0.19856821357E+02 0.19301561134E+02
 0.18426862709E+02 0.17300963127E+02 0.16005856875E+02 0.14628030094E+02 0.13250814745E+02
 0.11949254763E+02 0.10787474971E+02 0.98181496638E+01 0.90837852048E+01 0.86196934784E+01
 0.84582292579E+01 0.86330260897E+01 0.91811054692E+01 0.10140627474E+02 0.11543185813E+02
 0.13401707545E+02 0.15699388768E+02 0.18390026205E+02 0.21381191092E+02 0.24531789383E+02
 0.27664760722E+02 0.30585027772E+02 0.33099169141E+02 0.35034154080E+02 0.36253525294E+02
 0.26151724420E+02 0.25862752899E+02 0.25018696543E+02 0.23685528098E+02 0.21965049569E+02
 0.19984127166E+02 0.17881672630E+02 0.15794401723E+02 0.13842668066E+02 0.12119666488E+02
 0.10693886541E+02 0.96067758639E+01 0.88739438189E+01 0.84940383478E+01 0.84582292579E+01
 0.87568349216E+01 0.93813392664E+01 0.10322237963E+02 0.11564621043E+02 0.13083499211E+02
 0.14839908248E+02 0.16777757139E+02 0.18821176036E+02 0.20872993338E+02 0.22816195754E+02
 0.24520606060E+02 0.25855793925E+02 0.26708735307E+02 0.27002207366E+02 0.26708735307E+02
 0.25855793925E+02 0.24520606060E+02 0.22816195754E+02 0.20872993338E+02 0.18821176036E+02
 0.16777757139E+02 0.14839908248E+02 0.13083499211E+02 0.11564621043E+02 0.10322237963E+02
 0.93813392664E+01 0.87568349216E+01 0.84582292579E+01 0.84940383478E+01 0.88739438189E+01
 0.96067758639E+01 0.10693886541E+02 0.12119666488E+02 0.13842668066E+02 0.15794401723E+02
 0.17881672630E+02 0.19984127166E+02 0.21965049569E+02 0.23685528098E+02 0.25018696543E+02
 0.25862752899E+02 0.18406786422E+02 0.18217325663E+02 0.17665019943E+02 0.16796078577E+02
 0.15681287942E+02 0.14408043854E+02 0.13070992171E+02 0.11762956117E+02 0.10570096801E+02
 0.95637676402E+01 0.87957411871E+01 0.82992702227E+01 0.80946161804E+01 0.81964517930E+01
 0.86196934784E+01 0.93813392664E+01 0.10498134827E+02 0.11981868575E+02 0.13834508048E+02
 0.16044073449E+02 0.18580261101E+02 0.21388102056E+02 0.24379396219E+02 0.27424724232E+02
 0.30351493931E+02 0.32953535575E+02 0.35014402162E+02 0.36341012527E+02 0.36799242023E+02
 0.36341012527E+02 0.35014402162E+02 0.32953535575E+02 0.30351493931E+02 0.27424724232E+02
 0.24379396219E+02 0.21388102056E+02 0.18580261101E+02 0.16044073449E+02 0.13834508048E+02
 0.11981868575E+02 0.10498134827E+02 0.93813392664E+01 0.86196934784E+01 0.81964517930E+01
 0.80946161804E+01 0.82992702227E+01 0.87957411871E+01 0.95637676402E+01 0.10570096801E+02
 0.11762956117E+02 0.13070992171E+02 0.14408043854E+02 0.15681287942E+02 0.16796078577E+02
 0.17665019943E+02 0.18217325663E+02 0.12943042796E+02 0.12824987867E+02 0.12481329087E+02
 0.11942367313E+02 0.11255215166E+02 0.10479498466E+02 0.96820293595E+01 0.89306466041E+01
 0.82879239710E+01 0.78064046356E+01 0.75272928355E+01 0.74833991886E+01 0.77049980523E+01
 0.82254934956E+01 0.90837852048E+01 0.10322237963E+02 0.11981868575E+02 0.14097640554E+02
 0.16695332821E+02 0.19788186399E+02 0.23369065366E+02 0.27394764784E+02 0.31763903463E+02
 0.36296317763E+02 0.40725988528E+02 0.44717832351E+02 0.47910808029E+02 0.49979193615E+02
 0.50695824689E+02 0.49979193615E+02 0.47910808029E+02 0.44717832351E+02 0.40725988528E+02
 0.36296317763E+02 0.31763903463E+02 0.27394764784E+02 0.23369065366E+02 0.19788186399E+02
 0.16695332821E+02 0.14097640554E+02 0.11981868575E+02 0.10322237963E+02 0.90837852048E+01
 0.82254934956E+01 0.77049980523E+01 0.74833991886E+01 0.75272928355E+01 0.78064046356E+01
 0.82879239710E+01 0.89306466041E+01 0.96820293595E+01 0.10479498466E+02 0.11255215166E+02
 0.11942367313E+02 0.12481329087E+02 0.12824987867E+02 0.91823701427E+01 0.91129648280E+01
 0.89116559487E+01 0.85986699478E+01 0.82061594348E+01 0.77759448625E+01 0.73561626437E+01
 0.69968220580E+01 0.67452773800E+01 0.66435837559E+01 0.67294638366E+01 0.70408784838E+01
 0.76219258959E+01 0.85266098893E+01 0.98181496638E+01 0.11564621043E+02 0.13834508048E+02
 0.16695332821E+02 0.20214198218E+02 0.24453601908E+02 0.29453856341E+02 0.35197968977E+02
 0.41565187155E+02 0.48290778968E+02 0.54954819558E+02 0.61016273077E+02 0.65893210086E+02
 0.69071526272E+02 0.70177715637E+02 0.69071526272E+02 0.65893210086E+02 0.61016273077E+02
 0.54954819558E+02 0.48290778968E+02 0.41565187155E+02 0.35197968977E+02 0.29453856341E+02
 0.24453601908E+02 0.20214198218E+02 0.16695332821E+02 0.13834508048E+02 0.11564621043E+02
 0.98181496638E+01 0.85266098893E+01 0.76219258959E+01 0.70408784838E+01 0.67294638366E+01
 0.66435837559E+01 0.67452773800E+01 0.69968220580E+01 0.73561626437E+01 0.77759448625E+01
 0.82061594348E+01 0.85986699478E+01 0.89116559487E+01 0.91129648280E+01 0.66471288017E+01
 0.66105396760E+01 0.65052241107E+01 0.63446304951E+01 0.61512043433E+01 0.59556046493E+01
 0.57945214860E+01 0.57072947212E+01 0.57327725120E+01 0.59085631570E+01 0.62740834670E+01
 0.68765632760E+01 0.77767759976E+01 0.90508730180E+01 0.10787474971E+02 0.13083499211E+02
 0.16044073449E+02 0.19788186399E+02 0.24453601908E+02 0.30187358862E+02 0.37108098048E+02
 0.45236935231E+02 0.54412755016E+02 0.64226820889E+02 0.74076731430E+02 0.83258311793E+02
 0.90839823213E+02 0.95865709158E+02 0.97627788301E+02 0.95865709158E+02 0.90839823213E+02
 0.83258311793E+02 0.74076731430E+02 0.64226820889E+02 0.54412755016E+02 0.45236935231E+02
 0.37108098048E+02 0.30187358862E+02 0.24453601908E+02 0.19788186399E+02 0.16044073449E+02
 0.13083499211E+02 0.10787474971E+02 0.90508730180E+01 0.77767759976E+01 0.68765632760E+01
 0.62740834670E+01 0.59085631570E+01 0.57327725120E+01 0.57072947212E+01 0.57945214860E+01
 0.59556046493E+01 0.61512043433E+01 0.63446304951E+01 0.65052241107E+01 0.66105396760E+01
 0.49641152514E+01 0.49491194498E+01 0.49069606899E+01 0.48468537796E+01 0.47856212157E+01
 0.47476889655E+01 0.47632974997E+01 0.48659101209E+01 0.50905208321E+01 0.54746651586E+01
 0.60632158939E+01 0.69156348037E+01 0.81114978326E+01 0.97506006567E+01 0.11949254763E+02
 0.14839908248E+02 0.18580261101E+02 0.23369065366E+02 0.29453856341E+02 0.37108098048E+02
 0.46558228499E+02 0.57860472601E+02 0.70781951745E+02 0.84996143275E+02 0.99819740085E+02
 0.11393632080E+03 0.12568711711E+03 0.13348976111E+03 0.13622466920E+03 0.13348976111E+03
 0.12568711711E+03 0.11393632080E+03 0.99819740085E+02 0.84996143275E+02 0.70781951745E+02
 0.57860472601E+02 0.46558228499E+02 0.37108098048E+02 0.29453856341E+02 0.23369065366E+02
 0.18580261101E+02 0.14839908248E+02 0.11949254763E+02 0.97506006567E+01 0.81114978326E+01
 0.69156348037E+01 0.60632158939E+01 0.54746651586E+01 0.50905208321E+01 0.48659101209E+01
 0.47632974997E+01 0.47476889655E+01 0.47856212157E+01 0.48468537796E+01 0.49069606899E+01
 0.49491194498E+01 0.38558974744E+01 0.38550303789E+01 0.38541608333E+01 0.38599908408E+01
 0.38865796008E+01 0.39554294896E+01 0.40934272521E+01 0.43311217766E+01 0.47028140596E+01
 0.52491026879E+01 0.60229069648E+01 0.70978401317E+01 0.85737279456E+01 0.10575512345E+02
 0.13250814745E+02 0.16777757139E+02 0.21388102056E+02 0.27394764784E+02 0.35197968977E+02
 0.45236935231E+02 0.57860472601E+02 0.73167547824E+02 0.91316404599E+02 0.11199433498E+03
 0.13381336307E+03 0.15454848056E+03 0.17167471621E+03 0.18295586685E+03 0.18689091980E+03
 0.18295586685E+03 0.17167471621E+03 0.15454848056E+03 0.13381336307E+03 0.11199433498E+03
 0.91316404599E+02 0.73167547824E+02 0.57860472601E+02 0.45236935231E+02 0.35197968977E+02
 0.27394764784E+02 0.21388102056E+02 0.16777757139E+02 0.13250814745E+02 0.10575512345E+02
 0.85737279456E+01 0.70978401317E+01 0.60229069648E+01 0.52491026879E+01 0.47028140596E+01
 0.43311217766E+01 0.40934272521E+01 0.39554294896E+01 0.38865796008E+01 0.38599908408E+01
 0.38541608333E+01 0.38550303789E+01 0.31310808034E+01 0.31395186323E+01 0.31657785209E+01
 0.32151359158E+01 0.33007330197E+01 0.34431841189E+01 0.36677942815E+01 0.40039655975E+01
 0.44874017083E+01 0.51638507292E+01 0.60958086015E+01 0.73719783128E+01 0.91131303448E+01
 0.11470666873E+02 0.14628030094E+02 0.18821176036E+02 0.24379396219E+02 0.31763903463E+02
 0.41565187155E+02 0.54412755016E+02 0.70781951745E+02 0.91316404599E+02 0.11649135771E+03
 0.14537732507E+03 0.17559370933E+03 0.20386260933E+03 0.22682482037E+03 0.24174659633E+03
 0.24691248387E+03 0.24174659633E+03 0.22682482037E+03 0.20386260933E+03 0.17559370933E+03
 0.14537732507E+03 0.11649135771E+03 0.91316404599E+02 0.70781951745E+02 0.54412755016E+02
 0.41565187155E+02 0.31763903463E+02 0.24379396219E+02 0.18821176036E+02 0.14628030094E+02
 0.11470666873E+02 0.91131303448E+01 0.73719783128E+01 0.60958086015E+01 0.51638507292E+01
 0.44874017083E+01 0.40039655975E+01 0.36677942815E+01 0.34431841189E+01 0.33007330197E+01
 0.32151359158E+01 0.31657785209E+01 0.31395186323E+01 0.26624926244E+01 0.26770758488E+01
 0.27212138789E+01 0.27994646261E+01 0.29251302265E+01 0.31190469198E+01 0.34059349127E+01
 0.38151431124E+01 0.43850409758E+01 0.51676042745E+01 0.62354485439E+01 0.76923770084E+01
 0.96798934876E+01 0.12376538677E+02 0.16005856875E+02 0.20872993338E+02 0.27424724232E+02
 0.36296317763E+02 0.48290778968E+02 0.64226820889E+02 0.84996143275E+02 0.11199433498E+03
 0.14537732507E+03 0.18329697803E+03 0.22219768623E+03 0.25777126323E+03 0.28604777200E+03
 0.30411505089E+03 0.31031215874E+03 0.30411505089E+03 0.28604777200E+03 0.25777126323E+03
 0.22219768623E+03 0.18329697803E+03 0.14537732507E+03 0.11199433498E+03 0.84996143275E+02
 0.64226820889E+02 0.48290778968E+02 0.36296317763E+02 0.27424724232E+02 0.20872993338E+02
 0.16005856875E+02 0.12376538677E+02 0.96798934876E+01 0.76923770084E+01 0.62354485439E+01
 0.51676042745E+01 0.43850409758E+01 0.38151431124E+01 0.34059349127E+01 0.31190469198E+01
 0.29251302265E+01 0.27994646261E+01 0.27212138789E+01 0.26770758488E+01 0.23658521479E+01
 0.23844145422E+01 0.24401649493E+01 0.25374635384E+01 0.26902834053E+01 0.29201485027E+01
 0.32517920798E+01 0.37152325073E+01 0.43520468698E+01 0.52205435493E+01 0.64030924640E+01
 0.80177115626E+01 0.10225341198E+02 0.13231086000E+02 0.17300963127E+02 0.22816195754E+02
 0.30351493931E+02 0.40725988528E+02 0.54954819558E+02 0.74076731430E+02 0.99819740085E+02
 0.13381336307E+03 0.17559370933E+03 0.22219768623E+03 0.26886838271E+03 0.31045657859E+03
 0.34272735549E+03 0.36296350956E+03 0.36983320703E+03 0.36296350956E+03 0.34272735549E+03
 0.31045657859E+03 0.26886838271E+03 0.22219768623E+03 0.17559370933E+03 0.13381336307E+03
 0.99819740085E+02 0.74076731430E+02 0.54954819558E+02 0.40725988528E+02 0.30351493931E+02
 0.22816195754E+02 0.17300963127E+02 0.13231086000E+02 0.10225341198E+02 0.80177115626E+01
 0.64030924640E+01 0.52205435493E+01 0.43520468698E+01 0.37152325073E+01 0.32517920798E+01
 0.29201485027E+01 0.26902834053E+01 0.25374635384E+01 0.24401649493E+01 0.23844145422E+01
 0.21842930919E+01 0.22052936581E+01 0.22682760879E+01 0.23777919019E+01 0.25485994400E+01
 0.28029586728E+01 0.31659808229E+01 0.36687876841E+01 0.43560757236E+01 0.52917549021E+01
 0.65667743311E+01 0.83115883946E+01 0.10704064418E+02 0.13973438697E+02 0.18426862709E+02
 0.24520606060E+02 0.32953535575E+02 0.44717832351E+02 0.61016273077E+02 0.83258311793E+02
 0.11393632080E+03 0.15454848056E+03 0.20386260933E+03 0.25777126323E+03 0.31045657859E+03
 0.35621281098E+03 0.39087511033E+03 0.41220367251E+03 0.41936852633E+03 0.41220367251E+03
 0.39087511033E+03 0.35621281098E+03 0.31045657859E+03 0.25777126323E+03 0.20386260933E+03
 0.15454848056E+03 0.11393632080E+03 0.83258311793E+02 0.61016273077E+02 0.44717832351E+02
 0.32953535575E+02 0.24520606060E+02 0.18426862709E+02 0.13973438697E+02 0.10704064418E+02
 0.83115883946E+01 0.65667743311E+01 0.52917549021E+01 0.43560757236E+01 0.36687876841E+01
 0.31659808229E+01 0.28029586728E+01 0.25485994400E+01 0.23777919019E+01 0.22682760879E+01
 0.22052936581E+01 0.20792066274E+01 0.21015643673E+01 0.21687206295E+01 0.22856321428E+01
 0.24677124062E+01 0.27377833462E+01 0.31214834142E+01 0.36511367028E+01 0.43739757108E+01
 0.53581923383E+01 0.67014445986E+01 0.85439531461E+01 0.11076783395E+02 0.14548658375E+02
 0.19301561134E+02 0.25855793925E+02 0.35014402162E+02 0.47910808029E+02 0.65893210086E+02
 0.90839823213E+02 0.12568711711E+03 0.17167471621E+03 0.22682482037E+03 0.28604777200E+03
 0.34272735549E+03 0.39087511033E+03 0.42659343204E+03 0.44820751559E+03 0.45540048597E+03
 0.44820751559E+03 0.42659343204E+03 0.39087511033E+03 0.34272735549E+03 0.28604777200E+03
 0.22682482037E+03 0.17167471621E+03 0.12568711711E+03 0.90839823213E+02 0.65893210086E+02
 0.47910808029E+02 0.35014402162E+02 0.25855793925E+02 0.19301561134E+02 0.14548658375E+02
 0.11076783395E+02 0.85439531461E+01 0.67014445986E+01 0.53581923383E+01 0.43739757108E+01
 0.36511367028E+01 0.31214834142E+01 0.27377833462E+01 0.24677124062E+01 0.22856321429E+01
 0.21687206295E+01 0.21015643673E+01 0.20255035025E+01 0.20485049224E+01 0.21177484295E+01
 0.22385775640E+01 0.24268169259E+01 0.27056104007E+01 0.31010415625E+01 0.36463622474E+01
 0.43904342363E+01 0.54040948916E+01 0.67892815694E+01 0.86924862568E+01 0.11313182543E+02
 0.14912814221E+02 0.19856821357E+02 0.26708735307E+02 0.36341012527E+02 0.49979193615E+02
 0.69071526272E+02 0.95865709158E+02 0.13348976111E+03 0.18295586685E+03 0.24174659633E+03
 0.30411505089E+03 0.36296350956E+03 0.41220367251E+03 0.44820751559E+03 0.46974110172E+03
 0.47685999645E+03 0.46974110172E+03 0.44820751559E+03 0.41220367251E+03 0.36296350956E+03
 0.30411505089E+03 0.24174659633E+03 0.18295586685E+03 0.13348976111E+03 0.95865709158E+02
 0.69071526272E+02 0.49979193615E+02 0.36341012527E+02 0.26708735307E+02 0.19856821357E+02
 0.14912814221E+02 0.11313182543E+02 0.86924862568E+01 0.67892815694E+01 0.54040948916E+01
 0.43904342363E+01 0.36463622474E+01 0.31010415625E+01 0.27056104007E+01 0.24268169259E+01
 0.22385775640E+01 0.21177484295E+01 0.20485049224E+01 0.20091080076E+01 0.20322933455E+01
 0.21021604018E+01 0.22242102699E+01 0.24144049828E+01 0.26959893056E+01 0.30952198376E+01
 0.36456969868E+01 0.43968412764E+01 0.54203799669E+01 0.68197221747E+01 0.87435263922E+01
 0.11394155696E+02 0.15037479602E+02 0.20047225812E+02 0.27002207366E+02 0.36799242023E+02
 0.50695824689E+02 0.70177715637E+02 0.97627788301E+02 0.13622466920E+03 0.18689091980E+03
 0.24691248387E+03 0.31031215874E+03 0.36983320703E+03 0.41936852633E+03 0.45540048597E+03
 0.47685999645E+03 0.48393736395E+03 0.47685999645E+03 0.45540048597E+03 0.41936852633E+03
 0.36983320703E+03 0.31031215874E+03 0.24691248387E+03 0.18689091980E+03 0.13622466920E+03
 0.97627788301E+02 0.70177715637E+02 0.50695824689E+02 0.36799242023E+02 0.27002207366E+02
 0.20047225812E+02 0.15037479602E+02 0.11394155696E+02 0.87435263922E+01 0.68197221747E+01
 0.54203799669E+01 0.43968412764E+01 0.36456969868E+01 0.30952198376E+01 0.26959893056E+01
 0.24144049828E+01 0.22242102699E+01 0.21021604018E+01 0.20322933455E+01 0.20255035025E+01