   5   5   0   0
  0.1191194E+02  0.3905268E-09  0.3905268E-09  0.3905268E-09  0.5000000E-15
  1.000000000000000E-004
  CAR 
 unknown system                          
     12.82923953    -32.12556053  301      2.56456018      1.00000000
    -32.126  0.0000E+00  0.0000E+00
    -31.976  0.0000E+00  0.0000E+00
    -31.826  0.0000E+00  0.0000E+00
    -31.676  0.0000E+00  0.0000E+00
    -31.526  0.0000E+00  0.0000E+00
    -31.376  0.0000E+00  0.0000E+00
    -31.226  0.0000E+00  0.0000E+00
    -31.077  0.0000E+00  0.0000E+00
    -30.927  0.0000E+00  0.0000E+00
    -30.777  0.0000E+00  0.0000E+00
    -30.627  0.0000E+00  0.0000E+00
    -30.477  0.0000E+00  0.0000E+00
    -30.327  0.0000E+00  0.0000E+00
    -30.178  0.0000E+00  0.0000E+00
    -30.028  0.1536E+02  0.1948E+01
    -29.878  0.0000E+00  0.2000E+01
    -29.728  0.0000E+00  0.2000E+01
    -29.578  0.0000E+00  0.2000E+01
    -29.428  0.0000E+00  0.2000E+01
    -29.278  0.0000E+00  0.2000E+01
    -29.129  0.0000E+00  0.2000E+01
    -28.979  0.0000E+00  0.2000E+01
    -28.829  0.0000E+00  0.2000E+01
    -28.679  0.0000E+00  0.2000E+01
    -28.529  0.0000E+00  0.2000E+01
    -28.379  0.0000E+00  0.2000E+01
    -28.229  0.0000E+00  0.2000E+01
    -28.080  0.0000E+00  0.2000E+01
    -27.930  0.0000E+00  0.2000E+01
    -27.780  0.0000E+00  0.2000E+01
    -27.630  0.0000E+00  0.2000E+01
    -27.480  0.0000E+00  0.2000E+01
    -27.330  0.0000E+00  0.2000E+01
    -27.181  0.0000E+00  0.2000E+01
    -27.031  0.0000E+00  0.2000E+01
    -26.881  0.0000E+00  0.2000E+01
    -26.731  0.0000E+00  0.2000E+01
    -26.581  0.0000E+00  0.2000E+01
    -26.431  0.0000E+00  0.2000E+01
    -26.281  0.0000E+00  0.2000E+01
    -26.132  0.0000E+00  0.2000E+01
    -25.982  0.0000E+00  0.2000E+01
    -25.832  0.0000E+00  0.2000E+01
    -25.682  0.0000E+00  0.2000E+01
    -25.532  0.0000E+00  0.2000E+01
    -25.382  0.0000E+00  0.2000E+01
    -25.232  0.0000E+00  0.2000E+01
    -25.083  0.0000E+00  0.2000E+01
    -24.933  0.0000E+00  0.2000E+01
    -24.783  0.0000E+00  0.2000E+01
    -24.633  0.0000E+00  0.2000E+01
    -24.483  0.0000E+00  0.2000E+01
    -24.333  0.0000E+00  0.2000E+01
    -24.184  0.0000E+00  0.2000E+01
    -24.034  0.0000E+00  0.2000E+01
    -23.884  0.0000E+00  0.2000E+01
    -23.734  0.0000E+00  0.2000E+01
    -23.584  0.0000E+00  0.2000E+01
    -23.434  0.0000E+00  0.2000E+01
    -23.284  0.0000E+00  0.2000E+01
    -23.135  0.0000E+00  0.2000E+01
    -22.985  0.0000E+00  0.2000E+01
    -22.835  0.0000E+00  0.2000E+01
    -22.685  0.0000E+00  0.2000E+01
    -22.535  0.0000E+00  0.2000E+01
    -22.385  0.0000E+00  0.2000E+01
    -22.236  0.0000E+00  0.2000E+01
    -22.086  0.0000E+00  0.2000E+01
    -21.936  0.0000E+00  0.2000E+01
    -21.786  0.0000E+00  0.2000E+01
    -21.636  0.0000E+00  0.2000E+01
    -21.486  0.0000E+00  0.2000E+01
    -21.336  0.0000E+00  0.2000E+01
    -21.187  0.0000E+00  0.2000E+01
    -21.037  0.0000E+00  0.2000E+01
    -20.887  0.0000E+00  0.2000E+01
    -20.737  0.0000E+00  0.2000E+01
    -20.587  0.0000E+00  0.2000E+01
    -20.437  0.0000E+00  0.2000E+01
    -20.287  0.0000E+00  0.2000E+01
    -20.138  0.0000E+00  0.2000E+01
    -19.988  0.0000E+00  0.2000E+01
    -19.838  0.0000E+00  0.2000E+01
    -19.688  0.0000E+00  0.2000E+01
    -19.538  0.0000E+00  0.2000E+01
    -19.388  0.0000E+00  0.2000E+01
    -19.239  0.0000E+00  0.2000E+01
    -19.089  0.0000E+00  0.2000E+01
    -18.939  0.0000E+00  0.2000E+01
    -18.789  0.0000E+00  0.2000E+01
    -18.639  0.0000E+00  0.2000E+01
    -18.489  0.0000E+00  0.2000E+01
    -18.339  0.0000E+00  0.2000E+01
    -18.190  0.0000E+00  0.2000E+01
    -18.040  0.0000E+00  0.2000E+01
    -17.890  0.0000E+00  0.2000E+01
    -17.740  0.0000E+00  0.2000E+01
    -17.590  0.0000E+00  0.2000E+01
    -17.440  0.0000E+00  0.2000E+01
    -17.290  0.0000E+00  0.2000E+01
    -17.141  0.0000E+00  0.2000E+01
    -16.991  0.0000E+00  0.2000E+01
    -16.841  0.0000E+00  0.2000E+01
    -16.691  0.0000E+00  0.2000E+01
    -16.541  0.0000E+00  0.2000E+01
    -16.391  0.0000E+00  0.2000E+01
    -16.242  0.0000E+00  0.2000E+01
    -16.092  0.0000E+00  0.2000E+01
    -15.942  0.0000E+00  0.2000E+01
    -15.792  0.0000E+00  0.2000E+01
    -15.642  0.0000E+00  0.2000E+01
    -15.492  0.0000E+00  0.2000E+01
    -15.342  0.0000E+00  0.2000E+01
    -15.193  0.0000E+00  0.2000E+01
    -15.043  0.0000E+00  0.2000E+01
    -14.893  0.2137E+01  0.2109E+01
    -14.743  0.3231E+01  0.2728E+01
    -14.593  0.2349E+01  0.3153E+01
    -14.443  0.1764E+01  0.3451E+01
    -14.293  0.1452E+01  0.3698E+01
    -14.144  0.7341E+00  0.3846E+01
    -13.994  0.2823E+01  0.4012E+01
    -13.844  0.1495E+02  0.5372E+01
    -13.694  0.5708E+01  0.7777E+01
    -13.544  0.0000E+00  0.8000E+01
    -13.394  0.0000E+00  0.8000E+01
    -13.245  0.0000E+00  0.8000E+01
    -13.095  0.0000E+00  0.8000E+01
    -12.945  0.0000E+00  0.8000E+01
    -12.795  0.0000E+00  0.8000E+01
    -12.645  0.0000E+00  0.8000E+01
    -12.495  0.0000E+00  0.8000E+01
    -12.345  0.8299E+00  0.8017E+01
    -12.196  0.4323E+01  0.8418E+01
    -12.046  0.7462E+01  0.1050E+02
    -11.896  0.9279E+01  0.1190E+02
    -11.746  0.1207E+02  0.1338E+02
    -11.596  0.3934E+00  0.1400E+02
    -11.446  0.0000E+00  0.1400E+02
    -11.297  0.0000E+00  0.1400E+02
    -11.147  0.0000E+00  0.1400E+02
    -10.997  0.0000E+00  0.1400E+02
    -10.847  0.0000E+00  0.1400E+02
    -10.697  0.0000E+00  0.1400E+02
    -10.547  0.0000E+00  0.1400E+02
    -10.397  0.0000E+00  0.1400E+02
    -10.248  0.0000E+00  0.1400E+02
    -10.098  0.0000E+00  0.1400E+02
     -9.948  0.0000E+00  0.1400E+02
     -9.798  0.0000E+00  0.1400E+02
     -9.648  0.0000E+00  0.1400E+02
     -9.498  0.0000E+00  0.1400E+02
     -9.348  0.0000E+00  0.1400E+02
     -9.199  0.0000E+00  0.1400E+02
     -9.049  0.0000E+00  0.1400E+02
     -8.899  0.0000E+00  0.1400E+02
     -8.749  0.0000E+00  0.1400E+02
     -8.599  0.0000E+00  0.1400E+02
     -8.449  0.0000E+00  0.1400E+02
     -8.300  0.0000E+00  0.1400E+02
     -8.150  0.0000E+00  0.1400E+02
     -8.000  0.0000E+00  0.1400E+02
     -7.850  0.0000E+00  0.1400E+02
     -7.700  0.0000E+00  0.1400E+02
     -7.550  0.0000E+00  0.1400E+02
     -7.400  0.0000E+00  0.1400E+02
     -7.251  0.0000E+00  0.1400E+02
     -7.101  0.0000E+00  0.1400E+02
     -6.951  0.0000E+00  0.1400E+02
     -6.801  0.0000E+00  0.1400E+02
     -6.651  0.0000E+00  0.1400E+02
     -6.501  0.0000E+00  0.1400E+02
     -6.351  0.0000E+00  0.1400E+02
     -6.202  0.0000E+00  0.1400E+02
     -6.052  0.0000E+00  0.1400E+02
     -5.902  0.0000E+00  0.1400E+02
     -5.752  0.0000E+00  0.1400E+02
     -5.602  0.0000E+00  0.1400E+02
     -5.452  0.0000E+00  0.1400E+02
     -5.303  0.0000E+00  0.1400E+02
     -5.153  0.0000E+00  0.1400E+02
     -5.003  0.0000E+00  0.1400E+02
     -4.853  0.0000E+00  0.1400E+02
     -4.703  0.0000E+00  0.1400E+02
     -4.553  0.0000E+00  0.1400E+02
     -4.403  0.0000E+00  0.1400E+02
     -4.254  0.0000E+00  0.1400E+02
     -4.104  0.0000E+00  0.1400E+02
     -3.954  0.0000E+00  0.1400E+02
     -3.804  0.0000E+00  0.1400E+02
     -3.654  0.0000E+00  0.1400E+02
     -3.504  0.0000E+00  0.1400E+02
     -3.354  0.0000E+00  0.1400E+02
     -3.205  0.0000E+00  0.1400E+02
     -3.055  0.0000E+00  0.1400E+02
     -2.905  0.0000E+00  0.1400E+02
     -2.755  0.0000E+00  0.1400E+02
     -2.605  0.0000E+00  0.1400E+02
     -2.455  0.0000E+00  0.1400E+02
     -2.306  0.0000E+00  0.1400E+02
     -2.156  0.0000E+00  0.1400E+02
     -2.006  0.0000E+00  0.1400E+02
     -1.856  0.1652E+01  0.1406E+02
     -1.706  0.4856E+01  0.1466E+02
     -1.556  0.3254E+01  0.1543E+02
     -1.406  0.4429E+01  0.1619E+02
     -1.257  0.3450E+01  0.1679E+02
     -1.107  0.3415E+01  0.1730E+02
     -0.957  0.4566E+01  0.1792E+02
     -0.807  0.4888E+01  0.1868E+02
     -0.657  0.5185E+01  0.1944E+02
     -0.507  0.6718E+01  0.2026E+02
     -0.358  0.8447E+01  0.2132E+02
     -0.208  0.3740E+01  0.2258E+02
     -0.058  0.3252E+01  0.2311E+02
      0.092  0.2488E+01  0.2353E+02
      0.242  0.2229E+01  0.2387E+02
      0.392  0.1841E+01  0.2416E+02
      0.542  0.2653E+01  0.2449E+02
      0.691  0.3143E+01  0.2493E+02
      0.841  0.3321E+01  0.2542E+02
      0.991  0.1073E+01  0.2576E+02
      1.141  0.2023E+01  0.2597E+02
      1.291  0.4548E+01  0.2645E+02
      1.441  0.5910E+01  0.2738E+02
      1.591  0.6000E+01  0.2844E+02
      1.740  0.5954E+01  0.2931E+02
      1.890  0.4871E+01  0.3014E+02
      2.040  0.3528E+01  0.3076E+02
      2.190  0.2877E+01  0.3125E+02
      2.340  0.2029E+01  0.3160E+02
      2.490  0.1575E+01  0.3192E+02
      2.639  0.0000E+00  0.3200E+02
      2.789  0.0000E+00  0.3200E+02
      2.939  0.0000E+00  0.3200E+02
      3.089  0.0000E+00  0.3200E+02
      3.239  0.0000E+00  0.3200E+02
      3.389  0.0000E+00  0.3200E+02
      3.539  0.0000E+00  0.3200E+02
      3.688  0.0000E+00  0.3200E+02
      3.838  0.0000E+00  0.3200E+02
      3.988  0.0000E+00  0.3200E+02
      4.138  0.0000E+00  0.3200E+02
      4.288  0.0000E+00  0.3200E+02
      4.438  0.1447E+00  0.3201E+02
      4.588  0.5048E+00  0.3205E+02
      4.737  0.9204E+00  0.3216E+02
      4.887  0.1551E+01  0.3235E+02
      5.037  0.1508E+01  0.3259E+02
      5.187  0.1449E+01  0.3280E+02
      5.337  0.1651E+01  0.3303E+02
      5.487  0.1860E+01  0.3330E+02
      5.636  0.2539E+01  0.3360E+02
      5.786  0.3121E+01  0.3405E+02
      5.936  0.3494E+01  0.3454E+02
      6.086  0.3992E+01  0.3510E+02
      6.236  0.7776E+01  0.3617E+02
      6.386  0.3966E+01  0.3691E+02
      6.536  0.2748E+01  0.3743E+02
      6.685  0.1176E+01  0.3773E+02
      6.835  0.1165E+00  0.3780E+02
      6.985  0.1101E+00  0.3782E+02
      7.135  0.1038E+00  0.3783E+02
      7.285  0.9778E-01  0.3785E+02
      7.435  0.9188E-01  0.3786E+02
      7.585  0.8616E-01  0.3788E+02
      7.734  0.8062E-01  0.3789E+02
      7.884  0.7525E-01  0.3790E+02
      8.034  0.7006E-01  0.3791E+02
      8.184  0.7667E-01  0.3792E+02
      8.334  0.1122E+00  0.3794E+02
      8.484  0.1765E+00  0.3796E+02
      8.633  0.2165E+00  0.3799E+02
      8.783  0.2342E+00  0.3802E+02
      8.933  0.2656E+00  0.3806E+02
      9.083  0.3102E+00  0.3810E+02
      9.233  0.3624E+00  0.3815E+02
      9.383  0.4272E+00  0.3821E+02
      9.533  0.5153E+00  0.3828E+02
      9.682  0.6142E+00  0.3836E+02
      9.832  0.7051E+00  0.3848E+02
      9.982  0.1405E+01  0.3865E+02
     10.132  0.1575E+01  0.3887E+02
     10.282  0.2121E+01  0.3915E+02
     10.432  0.2935E+01  0.3951E+02
     10.581  0.7417E+00  0.3992E+02
     10.731  0.2422E+00  0.3999E+02
     10.881  0.0000E+00  0.4000E+02
     11.031  0.0000E+00  0.4000E+02
     11.181  0.0000E+00  0.4000E+02
     11.331  0.0000E+00  0.4000E+02
     11.481  0.0000E+00  0.4000E+02
     11.630  0.0000E+00  0.4000E+02
     11.780  0.0000E+00  0.4000E+02
     11.930  0.0000E+00  0.4000E+02
     12.080  0.0000E+00  0.4000E+02
     12.230  0.0000E+00  0.4000E+02
     12.380  0.0000E+00  0.4000E+02
     12.530  0.0000E+00  0.4000E+02
     12.679  0.0000E+00  0.4000E+02
     12.829  0.0000E+00  0.4000E+02
