 vasp.5.4.4.18Apr17-6-g9f103f2a35 (build Jun 30 2017 11:15:00) complex          
  
 executed on    STALLO_VASP_5.4.4 date 2019.11.06  13:15:18
 running on    4 total cores
 distrk:  each k-point on    4 cores,    1 groups
 distr:  one band on NCORES_PER_BAND=   2 cores,    2 groups


--------------------------------------------------------------------------------------------------------


 INCAR:
 POTCAR:   PAW_PBE Sr_sv 07Sep2000                
 POTCAR:   PAW_PBE Ti 08Apr2002                   
 POTCAR:   PAW_PBE O 08Apr2002                    
 POTCAR:   PAW_PBE Sr_sv 07Sep2000                
   VRHFIN =Sr: 4s4p5s                                                           
   LEXCH  = PE                                                                  
   EATOM  =   842.4562 eV,   61.9188 Ry                                         
                                                                                
   TITEL  = PAW_PBE Sr_sv 07Sep2000                                             
   LULTRA =        F    use ultrasoft PP ?                                      
   IUNSCR =        1    unscreen: 0-lin 1-nonlin 2-no                           
   RPACOR =    2.200    partial core radius                                     
   POMASS =   87.620; ZVAL   =   10.000    mass and valenz                      
   RCORE  =    2.500    outmost cutoff radius                                   
   RWIGS  =    4.040; RWIGS  =    2.138    wigner-seitz radius (au A)           
   ENMAX  =  229.282; ENMIN  =  171.961 eV                                      
   RCLOC  =    2.201    cutoff for local pot                                    
   LCOR   =        T    correct aug charges                                     
   LPAW   =        T    paw PP                                                  
   EAUG   =  366.804                                                            
   DEXC   =     .000                                                            
   RMAX   =    3.045    core radius for proj-oper                               
   RAUG   =    1.300    factor for augmentation sphere                          
   RDEP   =    2.562    radius for radial grids                                 
   QCUT   =   -4.105; QGAM   =    8.210    optimization parameters              
                                                                                
   Description                                                                  
     l     E      TYP  RCUT    TYP  RCUT                                        
     0   .000     23  2.480                                                     
     0   .000     23  2.480                                                     
     1   .000     23  2.500                                                     
     1   .000     23  2.500                                                     
     2   .000     23  2.500                                                     
     2   .000     23  2.500                                                     
  local pseudopotential read in
  partial core-charges read in
  atomic valenz-charges read in
  non local Contribution for L=           0  read in
    real space projection operators read in
  non local Contribution for L=           0  read in
    real space projection operators read in
  non local Contribution for L=           1  read in
    real space projection operators read in
  non local Contribution for L=           1  read in
    real space projection operators read in
  non local Contribution for L=           2  read in
    real space projection operators read in
  non local Contribution for L=           2  read in
    real space projection operators read in
    PAW grid and wavefunctions read in
 
   number of l-projection  operators is LMAX  =           6
   number of lm-projection operators is LMMAX =          18
 
 POTCAR:   PAW_PBE Ti 08Apr2002                   
   VRHFIN =Ti: d3 s1                                                            
   LEXCH  = PE                                                                  
   EATOM  =    94.7929 eV,    6.9671 Ry                                         
                                                                                
   TITEL  = PAW_PBE Ti 08Apr2002                                                
   LULTRA =        F    use ultrasoft PP ?                                      
   IUNSCR =        1    unscreen: 0-lin 1-nonlin 2-no                           
   RPACOR =    2.200    partial core radius                                     
   POMASS =   47.880; ZVAL   =    4.000    mass and valenz                      
   RCORE  =    2.800    outmost cutoff radius                                   
   RWIGS  =    2.500; RWIGS  =    1.323    wigner-seitz radius (au A)           
   ENMAX  =  178.330; ENMIN  =  133.747 eV                                      
   RCLOC  =    2.215    cutoff for local pot                                    
   LCOR   =        T    correct aug charges                                     
   LPAW   =        T    paw PP                                                  
   EAUG   =  328.883                                                            
   DEXC   =    -.043                                                            
   RMAX   =    3.453    core radius for proj-oper                               
   RAUG   =    1.300    factor for augmentation sphere                          
   RDEP   =    2.885    radius for radial grids                                 
   QCUT   =   -3.620; QGAM   =    7.241    optimization parameters              
                                                                                
   Description                                                                  
     l     E      TYP  RCUT    TYP  RCUT                                        
     2   .000     23  2.800                                                     
     2   .000     23  2.800                                                     
     0   .000     23  2.800                                                     
     0  1.500     23  2.800                                                     
     1  -.400     23  2.800                                                     
     3   .000      7   .000                                                     
  local pseudopotential read in
  partial core-charges read in
  atomic valenz-charges read in
  non local Contribution for L=           2  read in
    real space projection operators read in
  non local Contribution for L=           2  read in
    real space projection operators read in
  non local Contribution for L=           0  read in
    real space projection operators read in
  non local Contribution for L=           0  read in
    real space projection operators read in
  non local Contribution for L=           1  read in
    real space projection operators read in
    PAW grid and wavefunctions read in
 
   number of l-projection  operators is LMAX  =           5
   number of lm-projection operators is LMMAX =          15
 
 POTCAR:   PAW_PBE O 08Apr2002                    
   VRHFIN =O: s2p4                                                              
   LEXCH  = PE                                                                  
   EATOM  =   432.3788 eV,   31.7789 Ry                                         
                                                                                
   TITEL  = PAW_PBE O 08Apr2002                                                 
   LULTRA =        F    use ultrasoft PP ?                                      
   IUNSCR =        0    unscreen: 0-lin 1-nonlin 2-no                           
   RPACOR =     .000    partial core radius                                     
   POMASS =   16.000; ZVAL   =    6.000    mass and valenz                      
   RCORE  =    1.520    outmost cutoff radius                                   
   RWIGS  =    1.550; RWIGS  =     .820    wigner-seitz radius (au A)           
   ENMAX  =  400.000; ENMIN  =  300.000 eV                                      
   ICORE  =        2    local potential                                         
   LCOR   =        T    correct aug charges                                     
   LPAW   =        T    paw PP                                                  
   EAUG   =  605.392                                                            
   DEXC   =     .000                                                            
   RMAX   =    2.264    core radius for proj-oper                               
   RAUG   =    1.300    factor for augmentation sphere                          
   RDEP   =    1.550    radius for radial grids                                 
   QCUT   =   -5.520; QGAM   =   11.041    optimization parameters              
                                                                                
   Description                                                                  
     l     E      TYP  RCUT    TYP  RCUT                                        
     0   .000     23  1.200                                                     
     0  -.700     23  1.200                                                     
     1   .000     23  1.520                                                     
     1   .600     23  1.520                                                     
     2   .000      7  1.500                                                     
  local pseudopotential read in
  atomic valenz-charges read in
  non local Contribution for L=           0  read in
    real space projection operators read in
  non local Contribution for L=           0  read in
    real space projection operators read in
  non local Contribution for L=           1  read in
    real space projection operators read in
  non local Contribution for L=           1  read in
    real space projection operators read in
    PAW grid and wavefunctions read in
 
   number of l-projection  operators is LMAX  =           4
   number of lm-projection operators is LMMAX =           8
 
 WARNING: PSMAXN for non-local potential too small
          PSMAXN should be >   14.4904333269122       NTYP=           2
 PAW_PBE Sr_sv 07Sep2000                :
 energy of atom  1       EATOM= -842.4562
 kinetic energy error for atom=    0.0002 (will be added to EATOM!!)
 PAW_PBE Ti 08Apr2002                   :
 energy of atom  2       EATOM=  -94.7929
 kinetic energy error for atom=    0.0000 (will be added to EATOM!!)
 PAW_PBE O 08Apr2002                    :
 energy of atom  3       EATOM= -432.3788
 kinetic energy error for atom=    0.0041 (will be added to EATOM!!)
 
 
 POSCAR: ICSD_CollCode262269                     
  positions in direct lattice
  No initial velocities read in
 exchange correlation table for  LEXCH =        8
   RHO(1)=    0.500       N(1)  =     2000
   RHO(2)=  100.500       N(2)  =     4000
 


--------------------------------------------------------------------------------------------------------


 ion  position               nearest neighbor table
   1  0.000  0.000  0.000-   3 2.76   4 2.76   5 2.76   4 2.76   5 2.76   3 2.76   5 2.76   5 2.76
                             3 2.76   4 2.76   4 2.76   3 2.76   2 3.38   2 3.38   2 3.38   2 3.38
   2  0.500  0.500  0.500-   3 1.95   4 1.95   5 1.95   3 1.95   4 1.95   5 1.95   1 3.38   1 3.38
                             1 3.38   1 3.38   1 3.38   1 3.38   1 3.38   1 3.38
   3  0.500  0.500  0.000-   2 1.95   2 1.95   1 2.76   1 2.76   1 2.76   1 2.76
   4  0.500  0.000  0.500-   2 1.95   2 1.95   1 2.76   1 2.76   1 2.76   1 2.76
   5  0.000  0.500  0.500-   2 1.95   2 1.95   1 2.76   1 2.76   1 2.76   1 2.76
 
  LATTYP: Found a simple cubic cell.
 ALAT       =     3.9052680000
  
  Lattice vectors:
  
 A1 = (   3.9052680000,   0.0000000000,   0.0000000000)
 A2 = (   0.0000000000,   3.9052680000,   0.0000000000)
 A3 = (   0.0000000000,   0.0000000000,   3.9052680000)


Analysis of symmetry for initial positions (statically):
=====================================================================
 Subroutine PRICEL returns:
 Original cell was already a primitive cell.
 

 Routine SETGRP: Setting up the symmetry group for a 
 simple cubic supercell.


 Subroutine GETGRP returns: Found 48 space group operations
 (whereof 48 operations were pure point group operations)
 out of a pool of 48 trial point group operations.


The static configuration has the point symmetry O_h .


Analysis of symmetry for dynamics (positions and initial velocities):
=====================================================================
 Subroutine PRICEL returns:
 Original cell was already a primitive cell.
 

 Routine SETGRP: Setting up the symmetry group for a 
 simple cubic supercell.


 Subroutine GETGRP returns: Found 48 space group operations
 (whereof 48 operations were pure point group operations)
 out of a pool of 48 trial point group operations.


The dynamic configuration has the point symmetry O_h .


 Subroutine INISYM returns: Found 48 space group operations
 (whereof 48 operations are pure point group operations),
 and found     1 'primitive' translations

 
 
 KPOINTS: k-density: 4.0                          

Automatic generation of k-mesh.
Space group operators:
 irot       det(A)        alpha          n_x          n_y          n_z        tau_x        tau_y        tau_z
    1     1.000000     0.000000     1.000000     0.000000     0.000000     0.000000     0.000000     0.000000
    2    -1.000000     0.000000     1.000000     0.000000     0.000000     0.000000     0.000000     0.000000
    3     1.000000   120.000000    -0.577350    -0.577350    -0.577350     0.000000     0.000000     0.000000
    4    -1.000000   120.000000    -0.577350    -0.577350    -0.577350     0.000000     0.000000     0.000000
    5     1.000000   120.000000     0.577350     0.577350     0.577350     0.000000     0.000000     0.000000
    6    -1.000000   120.000000     0.577350     0.577350     0.577350     0.000000     0.000000     0.000000
    7     1.000000    90.000000     0.000000     0.000000    -1.000000     0.000000     0.000000     0.000000
    8    -1.000000    90.000000     0.000000     0.000000    -1.000000     0.000000     0.000000     0.000000
    9     1.000000   180.000000     0.000000     0.707107     0.707107     0.000000     0.000000     0.000000
   10    -1.000000   180.000000     0.000000     0.707107     0.707107     0.000000     0.000000     0.000000
   11     1.000000    90.000000     0.000000     1.000000     0.000000     0.000000     0.000000     0.000000
   12    -1.000000    90.000000     0.000000     1.000000     0.000000     0.000000     0.000000     0.000000
   13     1.000000   180.000000     0.000000     0.000000     1.000000     0.000000     0.000000     0.000000
   14    -1.000000   180.000000     0.000000     0.000000     1.000000     0.000000     0.000000     0.000000
   15     1.000000   120.000000    -0.577350     0.577350     0.577350     0.000000     0.000000     0.000000
   16    -1.000000   120.000000    -0.577350     0.577350     0.577350     0.000000     0.000000     0.000000
   17     1.000000   120.000000    -0.577350     0.577350    -0.577350     0.000000     0.000000     0.000000
   18    -1.000000   120.000000    -0.577350     0.577350    -0.577350     0.000000     0.000000     0.000000
   19     1.000000    90.000000     0.000000     0.000000     1.000000     0.000000     0.000000     0.000000
   20    -1.000000    90.000000     0.000000     0.000000     1.000000     0.000000     0.000000     0.000000
   21     1.000000    90.000000    -1.000000     0.000000     0.000000     0.000000     0.000000     0.000000
   22    -1.000000    90.000000    -1.000000     0.000000     0.000000     0.000000     0.000000     0.000000
   23     1.000000   180.000000     0.707107     0.000000     0.707107     0.000000     0.000000     0.000000
   24    -1.000000   180.000000     0.707107     0.000000     0.707107     0.000000     0.000000     0.000000
   25     1.000000   120.000000     0.577350    -0.577350     0.577350     0.000000     0.000000     0.000000
   26    -1.000000   120.000000     0.577350    -0.577350     0.577350     0.000000     0.000000     0.000000
   27     1.000000   120.000000    -0.577350    -0.577350     0.577350     0.000000     0.000000     0.000000
   28    -1.000000   120.000000    -0.577350    -0.577350     0.577350     0.000000     0.000000     0.000000
   29     1.000000   180.000000     1.000000     0.000000     0.000000     0.000000     0.000000     0.000000
   30    -1.000000   180.000000     1.000000     0.000000     0.000000     0.000000     0.000000     0.000000
   31     1.000000    90.000000     0.000000    -1.000000     0.000000     0.000000     0.000000     0.000000
   32    -1.000000    90.000000     0.000000    -1.000000     0.000000     0.000000     0.000000     0.000000
   33     1.000000   180.000000     0.707107     0.707107     0.000000     0.000000     0.000000     0.000000
   34    -1.000000   180.000000     0.707107     0.707107     0.000000     0.000000     0.000000     0.000000
   35     1.000000    90.000000     1.000000     0.000000     0.000000     0.000000     0.000000     0.000000
   36    -1.000000    90.000000     1.000000     0.000000     0.000000     0.000000     0.000000     0.000000
   37     1.000000   120.000000     0.577350    -0.577350    -0.577350     0.000000     0.000000     0.000000
   38    -1.000000   120.000000     0.577350    -0.577350    -0.577350     0.000000     0.000000     0.000000
   39     1.000000   180.000000     0.000000     1.000000     0.000000     0.000000     0.000000     0.000000
   40    -1.000000   180.000000     0.000000     1.000000     0.000000     0.000000     0.000000     0.000000
   41     1.000000   120.000000     0.577350     0.577350    -0.577350     0.000000     0.000000     0.000000
   42    -1.000000   120.000000     0.577350     0.577350    -0.577350     0.000000     0.000000     0.000000
   43     1.000000   180.000000     0.000000    -0.707107     0.707107     0.000000     0.000000     0.000000
   44    -1.000000   180.000000     0.000000    -0.707107     0.707107     0.000000     0.000000     0.000000
   45     1.000000   180.000000     0.707107    -0.707107     0.000000     0.000000     0.000000     0.000000
   46    -1.000000   180.000000     0.707107    -0.707107     0.000000     0.000000     0.000000     0.000000
   47     1.000000   180.000000     0.707107     0.000000    -0.707107     0.000000     0.000000     0.000000
   48    -1.000000   180.000000     0.707107     0.000000    -0.707107     0.000000     0.000000     0.000000
 
 Subroutine IBZKPT returns following result:
 ===========================================
 
 Found     20 irreducible k-points:
 
 Following reciprocal coordinates:
            Coordinates               Weight
  0.000000  0.000000  0.000000      1.000000
  0.142857  0.000000  0.000000      6.000000
  0.285714  0.000000  0.000000      6.000000
  0.428571  0.000000  0.000000      6.000000
  0.142857  0.142857  0.000000     12.000000
  0.285714  0.142857  0.000000     24.000000
  0.428571  0.142857  0.000000     24.000000
  0.285714  0.285714  0.000000     12.000000
  0.428571  0.285714  0.000000     24.000000
  0.428571  0.428571  0.000000     12.000000
  0.142857  0.142857  0.142857      8.000000
  0.285714  0.142857  0.142857     24.000000
  0.428571  0.142857  0.142857     24.000000
  0.285714  0.285714  0.142857     24.000000
  0.428571  0.285714  0.142857     48.000000
  0.428571  0.428571  0.142857     24.000000
  0.285714  0.285714  0.285714      8.000000
  0.428571  0.285714  0.285714     24.000000
  0.428571  0.428571  0.285714     24.000000
  0.428571  0.428571  0.428571      8.000000
 
 Following cartesian coordinates:
            Coordinates               Weight
  0.000000  0.000000  0.000000      1.000000
  0.036581  0.000000  0.000000      6.000000
  0.073161  0.000000  0.000000      6.000000
  0.109742  0.000000  0.000000      6.000000
  0.036581  0.036581  0.000000     12.000000
  0.073161  0.036581  0.000000     24.000000
  0.109742  0.036581  0.000000     24.000000
  0.073161  0.073161  0.000000     12.000000
  0.109742  0.073161  0.000000     24.000000
  0.109742  0.109742  0.000000     12.000000
  0.036581  0.036581  0.036581      8.000000
  0.073161  0.036581  0.036581     24.000000
  0.109742  0.036581  0.036581     24.000000
  0.073161  0.073161  0.036581     24.000000
  0.109742  0.073161  0.036581     48.000000
  0.109742  0.109742  0.036581     24.000000
  0.073161  0.073161  0.073161      8.000000
  0.109742  0.073161  0.073161     24.000000
  0.109742  0.109742  0.073161     24.000000
  0.109742  0.109742  0.109742      8.000000
 
 TETIRR: Found    163 inequivalent tetrahedra from     2058


--------------------------------------------------------------------------------------------------------




 Dimension of arrays:
   k-points           NKPTS =     20   k-points in BZ     NKDIM =     20   number of bands    NBANDS=     20
   number of dos      NEDOS =    301   number of ions     NIONS =      5
   non local maximal  LDIM  =      6   non local SUM 2l+1 LMDIM =     18
   total plane-waves  NPLWV =  21952
   max r-space proj   IRMAX =      1   max aug-charges    IRDMAX=  25652
   dimension x,y,z NGX =    28 NGY =   28 NGZ =   28
   dimension x,y,z NGXF=    56 NGYF=   56 NGZF=   56
   support grid    NGXF=    56 NGYF=   56 NGZF=   56
   ions per type =               1   1   3
   NGX,Y,Z   is equivalent  to a cutoff of  11.92, 11.92, 11.92 a.u.
   NGXF,Y,Z  is equivalent  to a cutoff of  23.84, 23.84, 23.84 a.u.

 SYSTEM =  unknown system                          
 POSCAR =  ICSD_CollCode262269                     

 Startparameter for this run:
   NWRITE =      2    write-flag & timer
   PREC   = normal    normal or accurate (medium, high low for compatibility)
   ISTART =      0    job   : 0-new  1-cont  2-samecut
   ICHARG =      2    charge: 1-file 2-atom 10-const
   ISPIN  =      1    spin polarized calculation?
   LNONCOLLINEAR =      F non collinear calculations
   LSORBIT =      F    spin-orbit coupling
   INIWAV =      1    electr: 0-lowe 1-rand  2-diag
   LASPH  =      F    aspherical Exc in radial PAW
   METAGGA=      F    non-selfconsistent MetaGGA calc.

 Electronic Relaxation 1
   ENCUT  =  800.0 eV  58.80 Ry    7.67 a.u.   9.01  9.01  9.01*2*pi/ulx,y,z
   ENINI  =  800.0     initial cutoff
   ENAUG  =  605.4 eV  augmentation charge cutoff
   NELM   =     60;   NELMIN=  4; NELMDL= -5     # of ELM steps 
   EDIFF  = 0.1E-04   stopping-criterion for ELM
   LREAL  =      F    real-space projection
   NLSPLINE    = F    spline interpolate recip. space projectors
   LCOMPAT=      F    compatible to vasp.4.4
   GGA_COMPAT  = T    GGA compatible to vasp.4.4-vasp.4.6
   LMAXPAW     = -100 max onsite density
   LMAXMIX     =    2 max onsite mixed and CHGCAR
   VOSKOWN=      0    Vosko Wilk Nusair interpolation
   ROPT   =    0.00000   0.00000   0.00000
 Ionic relaxation
   EDIFFG = 0.1E-03   stopping-criterion for IOM
   NSW    =      0    number of steps for IOM
   NBLOCK =      1;   KBLOCK =      1    inner block; outer block 
   IBRION =     -1    ionic relax: 0-MD 1-quasi-New 2-CG
   NFREE  =      0    steps in history (QN), initial steepest desc. (CG)
   ISIF   =      2    stress and relaxation
   IWAVPR =     10    prediction:  0-non 1-charg 2-wave 3-comb
   ISYM   =      2    0-nonsym 1-usesym 2-fastsym
   LCORR  =      T    Harris-Foulkes like correction to forces

   POTIM  = 0.5000    time-step for ionic-motion
   TEIN   =    0.0    initial temperature
   TEBEG  =    0.0;   TEEND  =   0.0 temperature during run
   SMASS  =  -3.00    Nose mass-parameter (am)
   estimated Nose-frequenzy (Omega)   =  0.10E-29 period in steps =****** mass=  -0.349E-27a.u.
   SCALEE = 1.0000    scale energy and forces
   NPACO  =    256;   APACO  = 16.0  distance and # of slots for P.C.
   PSTRESS=    0.0 pullay stress

  Mass of Ions in am
   POMASS =  87.62 47.88 16.00
  Ionic Valenz
   ZVAL   =  10.00  4.00  6.00
  Atomic Wigner-Seitz radii
   RWIGS  =  -1.00 -1.00 -1.00
  virtual crystal weights 
   VCA    =   1.00  1.00  1.00
   NELECT =      32.0000    total number of electrons
   NUPDOWN=      -1.0000    fix difference up-down

 DOS related values:
   EMIN   =  10.00;   EMAX   =-10.00  energy-range for DOS
   EFERMI =   0.00
   ISMEAR =    -5;   SIGMA  =   0.20  broadening in eV -4-tet -1-fermi 0-gaus

 Electronic relaxation 2 (details)
   IALGO  =     68    algorithm
   LDIAG  =      T    sub-space diagonalisation (order eigenvalues)
   LSUBROT=      F    optimize rotation matrix (better conditioning)
   TURBO    =      0    0=normal 1=particle mesh
   IRESTART =      0    0=no restart 2=restart with 2 vectors
   NREBOOT  =      0    no. of reboots
   NMIN     =      0    reboot dimension
   EREF     =   0.00    reference energy to select bands
   IMIX   =      4    mixing-type and parameters
     AMIX     =   0.40;   BMIX     =  1.00
     AMIX_MAG =   1.60;   BMIX_MAG =  1.00
     AMIN     =   0.10
     WC   =   100.;   INIMIX=   1;  MIXPRE=   1;  MAXMIX= -45

 Intra band minimization:
   WEIMIN = 0.0000     energy-eigenvalue tresh-hold
   EBREAK =  0.13E-06  absolut break condition
   DEPER  =   0.30     relativ break condition  

   TIME   =   0.40     timestep for ELM

  volume/ion in A,a.u.               =      11.91        80.39
  Fermi-wavevector in a.u.,A,eV,Ry     =   1.330885  2.515009 24.099399  1.771256
  Thomas-Fermi vector in A             =   2.459938
 
 Write flags
   LWAVE        =      F    write WAVECAR
   LDOWNSAMPLE  =      F    k-point downsampling of WAVECAR
   LCHARG       =      T    write CHGCAR
   LVTOT        =      F    write LOCPOT, total local potential
   LVHAR        =      F    write LOCPOT, Hartree potential only
   LELF         =      F    write electronic localiz. function (ELF)
   LORBIT       =      0    0 simple, 1 ext, 2 COOP (PROOUT), +10 PAW based schemes


 Dipole corrections
   LMONO  =      F    monopole corrections only (constant potential shift)
   LDIPOL =      F    correct potential (dipole corrections)
   IDIPOL =      0    1-x, 2-y, 3-z, 4-all directions 
   EPSILON=  1.0000000 bulk dielectric constant

 Exchange correlation treatment:
   GGA     =    --    GGA type
   LEXCH   =     8    internal setting for exchange type
   VOSKOWN=      0    Vosko Wilk Nusair interpolation
   LHFCALC =     F    Hartree Fock is set to
   LHFONE  =     F    Hartree Fock one center treatment
   AEXX    =    0.0000 exact exchange contribution

 Linear response parameters
   LEPSILON=     F    determine dielectric tensor
   LRPA    =     F    only Hartree local field effects (RPA)
   LNABLA  =     F    use nabla operator in PAW spheres
   LVEL    =     F    velocity operator in full k-point grid
   LINTERFAST=   F  fast interpolation
   KINTER  =     0    interpolate to denser k-point grid
   CSHIFT  =0.1000    complex shift for real part using Kramers Kronig
   OMEGAMAX=  -1.0    maximum frequency
   DEG_THRESHOLD= 0.2000000E-02 threshold for treating states as degnerate
   RTIME   =   -0.100 relaxation time in fs
  (WPLASMAI=    0.000 imaginary part of plasma frequency in eV, 0.658/RTIME)
   DFIELD  = 0.0000000 0.0000000 0.0000000 field for delta impulse in time
 
 Orbital magnetization related:
   ORBITALMAG=     F  switch on orbital magnetization
   LCHIMAG   =     F  perturbation theory with respect to B field
   DQ        =  0.001000  dq finite difference perturbation B field
   LLRAUG    =     F  two centre corrections for induced B field



--------------------------------------------------------------------------------------------------------


 Static calculation
 charge density and potential will be updated during run
 non-spin polarized calculation
 RMM-DIIS sequential band-by-band and
  variant of blocked Davidson during initial phase
 perform sub-space diagonalisation
    before iterative eigenvector-optimisation
 modified Broyden-mixing scheme, WC =      100.0
 initial mixing is a Kerker type mixing with AMIX =  0.4000 and BMIX =      1.0000
 Hartree-type preconditioning will be used
 using additional bands            4
 reciprocal scheme for non local part
 use partial core corrections
 calculate Harris-corrections to forces 
   (improved forces if not selfconsistent)
 use gradient corrections 
 use of overlap-Matrix (Vanderbilt PP)
 Fermi weights with tetrahedron method with Bloechl corrections


--------------------------------------------------------------------------------------------------------


  energy-cutoff  :      800.00
  volume of cell :       59.56
      direct lattice vectors                 reciprocal lattice vectors
     3.905268000  0.000000000  0.000000000     0.256064373  0.000000000  0.000000000
     0.000000000  3.905268000  0.000000000     0.000000000  0.256064373  0.000000000
     0.000000000  0.000000000  3.905268000     0.000000000  0.000000000  0.256064373

  length of vectors
     3.905268000  3.905268000  3.905268000     0.256064373  0.256064373  0.256064373


 
 k-points in units of 2pi/SCALE and weight: k-density: 4.0                          
   0.00000000  0.00000000  0.00000000       0.003
   0.03658062  0.00000000  0.00000000       0.017
   0.07316125  0.00000000  0.00000000       0.017
   0.10974187  0.00000000  0.00000000       0.017
   0.03658062  0.03658062  0.00000000       0.035
   0.07316125  0.03658062  0.00000000       0.070
   0.10974187  0.03658062  0.00000000       0.070
   0.07316125  0.07316125  0.00000000       0.035
   0.10974187  0.07316125  0.00000000       0.070
   0.10974187  0.10974187  0.00000000       0.035
   0.03658062  0.03658062  0.03658062       0.023
   0.07316125  0.03658062  0.03658062       0.070
   0.10974187  0.03658062  0.03658062       0.070
   0.07316125  0.07316125  0.03658062       0.070
   0.10974187  0.07316125  0.03658062       0.140
   0.10974187  0.10974187  0.03658062       0.070
   0.07316125  0.07316125  0.07316125       0.023
   0.10974187  0.07316125  0.07316125       0.070
   0.10974187  0.10974187  0.07316125       0.070
   0.10974187  0.10974187  0.10974187       0.023
 
 k-points in reciprocal lattice and weights: k-density: 4.0                          
   0.00000000  0.00000000  0.00000000       0.003
   0.14285714  0.00000000  0.00000000       0.017
   0.28571429  0.00000000  0.00000000       0.017
   0.42857143  0.00000000  0.00000000       0.017
   0.14285714  0.14285714  0.00000000       0.035
   0.28571429  0.14285714  0.00000000       0.070
   0.42857143  0.14285714  0.00000000       0.070
   0.28571429  0.28571429  0.00000000       0.035
   0.42857143  0.28571429  0.00000000       0.070
   0.42857143  0.42857143  0.00000000       0.035
   0.14285714  0.14285714  0.14285714       0.023
   0.28571429  0.14285714  0.14285714       0.070
   0.42857143  0.14285714  0.14285714       0.070
   0.28571429  0.28571429  0.14285714       0.070
   0.42857143  0.28571429  0.14285714       0.140
   0.42857143  0.42857143  0.14285714       0.070
   0.28571429  0.28571429  0.28571429       0.023
   0.42857143  0.28571429  0.28571429       0.070
   0.42857143  0.42857143  0.28571429       0.070
   0.42857143  0.42857143  0.42857143       0.023
 
 position of ions in fractional coordinates (direct lattice) 
   0.00000000  0.00000000  0.00000000
   0.50000000  0.50000000  0.50000000
   0.50000000  0.50000000  0.00000000
   0.50000000  0.00000000  0.50000000
   0.00000000  0.50000000  0.50000000
 
 position of ions in cartesian coordinates  (Angst):
   0.00000000  0.00000000  0.00000000
   1.95263400  1.95263400  1.95263400
   1.95263400  1.95263400  0.00000000
   1.95263400  0.00000000  1.95263400
   0.00000000  1.95263400  1.95263400
 


--------------------------------------------------------------------------------------------------------


 k-point  1 :   0.0000 0.0000 0.0000  plane waves:    3071
 k-point  2 :   0.1429 0.0000 0.0000  plane waves:    3034
 k-point  3 :   0.2857 0.0000 0.0000  plane waves:    3058
 k-point  4 :   0.4286 0.0000 0.0000  plane waves:    3054
 k-point  5 :   0.1429 0.1429 0.0000  plane waves:    3051
 k-point  6 :   0.2857 0.1429 0.0000  plane waves:    3060
 k-point  7 :   0.4286 0.1429 0.0000  plane waves:    3043
 k-point  8 :   0.2857 0.2857 0.0000  plane waves:    3049
 k-point  9 :   0.4286 0.2857 0.0000  plane waves:    3054
 k-point 10 :   0.4286 0.4286 0.0000  plane waves:    3072
 k-point 11 :   0.1429 0.1429 0.1429  plane waves:    3047
 k-point 12 :   0.2857 0.1429 0.1429  plane waves:    3061
 k-point 13 :   0.4286 0.1429 0.1429  plane waves:    3050
 k-point 14 :   0.2857 0.2857 0.1429  plane waves:    3062
 k-point 15 :   0.4286 0.2857 0.1429  plane waves:    3070
 k-point 16 :   0.4286 0.4286 0.1429  plane waves:    3078
 k-point 17 :   0.2857 0.2857 0.2857  plane waves:    3073
 k-point 18 :   0.4286 0.2857 0.2857  plane waves:    3059
 k-point 19 :   0.4286 0.4286 0.2857  plane waves:    3066
 k-point 20 :   0.4286 0.4286 0.4286  plane waves:    3076

 maximum and minimum number of plane-waves per node :      1548     1508

 maximum number of plane-waves:      3078
 maximum index in each direction: 
   IXMAX=    9   IYMAX=    9   IZMAX=    9
   IXMIN=   -9   IYMIN=   -9   IZMIN=   -9


 parallel 3D FFT for wavefunctions:
    minimum data exchange during FFTs selected (reduces bandwidth)
 parallel 3D FFT for charge:
    minimum data exchange during FFTs selected (reduces bandwidth)


 total amount of memory used by VASP MPI-rank0    53799. kBytes
=======================================================================

   base      :      30000. kBytes
   nonl-proj :      13498. kBytes
   fftplans  :       1863. kBytes
   grid      :       3330. kBytes
   one-center:         46. kBytes
   wavefun   :       5062. kBytes
 
     INWAV:  cpu time    0.0000: real time    0.0000
 Broyden mixing: mesh for mixing (old mesh)
   NGX = 19   NGY = 19   NGZ = 19
  (NGX  = 56   NGY  = 56   NGZ  = 56)
  gives a total of   6859 points

 initial charge density was supplied:
 charge density of overlapping atoms calculated
 number of electron      32.0000000 magnetization 
 keeping initial charge density in first step


--------------------------------------------------------------------------------------------------------


 Maximum index for augmentation-charges         6233 (set IRDMAX)


--------------------------------------------------------------------------------------------------------


 First call to EWALD:  gamma=   0.454
 Maximum number of real-space cells 3x 3x 3
 Maximum number of reciprocal cells 3x 3x 3

    FEWALD:  cpu time    0.0020: real time    0.0014


--------------------------------------- Iteration      1(   1)  ---------------------------------------


    POTLOK:  cpu time    0.0260: real time    0.0467
    SETDIJ:  cpu time    0.0060: real time    0.0062
     EDDAV:  cpu time    0.3629: real time    0.3667
 BZINTS: Fermi energy: 20.934013; 32.000000 electrons
         Band energy: 155.783681;  BLOECHL correction: -0.307598
       DOS:  cpu time    0.0050: real time    0.0053
    --------------------------------------------
      LOOP:  cpu time    0.3999: real time    0.4249

 eigenvalue-minimisations  :   800
 total energy-change (2. order) : 0.3694848E+03  (-0.2039677E+04)
 number of electron      32.0000000 magnetization 
 augmentation part       32.0000000 magnetization 

 Free energy of the ion-electron system (eV)
  ---------------------------------------------------
  alpha Z        PSCENC =       185.39985751
  Ewald energy   TEWEN  =     -1934.07799583
  -Hartree energ DENC   =      -403.14003404
  -exchange      EXHF   =         0.00000000
  -V(xc)+E(xc)   XCENC  =        82.31787849
  PAW double counting   =      1333.61297253    -1284.78446064
  entropy T*S    EENTRO =         0.00000000
  eigenvalues    EBANDS =       155.78368053
  atomic energy  EATOM  =      2234.37285714
  Solvation  Ediel_sol  =         0.00000000
  ---------------------------------------------------
  free energy    TOTEN  =       369.48475568 eV

  energy without entropy =      369.48475568  energy(sigma->0) =      369.48475568


--------------------------------------------------------------------------------------------------------




--------------------------------------- Iteration      1(   2)  ---------------------------------------


     EDDAV:  cpu time    0.4119: real time    0.4127
 BZINTS: Fermi energy:  8.922447; 32.000000 electrons
         Band energy:-210.698561;  BLOECHL correction: -0.241539
       DOS:  cpu time    0.0030: real time    0.0043
    --------------------------------------------
      LOOP:  cpu time    0.4149: real time    0.4170

 eigenvalue-minimisations  :   960
 total energy-change (2. order) :-0.3664822E+03  (-0.3451727E+03)
 number of electron      32.0000000 magnetization 
 augmentation part       32.0000000 magnetization 

 Free energy of the ion-electron system (eV)
  ---------------------------------------------------
  alpha Z        PSCENC =       185.39985751
  Ewald energy   TEWEN  =     -1934.07799583
  -Hartree energ DENC   =      -403.14003404
  -exchange      EXHF   =         0.00000000
  -V(xc)+E(xc)   XCENC  =        82.31787849
  PAW double counting   =      1333.61297253    -1284.78446064
  entropy T*S    EENTRO =         0.00000000
  eigenvalues    EBANDS =      -210.69856081
  atomic energy  EATOM  =      2234.37285714
  Solvation  Ediel_sol  =         0.00000000
  ---------------------------------------------------
  free energy    TOTEN  =         3.00251434 eV

  energy without entropy =        3.00251434  energy(sigma->0) =        3.00251434


--------------------------------------------------------------------------------------------------------




--------------------------------------- Iteration      1(   3)  ---------------------------------------


     EDDAV:  cpu time    0.4399: real time    0.4417
 BZINTS: Fermi energy:  0.457531; 32.000000 electrons
         Band energy:-261.948256;  BLOECHL correction:  0.000000
       DOS:  cpu time    0.0010: real time    0.0011
    --------------------------------------------
      LOOP:  cpu time    0.4409: real time    0.4428

 eigenvalue-minimisations  :  1040
 total energy-change (2. order) :-0.5124970E+02  (-0.5026373E+02)
 number of electron      32.0000000 magnetization 
 augmentation part       32.0000000 magnetization 

 Free energy of the ion-electron system (eV)
  ---------------------------------------------------
  alpha Z        PSCENC =       185.39985751
  Ewald energy   TEWEN  =     -1934.07799583
  -Hartree energ DENC   =      -403.14003404
  -exchange      EXHF   =         0.00000000
  -V(xc)+E(xc)   XCENC  =        82.31787849
  PAW double counting   =      1333.61297253    -1284.78446064
  entropy T*S    EENTRO =         0.00000000
  eigenvalues    EBANDS =      -261.94825650
  atomic energy  EATOM  =      2234.37285714
  Solvation  Ediel_sol  =         0.00000000
  ---------------------------------------------------
  free energy    TOTEN  =       -48.24718135 eV

  energy without entropy =      -48.24718135  energy(sigma->0) =      -48.24718135


--------------------------------------------------------------------------------------------------------




--------------------------------------- Iteration      1(   4)  ---------------------------------------


     EDDAV:  cpu time    0.5339: real time    0.5341
 BZINTS: Fermi energy: -0.480215; 32.000000 electrons
         Band energy:-263.908867;  BLOECHL correction:  0.000000
       DOS:  cpu time    0.0000: real time    0.0008
    --------------------------------------------
      LOOP:  cpu time    0.5339: real time    0.5349

 eigenvalue-minimisations  :  1320
 total energy-change (2. order) :-0.1960611E+01  (-0.1957393E+01)
 number of electron      32.0000000 magnetization 
 augmentation part       32.0000000 magnetization 

 Free energy of the ion-electron system (eV)
  ---------------------------------------------------
  alpha Z        PSCENC =       185.39985751
  Ewald energy   TEWEN  =     -1934.07799583
  -Hartree energ DENC   =      -403.14003404
  -exchange      EXHF   =         0.00000000
  -V(xc)+E(xc)   XCENC  =        82.31787849
  PAW double counting   =      1333.61297253    -1284.78446064
  entropy T*S    EENTRO =         0.00000000
  eigenvalues    EBANDS =      -263.90886713
  atomic energy  EATOM  =      2234.37285714
  Solvation  Ediel_sol  =         0.00000000
  ---------------------------------------------------
  free energy    TOTEN  =       -50.20779198 eV

  energy without entropy =      -50.20779198  energy(sigma->0) =      -50.20779198


--------------------------------------------------------------------------------------------------------




--------------------------------------- Iteration      1(   5)  ---------------------------------------


     EDDAV:  cpu time    0.4239: real time    0.4232
 BZINTS: Fermi energy: -0.520554; 32.000000 electrons
         Band energy:-263.949516;  BLOECHL correction:  0.000000
       DOS:  cpu time    0.0000: real time    0.0008
    CHARGE:  cpu time    0.0300: real time    0.0300
    MIXING:  cpu time    0.0020: real time    0.0010
    --------------------------------------------
      LOOP:  cpu time    0.4559: real time    0.4551

 eigenvalue-minimisations  :  1000
 total energy-change (2. order) :-0.4064871E-01  (-0.4062550E-01)
 number of electron      32.0000031 magnetization 
 augmentation part        3.4007950 magnetization 

 Broyden mixing:
  rms(total) = 0.18249E+01    rms(broyden)= 0.18249E+01
  rms(prec ) = 0.47631E+01
  weight for this iteration     100.00

 Free energy of the ion-electron system (eV)
  ---------------------------------------------------
  alpha Z        PSCENC =       185.39985751
  Ewald energy   TEWEN  =     -1934.07799583
  -Hartree energ DENC   =      -403.14003404
  -exchange      EXHF   =         0.00000000
  -V(xc)+E(xc)   XCENC  =        82.31787849
  PAW double counting   =      1333.61297253    -1284.78446064
  entropy T*S    EENTRO =         0.00000000
  eigenvalues    EBANDS =      -263.94951584
  atomic energy  EATOM  =      2234.37285714
  Solvation  Ediel_sol  =         0.00000000
  ---------------------------------------------------
  free energy    TOTEN  =       -50.24844069 eV

  energy without entropy =      -50.24844069  energy(sigma->0) =      -50.24844069


--------------------------------------------------------------------------------------------------------




--------------------------------------- Iteration      1(   6)  ---------------------------------------


    POTLOK:  cpu time    0.0230: real time    0.0274
    SETDIJ:  cpu time    0.0050: real time    0.0049
    EDDIAG:  cpu time    0.0750: real time    0.0759
  RMM-DIIS:  cpu time    0.2880: real time    0.2875
    ORTHCH:  cpu time    0.0090: real time    0.0089
 BZINTS: Fermi energy:  3.308785; 32.000000 electrons
         Band energy:-201.007504;  BLOECHL correction:  0.000000
       DOS:  cpu time    0.0010: real time    0.0010
    CHARGE:  cpu time    0.0300: real time    0.0295
    MIXING:  cpu time    0.0000: real time    0.0008
    --------------------------------------------
      LOOP:  cpu time    0.4309: real time    0.4359

 eigenvalue-minimisations  :   862
 total energy-change (2. order) : 0.9832463E+01  (-0.5814313E+01)
 number of electron      32.0000024 magnetization 
 augmentation part        3.4798941 magnetization 

 Broyden mixing:
  rms(total) = 0.62464E+00    rms(broyden)= 0.62463E+00
  rms(prec ) = 0.11383E+01
  weight for this iteration     100.00

 eigenvalues of (default mixing * dielectric matrix)
  average eigenvalue GAMMA=   0.7958
  0.7958

 Free energy of the ion-electron system (eV)
  ---------------------------------------------------
  alpha Z        PSCENC =       185.39985751
  Ewald energy   TEWEN  =     -1934.07799583
  -Hartree energ DENC   =      -457.81346885
  -exchange      EXHF   =         0.00000000
  -V(xc)+E(xc)   XCENC  =        87.10724566
  PAW double counting   =      1487.08234340    -1441.47931251
  entropy T*S    EENTRO =         0.00000000
  eigenvalues    EBANDS =      -201.00750424
  atomic energy  EATOM  =      2234.37285714
  Solvation  Ediel_sol  =         0.00000000
  ---------------------------------------------------
  free energy    TOTEN  =       -40.41597772 eV

  energy without entropy =      -40.41597772  energy(sigma->0) =      -40.41597772


--------------------------------------------------------------------------------------------------------




--------------------------------------- Iteration      1(   7)  ---------------------------------------


    POTLOK:  cpu time    0.0230: real time    0.0239
    SETDIJ:  cpu time    0.0060: real time    0.0049
    EDDIAG:  cpu time    0.0750: real time    0.0755
  RMM-DIIS:  cpu time    0.3180: real time    0.3183
    ORTHCH:  cpu time    0.0090: real time    0.0088
 BZINTS: Fermi energy:  2.715449; 32.000000 electrons
         Band energy:-210.509951;  BLOECHL correction:  0.000000
       DOS:  cpu time    0.0010: real time    0.0010
    CHARGE:  cpu time    0.0290: real time    0.0292
    MIXING:  cpu time    0.0010: real time    0.0008
    --------------------------------------------
      LOOP:  cpu time    0.4619: real time    0.4624

 eigenvalue-minimisations  :   955
 total energy-change (2. order) : 0.5999921E+00  (-0.1538820E+00)
 number of electron      32.0000025 magnetization 
 augmentation part        3.3935586 magnetization 

 Broyden mixing:
  rms(total) = 0.32218E+00    rms(broyden)= 0.32218E+00
  rms(prec ) = 0.56764E+00
  weight for this iteration     100.00

 eigenvalues of (default mixing * dielectric matrix)
  average eigenvalue GAMMA=   1.6939
  0.8837  2.5041

 Free energy of the ion-electron system (eV)
  ---------------------------------------------------
  alpha Z        PSCENC =       185.39985751
  Ewald energy   TEWEN  =     -1934.07799583
  -Hartree energ DENC   =      -445.56798312
  -exchange      EXHF   =         0.00000000
  -V(xc)+E(xc)   XCENC  =        86.24221673
  PAW double counting   =      1497.63469445    -1453.30968106
  entropy T*S    EENTRO =         0.00000000
  eigenvalues    EBANDS =      -210.50995145
  atomic energy  EATOM  =      2234.37285714
  Solvation  Ediel_sol  =         0.00000000
  ---------------------------------------------------
  free energy    TOTEN  =       -39.81598563 eV

  energy without entropy =      -39.81598563  energy(sigma->0) =      -39.81598563


--------------------------------------------------------------------------------------------------------




--------------------------------------- Iteration      1(   8)  ---------------------------------------


    POTLOK:  cpu time    0.0230: real time    0.0236
    SETDIJ:  cpu time    0.0050: real time    0.0049
    EDDIAG:  cpu time    0.0760: real time    0.0759
  RMM-DIIS:  cpu time    0.3130: real time    0.3129
    ORTHCH:  cpu time    0.0090: real time    0.0089
 BZINTS: Fermi energy:  2.398737; 32.000000 electrons
         Band energy:-216.616361;  BLOECHL correction:  0.000000
       DOS:  cpu time    0.0010: real time    0.0009
    CHARGE:  cpu time    0.0290: real time    0.0293
    MIXING:  cpu time    0.0010: real time    0.0014
    --------------------------------------------
      LOOP:  cpu time    0.4569: real time    0.4578

 eigenvalue-minimisations  :   957
 total energy-change (2. order) : 0.8526813E-01  (-0.9366592E-01)
 number of electron      32.0000025 magnetization 
 augmentation part        3.4537376 magnetization 

 Broyden mixing:
  rms(total) = 0.81001E-01    rms(broyden)= 0.80999E-01
  rms(prec ) = 0.18447E+00
  weight for this iteration     100.00

 eigenvalues of (default mixing * dielectric matrix)
  average eigenvalue GAMMA=   1.3271
  2.2875  0.8469  0.8469

 Free energy of the ion-electron system (eV)
  ---------------------------------------------------
  alpha Z        PSCENC =       185.39985751
  Ewald energy   TEWEN  =     -1934.07799583
  -Hartree energ DENC   =      -437.06086837
  -exchange      EXHF   =         0.00000000
  -V(xc)+E(xc)   XCENC  =        85.90555132
  PAW double counting   =      1545.67049489    -1503.32425317
  entropy T*S    EENTRO =         0.00000000
  eigenvalues    EBANDS =      -216.61636098
  atomic energy  EATOM  =      2234.37285714
  Solvation  Ediel_sol  =         0.00000000
  ---------------------------------------------------
  free energy    TOTEN  =       -39.73071749 eV

  energy without entropy =      -39.73071749  energy(sigma->0) =      -39.73071749


--------------------------------------------------------------------------------------------------------




--------------------------------------- Iteration      1(   9)  ---------------------------------------


    POTLOK:  cpu time    0.0230: real time    0.0263
    SETDIJ:  cpu time    0.0050: real time    0.0048
    EDDIAG:  cpu time    0.0760: real time    0.0754
  RMM-DIIS:  cpu time    0.3669: real time    0.3676
    ORTHCH:  cpu time    0.0090: real time    0.0088
 BZINTS: Fermi energy:  2.512973; 32.000000 electrons
         Band energy:-214.815192;  BLOECHL correction:  0.000000
       DOS:  cpu time    0.0010: real time    0.0010
    CHARGE:  cpu time    0.0290: real time    0.0293
    MIXING:  cpu time    0.0020: real time    0.0009
    --------------------------------------------
      LOOP:  cpu time    0.5119: real time    0.5142

 eigenvalue-minimisations  :  1108
 total energy-change (2. order) : 0.1330746E-01  (-0.5809253E-02)
 number of electron      32.0000025 magnetization 
 augmentation part        3.4458732 magnetization 

 Broyden mixing:
  rms(total) = 0.57758E-01    rms(broyden)= 0.57758E-01
  rms(prec ) = 0.12776E+00
  weight for this iteration     100.00

 eigenvalues of (default mixing * dielectric matrix)
  average eigenvalue GAMMA=   1.5364
  0.9081  0.9081  2.1647  2.1647

 Free energy of the ion-electron system (eV)
  ---------------------------------------------------
  alpha Z        PSCENC =       185.39985751
  Ewald energy   TEWEN  =     -1934.07799583
  -Hartree energ DENC   =      -438.81579206
  -exchange      EXHF   =         0.00000000
  -V(xc)+E(xc)   XCENC  =        86.03289049
  PAW double counting   =      1553.50070458    -1511.31474030
  entropy T*S    EENTRO =         0.00000000
  eigenvalues    EBANDS =      -214.81519156
  atomic energy  EATOM  =      2234.37285714
  Solvation  Ediel_sol  =         0.00000000
  ---------------------------------------------------
  free energy    TOTEN  =       -39.71741004 eV

  energy without entropy =      -39.71741004  energy(sigma->0) =      -39.71741004


--------------------------------------------------------------------------------------------------------




--------------------------------------- Iteration      1(  10)  ---------------------------------------


    POTLOK:  cpu time    0.0220: real time    0.0236
    SETDIJ:  cpu time    0.0050: real time    0.0049
    EDDIAG:  cpu time    0.0760: real time    0.0754
  RMM-DIIS:  cpu time    0.3130: real time    0.3135
    ORTHCH:  cpu time    0.0090: real time    0.0088
 BZINTS: Fermi energy:  2.663636; 32.000000 electrons
         Band energy:-211.384907;  BLOECHL correction:  0.000000
       DOS:  cpu time    0.0010: real time    0.0010
    CHARGE:  cpu time    0.0290: real time    0.0292
    MIXING:  cpu time    0.0010: real time    0.0009
    --------------------------------------------
      LOOP:  cpu time    0.4559: real time    0.4573

 eigenvalue-minimisations  :   967
 total energy-change (2. order) : 0.2417218E-02  (-0.1420015E-01)
 number of electron      32.0000025 magnetization 
 augmentation part        3.4124526 magnetization 

 Broyden mixing:
  rms(total) = 0.36878E-01    rms(broyden)= 0.36877E-01
  rms(prec ) = 0.73896E-01
  weight for this iteration     100.00

 eigenvalues of (default mixing * dielectric matrix)
  average eigenvalue GAMMA=   1.4100
  2.4816  0.8909  1.0618  1.3079  1.3079

 Free energy of the ion-electron system (eV)
  ---------------------------------------------------
  alpha Z        PSCENC =       185.39985751
  Ewald energy   TEWEN  =     -1934.07799583
  -Hartree energ DENC   =      -442.51811374
  -exchange      EXHF   =         0.00000000
  -V(xc)+E(xc)   XCENC  =        86.25781753
  PAW double counting   =      1560.53770678    -1518.30221488
  entropy T*S    EENTRO =         0.00000000
  eigenvalues    EBANDS =      -211.38490733
  atomic energy  EATOM  =      2234.37285714
  Solvation  Ediel_sol  =         0.00000000
  ---------------------------------------------------
  free energy    TOTEN  =       -39.71499282 eV

  energy without entropy =      -39.71499282  energy(sigma->0) =      -39.71499282


--------------------------------------------------------------------------------------------------------




--------------------------------------- Iteration      1(  11)  ---------------------------------------


    POTLOK:  cpu time    0.0230: real time    0.0237
    SETDIJ:  cpu time    0.0050: real time    0.0048
    EDDIAG:  cpu time    0.0760: real time    0.0758
  RMM-DIIS:  cpu time    0.3329: real time    0.3330
    ORTHCH:  cpu time    0.0080: real time    0.0088
 BZINTS: Fermi energy:  2.670069; 32.000000 electrons
         Band energy:-212.536297;  BLOECHL correction:  0.000000
       DOS:  cpu time    0.0010: real time    0.0010
    CHARGE:  cpu time    0.0300: real time    0.0292
    MIXING:  cpu time    0.0000: real time    0.0010
    --------------------------------------------
      LOOP:  cpu time    0.4759: real time    0.4774

 eigenvalue-minimisations  :  1047
 total energy-change (2. order) : 0.2900908E-02  (-0.1574547E-02)
 number of electron      32.0000025 magnetization 
 augmentation part        3.4167137 magnetization 

 Broyden mixing:
  rms(total) = 0.79500E-02    rms(broyden)= 0.79499E-02
  rms(prec ) = 0.17145E-01
  weight for this iteration     100.00

 eigenvalues of (default mixing * dielectric matrix)
  average eigenvalue GAMMA=   1.5086
  2.3061  1.9857  1.9857  0.9604  0.9604  0.8529

 Free energy of the ion-electron system (eV)
  ---------------------------------------------------
  alpha Z        PSCENC =       185.39985751
  Ewald energy   TEWEN  =     -1934.07799583
  -Hartree energ DENC   =      -441.27003190
  -exchange      EXHF   =         0.00000000
  -V(xc)+E(xc)   XCENC  =        86.19007540
  PAW double counting   =      1560.77074309    -1518.56130052
  entropy T*S    EENTRO =         0.00000000
  eigenvalues    EBANDS =      -212.53629679
  atomic energy  EATOM  =      2234.37285714
  Solvation  Ediel_sol  =         0.00000000
  ---------------------------------------------------
  free energy    TOTEN  =       -39.71209191 eV

  energy without entropy =      -39.71209191  energy(sigma->0) =      -39.71209191


--------------------------------------------------------------------------------------------------------




--------------------------------------- Iteration      1(  12)  ---------------------------------------


    POTLOK:  cpu time    0.0250: real time    0.0274
    SETDIJ:  cpu time    0.0050: real time    0.0049
    EDDIAG:  cpu time    0.0750: real time    0.0754
  RMM-DIIS:  cpu time    0.3419: real time    0.3420
    ORTHCH:  cpu time    0.0090: real time    0.0089
 BZINTS: Fermi energy:  2.569117; 32.000000 electrons
         Band energy:-213.121275;  BLOECHL correction:  0.000000
       DOS:  cpu time    0.0010: real time    0.0009
    CHARGE:  cpu time    0.0290: real time    0.0292
    MIXING:  cpu time    0.0010: real time    0.0010
    --------------------------------------------
      LOOP:  cpu time    0.4869: real time    0.4896

 eigenvalue-minimisations  :  1072
 total energy-change (2. order) :-0.7198508E-03  (-0.8383770E-03)
 number of electron      32.0000025 magnetization 
 augmentation part        3.4170386 magnetization 

 Broyden mixing:
  rms(total) = 0.14504E-01    rms(broyden)= 0.14504E-01
  rms(prec ) = 0.32069E-01
  weight for this iteration     100.00

 eigenvalues of (default mixing * dielectric matrix)
  average eigenvalue GAMMA=   1.5308
  2.8143  1.7898  1.7898  1.2507  1.2507  0.9102  0.9102

 Free energy of the ion-electron system (eV)
  ---------------------------------------------------
  alpha Z        PSCENC =       185.39985751
  Ewald energy   TEWEN  =     -1934.07799583
  -Hartree energ DENC   =      -440.76116150
  -exchange      EXHF   =         0.00000000
  -V(xc)+E(xc)   XCENC  =        86.15526432
  PAW double counting   =      1559.31729207    -1516.99765046
  entropy T*S    EENTRO =         0.00000000
  eigenvalues    EBANDS =      -213.12127500
  atomic energy  EATOM  =      2234.37285714
  Solvation  Ediel_sol  =         0.00000000
  ---------------------------------------------------
  free energy    TOTEN  =       -39.71281176 eV

  energy without entropy =      -39.71281176  energy(sigma->0) =      -39.71281176


--------------------------------------------------------------------------------------------------------




--------------------------------------- Iteration      1(  13)  ---------------------------------------


    POTLOK:  cpu time    0.0230: real time    0.0236
    SETDIJ:  cpu time    0.0050: real time    0.0048
    EDDIAG:  cpu time    0.0750: real time    0.0754
  RMM-DIIS:  cpu time    0.3329: real time    0.3327
    ORTHCH:  cpu time    0.0080: real time    0.0088
 BZINTS: Fermi energy:  2.570459; 32.000000 electrons
         Band energy:-212.496696;  BLOECHL correction:  0.000000
       DOS:  cpu time    0.0010: real time    0.0009
    CHARGE:  cpu time    0.0300: real time    0.0292
    MIXING:  cpu time    0.0010: real time    0.0011
    --------------------------------------------
      LOOP:  cpu time    0.4759: real time    0.4765

 eigenvalue-minimisations  :  1044
 total energy-change (2. order) : 0.2236989E-03  (-0.5339933E-03)
 number of electron      32.0000025 magnetization 
 augmentation part        3.4160995 magnetization 

 Broyden mixing:
  rms(total) = 0.61781E-02    rms(broyden)= 0.61781E-02
  rms(prec ) = 0.16398E-01
  weight for this iteration     100.00

 eigenvalues of (default mixing * dielectric matrix)
  average eigenvalue GAMMA=   1.5468
  2.4678  2.2039  2.2039  1.2995  1.2995  1.2555  0.8220  0.8220

 Free energy of the ion-electron system (eV)
  ---------------------------------------------------
  alpha Z        PSCENC =       185.39985751
  Ewald energy   TEWEN  =     -1934.07799583
  -Hartree energ DENC   =      -441.42663983
  -exchange      EXHF   =         0.00000000
  -V(xc)+E(xc)   XCENC  =        86.20442015
  PAW double counting   =      1561.29537600    -1518.98376765
  entropy T*S    EENTRO =         0.00000000
  eigenvalues    EBANDS =      -212.49669556
  atomic energy  EATOM  =      2234.37285714
  Solvation  Ediel_sol  =         0.00000000
  ---------------------------------------------------
  free energy    TOTEN  =       -39.71258806 eV

  energy without entropy =      -39.71258806  energy(sigma->0) =      -39.71258806


--------------------------------------------------------------------------------------------------------




--------------------------------------- Iteration      1(  14)  ---------------------------------------


    POTLOK:  cpu time    0.0230: real time    0.0237
    SETDIJ:  cpu time    0.0060: real time    0.0049
    EDDIAG:  cpu time    0.0750: real time    0.0755
  RMM-DIIS:  cpu time    0.3140: real time    0.3147
    ORTHCH:  cpu time    0.0100: real time    0.0089
 BZINTS: Fermi energy:  2.566762; 32.000000 electrons
         Band energy:-212.622274;  BLOECHL correction:  0.000000
       DOS:  cpu time    0.0000: real time    0.0009
    CHARGE:  cpu time    0.0290: real time    0.0292
    MIXING:  cpu time    0.0020: real time    0.0011
    --------------------------------------------
      LOOP:  cpu time    0.4589: real time    0.4588

 eigenvalue-minimisations  :   983
 total energy-change (2. order) : 0.6660647E-05  (-0.1484765E-03)
 number of electron      32.0000025 magnetization 
 augmentation part        3.4116491 magnetization 

 Broyden mixing:
  rms(total) = 0.29321E-02    rms(broyden)= 0.29321E-02
  rms(prec ) = 0.83107E-02
  weight for this iteration     100.00

 eigenvalues of (default mixing * dielectric matrix)
  average eigenvalue GAMMA=   1.5951
  2.9751  2.7444  2.7444  1.2166  1.2166  1.1137  0.8654  0.7399  0.7399

 Free energy of the ion-electron system (eV)
  ---------------------------------------------------
  alpha Z        PSCENC =       185.39985751
  Ewald energy   TEWEN  =     -1934.07799583
  -Hartree energ DENC   =      -441.30907565
  -exchange      EXHF   =         0.00000000
  -V(xc)+E(xc)   XCENC  =        86.19120513
  PAW double counting   =      1560.92291335    -1518.59006916
  entropy T*S    EENTRO =         0.00000000
  eigenvalues    EBANDS =      -212.62227389
  atomic energy  EATOM  =      2234.37285714
  Solvation  Ediel_sol  =         0.00000000
  ---------------------------------------------------
  free energy    TOTEN  =       -39.71258140 eV

  energy without entropy =      -39.71258140  energy(sigma->0) =      -39.71258140


--------------------------------------------------------------------------------------------------------




--------------------------------------- Iteration      1(  15)  ---------------------------------------


    POTLOK:  cpu time    0.0230: real time    0.0265
    SETDIJ:  cpu time    0.0050: real time    0.0049
    EDDIAG:  cpu time    0.0750: real time    0.0754
  RMM-DIIS:  cpu time    0.2930: real time    0.2931
    ORTHCH:  cpu time    0.0090: real time    0.0088
 BZINTS: Fermi energy:  2.566411; 32.000000 electrons
         Band energy:-212.590405;  BLOECHL correction:  0.000000
       DOS:  cpu time    0.0010: real time    0.0009
    CHARGE:  cpu time    0.0290: real time    0.0293
    MIXING:  cpu time    0.0020: real time    0.0012
    --------------------------------------------
      LOOP:  cpu time    0.4369: real time    0.4400

 eigenvalue-minimisations  :   897
 total energy-change (2. order) :-0.1535926E-04  (-0.4426274E-04)
 number of electron      32.0000025 magnetization 
 augmentation part        3.4117765 magnetization 

 Broyden mixing:
  rms(total) = 0.14993E-02    rms(broyden)= 0.14993E-02
  rms(prec ) = 0.39010E-02
  weight for this iteration     100.00

 eigenvalues of (default mixing * dielectric matrix)
  average eigenvalue GAMMA=   1.5310
  3.0031  3.0031  2.4620  1.2198  1.2198  0.9260  0.9260  0.9947  0.8699  0.6858

 Free energy of the ion-electron system (eV)
  ---------------------------------------------------
  alpha Z        PSCENC =       185.39985751
  Ewald energy   TEWEN  =     -1934.07799583
  -Hartree energ DENC   =      -441.36059885
  -exchange      EXHF   =         0.00000000
  -V(xc)+E(xc)   XCENC  =        86.19561225
  PAW double counting   =      1561.01407736    -1518.66600090
  entropy T*S    EENTRO =         0.00000000
  eigenvalues    EBANDS =      -212.59040544
  atomic energy  EATOM  =      2234.37285714
  Solvation  Ediel_sol  =         0.00000000
  ---------------------------------------------------
  free energy    TOTEN  =       -39.71259676 eV

  energy without entropy =      -39.71259676  energy(sigma->0) =      -39.71259676


--------------------------------------------------------------------------------------------------------




--------------------------------------- Iteration      1(  16)  ---------------------------------------


    POTLOK:  cpu time    0.0230: real time    0.0233
    SETDIJ:  cpu time    0.0050: real time    0.0049
    EDDIAG:  cpu time    0.0750: real time    0.0754
  RMM-DIIS:  cpu time    0.2800: real time    0.2796
    ORTHCH:  cpu time    0.0080: real time    0.0088
 BZINTS: Fermi energy:  2.565908; 32.000000 electrons
         Band energy:-212.618932;  BLOECHL correction:  0.000000
       DOS:  cpu time    0.0010: real time    0.0009
    CHARGE:  cpu time    0.0300: real time    0.0293
    MIXING:  cpu time    0.0010: real time    0.0013
    --------------------------------------------
      LOOP:  cpu time    0.4229: real time    0.4235

 eigenvalue-minimisations  :   851
 total energy-change (2. order) :-0.2564010E-05  (-0.1347056E-04)
 number of electron      32.0000025 magnetization 
 augmentation part        3.4122578 magnetization 

 Broyden mixing:
  rms(total) = 0.78270E-03    rms(broyden)= 0.78270E-03
  rms(prec ) = 0.17617E-02
  weight for this iteration     100.00

 eigenvalues of (default mixing * dielectric matrix)
  average eigenvalue GAMMA=   1.6136
  3.4293  2.7995  2.7995  1.5621  1.2449  1.2449  1.2206  0.9591  0.9591  0.7655
  0.7655

 Free energy of the ion-electron system (eV)
  ---------------------------------------------------
  alpha Z        PSCENC =       185.39985751
  Ewald energy   TEWEN  =     -1934.07799583
  -Hartree energ DENC   =      -441.34664772
  -exchange      EXHF   =         0.00000000
  -V(xc)+E(xc)   XCENC  =        86.19520923
  PAW double counting   =      1560.92490061    -1518.56184781
  entropy T*S    EENTRO =         0.00000000
  eigenvalues    EBANDS =      -212.61893246
  atomic energy  EATOM  =      2234.37285714
  Solvation  Ediel_sol  =         0.00000000
  ---------------------------------------------------
  free energy    TOTEN  =       -39.71259933 eV

  energy without entropy =      -39.71259933  energy(sigma->0) =      -39.71259933


--------------------------------------------------------------------------------------------------------




--------------------------------------- Iteration      1(  17)  ---------------------------------------


    POTLOK:  cpu time    0.0230: real time    0.0234
    SETDIJ:  cpu time    0.0050: real time    0.0049
    EDDIAG:  cpu time    0.0750: real time    0.0755
  RMM-DIIS:  cpu time    0.2530: real time    0.2519
    ORTHCH:  cpu time    0.0080: real time    0.0088
 BZINTS: Fermi energy:  2.564560; 32.000000 electrons
         Band energy:-212.619371;  BLOECHL correction:  0.000000
       DOS:  cpu time    0.0010: real time    0.0009
    --------------------------------------------
      LOOP:  cpu time    0.3649: real time    0.3653

 eigenvalue-minimisations  :   729
 total energy-change (2. order) :-0.4352701E-05  (-0.4701244E-05)
 number of electron      32.0000025 magnetization 
 augmentation part        3.4122578 magnetization 

 Free energy of the ion-electron system (eV)
  ---------------------------------------------------
  alpha Z        PSCENC =       185.39985751
  Ewald energy   TEWEN  =     -1934.07799583
  -Hartree energ DENC   =      -441.35347726
  -exchange      EXHF   =         0.00000000
  -V(xc)+E(xc)   XCENC  =        86.19549835
  PAW double counting   =      1560.96772229    -1518.59769495
  entropy T*S    EENTRO =         0.00000000
  eigenvalues    EBANDS =      -212.61937093
  atomic energy  EATOM  =      2234.37285714
  Solvation  Ediel_sol  =         0.00000000
  ---------------------------------------------------
  free energy    TOTEN  =       -39.71260368 eV

  energy without entropy =      -39.71260368  energy(sigma->0) =      -39.71260368


--------------------------------------------------------------------------------------------------------




 average (electrostatic) potential at core
  the test charge radii are     1.1929  1.2598  0.7215
  (the norm of the test charge is              1.0000)
       1 -36.1360       2 -26.7983       3 -71.0648       4 -71.0648       5 -71.0648
 
 
 
 E-fermi :   2.5646     XC(G=0): -11.1504     alpha+bet :-12.6354


 k-point     1 :       0.0000    0.0000    0.0000
  band No.  band energies     occupation 
      1     -30.0822      2.00000
      2     -14.8196      2.00000
      3     -13.8129      2.00000
      4     -13.8129      2.00000
      5     -12.1466      2.00000
      6     -12.1466      2.00000
      7     -12.1466      2.00000
      8      -0.2153      2.00000
      9      -0.2153      2.00000
     10      -0.2153      2.00000
     11       1.4725      2.00000
     12       1.4725      2.00000
     13       1.4725      2.00000
     14       2.3124      2.00000
     15       2.3124      2.00000
     16       2.3124      2.00000
     17       4.3418      0.00000
     18       4.3418      0.00000
     19       4.3418      0.00000
     20       8.0495      0.00000

 k-point     2 :       0.1429    0.0000    0.0000
  band No.  band energies     occupation 
      1     -30.0777      2.00000
      2     -14.8321      2.00000
      3     -13.8351      2.00000
      4     -13.8053      2.00000
      5     -12.1375      2.00000
      6     -12.1375      2.00000
      7     -12.0118      2.00000
      8      -0.4798      2.00000
      9      -0.2286      2.00000
     10      -0.2286      2.00000
     11       1.2038      2.00000
     12       1.2038      2.00000
     13       1.2961      2.00000
     14       1.7103      2.00000
     15       2.1862      2.00000
     16       2.1862      2.00000
     17       4.3707      0.00000
     18       4.7911      0.00000
     19       4.7911      0.00000
     20       8.3923      0.00000

 k-point     3 :       0.2857    0.0000    0.0000
  band No.  band energies     occupation 
      1     -30.0678      2.00000
      2     -14.9173      2.00000
      3     -13.7883      2.00000
      4     -13.7693      2.00000
      5     -12.1169      2.00000
      6     -12.1169      2.00000
      7     -11.7573      2.00000
      8      -1.1039      2.00000
      9      -0.2480      2.00000
     10      -0.2480      2.00000
     11       0.6856      2.00000
     12       0.6856      2.00000
     13       0.7682      2.00000
     14       0.9430      2.00000
     15       2.0273      2.00000
     16       2.0273      2.00000
     17       4.4375      0.00000
     18       5.6010      0.00000
     19       5.6010      0.00000
     20       9.1804      0.00000

 k-point     4 :       0.4286    0.0000    0.0000
  band No.  band energies     occupation 
      1     -30.0598      2.00000
      2     -15.0184      2.00000
      3     -13.7745      2.00000
      4     -13.6396      2.00000
      5     -12.1003      2.00000
      6     -12.1003      2.00000
      7     -11.5859      2.00000
      8      -1.6349      2.00000
      9      -0.2368      2.00000
     10      -0.2368      2.00000
     11       0.2333      2.00000
     12       0.3127      2.00000
     13       0.3127      2.00000
     14       0.6923      2.00000
     15       1.9377      2.00000
     16       1.9377      2.00000
     17       4.4929      0.00000
     18       6.1665      0.00000
     19       6.1665      0.00000
     20       9.8470      0.00000

 k-point     5 :       0.1429    0.1429    0.0000
  band No.  band energies     occupation 
      1     -30.0735      2.00000
      2     -14.8184      2.00000
      3     -13.8693      2.00000
      4     -13.7993      2.00000
      5     -12.1281      2.00000
      6     -12.0640      2.00000
      7     -11.9666      2.00000
      8      -0.6415      2.00000
      9      -0.3472      2.00000
     10      -0.2404      2.00000
     11       0.6679      2.00000
     12       1.0005      2.00000
     13       1.4765      2.00000
     14       1.5312      2.00000
     15       1.8713      2.00000
     16       2.0054      2.00000
     17       4.7574      0.00000
     18       4.8615      0.00000
     19       5.0418      0.00000
     20       8.6815      0.00000

 k-point     6 :       0.2857    0.1429    0.0000
  band No.  band energies     occupation 
      1     -30.0638      2.00000
      2     -14.8478      2.00000
      3     -13.8605      2.00000
      4     -13.7604      2.00000
      5     -12.1069      2.00000
      6     -12.0312      2.00000
      7     -11.7731      2.00000
      8      -1.1581      2.00000
      9      -0.5140      2.00000
     10      -0.2565      2.00000
     11      -0.0028      2.00000
     12       0.5590      2.00000
     13       0.8957      2.00000
     14       1.4549      2.00000
     15       1.6904      2.00000
     16       1.7816      2.00000
     17       4.8500      0.00000
     18       5.6114      0.00000
     19       5.6669      0.00000
     20       9.4010      0.00000

 k-point     7 :       0.4286    0.1429    0.0000
  band No.  band energies     occupation 
      1     -30.0560      2.00000
      2     -14.9183      2.00000
      3     -13.7755      2.00000
      4     -13.7223      2.00000
      5     -12.0898      2.00000
      6     -12.0200      2.00000
      7     -11.6295      2.00000
      8      -1.6492      2.00000
      9      -0.6997      2.00000
     10      -0.3603      2.00000
     11      -0.2398      2.00000
     12       0.2120      2.00000
     13       0.5938      2.00000
     14       1.3920      2.00000
     15       1.5391      2.00000
     16       1.6679      2.00000
     17       4.8923      0.00000
     18       6.1674      0.00000
     19       6.1881      0.00000
     20      10.0023      0.00000

 k-point     8 :       0.2857    0.2857    0.0000
  band No.  band energies     occupation 
      1     -30.0548      2.00000
      2     -14.7118      2.00000
      3     -13.9784      2.00000
      4     -13.7291      2.00000
      5     -12.0843      2.00000
      6     -11.8920      2.00000
      7     -11.7799      2.00000
      8      -1.3919      2.00000
      9      -0.9265      2.00000
     10      -0.7810      2.00000
     11      -0.2691      2.00000
     12       0.2621      2.00000
     13       0.8627      2.00000
     14       1.2115      2.00000
     15       1.4227      2.00000
     16       2.0028      2.00000
     17       5.5624      0.00000
     18       5.6865      0.00000
     19       5.9791      0.00000
     20       9.9999      0.00000

 k-point     9 :       0.4286    0.2857    0.0000
  band No.  band energies     occupation 
      1     -30.0476      2.00000
      2     -14.6557      2.00000
      3     -13.9388      2.00000
      4     -13.7622      2.00000
      5     -12.0660      2.00000
      6     -11.8654      2.00000
      7     -11.7108      2.00000
      8      -1.7041      2.00000
      9      -1.4464      2.00000
     10      -0.9978      2.00000
     11      -0.2488      2.00000
     12      -0.0069      2.00000
     13       0.8265      2.00000
     14       1.1378      2.00000
     15       1.2313      2.00000
     16       2.1244      2.00000
     17       5.6392      0.00000
     18       6.1711      0.00000
     19       6.3529      0.00000
     20      10.3920      0.00000

 k-point    10 :       0.4286    0.4286    0.0000
  band No.  band energies     occupation 
      1     -30.0408      2.00000
      2     -14.3557      2.00000
      3     -14.0529      2.00000
      4     -13.8923      2.00000
      5     -12.0467      2.00000
      6     -11.7619      2.00000
      7     -11.7472      2.00000
      8      -1.9222      2.00000
      9      -1.7944      2.00000
     10      -1.4999      2.00000
     11      -0.2511      2.00000
     12      -0.1847      2.00000
     13       0.9702      2.00000
     14       1.0042      2.00000
     15       1.0833      2.00000
     16       2.4487      2.00000
     17       6.1627      0.00000
     18       6.1843      0.00000
     19       6.6012      0.00000
     20      10.7858      0.00000

 k-point    11 :       0.1429    0.1429    0.1429
  band No.  band energies     occupation 
      1     -30.0693      2.00000
      2     -14.7885      2.00000
      3     -13.8463      2.00000
      4     -13.8463      2.00000
      5     -12.0801      2.00000
      6     -12.0801      2.00000
      7     -11.9038      2.00000
      8      -0.8084      2.00000
      9      -0.3528      2.00000
     10      -0.3528      2.00000
     11       0.5630      2.00000
     12       0.5630      2.00000
     13       1.1593      2.00000
     14       1.6694      2.00000
     15       1.8159      2.00000
     16       1.8159      2.00000
     17       5.0072      0.00000
     18       5.0994      0.00000
     19       5.0994      0.00000
     20       8.9866      0.00000

 k-point    12 :       0.2857    0.1429    0.1429
  band No.  band energies     occupation 
      1     -30.0599      2.00000
      2     -14.7762      2.00000
      3     -13.8578      2.00000
      4     -13.7923      2.00000
      5     -12.1187      2.00000
      6     -11.9945      2.00000
      7     -11.7702      2.00000
      8      -1.2253      2.00000
      9      -0.6288      2.00000
     10      -0.3672      2.00000
     11      -0.0175      2.00000
     12       0.0388      2.00000
     13       0.8826      2.00000
     14       1.5588      2.00000
     15       1.6494      2.00000
     16       1.6857      2.00000
     17       5.1220      0.00000
     18       5.6904      0.00000
     19       5.6977      0.00000
     20       9.6314      0.00000

 k-point    13 :       0.4286    0.1429    0.1429
  band No.  band energies     occupation 
      1     -30.0523      2.00000
      2     -14.8190      2.00000
      3     -13.7826      2.00000
      4     -13.7464      2.00000
      5     -12.1524      2.00000
      6     -11.9311      2.00000
      7     -11.6786      2.00000
      8      -1.6610      2.00000
      9      -0.8540      2.00000
     10      -0.4537      2.00000
     11      -0.3947      2.00000
     12      -0.2366      2.00000
     13       0.9698      2.00000
     14       1.3033      2.00000
     15       1.5116      2.00000
     16       1.5985      2.00000
     17       5.1710      0.00000
     18       6.1978      0.00000
     19       6.2139      0.00000
     20      10.2021      0.00000

 k-point    14 :       0.2857    0.2857    0.1429
  band No.  band energies     occupation 
      1     -30.0511      2.00000
      2     -14.6313      2.00000
      3     -13.9283      2.00000
      4     -13.7494      2.00000
      5     -12.1235      2.00000
      6     -11.9570      2.00000
      7     -11.7521      2.00000
      8      -1.4341      2.00000
      9      -0.9218      2.00000
     10      -0.7211      2.00000
     11      -0.4893      2.00000
     12      -0.1060      2.00000
     13       0.4417      2.00000
     14       1.4936      2.00000
     15       1.5540      2.00000
     16       2.0122      2.00000
     17       5.6962      0.00000
     18       5.7919      0.00000
     19       6.0171      0.00000
     20      10.2251      0.00000

 k-point    15 :       0.4286    0.2857    0.1429
  band No.  band energies     occupation 
      1     -30.0440      2.00000
      2     -14.5587      2.00000
      3     -13.9035      2.00000
      4     -13.7331      2.00000
      5     -12.1603      2.00000
      6     -11.8739      2.00000
      7     -11.7657      2.00000
      8      -1.7015      2.00000
      9      -1.3790      2.00000
     10      -0.9880      2.00000
     11      -0.5099      2.00000
     12      -0.3642      2.00000
     13       0.4649      2.00000
     14       1.3882      2.00000
     15       1.4863      2.00000
     16       2.1340      2.00000
     17       5.7827      0.00000
     18       6.2433      0.00000
     19       6.3881      0.00000
     20      10.5543      0.00000

 k-point    16 :       0.4286    0.4286    0.1429
  band No.  band energies     occupation 
      1     -30.0373      2.00000
      2     -14.2615      2.00000
      3     -13.9864      2.00000
      4     -13.8308      2.00000
      5     -12.1297      2.00000
      6     -11.8610      2.00000
      7     -11.8187      2.00000
      8      -1.8270      2.00000
      9      -1.7302      2.00000
     10      -1.4961      2.00000
     11      -0.5250      2.00000
     12      -0.4669      2.00000
     13       0.3288      2.00000
     14       1.4275      2.00000
     15       1.4714      2.00000
     16       2.4630      2.00000
     17       6.2600      0.00000
     18       6.2801      0.00000
     19       6.6399      0.00000
     20      10.4605      0.00000

 k-point    17 :       0.2857    0.2857    0.2857
  band No.  band energies     occupation 
      1     -30.0427      2.00000
      2     -14.4485      2.00000
      3     -13.8019      2.00000
      4     -13.8019      2.00000
      5     -12.1170      2.00000
      6     -12.1170      2.00000
      7     -11.7686      2.00000
      8      -1.5243      2.00000
      9      -0.9102      2.00000
     10      -0.9102      2.00000
     11      -0.5704      2.00000
     12      -0.5704      2.00000
     13      -0.5472      2.00000
     14       1.8008      2.00000
     15       1.8008      2.00000
     16       2.1413      2.00000
     17       6.0680      0.00000
     18       6.1164      0.00000
     19       6.1164      0.00000
     20      10.3968      0.00000

 k-point    18 :       0.4286    0.2857    0.2857
  band No.  band energies     occupation 
      1     -30.0359      2.00000
      2     -14.3085      2.00000
      3     -13.8381      2.00000
      4     -13.6803      2.00000
      5     -12.2657      2.00000
      6     -12.0113      2.00000
      7     -11.8693      2.00000
      8      -1.7027      2.00000
      9      -1.3121      2.00000
     10      -1.0037      2.00000
     11      -0.8986      2.00000
     12      -0.8268      2.00000
     13      -0.4379      2.00000
     14       1.8313      2.00000
     15       1.9651      2.00000
     16       2.2440      2.00000
     17       6.1649      0.00000
     18       6.4548      0.00000
     19       6.4793      0.00000
     20      10.5274      0.00000

 k-point    19 :       0.4286    0.4286    0.2857
  band No.  band energies     occupation 
      1     -30.0294      2.00000
      2     -14.0260      2.00000
      3     -13.8107      2.00000
      4     -13.6927      2.00000
      5     -12.2866      2.00000
      6     -12.1089      2.00000
      7     -12.0148      2.00000
      8      -1.7947      2.00000
      9      -1.4873      2.00000
     10      -1.4161      2.00000
     11      -0.9434      2.00000
     12      -0.8529      2.00000
     13      -0.7483      2.00000
     14       2.0545      2.00000
     15       2.0906      2.00000
     16       2.4997      2.00000
     17       6.5240      0.00000
     18       6.5361      0.00000
     19       6.7290      0.00000
     20      10.1005      0.00000

 k-point    20 :       0.4286    0.4286    0.4286
  band No.  band energies     occupation 
      1     -30.0231      2.00000
      2     -13.7688      2.00000
      3     -13.6246      2.00000
      4     -13.6246      2.00000
      5     -12.3521      2.00000
      6     -12.3521      2.00000
      7     -12.2387      2.00000
      8      -1.8830      2.00000
      9      -1.4794      2.00000
     10      -1.4794      2.00000
     11      -1.1774      2.00000
     12      -1.0697      2.00000
     13      -1.0697      2.00000
     14       2.4669      2.00000
     15       2.4669      2.00000
     16       2.5546      2.00000
     17       6.8055      0.00000
     18       9.7795      0.00000
     19       9.8144      0.00000
     20       9.8353      0.00000


--------------------------------------------------------------------------------------------------------


 soft charge-density along one line, spin component           1
         0         1         2         3         4         5         6         7         8         9
 total charge-density along one line
 
 pseudopotential strength for first ion, spin component:           1
-11.345  -7.403  -0.000  -0.000  -0.000   0.000   0.000   0.000
 -7.403  -5.734  -0.000  -0.000  -0.000   0.000   0.000   0.000
 -0.000  -0.000 -14.872   0.000   0.000   0.103  -0.000  -0.000
 -0.000  -0.000   0.000 -14.872  -0.000  -0.000   0.103   0.000
 -0.000  -0.000   0.000  -0.000 -14.872  -0.000   0.000   0.103
  0.000   0.000   0.103  -0.000  -0.000   0.037  -0.000  -0.000
  0.000   0.000  -0.000   0.103   0.000  -0.000   0.037   0.000
  0.000   0.000  -0.000   0.000   0.103  -0.000   0.000   0.037
  0.000   0.000  -0.000  -0.000  -0.000   0.000   0.000   0.000
  0.000   0.000  -0.000  -0.000  -0.000   0.000   0.000   0.000
  0.000   0.000   0.000  -0.000   0.000  -0.000   0.000  -0.000
 -0.000  -0.000  -0.000  -0.000  -0.000   0.000   0.000   0.000
 -0.000  -0.000   0.000  -0.000  -0.000  -0.000   0.000   0.000
  0.000   0.000  -0.000  -0.000  -0.000  -0.000  -0.000  -0.000
  0.000   0.000  -0.000  -0.000  -0.000  -0.000  -0.000  -0.000
  0.000   0.000   0.000  -0.000   0.000   0.000   0.000   0.000
 -0.000  -0.000  -0.000  -0.000  -0.000  -0.000  -0.000  -0.000
 -0.000  -0.000   0.000  -0.000  -0.000  -0.000  -0.000  -0.000
 total augmentation occupancy for first ion, spin component:           1
  2.105  -0.226   0.000   0.000   0.000   0.000   0.000   0.000  -0.000   0.000  -0.000   0.000   0.000  -0.000  -0.000   0.000
 -0.226   0.471   0.000   0.000   0.000   0.000   0.000   0.000  -0.000  -0.000  -0.000  -0.000  -0.000   0.000   0.000   0.000
  0.000   0.000   2.025   0.000   0.000   0.073  -0.000  -0.000   0.000   0.000   0.000   0.000   0.000   0.000   0.000   0.000
  0.000   0.000   0.000   2.025  -0.000   0.000   0.073  -0.000   0.000   0.000   0.000   0.000   0.000   0.000   0.000   0.000
  0.000   0.000   0.000  -0.000   2.025  -0.000  -0.000   0.073   0.000   0.000   0.000   0.000   0.000   0.000   0.000   0.000
  0.000   0.000   0.073   0.000  -0.000   0.298   0.000   0.000   0.000   0.000   0.000   0.000   0.000   0.000   0.000   0.000
  0.000   0.000  -0.000   0.073  -0.000   0.000   0.298   0.000   0.000   0.000   0.000   0.000   0.000   0.000   0.000   0.000
  0.000   0.000   0.000  -0.000   0.073   0.000   0.000   0.298   0.000   0.000   0.000   0.000   0.000   0.000   0.000   0.000
 -0.000  -0.000   0.000   0.000   0.000   0.000   0.000   0.000   0.094  -0.000   0.000   0.000   0.000  -0.424   0.000   0.000
  0.000  -0.000   0.000   0.000   0.000   0.000   0.000   0.000   0.000   0.094  -0.000  -0.000   0.000  -0.000  -0.424   0.000
  0.000  -0.000   0.000   0.000   0.000   0.000   0.000   0.000   0.000  -0.000   0.063  -0.000   0.000  -0.000   0.000  -0.275
  0.000  -0.000   0.000   0.000   0.000   0.000   0.000   0.000  -0.000  -0.000  -0.000   0.094   0.000  -0.000  -0.000  -0.000
  0.000  -0.000   0.000   0.000   0.000   0.000   0.000   0.000  -0.000  -0.000   0.000  -0.000   0.063   0.000  -0.000  -0.000
  0.000   0.000   0.000   0.000   0.000   0.000   0.000   0.000  -0.424  -0.000   0.000  -0.000  -0.000   2.030  -0.000   0.000
  0.000  -0.000   0.000   0.000   0.000   0.000   0.000   0.000   0.000  -0.424  -0.000  -0.000  -0.000   0.000   2.030   0.000
  0.000   0.000   0.000   0.000   0.000   0.000   0.000   0.000   0.000   0.000  -0.275   0.000   0.000  -0.000   0.000   1.268
 -0.000  -0.000   0.000   0.000   0.000   0.000   0.000   0.000   0.000   0.000  -0.000  -0.424   0.000   0.000   0.000  -0.000
  0.000   0.000   0.000   0.000   0.000   0.000   0.000   0.000  -0.000  -0.000  -0.000   0.000  -0.275  -0.000   0.000  -0.000


------------------------ aborting loop because EDIFF is reached ----------------------------------------


    CHARGE:  cpu time    0.0300: real time    0.0293
    FORLOC:  cpu time    0.0030: real time    0.0030
    FORNL :  cpu time    0.0980: real time    0.0982
    STRESS:  cpu time    0.3819: real time    0.3826
    FORCOR:  cpu time    0.0250: real time    0.0247
    FORHAR:  cpu time    0.0060: real time    0.0061
    MIXING:  cpu time    0.0010: real time    0.0013
    OFIELD:  cpu time    0.0000: real time    0.0000

  FORCE on cell =-STRESS in cart. coord.  units (eV):
  Direction    XX          YY          ZZ          XY          YZ          ZX
  --------------------------------------------------------------------------------------
  Alpha Z   185.39986   185.39986   185.39986
  Ewald    -644.69310  -644.69310  -644.69310     0.00000    -0.00000    -0.00000
  Hartree   147.10811   147.10811   147.10811    -0.00000    -0.00000    -0.00000
  E(xc)    -145.39534  -145.39534  -145.39534     0.00000     0.00000     0.00000
  Local      -9.95451    -9.95451    -9.95451     0.00000     0.00000     0.00000
  n-local  -123.24441  -119.06137  -114.62834    -0.47465    -0.41108    -0.30127
  augment    28.88462    28.88462    28.88462     0.00000     0.00000     0.00000
  Kinetic   550.41196   562.57400   566.98311    -2.56463    -2.75890    -1.78189
  Fock        0.00000     0.00000     0.00000     0.00000     0.00000     0.00000
  -------------------------------------------------------------------------------------
  Total       2.36129     2.36129     2.36129    -0.00000    -0.00000     0.00000
  in kB      63.51963    63.51963    63.51963    -0.00000    -0.00000     0.00000
  external pressure =       63.52 kB  Pullay stress =        0.00 kB


 VOLUME and BASIS-vectors are now :
 -----------------------------------------------------------------------------
  energy-cutoff  :      800.00
  volume of cell :       59.56
      direct lattice vectors                 reciprocal lattice vectors
     3.905268000  0.000000000  0.000000000     0.256064373  0.000000000  0.000000000
     0.000000000  3.905268000  0.000000000     0.000000000  0.256064373  0.000000000
     0.000000000  0.000000000  3.905268000     0.000000000  0.000000000  0.256064373

  length of vectors
     3.905268000  3.905268000  3.905268000     0.256064373  0.256064373  0.256064373


 FORCES acting on ions
    electron-ion (+dipol)            ewald-force                    non-local-force                 convergence-correction
 -----------------------------------------------------------------------------------------------
   -.328E-14 -.375E-14 -.372E-14   -.987E-14 0.226E-14 -.502E-14   0.000E+00 0.000E+00 0.000E+00   -.129E-13 0.229E-14 0.880E-14
   0.530E-14 -.322E-12 0.264E-12   0.387E-14 0.424E-14 -.122E-14   0.000E+00 0.000E+00 0.000E+00   0.171E-14 0.617E-16 -.535E-14
   0.152E-12 0.173E-11 0.110E-11   0.648E-14 0.208E-14 -.144E-14   0.000E+00 0.000E+00 0.000E+00   -.378E-14 0.305E-14 0.239E-14
   0.152E-12 -.757E-14 0.367E-11   0.284E-14 -.378E-14 0.434E-14   0.000E+00 0.000E+00 0.000E+00   -.469E-14 -.415E-15 -.244E-13
   -.718E-14 0.153E-12 0.151E-12   -.327E-14 -.425E-14 0.433E-14   0.000E+00 0.000E+00 0.000E+00   -.126E-13 0.326E-14 -.219E-13
 -----------------------------------------------------------------------------------------------
   0.299E-12 0.154E-11 0.518E-11   0.432E-16 0.547E-15 0.100E-14   0.000E+00 0.000E+00 0.000E+00   -.322E-13 0.825E-14 -.405E-13
 
 
 POSITION                                       TOTAL-FORCE (eV/Angst)
 -----------------------------------------------------------------------------------
      0.00000      0.00000      0.00000         0.000000      0.000000      0.000000
      1.95263      1.95263      1.95263         0.000000      0.000000      0.000000
      1.95263      1.95263      0.00000         0.000000      0.000000      0.000000
      1.95263      0.00000      1.95263         0.000000      0.000000      0.000000
      0.00000      1.95263      1.95263         0.000000      0.000000      0.000000
 -----------------------------------------------------------------------------------
    total drift:                                0.000000      0.000000      0.000000


--------------------------------------------------------------------------------------------------------



  FREE ENERGIE OF THE ION-ELECTRON SYSTEM (eV)
  ---------------------------------------------------
  free  energy   TOTEN  =       -39.71260368 eV

  energy  without entropy=      -39.71260368  energy(sigma->0) =      -39.71260368
 


--------------------------------------------------------------------------------------------------------


    POTLOK:  cpu time    0.0280: real time    0.0280


--------------------------------------------------------------------------------------------------------


     LOOP+:  cpu time    8.4317: real time    9.0442
    4ORBIT:  cpu time    0.0000: real time    0.0000
 BZINTS: Fermi energy:  2.564560; 32.000000 electrons
         Band energy:-212.619371;  BLOECHL correction:  0.000000

 total amount of memory used by VASP MPI-rank0    53799. kBytes
=======================================================================

   base      :      30000. kBytes
   nonl-proj :      13498. kBytes
   fftplans  :       1863. kBytes
   grid      :       3330. kBytes
   one-center:         46. kBytes
   wavefun   :       5062. kBytes
 
  
  
 General timing and accounting informations for this job:
 ========================================================
  
                  Total CPU time used (sec):        9.264
                            User time (sec):        9.124
                          System time (sec):        0.140
                         Elapsed time (sec):       10.623
  
                   Maximum memory used (kb):       53680.
                   Average memory used (kb):           0.
  
                          Minor page faults:        17399
                          Major page faults:          207
                 Voluntary context switches:         3313
