<?xml version="1.0" encoding="ISO-8859-1"?>
<modeling>
 <generator>
  <i name="program" type="string">vasp </i>
  <i name="version" type="string">5.4.4.18Apr17-6-g9f103f2a35  </i>
  <i name="subversion" type="string">(build Jun 30 2017 11:15:00) complex            parallel </i>
  <i name="platform" type="string">STALLO_VASP_5.4.4 </i>
  <i name="date" type="string">2019 11 06 </i>
  <i name="time" type="string">13:15:18 </i>
 </generator>
 <incar>
  <i type="string" name="PREC">normal    ! low/normal/accurate</i>
  <i type="string" name="ALGO"> Fast      ! Algorithm for electronic re</i>
  <i type="int" name="ISPIN">     1</i>
  <i type="int" name="NELMIN">     4</i>
  <i name="EDIFF">      0.00001000</i>
  <i type="int" name="NSW">     0</i>
  <i name="ENCUT">    800.00000000</i>
  <i type="logical" name="LREAL"> F  </i>
  <i type="int" name="ISMEAR">    -5</i>
  <i name="SIGMA">      0.20000000</i>
  <i type="logical" name="LWAVE"> F  </i>
  <v type="int" name="KPOINT_BSE">    -1     0     0     0</v>
 </incar>
 <structure name="primitive_cell" >
  <crystal>
   <varray name="basis" >
    <v>       3.90526800       0.00000000       0.00000000 </v>
    <v>       0.00000000       3.90526800       0.00000000 </v>
    <v>       0.00000000       0.00000000       3.90526800 </v>
   </varray>
   <i name="volume">     59.55970368 </i>
   <varray name="rec_basis" >
    <v>       0.25606437       0.00000000       0.00000000 </v>
    <v>       0.00000000       0.25606437       0.00000000 </v>
    <v>       0.00000000       0.00000000       0.25606437 </v>
   </varray>
  </crystal>
  <varray name="positions" >
   <v>       0.00000000       0.00000000       0.00000000 </v>
   <v>      -0.50000000      -0.50000000       0.00000000 </v>
   <v>      -0.50000000       0.00000000      -0.50000000 </v>
   <v>       0.00000000      -0.50000000      -0.50000000 </v>
   <v>      -0.50000000      -0.50000000      -0.50000000 </v>
  </varray>
 </structure>
 <varray name="primitive_index" >
  <v type="int" >        1 </v>
  <v type="int" >        3 </v>
  <v type="int" >        4 </v>
  <v type="int" >        5 </v>
  <v type="int" >        2 </v>
 </varray>
 <kpoints>
  <generation param="Gamma">
   <v type="int" name="divisions">       7        7        7 </v>
   <v name="usershift">      0.00000000       0.00000000       0.00000000 </v>
   <v name="genvec1">      0.14285714       0.00000000       0.00000000 </v>
   <v name="genvec2">      0.00000000       0.14285714       0.00000000 </v>
   <v name="genvec3">      0.00000000       0.00000000       0.14285714 </v>
   <v name="shift">      0.00000000       0.00000000       0.00000000 </v>
  </generation>
  <varray name="kpointlist" >
   <v>       0.00000000       0.00000000       0.00000000 </v>
   <v>       0.14285714       0.00000000       0.00000000 </v>
   <v>       0.28571429       0.00000000       0.00000000 </v>
   <v>       0.42857143       0.00000000       0.00000000 </v>
   <v>       0.14285714       0.14285714       0.00000000 </v>
   <v>       0.28571429       0.14285714       0.00000000 </v>
   <v>       0.42857143       0.14285714       0.00000000 </v>
   <v>       0.28571429       0.28571429       0.00000000 </v>
   <v>       0.42857143       0.28571429       0.00000000 </v>
   <v>       0.42857143       0.42857143       0.00000000 </v>
   <v>       0.14285714       0.14285714       0.14285714 </v>
   <v>       0.28571429       0.14285714       0.14285714 </v>
   <v>       0.42857143       0.14285714       0.14285714 </v>
   <v>       0.28571429       0.28571429       0.14285714 </v>
   <v>       0.42857143       0.28571429       0.14285714 </v>
   <v>       0.42857143       0.42857143       0.14285714 </v>
   <v>       0.28571429       0.28571429       0.28571429 </v>
   <v>       0.42857143       0.28571429       0.28571429 </v>
   <v>       0.42857143       0.42857143       0.28571429 </v>
   <v>       0.42857143       0.42857143       0.42857143 </v>
  </varray>
  <varray name="weights" >
   <v>       0.00291545 </v>
   <v>       0.01749271 </v>
   <v>       0.01749271 </v>
   <v>       0.01749271 </v>
   <v>       0.03498542 </v>
   <v>       0.06997085 </v>
   <v>       0.06997085 </v>
   <v>       0.03498542 </v>
   <v>       0.06997085 </v>
   <v>       0.03498542 </v>
   <v>       0.02332362 </v>
   <v>       0.06997085 </v>
   <v>       0.06997085 </v>
   <v>       0.06997085 </v>
   <v>       0.13994169 </v>
   <v>       0.06997085 </v>
   <v>       0.02332362 </v>
   <v>       0.06997085 </v>
   <v>       0.06997085 </v>
   <v>       0.02332362 </v>
  </varray>
  <varray name="tetrahedronlist"  type="int" >
   <v type="int" >       12        1        2        2        5 </v>
   <v type="int" >       12        2        2        5        5 </v>
   <v type="int" >       12        2        5        5       11 </v>
   <v type="int" >       12        2        3        5        6 </v>
   <v type="int" >       12        2        5        5        6 </v>
   <v type="int" >       12        5        5        6       11 </v>
   <v type="int" >       12        3        5        6        6 </v>
   <v type="int" >       24        5        6        6       12 </v>
   <v type="int" >       24        5        6       11       12 </v>
   <v type="int" >       12        3        4        6        7 </v>
   <v type="int" >       12        3        6        6        7 </v>
   <v type="int" >       12        6        6        7       12 </v>
   <v type="int" >       12        4        6        7        7 </v>
   <v type="int" >       12        6        7        7       13 </v>
   <v type="int" >       12        6        7       12       13 </v>
   <v type="int" >        6        4        4        7        7 </v>
   <v type="int" >       12        4        7        7        7 </v>
   <v type="int" >       12        7        7        7       13 </v>
   <v type="int" >        6        7        7       13       13 </v>
   <v type="int" >       12        5        6        8       11 </v>
   <v type="int" >       12        6        8       11       12 </v>
   <v type="int" >       12        8       11       12       14 </v>
   <v type="int" >       12        6        7        9       12 </v>
   <v type="int" >       12        6        8        9       12 </v>
   <v type="int" >       12        8        9       12       14 </v>
   <v type="int" >       12        7        9       12       13 </v>
   <v type="int" >       12        9       12       13       15 </v>
   <v type="int" >       12        9       12       14       15 </v>
   <v type="int" >       12        7        7        9       13 </v>
   <v type="int" >       12        7        9        9       13 </v>
   <v type="int" >       12        9        9       13       15 </v>
   <v type="int" >       12        7        9       13       13 </v>
   <v type="int" >       12        9       13       13       15 </v>
   <v type="int" >       12        9       13       15       15 </v>
   <v type="int" >       12        6        7        8       13 </v>
   <v type="int" >       12        7        8        9       13 </v>
   <v type="int" >       12        8        9       13       15 </v>
   <v type="int" >       12        6        8       12       13 </v>
   <v type="int" >       12        8       12       13       14 </v>
   <v type="int" >       12        8       13       14       15 </v>
   <v type="int" >       12        6        6        8       12 </v>
   <v type="int" >       12        6        8       12       14 </v>
   <v type="int" >       12        6       11       12       12 </v>
   <v type="int" >       12        6       12       12       14 </v>
   <v type="int" >       12        2        3        5       11 </v>
   <v type="int" >       12        3        5        6       11 </v>
   <v type="int" >       12        3        6       11       12 </v>
   <v type="int" >       12        8        9       10       14 </v>
   <v type="int" >       12        9       10       14       15 </v>
   <v type="int" >       12       10       14       15       16 </v>
   <v type="int" >       24        9        9       10       15 </v>
   <v type="int" >       12        9       10       10       15 </v>
   <v type="int" >       12       10       10       15       16 </v>
   <v type="int" >       12        9       10       15       15 </v>
   <v type="int" >       12       10       15       15       16 </v>
   <v type="int" >       12       10       15       16       16 </v>
   <v type="int" >       12        8        9        9       15 </v>
   <v type="int" >       12        9       10       15       16 </v>
   <v type="int" >       12        8        9       14       15 </v>
   <v type="int" >       12        9       14       15       15 </v>
   <v type="int" >       24        9       15       15       16 </v>
   <v type="int" >       12        6        7        8       14 </v>
   <v type="int" >       12        7        8        9       14 </v>
   <v type="int" >       12        7        9       14       15 </v>
   <v type="int" >       12        6        7       12       14 </v>
   <v type="int" >       12        7       12       13       14 </v>
   <v type="int" >       12        7       13       14       15 </v>
   <v type="int" >       12        3        4        6       12 </v>
   <v type="int" >       12        4        6        7       12 </v>
   <v type="int" >       12        4        7       12       13 </v>
   <v type="int" >       12       10       10       10       16 </v>
   <v type="int" >       12       10       10       16       16 </v>
   <v type="int" >       12       10       16       16       16 </v>
   <v type="int" >       12        9        9       10       16 </v>
   <v type="int" >       12        9       10       10       16 </v>
   <v type="int" >       12        9       10       16       16 </v>
   <v type="int" >       12        9        9       15       16 </v>
   <v type="int" >       12        9       15       16       16 </v>
   <v type="int" >       12        7        7        9       15 </v>
   <v type="int" >       12        7        9        9       15 </v>
   <v type="int" >       12        7        9       15       15 </v>
   <v type="int" >       12        7        7       13       15 </v>
   <v type="int" >       12        7       13       13       15 </v>
   <v type="int" >       12        7       13       15       15 </v>
   <v type="int" >       12        4        4        7       13 </v>
   <v type="int" >       12        4        7        7       13 </v>
   <v type="int" >       12        4        7       13       13 </v>
   <v type="int" >       12        8        9       10       16 </v>
   <v type="int" >       12        8        9       15       16 </v>
   <v type="int" >       12        8       14       15       16 </v>
   <v type="int" >       12        6        7        9       15 </v>
   <v type="int" >       12        6        8        9       15 </v>
   <v type="int" >       12        6        8       14       15 </v>
   <v type="int" >       12        6        7       13       15 </v>
   <v type="int" >       12        6       12       13       15 </v>
   <v type="int" >       12        6       12       14       15 </v>
   <v type="int" >       12        3        4        7       13 </v>
   <v type="int" >       12        3        6        7       13 </v>
   <v type="int" >       12        3        6       12       13 </v>
   <v type="int" >       12        5        6        8       14 </v>
   <v type="int" >       12        5        6       12       14 </v>
   <v type="int" >       12        5       11       12       14 </v>
   <v type="int" >       12        2        3        6       12 </v>
   <v type="int" >       12        2        5        6       12 </v>
   <v type="int" >       12        2        5       11       12 </v>
   <v type="int" >       12        1        2        5       11 </v>
   <v type="int" >       12       11       12       12       14 </v>
   <v type="int" >       12       12       12       14       14 </v>
   <v type="int" >       12       12       14       14       17 </v>
   <v type="int" >       12       12       13       14       15 </v>
   <v type="int" >       12       12       14       14       15 </v>
   <v type="int" >       12       14       14       15       17 </v>
   <v type="int" >       12       13       14       15       15 </v>
   <v type="int" >       24       14       15       15       18 </v>
   <v type="int" >       24       14       15       17       18 </v>
   <v type="int" >        6       13       13       15       15 </v>
   <v type="int" >       12       13       15       15       15 </v>
   <v type="int" >       12       15       15       15       18 </v>
   <v type="int" >        6       15       15       18       18 </v>
   <v type="int" >       12       14       15       16       17 </v>
   <v type="int" >       12       15       16       17       18 </v>
   <v type="int" >       12       16       17       18       19 </v>
   <v type="int" >       24       15       15       16       18 </v>
   <v type="int" >       12       15       16       16       18 </v>
   <v type="int" >       12       16       16       18       19 </v>
   <v type="int" >       12       15       16       18       18 </v>
   <v type="int" >       12       16       18       18       19 </v>
   <v type="int" >       12       16       18       19       19 </v>
   <v type="int" >       12       15       16       18       19 </v>
   <v type="int" >       12       15       17       18       18 </v>
   <v type="int" >       24       15       18       18       19 </v>
   <v type="int" >       12       12       13       14       17 </v>
   <v type="int" >       12       13       14       15       17 </v>
   <v type="int" >       12       13       15       17       18 </v>
   <v type="int" >       12       16       16       16       19 </v>
   <v type="int" >       12       16       16       19       19 </v>
   <v type="int" >       12       16       19       19       19 </v>
   <v type="int" >       12       15       15       16       19 </v>
   <v type="int" >       12       15       16       16       19 </v>
   <v type="int" >       12       15       16       19       19 </v>
   <v type="int" >       12       15       15       18       19 </v>
   <v type="int" >       12       15       18       19       19 </v>
   <v type="int" >       12       13       13       15       18 </v>
   <v type="int" >       12       13       15       15       18 </v>
   <v type="int" >       12       13       15       18       18 </v>
   <v type="int" >       12       14       15       16       19 </v>
   <v type="int" >       12       14       15       18       19 </v>
   <v type="int" >       12       14       17       18       19 </v>
   <v type="int" >       12       12       13       15       18 </v>
   <v type="int" >       12       12       14       15       18 </v>
   <v type="int" >       12       12       14       17       18 </v>
   <v type="int" >       12       11       12       14       17 </v>
   <v type="int" >       12       17       18       18       19 </v>
   <v type="int" >       18       18       18       19       19 </v>
   <v type="int" >       24       18       19       19       20 </v>
   <v type="int" >       12       18       19       19       19 </v>
   <v type="int" >       24       19       19       19       20 </v>
   <v type="int" >       18       19       19       20       20 </v>
   <v type="int" >       12       19       20       20       20 </v>
   <v type="int" >       12       18       18       19       20 </v>
   <v type="int" >       12       18       19       20       20 </v>
   <v type="int" >       12       17       18       19       20 </v>
   <v type="int" >        6       20       20       20       20 </v>
  </varray>
  <i name="volumeweight">      0.00048591 </i>
 </kpoints>
 <parameters>
  <separator name="general" >
   <i type="string" name="SYSTEM">unknown system</i>
   <i type="logical" name="LCOMPAT"> F  </i>
  </separator>
  <separator name="electronic" >
   <i type="string" name="PREC">normal</i>
   <i name="ENMAX">    800.00000000</i>
   <i name="ENAUG">    605.39200000</i>
   <i name="EDIFF">      0.00001000</i>
   <i type="int" name="IALGO">    68</i>
   <i type="int" name="IWAVPR">    10</i>
   <i type="int" name="NBANDS">    20</i>
   <i name="NELECT">     32.00000000</i>
   <i type="int" name="TURBO">     0</i>
   <i type="int" name="IRESTART">     0</i>
   <i type="int" name="NREBOOT">     0</i>
   <i type="int" name="NMIN">     0</i>
   <i name="EREF">      0.00000000</i>
   <separator name="electronic smearing" >
    <i type="int" name="ISMEAR">    -5</i>
    <i name="SIGMA">      0.20000000</i>
    <i name="KSPACING">      0.50000000</i>
    <i type="logical" name="KGAMMA"> T  </i>
   </separator>
   <separator name="electronic projectors" >
    <i type="logical" name="LREAL"> F  </i>
    <v name="ROPT">      0.00000000      0.00000000      0.00000000</v>
    <i type="int" name="LMAXPAW">  -100</i>
    <i type="int" name="LMAXMIX">     2</i>
    <i type="logical" name="NLSPLINE"> F  </i>
   </separator>
   <separator name="electronic startup" >
    <i type="int" name="ISTART">     0</i>
    <i type="int" name="ICHARG">     2</i>
    <i type="int" name="INIWAV">     1</i>
   </separator>
   <separator name="electronic spin" >
    <i type="int" name="ISPIN">     1</i>
    <i type="logical" name="LNONCOLLINEAR"> F  </i>
    <v name="MAGMOM">      1.00000000      1.00000000      1.00000000      1.00000000      1.00000000</v>
    <i name="NUPDOWN">     -1.00000000</i>
    <i type="logical" name="LSORBIT"> F  </i>
    <v name="SAXIS">      0.00000000      0.00000000      1.00000000</v>
    <i type="logical" name="LSPIRAL"> F  </i>
    <v name="QSPIRAL">      0.00000000      0.00000000      0.00000000</v>
    <i type="logical" name="LZEROZ"> F  </i>
   </separator>
   <separator name="electronic exchange-correlation" >
    <i type="logical" name="LASPH"> F  </i>
    <i type="logical" name="LMETAGGA"> F  </i>
   </separator>
   <separator name="electronic convergence" >
    <i type="int" name="NELM">    60</i>
    <i type="int" name="NELMDL">    -5</i>
    <i type="int" name="NELMIN">     4</i>
    <i name="ENINI">    800.00000000</i>
    <separator name="electronic convergence detail" >
     <i type="logical" name="LDIAG"> T  </i>
     <i type="logical" name="LSUBROT"> F  </i>
     <i name="WEIMIN">      0.00000000</i>
     <i name="EBREAK">      0.00000013</i>
     <i name="DEPER">      0.30000000</i>
     <i type="int" name="NRMM">     4</i>
     <i name="TIME">      0.40000000</i>
    </separator>
   </separator>
   <separator name="electronic mixer" >
    <i name="AMIX">      0.40000000</i>
    <i name="BMIX">      1.00000000</i>
    <i name="AMIN">      0.10000000</i>
    <i name="AMIX_MAG">      1.60000000</i>
    <i name="BMIX_MAG">      1.00000000</i>
    <separator name="electronic mixer details" >
     <i type="int" name="IMIX">     4</i>
     <i type="logical" name="MIXFIRST"> F  </i>
     <i type="int" name="MAXMIX">   -45</i>
     <i name="WC">    100.00000000</i>
     <i type="int" name="INIMIX">     1</i>
     <i type="int" name="MIXPRE">     1</i>
     <i type="int" name="MREMOVE">     5</i>
    </separator>
   </separator>
   <separator name="electronic dipolcorrection" >
    <i type="logical" name="LDIPOL"> F  </i>
    <i type="logical" name="LMONO"> F  </i>
    <i type="int" name="IDIPOL">     0</i>
    <i name="EPSILON">      1.00000000</i>
    <v name="DIPOL">   -100.00000000   -100.00000000   -100.00000000</v>
    <i name="EFIELD">      0.00000000</i>
   </separator>
  </separator>
  <separator name="grids" >
   <i type="int" name="NGX">    28</i>
   <i type="int" name="NGY">    28</i>
   <i type="int" name="NGZ">    28</i>
   <i type="int" name="NGXF">    56</i>
   <i type="int" name="NGYF">    56</i>
   <i type="int" name="NGZF">    56</i>
   <i type="logical" name="ADDGRID"> F  </i>
  </separator>
  <separator name="ionic" >
   <i type="int" name="NSW">     0</i>
   <i type="int" name="IBRION">    -1</i>
   <i type="int" name="MDALGO">     0</i>
   <i type="int" name="ISIF">     2</i>
   <i name="PSTRESS">      0.00000000</i>
   <i name="EDIFFG">      0.00010000</i>
   <i type="int" name="NFREE">     0</i>
   <i name="POTIM">      0.50000000</i>
   <i name="SMASS">     -3.00000000</i>
   <i name="SCALEE">      1.00000000</i>
  </separator>
  <separator name="ionic md" >
   <i name="TEBEG">      0.00010000</i>
   <i name="TEEND">      0.00010000</i>
   <i type="int" name="NBLOCK">     1</i>
   <i type="int" name="KBLOCK">     1</i>
   <i type="int" name="NPACO">   256</i>
   <i name="APACO">     16.00000000</i>
  </separator>
  <separator name="symmetry" >
   <i type="int" name="ISYM">     2</i>
   <i name="SYMPREC">      0.00001000</i>
  </separator>
  <separator name="dos" >
   <i type="int" name="LORBIT">     0</i>
   <v name="RWIGS">     -1.00000000     -1.00000000     -1.00000000</v>
   <i type="int" name="NEDOS">   301</i>
   <i name="EMIN">     10.00000000</i>
   <i name="EMAX">    -10.00000000</i>
   <i name="EFERMI">      0.00000000</i>
  </separator>
  <separator name="writing" >
   <i type="int" name="NWRITE">     2</i>
   <i type="logical" name="LWAVE"> F  </i>
   <i type="logical" name="LDOWNSAMPLE"> F  </i>
   <i type="logical" name="LCHARG"> T  </i>
   <i type="logical" name="LPARD"> F  </i>
   <i type="logical" name="LVTOT"> F  </i>
   <i type="logical" name="LVHAR"> F  </i>
   <i type="logical" name="LELF"> F  </i>
   <i type="logical" name="LOPTICS"> F  </i>
   <v name="STM">      0.00000000      0.00000000      0.00000000      0.00000000      0.00000000      0.00000000      0.00000000</v>
  </separator>
  <separator name="performance" >
   <i type="int" name="NPAR">     2</i>
   <i type="int" name="NSIM">     4</i>
   <i type="int" name="NBLK">    -1</i>
   <i type="logical" name="LPLANE"> T  </i>
   <i type="logical" name="LSCALAPACK"> T  </i>
   <i type="logical" name="LSCAAWARE"> F  </i>
   <i type="logical" name="LSCALU"> F  </i>
   <i type="logical" name="LASYNC"> F  </i>
   <i type="logical" name="LORBITALREAL"> F  </i>
  </separator>
  <separator name="miscellaneous" >
   <i type="int" name="IDIOT">     3</i>
   <i type="int" name="ISPECIAL">     0</i>
   <i type="logical" name="LMUSIC"> F  </i>
   <v name="POMASS">     87.62000000     47.88000000     16.00000000</v>
   <v name="DARWINR">      0.00000000      0.00000000      0.00000000</v>
   <v name="DARWINV">      1.00000000      1.00000000      1.00000000</v>
   <i type="logical" name="LCORR"> T  </i>
  </separator>
  <i type="logical" name="GGA_COMPAT"> T  </i>
  <i type="logical" name="LBERRY"> F  </i>
  <i type="int" name="ICORELEVEL">     0</i>
  <i type="logical" name="LDAU"> F  </i>
  <i type="int" name="I_CONSTRAINED_M">     0</i>
  <separator name="electronic exchange-correlation" >
   <i type="string" name="GGA">--</i>
   <i type="int" name="VOSKOWN">     0</i>
   <i type="logical" name="LHFCALC"> F  </i>
   <i type="string" name="PRECFOCK"></i>
   <i type="logical" name="LSYMGRAD"> F  </i>
   <i type="logical" name="LHFONE"> F  </i>
   <i type="logical" name="LRHFCALC"> F  </i>
   <i type="logical" name="LTHOMAS"> F  </i>
   <i type="logical" name="LMODELHF"> F  </i>
   <i name="ENCUT4O">     -1.00000000</i>
   <i type="int" name="EXXOEP">     0</i>
   <i type="int" name="FOURORBIT">     0</i>
   <i name="AEXX">      0.00000000</i>
   <i name="HFALPHA">      0.00000000</i>
   <i name="MCALPHA">      0.00000000</i>
   <i name="ALDAX">      1.00000000</i>
   <i name="AGGAX">      1.00000000</i>
   <i name="ALDAC">      1.00000000</i>
   <i name="AGGAC">      1.00000000</i>
   <i type="int" name="NKREDX">     1</i>
   <i type="int" name="NKREDY">     1</i>
   <i type="int" name="NKREDZ">     1</i>
   <i type="logical" name="SHIFTRED"> F  </i>
   <i type="logical" name="ODDONLY"> F  </i>
   <i type="logical" name="EVENONLY"> F  </i>
   <i type="int" name="LMAXFOCK">     0</i>
   <i type="int" name="NMAXFOCKAE">     0</i>
   <i type="logical" name="LFOCKAEDFT"> F  </i>
   <i name="HFSCREEN">      0.00000000</i>
   <i name="HFSCREENC">      0.00000000</i>
   <i type="int" name="NBANDSGWLOW">     0</i>
  </separator>
  <separator name="vdW DFT" >
   <i type="logical" name="LUSE_VDW"> F  </i>
   <i name="Zab_VDW">     -0.84910000</i>
   <i name="PARAM1">      0.12340000</i>
   <i name="PARAM2">      1.00000000</i>
   <i name="PARAM3">      0.00000000</i>
  </separator>
  <separator name="model GW" >
   <i type="int" name="MODEL_GW">     0</i>
   <i name="MODEL_EPS0">      7.14716444</i>
   <i name="MODEL_ALPHA">      1.00000000</i>
  </separator>
  <separator name="linear response parameters" >
   <i type="logical" name="LEPSILON"> F  </i>
   <i type="logical" name="LRPA"> F  </i>
   <i type="logical" name="LNABLA"> F  </i>
   <i type="logical" name="LVEL"> F  </i>
   <i type="int" name="KINTER">     0</i>
   <i name="CSHIFT">      0.10000000</i>
   <i name="OMEGAMAX">     -1.00000000</i>
   <i name="DEG_THRESHOLD">      0.00200000</i>
   <i name="RTIME">     -0.10000000</i>
   <i name="WPLASMAI">      0.00000000</i>
   <v name="DFIELD">      0.00000000      0.00000000      0.00000000</v>
   <v name="WPLASMA">      0.00000000      0.00000000      0.00000000      0.00000000      0.00000000      0.00000000      0.00000000      0.00000000      0.00000000</v>
  </separator>
  <separator name="orbital magnetization" >
   <i type="logical" name="NUCIND"> F  </i>
   <v name="MAGPOS">      0.00000000      0.00000000      0.00000000</v>
   <i type="logical" name="LNICSALL"> T  </i>
   <i type="logical" name="ORBITALMAG"> F  </i>
   <i type="logical" name="LMAGBLOCH"> F  </i>
   <i type="logical" name="LCHIMAG"> F  </i>
   <i type="logical" name="LGAUGE"> T  </i>
   <i type="int" name="MAGATOM">     0</i>
   <v name="MAGDIPOL">      0.00000000      0.00000000      0.00000000</v>
   <v name="AVECCONST">      0.00000000      0.00000000      0.00000000</v>
  </separator>
  <separator name="response functions" >
   <i type="logical" name="LADDER"> F  </i>
   <i type="logical" name="LRPAFORCE"> F  </i>
   <i type="logical" name="LFXC"> F  </i>
   <i type="logical" name="LHARTREE"> T  </i>
   <i type="int" name="IBSE">     0</i>
   <v type="int" name="KPOINT">    -1     0     0     0</v>
   <i type="logical" name="LTCTE"> F  </i>
   <i type="logical" name="LTETE"> F  </i>
   <i type="logical" name="LTRIPLET"> F  </i>
   <i type="logical" name="LFXCEPS"> F  </i>
   <i type="logical" name="LFXHEG"> F  </i>
   <i type="int" name="NATURALO">     2</i>
   <i type="logical" name="L2ORDER"> F  </i>
   <i type="logical" name="LMP2LT"> F  </i>
   <i type="logical" name="LUSEW"> F  </i>
   <i name="ENCUTGW">     -2.00000000</i>
   <i name="ENCUTGWSOFT">     -2.00000000</i>
   <i name="ENCUTLF">     -1.00000000</i>
   <i type="int" name="LMAXMP2">    -1</i>
   <i name="SCISSOR">      0.00000000</i>
   <i type="int" name="NOMEGA">     0</i>
   <i type="int" name="NOMEGAR">     0</i>
   <i type="int" name="NBANDSGW">    -1</i>
   <i type="int" name="NBANDSO">    -1</i>
   <i type="int" name="NBANDSV">    -1</i>
   <i type="int" name="NELM">     1</i>
   <i type="int" name="NELMHF">     1</i>
   <i type="int" name="DIM">     3</i>
   <i type="int" name="ANTIRES">     0</i>
   <i name="OMEGAMAX">    -30.00000000</i>
   <i name="OMEGAMIN">    -30.00000000</i>
   <i name="OMEGATL">   -200.00000000</i>
   <i type="int" name="OMEGAGRID">   140</i>
   <i name="CSHIFT">     -0.10000000</i>
   <i type="logical" name="SELFENERGY"> F  </i>
   <i type="logical" name="LSPECTRAL"> F  </i>
   <i type="logical" name="LSPECTRALGW"> F  </i>
   <i type="logical" name="LSINGLES"> F  </i>
   <i type="logical" name="LFERMIGW"> F  </i>
   <i type="logical" name="ODDONLYGW"> F  </i>
   <i type="logical" name="EVENONLYGW"> F  </i>
   <i type="int" name="NKREDLFX">     1</i>
   <i type="int" name="NKREDLFY">     1</i>
   <i type="int" name="NKREDLFZ">     1</i>
   <i type="int" name="MAXMEM">  2800</i>
   <i type="int" name="TELESCOPE">     0</i>
   <i type="int" name="TAUPAR">     1</i>
   <i type="int" name="OMEGAPAR">    -1</i>
   <i name="LAMBDA">      1.00000000</i>
  </separator>
  <separator name="External order field" >
   <i name="OFIELD_KAPPA">      0.00000000</i>
   <v name="OFIELD_K">      0.00000000      0.00000000      0.00000000</v>
   <i name="OFIELD_Q6_NEAR">      0.00000000</i>
   <i name="OFIELD_Q6_FAR">      0.00000000</i>
   <i name="OFIELD_A">      0.00000000</i>
  </separator>
 </parameters>
 <atominfo>
  <atoms>       5 </atoms>
  <types>       3 </types>
  <array name="atoms" >
   <dimension dim="1">ion</dimension>
   <field type="string">element</field>
   <field type="int">atomtype</field>
   <set>
    <rc><c>Sr</c><c>   1</c></rc>
    <rc><c>Ti</c><c>   2</c></rc>
    <rc><c>O </c><c>   3</c></rc>
    <rc><c>O </c><c>   3</c></rc>
    <rc><c>O </c><c>   3</c></rc>
   </set>
  </array>
  <array name="atomtypes" >
   <dimension dim="1">type</dimension>
   <field type="int">atomspertype</field>
   <field type="string">element</field>
   <field>mass</field>
   <field>valence</field>
   <field type="string">pseudopotential</field>
   <set>
    <rc><c>   1</c><c>Sr</c><c>     87.62000000</c><c>     10.00000000</c><c> PAW_PBE Sr_sv 07Sep2000                </c></rc>
    <rc><c>   1</c><c>Ti</c><c>     47.88000000</c><c>      4.00000000</c><c> PAW_PBE Ti 08Apr2002                   </c></rc>
    <rc><c>   3</c><c>O </c><c>     16.00000000</c><c>      6.00000000</c><c> PAW_PBE O 08Apr2002                    </c></rc>
   </set>
  </array>
 </atominfo>
 <structure name="initialpos" >
  <crystal>
   <varray name="basis" >
    <v>       3.90526800       0.00000000       0.00000000 </v>
    <v>       0.00000000       3.90526800       0.00000000 </v>
    <v>       0.00000000       0.00000000       3.90526800 </v>
   </varray>
   <i name="volume">     59.55970368 </i>
   <varray name="rec_basis" >
    <v>       0.25606437       0.00000000       0.00000000 </v>
    <v>       0.00000000       0.25606437       0.00000000 </v>
    <v>       0.00000000       0.00000000       0.25606437 </v>
   </varray>
  </crystal>
  <varray name="positions" >
   <v>       0.00000000       0.00000000       0.00000000 </v>
   <v>       0.50000000       0.50000000       0.50000000 </v>
   <v>       0.50000000       0.50000000       0.00000000 </v>
   <v>       0.50000000       0.00000000       0.50000000 </v>
   <v>       0.00000000       0.50000000       0.50000000 </v>
  </varray>
 </structure>
 <calculation>
  <scstep>
   <time name="dav">    0.36    0.37</time>
   <time name="total">    0.40    0.42</time>
   <energy>
    <i name="alphaZ">    185.39985751 </i>
    <i name="ewald">  -1934.07799583 </i>
    <i name="hartreedc">   -403.14003404 </i>
    <i name="XCdc">     82.31787849 </i>
    <i name="pawpsdc">   1333.61297253 </i>
    <i name="pawaedc">  -1284.78446064 </i>
    <i name="eentropy">      0.00000000 </i>
    <i name="bandstr">    155.78368053 </i>
    <i name="atom">   2234.37285714 </i>
    <i name="e_fr_energy">    369.48475568 </i>
    <i name="e_wo_entrp">    369.48475568 </i>
    <i name="e_0_energy">    369.48475568 </i>
   </energy>
  </scstep>
  <scstep>
   <time name="dav">    0.41    0.41</time>
   <time name="total">    0.41    0.42</time>
   <energy>
    <i name="e_fr_energy">      3.00251434 </i>
    <i name="e_wo_entrp">      3.00251434 </i>
    <i name="e_0_energy">      3.00251434 </i>
   </energy>
  </scstep>
  <scstep>
   <time name="dav">    0.44    0.44</time>
   <time name="total">    0.44    0.44</time>
   <energy>
    <i name="e_fr_energy">    -48.24718135 </i>
    <i name="e_wo_entrp">    -48.24718135 </i>
    <i name="e_0_energy">    -48.24718135 </i>
   </energy>
  </scstep>
  <scstep>
   <time name="dav">    0.53    0.53</time>
   <time name="total">    0.53    0.53</time>
   <energy>
    <i name="e_fr_energy">    -50.20779198 </i>
    <i name="e_wo_entrp">    -50.20779198 </i>
    <i name="e_0_energy">    -50.20779198 </i>
   </energy>
  </scstep>
  <scstep>
   <time name="dav">    0.42    0.42</time>
   <time name="total">    0.46    0.46</time>
   <energy>
    <i name="e_fr_energy">    -50.24844069 </i>
    <i name="e_wo_entrp">    -50.24844069 </i>
    <i name="e_0_energy">    -50.24844069 </i>
   </energy>
  </scstep>
  <scstep>
   <time name="diag">    0.07    0.08</time>
   <time name="diis">    0.29    0.29</time>
   <time name="orth">    0.01    0.01</time>
   <time name="total">    0.43    0.44</time>
   <energy>
    <i name="e_fr_energy">    -40.41597772 </i>
    <i name="e_wo_entrp">    -40.41597772 </i>
    <i name="e_0_energy">    -40.41597772 </i>
   </energy>
  </scstep>
  <scstep>
   <time name="diag">    0.07    0.08</time>
   <time name="diis">    0.32    0.32</time>
   <time name="orth">    0.01    0.01</time>
   <time name="total">    0.46    0.46</time>
   <energy>
    <i name="e_fr_energy">    -39.81598563 </i>
    <i name="e_wo_entrp">    -39.81598563 </i>
    <i name="e_0_energy">    -39.81598563 </i>
   </energy>
  </scstep>
  <scstep>
   <time name="diag">    0.08    0.08</time>
   <time name="diis">    0.31    0.31</time>
   <time name="orth">    0.01    0.01</time>
   <time name="total">    0.46    0.46</time>
   <energy>
    <i name="e_fr_energy">    -39.73071749 </i>
    <i name="e_wo_entrp">    -39.73071749 </i>
    <i name="e_0_energy">    -39.73071749 </i>
   </energy>
  </scstep>
  <scstep>
   <time name="diag">    0.08    0.08</time>
   <time name="diis">    0.37    0.37</time>
   <time name="orth">    0.01    0.01</time>
   <time name="total">    0.51    0.51</time>
   <energy>
    <i name="e_fr_energy">    -39.71741004 </i>
    <i name="e_wo_entrp">    -39.71741004 </i>
    <i name="e_0_energy">    -39.71741004 </i>
   </energy>
  </scstep>
  <scstep>
   <time name="diag">    0.08    0.08</time>
   <time name="diis">    0.31    0.31</time>
   <time name="orth">    0.01    0.01</time>
   <time name="total">    0.46    0.46</time>
   <energy>
    <i name="e_fr_energy">    -39.71499282 </i>
    <i name="e_wo_entrp">    -39.71499282 </i>
    <i name="e_0_energy">    -39.71499282 </i>
   </energy>
  </scstep>
  <scstep>
   <time name="diag">    0.08    0.08</time>
   <time name="diis">    0.33    0.33</time>
   <time name="orth">    0.01    0.01</time>
   <time name="total">    0.48    0.48</time>
   <energy>
    <i name="e_fr_energy">    -39.71209191 </i>
    <i name="e_wo_entrp">    -39.71209191 </i>
    <i name="e_0_energy">    -39.71209191 </i>
   </energy>
  </scstep>
  <scstep>
   <time name="diag">    0.07    0.08</time>
   <time name="diis">    0.34    0.34</time>
   <time name="orth">    0.01    0.01</time>
   <time name="total">    0.49    0.49</time>
   <energy>
    <i name="e_fr_energy">    -39.71281176 </i>
    <i name="e_wo_entrp">    -39.71281176 </i>
    <i name="e_0_energy">    -39.71281176 </i>
   </energy>
  </scstep>
  <scstep>
   <time name="diag">    0.07    0.08</time>
   <time name="diis">    0.33    0.33</time>
   <time name="orth">    0.01    0.01</time>
   <time name="total">    0.48    0.48</time>
   <energy>
    <i name="e_fr_energy">    -39.71258806 </i>
    <i name="e_wo_entrp">    -39.71258806 </i>
    <i name="e_0_energy">    -39.71258806 </i>
   </energy>
  </scstep>
  <scstep>
   <time name="diag">    0.07    0.08</time>
   <time name="diis">    0.31    0.31</time>
   <time name="orth">    0.01    0.01</time>
   <time name="total">    0.46    0.46</time>
   <energy>
    <i name="e_fr_energy">    -39.71258140 </i>
    <i name="e_wo_entrp">    -39.71258140 </i>
    <i name="e_0_energy">    -39.71258140 </i>
   </energy>
  </scstep>
  <scstep>
   <time name="diag">    0.07    0.08</time>
   <time name="diis">    0.29    0.29</time>
   <time name="orth">    0.01    0.01</time>
   <time name="total">    0.44    0.44</time>
   <energy>
    <i name="e_fr_energy">    -39.71259676 </i>
    <i name="e_wo_entrp">    -39.71259676 </i>
    <i name="e_0_energy">    -39.71259676 </i>
   </energy>
  </scstep>
  <scstep>
   <time name="diag">    0.07    0.08</time>
   <time name="diis">    0.28    0.28</time>
   <time name="orth">    0.01    0.01</time>
   <time name="total">    0.42    0.42</time>
   <energy>
    <i name="e_fr_energy">    -39.71259933 </i>
    <i name="e_wo_entrp">    -39.71259933 </i>
    <i name="e_0_energy">    -39.71259933 </i>
   </energy>
  </scstep>
  <scstep>
   <time name="diag">    0.07    0.08</time>
   <time name="diis">    0.25    0.25</time>
   <time name="orth">    0.01    0.01</time>
   <time name="total">    0.36    0.37</time>
   <energy>
    <i name="alphaZ">    185.39985751 </i>
    <i name="ewald">  -1934.07799583 </i>
    <i name="hartreedc">   -441.35347726 </i>
    <i name="XCdc">     86.19549835 </i>
    <i name="pawpsdc">   1560.96772229 </i>
    <i name="pawaedc">  -1518.59769495 </i>
    <i name="eentropy">      0.00000000 </i>
    <i name="bandstr">   -212.61937093 </i>
    <i name="atom">   2234.37285714 </i>
    <i name="e_fr_energy">    -39.71260368 </i>
    <i name="e_wo_entrp">    -39.71260368 </i>
    <i name="e_0_energy">    -39.71260368 </i>
   </energy>
  </scstep>
  <structure>
   <crystal>
    <varray name="basis" >
     <v>       3.90526800       0.00000000       0.00000000 </v>
     <v>       0.00000000       3.90526800       0.00000000 </v>
     <v>       0.00000000       0.00000000       3.90526800 </v>
    </varray>
    <i name="volume">     59.55970368 </i>
    <varray name="rec_basis" >
     <v>       0.25606437       0.00000000       0.00000000 </v>
     <v>       0.00000000       0.25606437       0.00000000 </v>
     <v>       0.00000000       0.00000000       0.25606437 </v>
    </varray>
   </crystal>
   <varray name="positions" >
    <v>       0.00000000       0.00000000       0.00000000 </v>
    <v>       0.50000000       0.50000000       0.50000000 </v>
    <v>       0.50000000       0.50000000       0.00000000 </v>
    <v>       0.50000000       0.00000000       0.50000000 </v>
    <v>       0.00000000       0.50000000       0.50000000 </v>
   </varray>
  </structure>
  <varray name="forces" >
   <v>       0.00000000       0.00000000       0.00000000 </v>
   <v>       0.00000000       0.00000000       0.00000000 </v>
   <v>       0.00000000       0.00000000       0.00000000 </v>
   <v>       0.00000000       0.00000000       0.00000000 </v>
   <v>       0.00000000       0.00000000       0.00000000 </v>
  </varray>
  <varray name="stress" >
   <v>      63.51963081       0.00000000       0.00000000 </v>
   <v>      -0.00000000      63.51963081       0.00000000 </v>
   <v>      -0.00000000      -0.00000000      63.51963081 </v>
  </varray>
  <energy>
   <i name="e_fr_energy">    -39.71260368 </i>
   <i name="e_wo_entrp">    -39.71260368 </i>
   <i name="e_0_energy">      0.00000000 </i>
  </energy>
  <time name="totalsc">    8.43    9.04</time>
  <eigenvalues>
   <array>
    <dimension dim="1">band</dimension>
    <dimension dim="2">kpoint</dimension>
    <dimension dim="3">spin</dimension>
    <field>eigene</field>
    <field>occ</field>
    <set>
     <set comment="spin 1">
      <set comment="kpoint 1">
       <r>  -30.0822    1.0000 </r>
       <r>  -14.8196    1.0000 </r>
       <r>  -13.8129    1.0000 </r>
       <r>  -13.8129    1.0000 </r>
       <r>  -12.1466    1.0000 </r>
       <r>  -12.1466    1.0000 </r>
       <r>  -12.1466    1.0000 </r>
       <r>   -0.2153    1.0000 </r>
       <r>   -0.2153    1.0000 </r>
       <r>   -0.2153    1.0000 </r>
       <r>    1.4725    1.0000 </r>
       <r>    1.4725    1.0000 </r>
       <r>    1.4725    1.0000 </r>
       <r>    2.3124    1.0000 </r>
       <r>    2.3124    1.0000 </r>
       <r>    2.3124    1.0000 </r>
       <r>    4.3418    0.0000 </r>
       <r>    4.3418    0.0000 </r>
       <r>    4.3418    0.0000 </r>
       <r>    8.0495    0.0000 </r>
      </set>
      <set comment="kpoint 2">
       <r>  -30.0777    1.0000 </r>
       <r>  -14.8321    1.0000 </r>
       <r>  -13.8351    1.0000 </r>
       <r>  -13.8053    1.0000 </r>
       <r>  -12.1375    1.0000 </r>
       <r>  -12.1375    1.0000 </r>
       <r>  -12.0118    1.0000 </r>
       <r>   -0.4798    1.0000 </r>
       <r>   -0.2286    1.0000 </r>
       <r>   -0.2286    1.0000 </r>
       <r>    1.2038    1.0000 </r>
       <r>    1.2038    1.0000 </r>
       <r>    1.2961    1.0000 </r>
       <r>    1.7103    1.0000 </r>
       <r>    2.1862    1.0000 </r>
       <r>    2.1862    1.0000 </r>
       <r>    4.3707    0.0000 </r>
       <r>    4.7911    0.0000 </r>
       <r>    4.7911    0.0000 </r>
       <r>    8.3923    0.0000 </r>
      </set>
      <set comment="kpoint 3">
       <r>  -30.0678    1.0000 </r>
       <r>  -14.9173    1.0000 </r>
       <r>  -13.7883    1.0000 </r>
       <r>  -13.7693    1.0000 </r>
       <r>  -12.1169    1.0000 </r>
       <r>  -12.1169    1.0000 </r>
       <r>  -11.7573    1.0000 </r>
       <r>   -1.1039    1.0000 </r>
       <r>   -0.2480    1.0000 </r>
       <r>   -0.2480    1.0000 </r>
       <r>    0.6856    1.0000 </r>
       <r>    0.6856    1.0000 </r>
       <r>    0.7682    1.0000 </r>
       <r>    0.9430    1.0000 </r>
       <r>    2.0273    1.0000 </r>
       <r>    2.0273    1.0000 </r>
       <r>    4.4375    0.0000 </r>
       <r>    5.6010    0.0000 </r>
       <r>    5.6010    0.0000 </r>
       <r>    9.1804    0.0000 </r>
      </set>
      <set comment="kpoint 4">
       <r>  -30.0598    1.0000 </r>
       <r>  -15.0184    1.0000 </r>
       <r>  -13.7745    1.0000 </r>
       <r>  -13.6396    1.0000 </r>
       <r>  -12.1003    1.0000 </r>
       <r>  -12.1003    1.0000 </r>
       <r>  -11.5859    1.0000 </r>
       <r>   -1.6349    1.0000 </r>
       <r>   -0.2368    1.0000 </r>
       <r>   -0.2368    1.0000 </r>
       <r>    0.2333    1.0000 </r>
       <r>    0.3127    1.0000 </r>
       <r>    0.3127    1.0000 </r>
       <r>    0.6923    1.0000 </r>
       <r>    1.9377    1.0000 </r>
       <r>    1.9377    1.0000 </r>
       <r>    4.4929    0.0000 </r>
       <r>    6.1665    0.0000 </r>
       <r>    6.1665    0.0000 </r>
       <r>    9.8470    0.0000 </r>
      </set>
      <set comment="kpoint 5">
       <r>  -30.0735    1.0000 </r>
       <r>  -14.8184    1.0000 </r>
       <r>  -13.8693    1.0000 </r>
       <r>  -13.7993    1.0000 </r>
       <r>  -12.1281    1.0000 </r>
       <r>  -12.0640    1.0000 </r>
       <r>  -11.9666    1.0000 </r>
       <r>   -0.6415    1.0000 </r>
       <r>   -0.3472    1.0000 </r>
       <r>   -0.2404    1.0000 </r>
       <r>    0.6679    1.0000 </r>
       <r>    1.0005    1.0000 </r>
       <r>    1.4765    1.0000 </r>
       <r>    1.5312    1.0000 </r>
       <r>    1.8713    1.0000 </r>
       <r>    2.0054    1.0000 </r>
       <r>    4.7574    0.0000 </r>
       <r>    4.8615    0.0000 </r>
       <r>    5.0418    0.0000 </r>
       <r>    8.6815    0.0000 </r>
      </set>
      <set comment="kpoint 6">
       <r>  -30.0638    1.0000 </r>
       <r>  -14.8478    1.0000 </r>
       <r>  -13.8605    1.0000 </r>
       <r>  -13.7604    1.0000 </r>
       <r>  -12.1069    1.0000 </r>
       <r>  -12.0312    1.0000 </r>
       <r>  -11.7731    1.0000 </r>
       <r>   -1.1581    1.0000 </r>
       <r>   -0.5140    1.0000 </r>
       <r>   -0.2565    1.0000 </r>
       <r>   -0.0028    1.0000 </r>
       <r>    0.5590    1.0000 </r>
       <r>    0.8957    1.0000 </r>
       <r>    1.4549    1.0000 </r>
       <r>    1.6904    1.0000 </r>
       <r>    1.7816    1.0000 </r>
       <r>    4.8500    0.0000 </r>
       <r>    5.6114    0.0000 </r>
       <r>    5.6669    0.0000 </r>
       <r>    9.4010    0.0000 </r>
      </set>
      <set comment="kpoint 7">
       <r>  -30.0560    1.0000 </r>
       <r>  -14.9183    1.0000 </r>
       <r>  -13.7755    1.0000 </r>
       <r>  -13.7223    1.0000 </r>
       <r>  -12.0898    1.0000 </r>
       <r>  -12.0200    1.0000 </r>
       <r>  -11.6295    1.0000 </r>
       <r>   -1.6492    1.0000 </r>
       <r>   -0.6997    1.0000 </r>
       <r>   -0.3603    1.0000 </r>
       <r>   -0.2398    1.0000 </r>
       <r>    0.2120    1.0000 </r>
       <r>    0.5938    1.0000 </r>
       <r>    1.3920    1.0000 </r>
       <r>    1.5391    1.0000 </r>
       <r>    1.6679    1.0000 </r>
       <r>    4.8923    0.0000 </r>
       <r>    6.1674    0.0000 </r>
       <r>    6.1881    0.0000 </r>
       <r>   10.0023    0.0000 </r>
      </set>
      <set comment="kpoint 8">
       <r>  -30.0548    1.0000 </r>
       <r>  -14.7118    1.0000 </r>
       <r>  -13.9784    1.0000 </r>
       <r>  -13.7291    1.0000 </r>
       <r>  -12.0843    1.0000 </r>
       <r>  -11.8920    1.0000 </r>
       <r>  -11.7799    1.0000 </r>
       <r>   -1.3919    1.0000 </r>
       <r>   -0.9265    1.0000 </r>
       <r>   -0.7810    1.0000 </r>
       <r>   -0.2691    1.0000 </r>
       <r>    0.2621    1.0000 </r>
       <r>    0.8627    1.0000 </r>
       <r>    1.2115    1.0000 </r>
       <r>    1.4227    1.0000 </r>
       <r>    2.0028    1.0000 </r>
       <r>    5.5624    0.0000 </r>
       <r>    5.6865    0.0000 </r>
       <r>    5.9791    0.0000 </r>
       <r>    9.9999    0.0000 </r>
      </set>
      <set comment="kpoint 9">
       <r>  -30.0476    1.0000 </r>
       <r>  -14.6557    1.0000 </r>
       <r>  -13.9388    1.0000 </r>
       <r>  -13.7622    1.0000 </r>
       <r>  -12.0660    1.0000 </r>
       <r>  -11.8654    1.0000 </r>
       <r>  -11.7108    1.0000 </r>
       <r>   -1.7041    1.0000 </r>
       <r>   -1.4464    1.0000 </r>
       <r>   -0.9978    1.0000 </r>
       <r>   -0.2488    1.0000 </r>
       <r>   -0.0069    1.0000 </r>
       <r>    0.8265    1.0000 </r>
       <r>    1.1378    1.0000 </r>
       <r>    1.2313    1.0000 </r>
       <r>    2.1244    1.0000 </r>
       <r>    5.6392    0.0000 </r>
       <r>    6.1711    0.0000 </r>
       <r>    6.3529    0.0000 </r>
       <r>   10.3920    0.0000 </r>
      </set>
      <set comment="kpoint 10">
       <r>  -30.0408    1.0000 </r>
       <r>  -14.3557    1.0000 </r>
       <r>  -14.0529    1.0000 </r>
       <r>  -13.8923    1.0000 </r>
       <r>  -12.0467    1.0000 </r>
       <r>  -11.7619    1.0000 </r>
       <r>  -11.7472    1.0000 </r>
       <r>   -1.9222    1.0000 </r>
       <r>   -1.7944    1.0000 </r>
       <r>   -1.4999    1.0000 </r>
       <r>   -0.2511    1.0000 </r>
       <r>   -0.1847    1.0000 </r>
       <r>    0.9702    1.0000 </r>
       <r>    1.0042    1.0000 </r>
       <r>    1.0833    1.0000 </r>
       <r>    2.4487    1.0000 </r>
       <r>    6.1627    0.0000 </r>
       <r>    6.1843    0.0000 </r>
       <r>    6.6012    0.0000 </r>
       <r>   10.7858    0.0000 </r>
      </set>
      <set comment="kpoint 11">
       <r>  -30.0693    1.0000 </r>
       <r>  -14.7885    1.0000 </r>
       <r>  -13.8463    1.0000 </r>
       <r>  -13.8463    1.0000 </r>
       <r>  -12.0801    1.0000 </r>
       <r>  -12.0801    1.0000 </r>
       <r>  -11.9038    1.0000 </r>
       <r>   -0.8084    1.0000 </r>
       <r>   -0.3528    1.0000 </r>
       <r>   -0.3528    1.0000 </r>
       <r>    0.5630    1.0000 </r>
       <r>    0.5630    1.0000 </r>
       <r>    1.1593    1.0000 </r>
       <r>    1.6694    1.0000 </r>
       <r>    1.8159    1.0000 </r>
       <r>    1.8159    1.0000 </r>
       <r>    5.0072    0.0000 </r>
       <r>    5.0994    0.0000 </r>
       <r>    5.0994    0.0000 </r>
       <r>    8.9866    0.0000 </r>
      </set>
      <set comment="kpoint 12">
       <r>  -30.0599    1.0000 </r>
       <r>  -14.7762    1.0000 </r>
       <r>  -13.8578    1.0000 </r>
       <r>  -13.7923    1.0000 </r>
       <r>  -12.1187    1.0000 </r>
       <r>  -11.9945    1.0000 </r>
       <r>  -11.7702    1.0000 </r>
       <r>   -1.2253    1.0000 </r>
       <r>   -0.6288    1.0000 </r>
       <r>   -0.3672    1.0000 </r>
       <r>   -0.0175    1.0000 </r>
       <r>    0.0388    1.0000 </r>
       <r>    0.8826    1.0000 </r>
       <r>    1.5588    1.0000 </r>
       <r>    1.6494    1.0000 </r>
       <r>    1.6857    1.0000 </r>
       <r>    5.1220    0.0000 </r>
       <r>    5.6904    0.0000 </r>
       <r>    5.6977    0.0000 </r>
       <r>    9.6314    0.0000 </r>
      </set>
      <set comment="kpoint 13">
       <r>  -30.0523    1.0000 </r>
       <r>  -14.8190    1.0000 </r>
       <r>  -13.7826    1.0000 </r>
       <r>  -13.7464    1.0000 </r>
       <r>  -12.1524    1.0000 </r>
       <r>  -11.9311    1.0000 </r>
       <r>  -11.6786    1.0000 </r>
       <r>   -1.6610    1.0000 </r>
       <r>   -0.8540    1.0000 </r>
       <r>   -0.4537    1.0000 </r>
       <r>   -0.3947    1.0000 </r>
       <r>   -0.2366    1.0000 </r>
       <r>    0.9698    1.0000 </r>
       <r>    1.3033    1.0000 </r>
       <r>    1.5116    1.0000 </r>
       <r>    1.5985    1.0000 </r>
       <r>    5.1710    0.0000 </r>
       <r>    6.1978    0.0000 </r>
       <r>    6.2139    0.0000 </r>
       <r>   10.2021    0.0000 </r>
      </set>
      <set comment="kpoint 14">
       <r>  -30.0511    1.0000 </r>
       <r>  -14.6313    1.0000 </r>
       <r>  -13.9283    1.0000 </r>
       <r>  -13.7494    1.0000 </r>
       <r>  -12.1235    1.0000 </r>
       <r>  -11.9570    1.0000 </r>
       <r>  -11.7521    1.0000 </r>
       <r>   -1.4341    1.0000 </r>
       <r>   -0.9218    1.0000 </r>
       <r>   -0.7211    1.0000 </r>
       <r>   -0.4893    1.0000 </r>
       <r>   -0.1060    1.0000 </r>
       <r>    0.4417    1.0000 </r>
       <r>    1.4936    1.0000 </r>
       <r>    1.5540    1.0000 </r>
       <r>    2.0122    1.0000 </r>
       <r>    5.6962    0.0000 </r>
       <r>    5.7919    0.0000 </r>
       <r>    6.0171    0.0000 </r>
       <r>   10.2251    0.0000 </r>
      </set>
      <set comment="kpoint 15">
       <r>  -30.0440    1.0000 </r>
       <r>  -14.5587    1.0000 </r>
       <r>  -13.9035    1.0000 </r>
       <r>  -13.7331    1.0000 </r>
       <r>  -12.1603    1.0000 </r>
       <r>  -11.8739    1.0000 </r>
       <r>  -11.7657    1.0000 </r>
       <r>   -1.7015    1.0000 </r>
       <r>   -1.3790    1.0000 </r>
       <r>   -0.9880    1.0000 </r>
       <r>   -0.5099    1.0000 </r>
       <r>   -0.3642    1.0000 </r>
       <r>    0.4649    1.0000 </r>
       <r>    1.3882    1.0000 </r>
       <r>    1.4863    1.0000 </r>
       <r>    2.1340    1.0000 </r>
       <r>    5.7827    0.0000 </r>
       <r>    6.2433    0.0000 </r>
       <r>    6.3881    0.0000 </r>
       <r>   10.5543    0.0000 </r>
      </set>
      <set comment="kpoint 16">
       <r>  -30.0373    1.0000 </r>
       <r>  -14.2615    1.0000 </r>
       <r>  -13.9864    1.0000 </r>
       <r>  -13.8308    1.0000 </r>
       <r>  -12.1297    1.0000 </r>
       <r>  -11.8610    1.0000 </r>
       <r>  -11.8187    1.0000 </r>
       <r>   -1.8270    1.0000 </r>
       <r>   -1.7302    1.0000 </r>
       <r>   -1.4961    1.0000 </r>
       <r>   -0.5250    1.0000 </r>
       <r>   -0.4669    1.0000 </r>
       <r>    0.3288    1.0000 </r>
       <r>    1.4275    1.0000 </r>
       <r>    1.4714    1.0000 </r>
       <r>    2.4630    1.0000 </r>
       <r>    6.2600    0.0000 </r>
       <r>    6.2801    0.0000 </r>
       <r>    6.6399    0.0000 </r>
       <r>   10.4605    0.0000 </r>
      </set>
      <set comment="kpoint 17">
       <r>  -30.0427    1.0000 </r>
       <r>  -14.4485    1.0000 </r>
       <r>  -13.8019    1.0000 </r>
       <r>  -13.8019    1.0000 </r>
       <r>  -12.1170    1.0000 </r>
       <r>  -12.1170    1.0000 </r>
       <r>  -11.7686    1.0000 </r>
       <r>   -1.5243    1.0000 </r>
       <r>   -0.9102    1.0000 </r>
       <r>   -0.9102    1.0000 </r>
       <r>   -0.5704    1.0000 </r>
       <r>   -0.5704    1.0000 </r>
       <r>   -0.5472    1.0000 </r>
       <r>    1.8008    1.0000 </r>
       <r>    1.8008    1.0000 </r>
       <r>    2.1413    1.0000 </r>
       <r>    6.0680    0.0000 </r>
       <r>    6.1164    0.0000 </r>
       <r>    6.1164    0.0000 </r>
       <r>   10.3968    0.0000 </r>
      </set>
      <set comment="kpoint 18">
       <r>  -30.0359    1.0000 </r>
       <r>  -14.3085    1.0000 </r>
       <r>  -13.8381    1.0000 </r>
       <r>  -13.6803    1.0000 </r>
       <r>  -12.2657    1.0000 </r>
       <r>  -12.0113    1.0000 </r>
       <r>  -11.8693    1.0000 </r>
       <r>   -1.7027    1.0000 </r>
       <r>   -1.3121    1.0000 </r>
       <r>   -1.0037    1.0000 </r>
       <r>   -0.8986    1.0000 </r>
       <r>   -0.8268    1.0000 </r>
       <r>   -0.4379    1.0000 </r>
       <r>    1.8313    1.0000 </r>
       <r>    1.9651    1.0000 </r>
       <r>    2.2440    1.0000 </r>
       <r>    6.1649    0.0000 </r>
       <r>    6.4548    0.0000 </r>
       <r>    6.4793    0.0000 </r>
       <r>   10.5274    0.0000 </r>
      </set>
      <set comment="kpoint 19">
       <r>  -30.0294    1.0000 </r>
       <r>  -14.0260    1.0000 </r>
       <r>  -13.8107    1.0000 </r>
       <r>  -13.6927    1.0000 </r>
       <r>  -12.2866    1.0000 </r>
       <r>  -12.1089    1.0000 </r>
       <r>  -12.0148    1.0000 </r>
       <r>   -1.7947    1.0000 </r>
       <r>   -1.4873    1.0000 </r>
       <r>   -1.4161    1.0000 </r>
       <r>   -0.9434    1.0000 </r>
       <r>   -0.8529    1.0000 </r>
       <r>   -0.7483    1.0000 </r>
       <r>    2.0545    1.0000 </r>
       <r>    2.0906    1.0000 </r>
       <r>    2.4997    1.0000 </r>
       <r>    6.5240    0.0000 </r>
       <r>    6.5361    0.0000 </r>
       <r>    6.7290    0.0000 </r>
       <r>   10.1005    0.0000 </r>
      </set>
      <set comment="kpoint 20">
       <r>  -30.0231    1.0000 </r>
       <r>  -13.7688    1.0000 </r>
       <r>  -13.6246    1.0000 </r>
       <r>  -13.6246    1.0000 </r>
       <r>  -12.3521    1.0000 </r>
       <r>  -12.3521    1.0000 </r>
       <r>  -12.2387    1.0000 </r>
       <r>   -1.8830    1.0000 </r>
       <r>   -1.4794    1.0000 </r>
       <r>   -1.4794    1.0000 </r>
       <r>   -1.1774    1.0000 </r>
       <r>   -1.0697    1.0000 </r>
       <r>   -1.0697    1.0000 </r>
       <r>    2.4669    1.0000 </r>
       <r>    2.4669    1.0000 </r>
       <r>    2.5546    1.0000 </r>
       <r>    6.8055    0.0000 </r>
       <r>    9.7795    0.0000 </r>
       <r>    9.8144    0.0000 </r>
       <r>    9.8353    0.0000 </r>
      </set>
     </set>
    </set>
   </array>
  </eigenvalues>
  <separator name="orbital magnetization" >
   <v name="MAGDIPOLOUT">      0.00000000      0.00000000      0.00000000</v>
  </separator>
  <dos>
   <i name="efermi">      2.56456018 </i>
   <total>
    <array>
     <dimension dim="1">gridpoints</dimension>
     <dimension dim="2">spin</dimension>
     <field>energy</field>
     <field>total</field>
     <field>integrated</field>
     <set>
      <set comment="spin 1">
       <r>   -32.1256     0.0000     0.0000 </r>
       <r>   -31.9757     0.0000     0.0000 </r>
       <r>   -31.8259     0.0000     0.0000 </r>
       <r>   -31.6760     0.0000     0.0000 </r>
       <r>   -31.5262     0.0000     0.0000 </r>
       <r>   -31.3763     0.0000     0.0000 </r>
       <r>   -31.2265     0.0000     0.0000 </r>
       <r>   -31.0766     0.0000     0.0000 </r>
       <r>   -30.9268     0.0000     0.0000 </r>
       <r>   -30.7769     0.0000     0.0000 </r>
       <r>   -30.6271     0.0000     0.0000 </r>
       <r>   -30.4772     0.0000     0.0000 </r>
       <r>   -30.3274     0.0000     0.0000 </r>
       <r>   -30.1775     0.0000     0.0000 </r>
       <r>   -30.0277    15.3591     1.9477 </r>
       <r>   -29.8778     0.0000     2.0000 </r>
       <r>   -29.7280     0.0000     2.0000 </r>
       <r>   -29.5781     0.0000     2.0000 </r>
       <r>   -29.4283     0.0000     2.0000 </r>
       <r>   -29.2784     0.0000     2.0000 </r>
       <r>   -29.1286     0.0000     2.0000 </r>
       <r>   -28.9787     0.0000     2.0000 </r>
       <r>   -28.8289     0.0000     2.0000 </r>
       <r>   -28.6790     0.0000     2.0000 </r>
       <r>   -28.5292     0.0000     2.0000 </r>
       <r>   -28.3793     0.0000     2.0000 </r>
       <r>   -28.2295     0.0000     2.0000 </r>
       <r>   -28.0796     0.0000     2.0000 </r>
       <r>   -27.9298     0.0000     2.0000 </r>
       <r>   -27.7799     0.0000     2.0000 </r>
       <r>   -27.6301     0.0000     2.0000 </r>
       <r>   -27.4802     0.0000     2.0000 </r>
       <r>   -27.3304     0.0000     2.0000 </r>
       <r>   -27.1805     0.0000     2.0000 </r>
       <r>   -27.0307     0.0000     2.0000 </r>
       <r>   -26.8808     0.0000     2.0000 </r>
       <r>   -26.7310     0.0000     2.0000 </r>
       <r>   -26.5811     0.0000     2.0000 </r>
       <r>   -26.4313     0.0000     2.0000 </r>
       <r>   -26.2814     0.0000     2.0000 </r>
       <r>   -26.1316     0.0000     2.0000 </r>
       <r>   -25.9817     0.0000     2.0000 </r>
       <r>   -25.8319     0.0000     2.0000 </r>
       <r>   -25.6820     0.0000     2.0000 </r>
       <r>   -25.5322     0.0000     2.0000 </r>
       <r>   -25.3823     0.0000     2.0000 </r>
       <r>   -25.2325     0.0000     2.0000 </r>
       <r>   -25.0826     0.0000     2.0000 </r>
       <r>   -24.9328     0.0000     2.0000 </r>
       <r>   -24.7829     0.0000     2.0000 </r>
       <r>   -24.6331     0.0000     2.0000 </r>
       <r>   -24.4832     0.0000     2.0000 </r>
       <r>   -24.3334     0.0000     2.0000 </r>
       <r>   -24.1835     0.0000     2.0000 </r>
       <r>   -24.0337     0.0000     2.0000 </r>
       <r>   -23.8838     0.0000     2.0000 </r>
       <r>   -23.7340     0.0000     2.0000 </r>
       <r>   -23.5841     0.0000     2.0000 </r>
       <r>   -23.4343     0.0000     2.0000 </r>
       <r>   -23.2844     0.0000     2.0000 </r>
       <r>   -23.1346     0.0000     2.0000 </r>
       <r>   -22.9848     0.0000     2.0000 </r>
       <r>   -22.8349     0.0000     2.0000 </r>
       <r>   -22.6851     0.0000     2.0000 </r>
       <r>   -22.5352     0.0000     2.0000 </r>
       <r>   -22.3854     0.0000     2.0000 </r>
       <r>   -22.2355     0.0000     2.0000 </r>
       <r>   -22.0857     0.0000     2.0000 </r>
       <r>   -21.9358     0.0000     2.0000 </r>
       <r>   -21.7860     0.0000     2.0000 </r>
       <r>   -21.6361     0.0000     2.0000 </r>
       <r>   -21.4863     0.0000     2.0000 </r>
       <r>   -21.3364     0.0000     2.0000 </r>
       <r>   -21.1866     0.0000     2.0000 </r>
       <r>   -21.0367     0.0000     2.0000 </r>
       <r>   -20.8869     0.0000     2.0000 </r>
       <r>   -20.7370     0.0000     2.0000 </r>
       <r>   -20.5872     0.0000     2.0000 </r>
       <r>   -20.4373     0.0000     2.0000 </r>
       <r>   -20.2875     0.0000     2.0000 </r>
       <r>   -20.1376     0.0000     2.0000 </r>
       <r>   -19.9878     0.0000     2.0000 </r>
       <r>   -19.8379     0.0000     2.0000 </r>
       <r>   -19.6881     0.0000     2.0000 </r>
       <r>   -19.5382     0.0000     2.0000 </r>
       <r>   -19.3884     0.0000     2.0000 </r>
       <r>   -19.2385     0.0000     2.0000 </r>
       <r>   -19.0887     0.0000     2.0000 </r>
       <r>   -18.9388     0.0000     2.0000 </r>
       <r>   -18.7890     0.0000     2.0000 </r>
       <r>   -18.6391     0.0000     2.0000 </r>
       <r>   -18.4893     0.0000     2.0000 </r>
       <r>   -18.3394     0.0000     2.0000 </r>
       <r>   -18.1896     0.0000     2.0000 </r>
       <r>   -18.0397     0.0000     2.0000 </r>
       <r>   -17.8899     0.0000     2.0000 </r>
       <r>   -17.7400     0.0000     2.0000 </r>
       <r>   -17.5902     0.0000     2.0000 </r>
       <r>   -17.4403     0.0000     2.0000 </r>
       <r>   -17.2905     0.0000     2.0000 </r>
       <r>   -17.1406     0.0000     2.0000 </r>
       <r>   -16.9908     0.0000     2.0000 </r>
       <r>   -16.8409     0.0000     2.0000 </r>
       <r>   -16.6911     0.0000     2.0000 </r>
       <r>   -16.5412     0.0000     2.0000 </r>
       <r>   -16.3914     0.0000     2.0000 </r>
       <r>   -16.2415     0.0000     2.0000 </r>
       <r>   -16.0917     0.0000     2.0000 </r>
       <r>   -15.9418     0.0000     2.0000 </r>
       <r>   -15.7920     0.0000     2.0000 </r>
       <r>   -15.6421     0.0000     2.0000 </r>
       <r>   -15.4923     0.0000     2.0000 </r>
       <r>   -15.3424     0.0000     2.0000 </r>
       <r>   -15.1926     0.0000     2.0000 </r>
       <r>   -15.0427     0.0000     2.0000 </r>
       <r>   -14.8929     2.1371     2.1088 </r>
       <r>   -14.7430     3.2315     2.7275 </r>
       <r>   -14.5932     2.3489     3.1532 </r>
       <r>   -14.4433     1.7636     3.4513 </r>
       <r>   -14.2935     1.4521     3.6984 </r>
       <r>   -14.1436     0.7341     3.8459 </r>
       <r>   -13.9938     2.8234     4.0119 </r>
       <r>   -13.8439    14.9548     5.3718 </r>
       <r>   -13.6941     5.7077     7.7766 </r>
       <r>   -13.5442     0.0000     8.0000 </r>
       <r>   -13.3944     0.0000     8.0000 </r>
       <r>   -13.2445     0.0000     8.0000 </r>
       <r>   -13.0947     0.0000     8.0000 </r>
       <r>   -12.9448     0.0000     8.0000 </r>
       <r>   -12.7950     0.0000     8.0000 </r>
       <r>   -12.6451     0.0000     8.0000 </r>
       <r>   -12.4953     0.0000     8.0000 </r>
       <r>   -12.3454     0.8299     8.0167 </r>
       <r>   -12.1956     4.3234     8.4177 </r>
       <r>   -12.0457     7.4625    10.5040 </r>
       <r>   -11.8959     9.2794    11.9031 </r>
       <r>   -11.7461    12.0658    13.3798 </r>
       <r>   -11.5962     0.3934    13.9980 </r>
       <r>   -11.4464     0.0000    14.0000 </r>
       <r>   -11.2965     0.0000    14.0000 </r>
       <r>   -11.1467     0.0000    14.0000 </r>
       <r>   -10.9968     0.0000    14.0000 </r>
       <r>   -10.8470     0.0000    14.0000 </r>
       <r>   -10.6971     0.0000    14.0000 </r>
       <r>   -10.5473     0.0000    14.0000 </r>
       <r>   -10.3974     0.0000    14.0000 </r>
       <r>   -10.2476     0.0000    14.0000 </r>
       <r>   -10.0977     0.0000    14.0000 </r>
       <r>    -9.9479     0.0000    14.0000 </r>
       <r>    -9.7980     0.0000    14.0000 </r>
       <r>    -9.6482     0.0000    14.0000 </r>
       <r>    -9.4983     0.0000    14.0000 </r>
       <r>    -9.3485     0.0000    14.0000 </r>
       <r>    -9.1986     0.0000    14.0000 </r>
       <r>    -9.0488     0.0000    14.0000 </r>
       <r>    -8.8989     0.0000    14.0000 </r>
       <r>    -8.7491     0.0000    14.0000 </r>
       <r>    -8.5992     0.0000    14.0000 </r>
       <r>    -8.4494     0.0000    14.0000 </r>
       <r>    -8.2995     0.0000    14.0000 </r>
       <r>    -8.1497     0.0000    14.0000 </r>
       <r>    -7.9998     0.0000    14.0000 </r>
       <r>    -7.8500     0.0000    14.0000 </r>
       <r>    -7.7001     0.0000    14.0000 </r>
       <r>    -7.5503     0.0000    14.0000 </r>
       <r>    -7.4004     0.0000    14.0000 </r>
       <r>    -7.2506     0.0000    14.0000 </r>
       <r>    -7.1007     0.0000    14.0000 </r>
       <r>    -6.9509     0.0000    14.0000 </r>
       <r>    -6.8010     0.0000    14.0000 </r>
       <r>    -6.6512     0.0000    14.0000 </r>
       <r>    -6.5013     0.0000    14.0000 </r>
       <r>    -6.3515     0.0000    14.0000 </r>
       <r>    -6.2016     0.0000    14.0000 </r>
       <r>    -6.0518     0.0000    14.0000 </r>
       <r>    -5.9019     0.0000    14.0000 </r>
       <r>    -5.7521     0.0000    14.0000 </r>
       <r>    -5.6022     0.0000    14.0000 </r>
       <r>    -5.4524     0.0000    14.0000 </r>
       <r>    -5.3025     0.0000    14.0000 </r>
       <r>    -5.1527     0.0000    14.0000 </r>
       <r>    -5.0028     0.0000    14.0000 </r>
       <r>    -4.8530     0.0000    14.0000 </r>
       <r>    -4.7031     0.0000    14.0000 </r>
       <r>    -4.5533     0.0000    14.0000 </r>
       <r>    -4.4034     0.0000    14.0000 </r>
       <r>    -4.2536     0.0000    14.0000 </r>
       <r>    -4.1037     0.0000    14.0000 </r>
       <r>    -3.9539     0.0000    14.0000 </r>
       <r>    -3.8040     0.0000    14.0000 </r>
       <r>    -3.6542     0.0000    14.0000 </r>
       <r>    -3.5043     0.0000    14.0000 </r>
       <r>    -3.3545     0.0000    14.0000 </r>
       <r>    -3.2046     0.0000    14.0000 </r>
       <r>    -3.0548     0.0000    14.0000 </r>
       <r>    -2.9049     0.0000    14.0000 </r>
       <r>    -2.7551     0.0000    14.0000 </r>
       <r>    -2.6052     0.0000    14.0000 </r>
       <r>    -2.4554     0.0000    14.0000 </r>
       <r>    -2.3055     0.0000    14.0000 </r>
       <r>    -2.1557     0.0000    14.0000 </r>
       <r>    -2.0058     0.0000    14.0000 </r>
       <r>    -1.8560     1.6517    14.0640 </r>
       <r>    -1.7061     4.8557    14.6623 </r>
       <r>    -1.5563     3.2539    15.4315 </r>
       <r>    -1.4064     4.4289    16.1861 </r>
       <r>    -1.2566     3.4499    16.7852 </r>
       <r>    -1.1067     3.4152    17.2965 </r>
       <r>    -0.9569     4.5663    17.9177 </r>
       <r>    -0.8070     4.8876    18.6754 </r>
       <r>    -0.6572     5.1854    19.4354 </r>
       <r>    -0.5074     6.7183    20.2648 </r>
       <r>    -0.3575     8.4468    21.3164 </r>
       <r>    -0.2077     3.7396    22.5825 </r>
       <r>    -0.0578     3.2519    23.1058 </r>
       <r>     0.0920     2.4877    23.5266 </r>
       <r>     0.2419     2.2289    23.8723 </r>
       <r>     0.3917     1.8412    24.1588 </r>
       <r>     0.5416     2.6532    24.4857 </r>
       <r>     0.6914     3.1431    24.9303 </r>
       <r>     0.8413     3.3206    25.4220 </r>
       <r>     0.9911     1.0726    25.7586 </r>
       <r>     1.1410     2.0227    25.9724 </r>
       <r>     1.2908     4.5481    26.4544 </r>
       <r>     1.4407     5.9099    27.3821 </r>
       <r>     1.5905     5.9998    28.4370 </r>
       <r>     1.7404     5.9537    29.3121 </r>
       <r>     1.8902     4.8706    30.1446 </r>
       <r>     2.0401     3.5282    30.7610 </r>
       <r>     2.1899     2.8769    31.2504 </r>
       <r>     2.3398     2.0292    31.6032 </r>
       <r>     2.4896     1.5747    31.9180 </r>
       <r>     2.6395     0.0000    32.0000 </r>
       <r>     2.7893     0.0000    32.0000 </r>
       <r>     2.9392     0.0000    32.0000 </r>
       <r>     3.0890     0.0000    32.0000 </r>
       <r>     3.2389     0.0000    32.0000 </r>
       <r>     3.3887     0.0000    32.0000 </r>
       <r>     3.5386     0.0000    32.0000 </r>
       <r>     3.6884     0.0000    32.0000 </r>
       <r>     3.8383     0.0000    32.0000 </r>
       <r>     3.9881     0.0000    32.0000 </r>
       <r>     4.1380     0.0000    32.0000 </r>
       <r>     4.2878     0.0000    32.0000 </r>
       <r>     4.4377     0.1447    32.0083 </r>
       <r>     4.5875     0.5048    32.0542 </r>
       <r>     4.7374     0.9204    32.1610 </r>
       <r>     4.8872     1.5506    32.3549 </r>
       <r>     5.0371     1.5077    32.5871 </r>
       <r>     5.1869     1.4487    32.8011 </r>
       <r>     5.3368     1.6512    33.0333 </r>
       <r>     5.4866     1.8604    33.2963 </r>
       <r>     5.6365     2.5391    33.5998 </r>
       <r>     5.7863     3.1212    34.0473 </r>
       <r>     5.9362     3.4944    34.5411 </r>
       <r>     6.0860     3.9925    35.0994 </r>
       <r>     6.2359     7.7764    36.1688 </r>
       <r>     6.3857     3.9658    36.9125 </r>
       <r>     6.5356     2.7485    37.4344 </r>
       <r>     6.6854     1.1756    37.7259 </r>
       <r>     6.8353     0.1165    37.7999 </r>
       <r>     6.9851     0.1101    37.8169 </r>
       <r>     7.1350     0.1038    37.8329 </r>
       <r>     7.2848     0.0978    37.8480 </r>
       <r>     7.4347     0.0919    37.8622 </r>
       <r>     7.5845     0.0862    37.8756 </r>
       <r>     7.7344     0.0806    37.8881 </r>
       <r>     7.8842     0.0753    37.8997 </r>
       <r>     8.0341     0.0701    37.9106 </r>
       <r>     8.1839     0.0767    37.9213 </r>
       <r>     8.3338     0.1122    37.9351 </r>
       <r>     8.4836     0.1765    37.9565 </r>
       <r>     8.6335     0.2165    37.9864 </r>
       <r>     8.7833     0.2342    38.0201 </r>
       <r>     8.9332     0.2656    38.0574 </r>
       <r>     9.0830     0.3102    38.1004 </r>
       <r>     9.2329     0.3624    38.1507 </r>
       <r>     9.3827     0.4272    38.2096 </r>
       <r>     9.5326     0.5153    38.2800 </r>
       <r>     9.6824     0.6142    38.3646 </r>
       <r>     9.8323     0.7051    38.4757 </r>
       <r>     9.9821     1.4050    38.6479 </r>
       <r>    10.1320     1.5753    38.8738 </r>
       <r>    10.2818     2.1212    39.1455 </r>
       <r>    10.4317     2.9347    39.5104 </r>
       <r>    10.5815     0.7417    39.9192 </r>
       <r>    10.7313     0.2422    39.9906 </r>
       <r>    10.8812     0.0000    40.0000 </r>
       <r>    11.0310     0.0000    40.0000 </r>
       <r>    11.1809     0.0000    40.0000 </r>
       <r>    11.3307     0.0000    40.0000 </r>
       <r>    11.4806     0.0000    40.0000 </r>
       <r>    11.6304     0.0000    40.0000 </r>
       <r>    11.7803     0.0000    40.0000 </r>
       <r>    11.9301     0.0000    40.0000 </r>
       <r>    12.0800     0.0000    40.0000 </r>
       <r>    12.2298     0.0000    40.0000 </r>
       <r>    12.3797     0.0000    40.0000 </r>
       <r>    12.5295     0.0000    40.0000 </r>
       <r>    12.6794     0.0000    40.0000 </r>
       <r>    12.8292     0.0000    40.0000 </r>
      </set>
     </set>
    </array>
   </total>
  </dos>
 </calculation>
 <structure name="finalpos" >
  <crystal>
   <varray name="basis" >
    <v>       3.90526800       0.00000000       0.00000000 </v>
    <v>       0.00000000       3.90526800       0.00000000 </v>
    <v>       0.00000000       0.00000000       3.90526800 </v>
   </varray>
   <i name="volume">     59.55970368 </i>
   <varray name="rec_basis" >
    <v>       0.25606437       0.00000000       0.00000000 </v>
    <v>       0.00000000       0.25606437       0.00000000 </v>
    <v>       0.00000000       0.00000000       0.25606437 </v>
   </varray>
  </crystal>
  <varray name="positions" >
   <v>       0.00000000       0.00000000       0.00000000 </v>
   <v>       0.50000000       0.50000000       0.50000000 </v>
   <v>       0.50000000       0.50000000       0.00000000 </v>
   <v>       0.50000000       0.00000000       0.50000000 </v>
   <v>       0.00000000       0.50000000       0.50000000 </v>
  </varray>
 </structure>
</modeling>
