unknown system                          
   4.20000000000000     
     1.000000    0.000000    0.000000
     0.000000    1.000000    0.000000
     0.000000    0.000000    1.000000
   Pt
     4
Direct
  0.000000  0.000000  0.000000
  0.000000  0.500000  0.500000
  0.500000  0.000000  0.500000
  0.500000  0.500000  0.000000
 
   48   48   48
  285.64      279.72      263.60      241.37      217.44      194.53      172.86      151.01      127.64      102.91    
  78.704      57.570      41.324      30.169      22.792      17.652      14.120      11.696      10.000      8.7963    
  7.9467      7.3681      7.0003      6.7982      6.7339      6.7982      7.0003      7.3681      7.9467      8.7963    
  10.000      11.696      14.120      17.652      22.792      30.169      41.324      57.570      78.704      102.91    
  127.64      151.01      172.86      194.53      217.44      241.37      263.60      279.72      279.72      274.01    
  258.49      237.03      213.86      191.53      170.26      148.68      125.56      101.15      77.342      56.625    
  40.743      29.846      22.613      17.561      14.086      11.697      10.024      8.8351      7.9958      7.4243    
  7.0612      6.8617      6.7982      6.8617      7.0612      7.4243      7.9958      8.8351      10.024      11.697    
  14.086      17.561      22.613      29.846      40.743      56.625      77.342      101.15      125.56      148.68    
  170.26      191.53      213.86      237.03      258.49      274.01      263.60      258.49      244.53      225.13    
  203.94      183.15      162.89      142.01      119.60      96.112      73.446      53.933      39.093      28.929    
  22.102      17.303      13.995      11.710      10.104      8.9593      8.1513      7.6015      7.2527      7.0612    
  7.0003      7.0612      7.2527      7.6015      8.1513      8.9593      10.104      11.710      13.995      17.303    
  22.102      28.929      39.093      53.933      73.446      96.112      119.60      142.01      162.89      183.15    
  203.94      225.13      244.53      258.49      241.37      237.03      225.13      208.39      189.73      170.84    
  151.82      131.85      110.47      88.418      67.540      49.885      36.630      27.556      21.331      16.928    
  13.879      11.760      10.262      9.1921      8.4373      7.9253      7.6015      7.4243      7.3681      7.4243    
  7.6015      7.9253      8.4373      9.1921      10.262      11.760      13.879      16.928      21.331      27.556    
  36.630      49.885      67.540      88.418      110.47      131.85      151.82      170.84      189.73      208.39    
  225.13      237.03      217.44      213.86      203.94      189.73      173.38      156.17      138.24      119.22    
  99.131      78.937      60.354      45.025      33.699      25.911      20.411      16.509      13.792      11.890    
  10.538      9.5716      8.8936      8.4373      8.1513      7.9958      7.9467      7.9958      8.1513      8.4373    
  8.8936      9.5716      10.538      11.890      13.792      16.509      20.411      25.911      33.699      45.025    
  60.354      78.937      99.131      119.22      138.24      156.17      173.38      189.73      203.94      213.86    
  194.53      191.53      183.15      170.84      156.17      140.14      123.08      105.07      86.543      68.596    
  52.673      39.926      30.654      24.169      19.467      16.131      13.795      12.150      10.978      10.147    
  9.5716      9.1921      8.9593      8.8351      8.7963      8.8351      8.9593      9.1921      9.5716      10.147    
  10.978      12.150      13.795      16.131      19.467      24.169      30.654      39.926      52.673      68.596    
  86.543      105.07      123.08      140.14      156.17      170.84      183.15      191.53      172.86      170.26    
  162.89      151.82      138.24      123.08      106.90      90.164      73.605      58.261      45.205      35.080    
  27.775      22.489      18.622      15.881      13.955      12.598      11.641      10.978      10.538      10.262    
  10.104      10.024      10.000      10.024      10.104      10.262      10.538      10.978      11.641      12.598    
  13.955      15.881      18.622      22.489      27.775      35.080      45.205      58.261      73.605      90.164    
  106.90      123.08      138.24      151.82      162.89      170.26      151.01      148.68      142.01      131.85    
  119.22      105.07      90.164      75.248      61.130      48.661      38.495      30.816      25.211      21.021    
  17.981      15.835      14.336      13.299      12.598      12.150      11.890      11.760      11.710      11.697    
  11.696      11.697      11.710      11.760      11.890      12.150      12.598      13.299      14.336      15.835    
  17.981      21.021      25.211      30.816      38.495      48.661      61.130      75.248      90.164      105.07    
  119.22      131.85      142.01      148.68      127.64      125.56      119.60      110.47      99.131      86.543    
  73.605      61.130      49.850      40.338      32.862      27.264      23.027      19.871      17.617      16.057    
  15.007      14.336      13.955      13.795      13.792      13.879      13.995      14.086      14.120      14.086    
  13.995      13.879      13.792      13.795      13.955      14.336      15.007      16.057      17.617      19.871    
  23.027      27.264      32.862      40.338      49.850      61.130      73.605      86.543      99.131      110.47    
  119.60      125.56      102.91      101.15      96.112      88.418      78.937      68.596      58.261      48.661    
  40.338      33.582      28.369      24.361      21.307      19.101      17.587      16.612      16.057      15.835    
  15.881      16.131      16.509      16.928      17.303      17.561      17.652      17.561      17.303      16.928    
  16.509      16.131      15.881      15.835      16.057      16.612      17.587      19.101      21.307      24.361    
  28.369      33.582      40.338      48.661      58.261      68.596      78.937      88.418      96.112      101.15    
  78.704      77.342      73.446      67.540      60.354      52.673      45.205      38.495      32.862      28.369    
  24.828      22.083      20.087      18.743      17.940      17.587      17.617      17.981      18.622      19.467    
  20.411      21.331      22.102      22.613      22.792      22.613      22.102      21.331      20.411      19.467    
  18.622      17.981      17.617      17.587      17.940      18.743      20.087      22.083      24.828      28.369    
  32.862      38.495      45.205      52.673      60.354      67.540      73.446      77.342      57.570      56.625    
  53.933      49.885      45.025      39.926      35.080      30.816      27.264      24.361      22.083      20.433    
  19.366      18.820      18.743      19.101      19.871      21.021      22.489      24.169      25.911      27.556    
  28.929      29.846      30.169      29.846      28.929      27.556      25.911      24.169      22.489      21.021    
  19.871      19.101      18.743      18.820      19.366      20.433      22.083      24.361      27.264      30.816    
  35.080      39.926      45.025      49.885      53.933      56.625      41.324      40.743      39.093      36.630    
  33.699      30.654      27.775      25.211      23.027      21.307      20.087      19.366      19.129      19.366    
  20.087      21.307      23.027      25.211      27.775      30.654      33.699      36.630      39.093      40.743    
  41.324      40.743      39.093      36.630      33.699      30.654      27.775      25.211      23.027      21.307    
  20.087      19.366      19.129      19.366      20.087      21.307      23.027      25.211      27.775      30.654    
  33.699      36.630      39.093      40.743      30.169      29.846      28.929      27.556      25.911      24.169    
  22.489      21.021      19.871      19.101      18.743      18.820      19.366      20.433      22.083      24.361    
  27.264      30.816      35.080      39.926      45.025      49.885      53.933      56.625      57.570      56.625    
  53.933      49.885      45.025      39.926      35.080      30.816      27.264      24.361      22.083      20.433    
  19.366      18.820      18.743      19.101      19.871      21.021      22.489      24.169      25.911      27.556    
  28.929      29.846      22.792      22.613      22.102      21.331      20.411      19.467      18.622      17.981    
  17.617      17.587      17.940      18.743      20.087      22.083      24.828      28.369      32.862      38.495    
  45.205      52.673      60.354      67.540      73.446      77.342      78.704      77.342      73.446      67.540    
  60.354      52.673      45.205      38.495      32.862      28.369      24.828      22.083      20.087      18.743    
  17.940      17.587      17.617      17.981      18.622      19.467      20.411      21.331      22.102      22.613    
  17.652      17.561      17.303      16.928      16.509      16.131      15.881      15.835      16.057      16.612    
  17.587      19.101      21.307      24.361      28.369      33.582      40.338      48.661      58.261      68.596    
  78.937      88.418      96.112      101.15      102.91      101.15      96.112      88.418      78.937      68.596    
  58.261      48.661      40.338      33.582      28.369      24.361      21.307      19.101      17.587      16.612    
  16.057      15.835      15.881      16.131      16.509      16.928      17.303      17.561      14.120      14.086    
  13.995      13.879      13.792      13.795      13.955      14.336      15.007      16.057      17.617      19.871    
  23.027      27.264      32.862      40.338      49.850      61.130      73.605      86.543      99.131      110.47    
  119.60      125.56      127.64      125.56      119.60      110.47      99.131      86.543      73.605      61.130    
  49.850      40.338      32.862      27.264      23.027      19.871      17.617      16.057      15.007      14.336    
  13.955      13.795      13.792      13.879      13.995      14.086      11.696      11.697      11.710      11.760    
  11.890      12.150      12.598      13.299      14.336      15.835      17.981      21.021      25.211      30.816    
  38.495      48.661      61.130      75.248      90.164      105.07      119.22      131.85      142.01      148.68    
  151.01      148.68      142.01      131.85      119.22      105.07      90.164      75.248      61.130      48.661    
  38.495      30.816      25.211      21.021      17.981      15.835      14.336      13.299      12.598      12.150    
  11.890      11.760      11.710      11.697      10.000      10.024      10.104      10.262      10.538      10.978    
  11.641      12.598      13.955      15.881      18.622      22.489      27.775      35.080      45.205      58.261    
  73.605      90.164      106.90      123.08      138.24      151.82      162.89      170.26      172.86      170.26    
  162.89      151.82      138.24      123.08      106.90      90.164      73.605      58.261      45.205      35.080    
  27.775      22.489      18.622      15.881      13.955      12.598      11.641      10.978      10.538      10.262    
  10.104      10.024      8.7963      8.8351      8.9593      9.1921      9.5716      10.147      10.978      12.150    
  13.795      16.131      19.467      24.169      30.654      39.926      52.673      68.596      86.543      105.07    
  123.08      140.14      156.17      170.84      183.15      191.53      194.53      191.53      183.15      170.84    
  156.17      140.14      123.08      105.07      86.543      68.596      52.673      39.926      30.654      24.169    
  19.467      16.131      13.795      12.150      10.978      10.147      9.5716      9.1921      8.9593      8.8351    
  7.9467      7.9958      8.1513      8.4373      8.8936      9.5716      10.538      11.890      13.792      16.509    
  20.411      25.911      33.699      45.025      60.354      78.937      99.131      119.22      138.24      156.17    
  173.38      189.73      203.94      213.86      217.44      213.86      203.94      189.73      173.38      156.17    
  138.24      119.22      99.131      78.937      60.354      45.025      33.699      25.911      20.411      16.509    
  13.792      11.890      10.538      9.5716      8.8936      8.4373      8.1513      7.9958      7.3681      7.4243    
  7.6015      7.9253      8.4373      9.1921      10.262      11.760      13.879      16.928      21.331      27.556    
  36.630      49.885      67.540      88.418      110.47      131.85      151.82      170.84      189.73      208.39    
  225.13      237.03      241.37      237.03      225.13      208.39      189.73      170.84      151.82      131.85    
  110.47      88.418      67.540      49.885      36.630      27.556      21.331      16.928      13.879      11.760    
  10.262      9.1921      8.4373      7.9253      7.6015      7.4243      7.0003      7.0612      7.2527      7.6015    
  8.1513      8.9593      10.104      11.710      13.995      17.303      22.102      28.929      39.093      53.933    
  73.446      96.112      119.60      142.01      162.89      183.15      203.94      225.13      244.53      258.49    
  263.60      258.49      244.53      225.13      203.94      183.15      162.89      142.01      119.60      96.112    
  73.446      53.933      39.093      28.929      22.102      17.303      13.995      11.710      10.104      8.9593    
  8.1513      7.6015      7.2527      7.0612      6.7982      6.8617      7.0612      7.4243      7.9958      8.8351    
  10.024      11.697      14.086      17.561      22.613      29.846      40.743      56.625      77.342      101.15    
  125.56      148.68      170.26      191.53      213.86      237.03      258.49      274.01      279.72      274.01    
  258.49      237.03      213.86      191.53      170.26      148.68      125.56      101.15      77.342      56.625    
  40.743      29.846      22.613      17.561      14.086      11.697      10.024      8.8351      7.9958      7.4243    
  7.0612      6.8617      6.7339      6.7982      7.0003      7.3681      7.9467      8.7963      10.000      11.696    
  14.120      17.652      22.792      30.169      41.324      57.570      78.704      102.91      127.64      151.01    
  172.86      194.53      217.44      241.37      263.60      279.72      285.64      279.72      263.60      241.37    
  217.44      194.53      172.86      151.01      127.64      102.91      78.704      57.570      41.324      30.169    
  22.792      17.652      14.120      11.696      10.000      8.7963      7.9467      7.3681      7.0003      6.7982    
  6.7982      6.8617      7.0612      7.4243      7.9958      8.8351      10.024      11.697      14.086      17.561    
  22.613      29.846      40.743      56.625      77.342      101.15      125.56      148.68      170.26      191.53    
  213.86      237.03      258.49      274.01      279.72      274.01      258.49      237.03      213.86      191.53    
  170.26      148.68      125.56      101.15      77.342      56.625      40.743      29.846      22.613      17.561    
  14.086      11.697      10.024      8.8351      7.9958      7.4243      7.0612      6.8617      7.0003      7.0612    
  7.2527      7.6015      8.1513      8.9593      10.104      11.710      13.995      17.303      22.102      28.929    
  39.093      53.933      73.446      96.112      119.60      142.01      162.89      183.15      203.94      225.13    
  244.53      258.49      263.60      258.49      244.53      225.13      203.94      183.15      162.89      142.01    
  119.60      96.112      73.446      53.933      39.093      28.929      22.102      17.303      13.995      11.710    
  10.104      8.9593      8.1513      7.6015      7.2527      7.0612      7.3681      7.4243      7.6015      7.9253    
  8.4373      9.1921      10.262      11.760      13.879      16.928      21.331      27.556      36.630      49.885    
  67.540      88.418      110.47      131.85      151.82      170.84      189.73      208.39      225.13      237.03    
  241.37      237.03      225.13      208.39      189.73      170.84      151.82      131.85      110.47      88.418    
  67.540      49.885      36.630      27.556      21.331      16.928      13.879      11.760      10.262      9.1921    
  8.4373      7.9253      7.6015      7.4243      7.9467      7.9958      8.1513      8.4373      8.8936      9.5716    
  10.538      11.890      13.792      16.509      20.411      25.911      33.699      45.025      60.354      78.937    
  99.131      119.22      138.24      156.17      173.38      189.73      203.94      213.86      217.44      213.86    
  203.94      189.73      173.38      156.17      138.24      119.22      99.131      78.937      60.354      45.025    
  33.699      25.911      20.411      16.509      13.792      11.890      10.538      9.5716      8.8936      8.4373    
  8.1513      7.9958      8.7963      8.8351      8.9593      9.1921      9.5716      10.147      10.978      12.150    
  13.795      16.131      19.467      24.169      30.654      39.926      52.673      68.596      86.543      105.07    
  123.08      140.14      156.17      170.84      183.15      191.53      194.53      191.53      183.15      170.84    
  156.17      140.14      123.08      105.07      86.543      68.596      52.673      39.926      30.654      24.169    
  19.467      16.131      13.795      12.150      10.978      10.147      9.5716      9.1921      8.9593      8.8351    
  10.000      10.024      10.104      10.262      10.538      10.978      11.641      12.598      13.955      15.881    
  18.622      22.489      27.775      35.080      45.205      58.261      73.605      90.164      106.90      123.08    
  138.24      151.82      162.89      170.26      172.86      170.26      162.89      151.82      138.24      123.08    
  106.90      90.164      73.605      58.261      45.205      35.080      27.775      22.489      18.622      15.881    
  13.955      12.598      11.641      10.978      10.538      10.262      10.104      10.024      11.696      11.697    
  11.710      11.760      11.890      12.150      12.598      13.299      14.336      15.835      17.981      21.021    
  25.211      30.816      38.495      48.661      61.130      75.248      90.164      105.07      119.22      131.85    
  142.01      148.68      151.01      148.68      142.01      131.85      119.22      105.07      90.164      75.248    
  61.130      48.661      38.495      30.816      25.211      21.021      17.981      15.835      14.336      13.299    
  12.598      12.150      11.890      11.760      11.710      11.697      14.120      14.086      13.995      13.879    
  13.792      13.795      13.955      14.336      15.007      16.057      17.617      19.871      23.027      27.264    
  32.862      40.338      49.850      61.130      73.605      86.543      99.131      110.47      119.60      125.56    
  127.64      125.56      119.60      110.47      99.131      86.543      73.605      61.130      49.850      40.338    
  32.862      27.264      23.027      19.871      17.617      16.057      15.007      14.336      13.955      13.795    
  13.792      13.879      13.995      14.086      17.652      17.561      17.303      16.928      16.509      16.131    
  15.881      15.835      16.057      16.612      17.587      19.101      21.307      24.361      28.369      33.582    
  40.338      48.661      58.261      68.596      78.937      88.418      96.112      101.15      102.91      101.15    
  96.112      88.418      78.937      68.596      58.261      48.661      40.338      33.582      28.369      24.361    
  21.307      19.101      17.587      16.612      16.057      15.835      15.881      16.131      16.509      16.928    
  17.303      17.561      22.792      22.613      22.102      21.331      20.411      19.467      18.622      17.981    
  17.617      17.587      17.940      18.743      20.087      22.083      24.828      28.369      32.862      38.495    
  45.205      52.673      60.354      67.540      73.446      77.342      78.704      77.342      73.446      67.540    
  60.354      52.673      45.205      38.495      32.862      28.369      24.828      22.083      20.087      18.743    
  17.940      17.587      17.617      17.981      18.622      19.467      20.411      21.331      22.102      22.613    
  30.169      29.846      28.929      27.556      25.911      24.169      22.489      21.021      19.871      19.101    
  18.743      18.820      19.366      20.433      22.083      24.361      27.264      30.816      35.080      39.926    
  45.025      49.885      53.933      56.625      57.570      56.625      53.933      49.885      45.025      39.926    
  35.080      30.816      27.264      24.361      22.083      20.433      19.366      18.820      18.743      19.101    
  19.871      21.021      22.489      24.169      25.911      27.556      28.929      29.846      41.324      40.743    
  39.093      36.630      33.699      30.654      27.775      25.211      23.027      21.307      20.087      19.366    
  19.129      19.366      20.087      21.307      23.027      25.211      27.775      30.654      33.699      36.630    
  39.093      40.743      41.324      40.743      39.093      36.630      33.699      30.654      27.775      25.211    
  23.027      21.307      20.087      19.366      19.129      19.366      20.087      21.307      23.027      25.211    
  27.775      30.654      33.699      36.630      39.093      40.743      57.570      56.625      53.933      49.885    
  45.025      39.926      35.080      30.816      27.264      24.361      22.083      20.433      19.366      18.820    
  18.743      19.101      19.871      21.021      22.489      24.169      25.911      27.556      28.929      29.846    
  30.169      29.846      28.929      27.556      25.911      24.169      22.489      21.021      19.871      19.101    
  18.743      18.820      19.366      20.433      22.083      24.361      27.264      30.816      35.080      39.926    
  45.025      49.885      53.933      56.625      78.704      77.342      73.446      67.540      60.354      52.673    
  45.205      38.495      32.862      28.369      24.828      22.083      20.087      18.743      17.940      17.587    
  17.617      17.981      18.622      19.467      20.411      21.331      22.102      22.613      22.792      22.613    
  22.102      21.331      20.411      19.467      18.622      17.981      17.617      17.587      17.940      18.743    
  20.087      22.083      24.828      28.369      32.862      38.495      45.205      52.673      60.354      67.540    
  73.446      77.342      102.91      101.15      96.112      88.418      78.937      68.596      58.261      48.661    
  40.338      33.582      28.369      24.361      21.307      19.101      17.587      16.612      16.057      15.835    
  15.881      16.131      16.509      16.928      17.303      17.561      17.652      17.561      17.303      16.928    
  16.509      16.131      15.881      15.835      16.057      16.612      17.587      19.101      21.307      24.361    
  28.369      33.582      40.338      48.661      58.261      68.596      78.937      88.418      96.112      101.15    
  127.64      125.56      119.60      110.47      99.131      86.543      73.605      61.130      49.850      40.338    
  32.862      27.264      23.027      19.871      17.617      16.057      15.007      14.336      13.955      13.795    
  13.792      13.879      13.995      14.086      14.120      14.086      13.995      13.879      13.792      13.795    
  13.955      14.336      15.007      16.057      17.617      19.871      23.027      27.264      32.862      40.338    
  49.850      61.130      73.605      86.543      99.131      110.47      119.60      125.56      151.01      148.68    
  142.01      131.85      119.22      105.07      90.164      75.248      61.130      48.661      38.495      30.816    
  25.211      21.021      17.981      15.835      14.336      13.299      12.598      12.150      11.890      11.760    
  11.710      11.697      11.696      11.697      11.710      11.760      11.890      12.150      12.598      13.299    
  14.336      15.835      17.981      21.021      25.211      30.816      38.495      48.661      61.130      75.248    
  90.164      105.07      119.22      131.85      142.01      148.68      172.86      170.26      162.89      151.82    
  138.24      123.08      106.90      90.164      73.605      58.261      45.205      35.080      27.775      22.489    
  18.622      15.881      13.955      12.598      11.641      10.978      10.538      10.262      10.104      10.024    
  10.000      10.024      10.104      10.262      10.538      10.978      11.641      12.598      13.955      15.881    
  18.622      22.489      27.775      35.080      45.205      58.261      73.605      90.164      106.90      123.08    
  138.24      151.82      162.89      170.26      194.53      191.53      183.15      170.84      156.17      140.14    
  123.08      105.07      86.543      68.596      52.673      39.926      30.654      24.169      19.467      16.131    
  13.795      12.150      10.978      10.147      9.5716      9.1921      8.9593      8.8351      8.7963      8.8351    
  8.9593      9.1921      9.5716      10.147      10.978      12.150      13.795      16.131      19.467      24.169    
  30.654      39.926      52.673      68.596      86.543      105.07      123.08      140.14      156.17      170.84    
  183.15      191.53      217.44      213.86      203.94      189.73      173.38      156.17      138.24      119.22    
  99.131      78.937      60.354      45.025      33.699      25.911      20.411      16.509      13.792      11.890    
  10.538      9.5716      8.8936      8.4373      8.1513      7.9958      7.9467      7.9958      8.1513      8.4373    
  8.8936      9.5716      10.538      11.890      13.792      16.509      20.411      25.911      33.699      45.025    
  60.354      78.937      99.131      119.22      138.24      156.17      173.38      189.73      203.94      213.86    
  241.37      237.03      225.13      208.39      189.73      170.84      151.82      131.85      110.47      88.418    
  67.540      49.885      36.630      27.556      21.331      16.928      13.879      11.760      10.262      9.1921    
  8.4373      7.9253      7.6015      7.4243      7.3681      7.4243      7.6015      7.9253      8.4373      9.1921    
  10.262      11.760      13.879      16.928      21.331      27.556      36.630      49.885      67.540      88.418    
  110.47      131.85      151.82      170.84      189.73      208.39      225.13      237.03      263.60      258.49    
  244.53      225.13      203.94      183.15      162.89      142.01      119.60      96.112      73.446      53.933    
  39.093      28.929      22.102      17.303      13.995      11.710      10.104      8.9593      8.1513      7.6015    
  7.2527      7.0612      7.0003      7.0612      7.2527      7.6015      8.1513      8.9593      10.104      11.710    
  13.995      17.303      22.102      28.929      39.093      53.933      73.446      96.112      119.60      142.01    
  162.89      183.15      203.94      225.13      244.53      258.49      279.72      274.01      258.49      237.03    
  213.86      191.53      170.26      148.68      125.56      101.15      77.342      56.625      40.743      29.846    
  22.613      17.561      14.086      11.697      10.024      8.8351      7.9958      7.4243      7.0612      6.8617    
  6.7982      6.8617      7.0612      7.4243      7.9958      8.8351      10.024      11.697      14.086      17.561    
  22.613      29.846      40.743      56.625      77.342      101.15      125.56      148.68      170.26      191.53    
  213.86      237.03      258.49      274.01      279.72      274.01      258.49      237.03      213.86      191.53    
  170.26      148.68      125.56      101.15      77.342      56.625      40.743      29.846      22.613      17.561    
  14.086      11.697      10.024      8.8351      7.9958      7.4243      7.0612      6.8617      6.7982      6.8617    
  7.0612      7.4243      7.9958      8.8351      10.024      11.697      14.086      17.561      22.613      29.846    
  40.743      56.625      77.342      101.15      125.56      148.68      170.26      191.53      213.86      237.03    
  258.49      274.01      274.01      268.52      253.55      232.83      210.37      188.61      167.71      146.39    
  123.52      99.428      76.007      55.701      40.175      29.530      22.437      17.470      14.052      11.698    
  10.047      8.8732      8.0442      7.4797      7.1212      6.9243      6.8617      6.9243      7.1212      7.4797    
  8.0442      8.8732      10.047      11.698      14.052      17.470      22.437      29.530      40.175      55.701    
  76.007      99.428      123.52      146.39      167.71      188.61      210.37      232.83      253.55      268.52    
  258.49      253.55      240.07      221.31      200.73      180.42      160.48      139.83      117.66      94.479    
  72.191      53.069      38.565      28.633      21.933      17.216      13.961      11.710      10.125      8.9950    
  8.1971      7.6544      7.3101      7.1212      7.0612      7.1212      7.3101      7.6544      8.1971      8.9950    
  10.125      11.710      13.961      17.216      21.933      28.633      38.565      53.069      72.191      94.479    
  117.66      139.83      160.48      180.42      200.73      221.31      240.07      253.55      237.03      232.83    