unknown system                          
   4.20000000000000     
     1.000000    0.000000    0.000000
     0.000000    1.000000    0.000000
     0.000000    0.000000    1.000000
   Pt
     4
Direct
  0.000000  0.000000  0.000000
  0.000000  0.500000  0.500000
  0.500000  0.000000  0.500000
  0.500000  0.500000  0.000000
 
   48   48   48
 0.28564004366E+03 0.27971733462E+03 0.26360080281E+03 0.24136980458E+03 0.21744023667E+03
 0.19452704315E+03 0.17285960152E+03 0.15100961269E+03 0.12763658144E+03 0.10291058047E+03
 0.78704209341E+02 0.57570292039E+02 0.41323717541E+02 0.30168725121E+02 0.22791817033E+02
 0.17652178347E+02 0.14120315062E+02 0.11695576046E+02 0.10000228684E+02 0.87962987863E+01
 0.79466979754E+01 0.73680635274E+01 0.70003016194E+01 0.67982162363E+01 0.67339141480E+01
 0.67982162363E+01 0.70003016194E+01 0.73680635274E+01 0.79466979754E+01 0.87962987863E+01
 0.10000228684E+02 0.11695576046E+02 0.14120315062E+02 0.17652178347E+02 0.22791817033E+02
 0.30168725121E+02 0.41323717541E+02 0.57570292039E+02 0.78704209341E+02 0.10291058047E+03
 0.12763658144E+03 0.15100961269E+03 0.17285960152E+03 0.19452704315E+03 0.21744023667E+03
 0.24136980458E+03 0.26360080281E+03 0.27971733462E+03 0.27971733462E+03 0.27401431066E+03
 0.25848558443E+03 0.23702998956E+03 0.21385611029E+03 0.19153397590E+03 0.17026111779E+03
 0.14867942949E+03 0.12555975444E+03 0.10115307904E+03 0.77341764980E+02 0.56625075170E+02
 0.40742798133E+02 0.29846139799E+02 0.22612839136E+02 0.17560743369E+02 0.14086035705E+02
 0.11696977079E+02 0.10024136786E+02 0.88351149849E+01 0.79958307634E+01 0.74243193611E+01
 0.70611857531E+01 0.68616876967E+01 0.67982162363E+01 0.68616876967E+01 0.70611857531E+01
 0.74243193611E+01 0.79958307634E+01 0.88351149849E+01 0.10024136786E+02 0.11696977079E+02
 0.14086035705E+02 0.17560743369E+02 0.22612839136E+02 0.29846139799E+02 0.40742798133E+02
 0.56625075170E+02 0.77341764980E+02 0.10115307904E+03 0.12555975444E+03 0.14867942949E+03
 0.17026111779E+03 0.19153397590E+03 0.21385611029E+03 0.23702998956E+03 0.25848558443E+03
 0.27401431066E+03 0.26360080281E+03 0.25848558443E+03 0.24452541123E+03 0.22512717591E+03
 0.20393974986E+03 0.18315164839E+03 0.16289295141E+03 0.14201476572E+03 0.11959941413E+03
 0.96112422834E+02 0.73445708871E+02 0.53932562502E+02 0.39093383761E+02 0.28929457940E+02
 0.22101642659E+02 0.17303313505E+02 0.13994645523E+02 0.11709946078E+02 0.10103655770E+02
 0.89592803046E+01 0.81512512147E+01 0.76015229546E+01 0.72526559559E+01 0.70611857531E+01
 0.70003016194E+01 0.70611857531E+01 0.72526559559E+01 0.76015229546E+01 0.81512512147E+01
 0.89592803046E+01 0.10103655770E+02 0.11709946078E+02 0.13994645523E+02 0.17303313505E+02
 0.22101642659E+02 0.28929457940E+02 0.39093383761E+02 0.53932562502E+02 0.73445708871E+02
 0.96112422834E+02 0.11959941413E+03 0.14201476572E+03 0.16289295141E+03 0.18315164839E+03
 0.20393974986E+03 0.22512717591E+03 0.24452541123E+03 0.25848558443E+03 0.24136980458E+03
 0.23702998956E+03 0.22512717591E+03 0.20839476346E+03 0.18973084773E+03 0.17084093661E+03
 0.15181888796E+03 0.13185315422E+03 0.11047339394E+03 0.88418186269E+02 0.67539929678E+02
 0.49884736303E+02 0.36629705230E+02 0.27556442530E+02 0.21331407250E+02 0.16928276494E+02
 0.13879469946E+02 0.11760450680E+02 0.10262194576E+02 0.91921486716E+01 0.84373206451E+01
 0.79253229937E+01 0.76015229546E+01 0.74243193611E+01 0.73680635274E+01 0.74243193611E+01
 0.76015229546E+01 0.79253229937E+01 0.84373206451E+01 0.91921486716E+01 0.10262194576E+02
 0.11760450680E+02 0.13879469946E+02 0.16928276494E+02 0.21331407250E+02 0.27556442530E+02
 0.36629705230E+02 0.49884736303E+02 0.67539929678E+02 0.88418186269E+02 0.11047339394E+03
 0.13185315422E+03 0.15181888796E+03 0.17084093661E+03 0.18973084773E+03 0.20839476346E+03
 0.22512717591E+03 0.23702998956E+03 0.21744023667E+03 0.21385611029E+03 0.20393974986E+03
 0.18973084773E+03 0.17338140260E+03 0.15616772836E+03 0.13824206730E+03 0.11922362397E+03
 0.99130529508E+02 0.78936699804E+02 0.60354167657E+02 0.45025027766E+02 0.33698911534E+02
 0.25910513852E+02 0.20410985262E+02 0.16508657588E+02 0.13792080034E+02 0.11889714887E+02
 0.10537508299E+02 0.95715974933E+01 0.88935737111E+01 0.84373206451E+01 0.81512512147E+01
 0.79958307634E+01 0.79466979754E+01 0.79958307634E+01 0.81512512147E+01 0.84373206451E+01
 0.88935737111E+01 0.95715974933E+01 0.10537508299E+02 0.11889714887E+02 0.13792080034E+02
 0.16508657588E+02 0.20410985262E+02 0.25910513852E+02 0.33698911534E+02 0.45025027766E+02
 0.60354167657E+02 0.78936699804E+02 0.99130529508E+02 0.11922362397E+03 0.13824206730E+03
 0.15616772836E+03 0.17338140260E+03 0.18973084773E+03 0.20393974986E+03 0.21385611029E+03
 0.19452704315E+03 0.19153397590E+03 0.18315164839E+03 0.17084093661E+03 0.15616772836E+03
 0.14014008158E+03 0.12308090964E+03 0.10506729370E+03 0.86542936477E+02 0.68596145033E+02
 0.52672729654E+02 0.39926312418E+02 0.30654208593E+02 0.24168665931E+02 0.19466853095E+02
 0.16130803985E+02 0.13795401220E+02 0.12149638380E+02 0.10978084404E+02 0.10146744654E+02
 0.95715974933E+01 0.91921486716E+01 0.89592803046E+01 0.88351149849E+01 0.87962987863E+01
 0.88351149849E+01 0.89592803046E+01 0.91921486716E+01 0.95715974933E+01 0.10146744654E+02
 0.10978084404E+02 0.12149638380E+02 0.13795401220E+02 0.16130803985E+02 0.19466853095E+02
 0.24168665931E+02 0.30654208593E+02 0.39926312418E+02 0.52672729654E+02 0.68596145033E+02
 0.86542936477E+02 0.10506729370E+03 0.12308090964E+03 0.14014008158E+03 0.15616772836E+03
 0.17084093661E+03 0.18315164839E+03 0.19153397590E+03 0.17285960152E+03 0.17026111779E+03
 0.16289295141E+03 0.15181888796E+03 0.13824206730E+03 0.12308090964E+03 0.10689664789E+03
 0.90164212186E+02 0.73605107704E+02 0.58260890020E+02 0.45204967385E+02 0.35079891535E+02
 0.27774818305E+02 0.22489192604E+02 0.18622411782E+02 0.15880895718E+02 0.13955331817E+02
 0.12597906886E+02 0.11640903138E+02 0.10978084404E+02 0.10537508299E+02 0.10262194576E+02
 0.10103655770E+02 0.10024136786E+02 0.10000228684E+02 0.10024136786E+02 0.10103655770E+02
 0.10262194576E+02 0.10537508299E+02 0.10978084404E+02 0.11640903138E+02 0.12597906886E+02
 0.13955331817E+02 0.15880895718E+02 0.18622411782E+02 0.22489192604E+02 0.27774818305E+02
 0.35079891535E+02 0.45204967385E+02 0.58260890020E+02 0.73605107704E+02 0.90164212186E+02
 0.10689664789E+03 0.12308090964E+03 0.13824206730E+03 0.15181888796E+03 0.16289295141E+03
 0.17026111779E+03 0.15100961269E+03 0.14867942949E+03 0.14201476572E+03 0.13185315422E+03
 0.11922362397E+03 0.10506729370E+03 0.90164212186E+02 0.75247830654E+02 0.61130163311E+02
 0.48660690779E+02 0.38494680255E+02 0.30816368271E+02 0.25211406594E+02 0.21020982906E+02
 0.17980731942E+02 0.15834663228E+02 0.14336285511E+02 0.13298957466E+02 0.12597906886E+02
 0.12149638380E+02 0.11889714887E+02 0.11760450680E+02 0.11709946078E+02 0.11696977079E+02
 0.11695576046E+02 0.11696977079E+02 0.11709946078E+02 0.11760450680E+02 0.11889714887E+02
 0.12149638380E+02 0.12597906886E+02 0.13298957466E+02 0.14336285511E+02 0.15834663228E+02
 0.17980731942E+02 0.21020982906E+02 0.25211406594E+02 0.30816368271E+02 0.38494680255E+02
 0.48660690779E+02 0.61130163311E+02 0.75247830654E+02 0.90164212186E+02 0.10506729370E+03
 0.11922362397E+03 0.13185315422E+03 0.14201476572E+03 0.14867942949E+03 0.12763658144E+03
 0.12555975444E+03 0.11959941413E+03 0.11047339394E+03 0.99130529508E+02 0.86542936477E+02
 0.73605107704E+02 0.61130163311E+02 0.49849999239E+02 0.40337819317E+02 0.32861875057E+02
 0.27263766438E+02 0.23027433856E+02 0.19870667381E+02 0.17617405074E+02 0.16056763359E+02
 0.15006856633E+02 0.14336285511E+02 0.13955331817E+02 0.13795401220E+02 0.13792080034E+02
 0.13879469946E+02 0.13994645523E+02 0.14086035705E+02 0.14120315062E+02 0.14086035705E+02
 0.13994645523E+02 0.13879469946E+02 0.13792080034E+02 0.13795401220E+02 0.13955331817E+02
 0.14336285511E+02 0.15006856633E+02 0.16056763359E+02 0.17617405074E+02 0.19870667381E+02
 0.23027433856E+02 0.27263766438E+02 0.32861875057E+02 0.40337819317E+02 0.49849999239E+02
 0.61130163311E+02 0.73605107704E+02 0.86542936477E+02 0.99130529508E+02 0.11047339394E+03
 0.11959941413E+03 0.12555975444E+03 0.10291058047E+03 0.10115307904E+03 0.96112422834E+02
 0.88418186269E+02 0.78936699804E+02 0.68596145033E+02 0.58260890020E+02 0.48660690779E+02
 0.40337819317E+02 0.33582366588E+02 0.28368873363E+02 0.24361082172E+02 0.21306842314E+02
 0.19100592563E+02 0.17586945507E+02 0.16612475867E+02 0.16056763359E+02 0.15834663228E+02
 0.15880895718E+02 0.16130803985E+02 0.16508657588E+02 0.16928276494E+02 0.17303313505E+02
 0.17560743369E+02 0.17652178347E+02 0.17560743369E+02 0.17303313505E+02 0.16928276494E+02
 0.16508657588E+02 0.16130803985E+02 0.15880895718E+02 0.15834663228E+02 0.16056763359E+02
 0.16612475867E+02 0.17586945507E+02 0.19100592563E+02 0.21306842314E+02 0.24361082172E+02
 0.28368873363E+02 0.33582366588E+02 0.40337819317E+02 0.48660690779E+02 0.58260890020E+02
 0.68596145033E+02 0.78936699804E+02 0.88418186269E+02 0.96112422834E+02 0.10115307904E+03
 0.78704209341E+02 0.77341764980E+02 0.73445708871E+02 0.67539929678E+02 0.60354167657E+02
 0.52672729654E+02 0.45204967385E+02 0.38494680255E+02 0.32861875057E+02 0.28368873363E+02
 0.24828293409E+02 0.22083273602E+02 0.20087139757E+02 0.18742688654E+02 0.17939989779E+02
 0.17586945507E+02 0.17617405074E+02 0.17980731942E+02 0.18622411782E+02 0.19466853095E+02
 0.20410985262E+02 0.21331407250E+02 0.22101642659E+02 0.22612839136E+02 0.22791817033E+02
 0.22612839136E+02 0.22101642659E+02 0.21331407250E+02 0.20410985262E+02 0.19466853095E+02
 0.18622411782E+02 0.17980731942E+02 0.17617405074E+02 0.17586945507E+02 0.17939989779E+02
 0.18742688654E+02 0.20087139757E+02 0.22083273602E+02 0.24828293409E+02 0.28368873363E+02
 0.32861875057E+02 0.38494680255E+02 0.45204967385E+02 0.52672729654E+02 0.60354167657E+02
 0.67539929678E+02 0.73445708871E+02 0.77341764980E+02 0.57570292039E+02 0.56625075170E+02
 0.53932562502E+02 0.49884736303E+02 0.45025027766E+02 0.39926312418E+02 0.35079891535E+02
 0.30816368271E+02 0.27263766438E+02 0.24361082172E+02 0.22083273602E+02 0.20433463429E+02
 0.19366228564E+02 0.18820021301E+02 0.18742688654E+02 0.19100592563E+02 0.19870667381E+02
 0.21020982906E+02 0.22489192604E+02 0.24168665931E+02 0.25910513852E+02 0.27556442530E+02
 0.28929457940E+02 0.29846139799E+02 0.30168725121E+02 0.29846139799E+02 0.28929457940E+02
 0.27556442530E+02 0.25910513852E+02 0.24168665931E+02 0.22489192604E+02 0.21020982906E+02
 0.19870667381E+02 0.19100592563E+02 0.18742688654E+02 0.18820021301E+02 0.19366228564E+02
 0.20433463429E+02 0.22083273602E+02 0.24361082172E+02 0.27263766438E+02 0.30816368271E+02
 0.35079891535E+02 0.39926312418E+02 0.45025027766E+02 0.49884736303E+02 0.53932562502E+02
 0.56625075170E+02 0.41323717541E+02 0.40742798133E+02 0.39093383761E+02 0.36629705230E+02
 0.33698911534E+02 0.30654208593E+02 0.27774818305E+02 0.25211406594E+02 0.23027433856E+02
 0.21306842314E+02 0.20087139757E+02 0.19366228564E+02 0.19128547394E+02 0.19366228564E+02
 0.20087139757E+02 0.21306842314E+02 0.23027433856E+02 0.25211406594E+02 0.27774818305E+02
 0.30654208593E+02 0.33698911534E+02 0.36629705230E+02 0.39093383761E+02 0.40742798133E+02
 0.41323717541E+02 0.40742798133E+02 0.39093383761E+02 0.36629705230E+02 0.33698911534E+02
 0.30654208593E+02 0.27774818305E+02 0.25211406594E+02 0.23027433856E+02 0.21306842314E+02
 0.20087139757E+02 0.19366228564E+02 0.19128547394E+02 0.19366228564E+02 0.20087139757E+02
 0.21306842314E+02 0.23027433856E+02 0.25211406594E+02 0.27774818305E+02 0.30654208593E+02
 0.33698911534E+02 0.36629705230E+02 0.39093383761E+02 0.40742798133E+02 0.30168725121E+02
 0.29846139799E+02 0.28929457940E+02 0.27556442530E+02 0.25910513852E+02 0.24168665931E+02
 0.22489192604E+02 0.21020982906E+02 0.19870667381E+02 0.19100592563E+02 0.18742688654E+02
 0.18820021301E+02 0.19366228564E+02 0.20433463429E+02 0.22083273602E+02 0.24361082172E+02
 0.27263766438E+02 0.30816368271E+02 0.35079891535E+02 0.39926312418E+02 0.45025027766E+02
 0.49884736303E+02 0.53932562502E+02 0.56625075170E+02 0.57570292039E+02 0.56625075170E+02
 0.53932562502E+02 0.49884736303E+02 0.45025027766E+02 0.39926312418E+02 0.35079891535E+02
 0.30816368271E+02 0.27263766438E+02 0.24361082172E+02 0.22083273602E+02 0.20433463429E+02
 0.19366228564E+02 0.18820021301E+02 0.18742688654E+02 0.19100592563E+02 0.19870667381E+02
 0.21020982906E+02 0.22489192604E+02 0.24168665931E+02 0.25910513852E+02 0.27556442530E+02
 0.28929457940E+02 0.29846139799E+02 0.22791817033E+02 0.22612839136E+02 0.22101642659E+02
 0.21331407250E+02 0.20410985262E+02 0.19466853095E+02 0.18622411782E+02 0.17980731942E+02
 0.17617405074E+02 0.17586945507E+02 0.17939989779E+02 0.18742688654E+02 0.20087139757E+02
 0.22083273602E+02 0.24828293409E+02 0.28368873363E+02 0.32861875057E+02 0.38494680255E+02
 0.45204967385E+02 0.52672729654E+02 0.60354167657E+02 0.67539929678E+02 0.73445708871E+02
 0.77341764980E+02 0.78704209341E+02 0.77341764980E+02 0.73445708871E+02 0.67539929678E+02
 0.60354167657E+02 0.52672729654E+02 0.45204967385E+02 0.38494680255E+02 0.32861875057E+02
 0.28368873363E+02 0.24828293409E+02 0.22083273602E+02 0.20087139757E+02 0.18742688654E+02
 0.17939989779E+02 0.17586945507E+02 0.17617405074E+02 0.17980731942E+02 0.18622411782E+02
 0.19466853095E+02 0.20410985262E+02 0.21331407250E+02 0.22101642659E+02 0.22612839136E+02
 0.17652178347E+02 0.17560743369E+02 0.17303313505E+02 0.16928276494E+02 0.16508657588E+02
 0.16130803985E+02 0.15880895718E+02 0.15834663228E+02 0.16056763359E+02 0.16612475867E+02
 0.17586945507E+02 0.19100592563E+02 0.21306842314E+02 0.24361082172E+02 0.28368873363E+02
 0.33582366588E+02 0.40337819317E+02 0.48660690779E+02 0.58260890020E+02 0.68596145033E+02
 0.78936699804E+02 0.88418186269E+02 0.96112422834E+02 0.10115307904E+03 0.10291058047E+03
 0.10115307904E+03 0.96112422834E+02 0.88418186269E+02 0.78936699804E+02 0.68596145033E+02
 0.58260890020E+02 0.48660690779E+02 0.40337819317E+02 0.33582366588E+02 0.28368873363E+02
 0.24361082172E+02 0.21306842314E+02 0.19100592563E+02 0.17586945507E+02 0.16612475867E+02
 0.16056763359E+02 0.15834663228E+02 0.15880895718E+02 0.16130803985E+02 0.16508657588E+02
 0.16928276494E+02 0.17303313505E+02 0.17560743369E+02 0.14120315062E+02 0.14086035705E+02
 0.13994645523E+02 0.13879469946E+02 0.13792080034E+02 0.13795401220E+02 0.13955331817E+02
 0.14336285511E+02 0.15006856633E+02 0.16056763359E+02 0.17617405074E+02 0.19870667381E+02
 0.23027433856E+02 0.27263766438E+02 0.32861875057E+02 0.40337819317E+02 0.49849999239E+02
 0.61130163311E+02 0.73605107704E+02 0.86542936477E+02 0.99130529508E+02 0.11047339394E+03
 0.11959941413E+03 0.12555975444E+03 0.12763658144E+03 0.12555975444E+03 0.11959941413E+03
 0.11047339394E+03 0.99130529508E+02 0.86542936477E+02 0.73605107704E+02 0.61130163311E+02
 0.49849999239E+02 0.40337819317E+02 0.32861875057E+02 0.27263766438E+02 0.23027433856E+02
 0.19870667381E+02 0.17617405074E+02 0.16056763359E+02 0.15006856633E+02 0.14336285511E+02
 0.13955331817E+02 0.13795401220E+02 0.13792080034E+02 0.13879469946E+02 0.13994645523E+02
 0.14086035705E+02 0.11695576046E+02 0.11696977079E+02 0.11709946078E+02 0.11760450680E+02
 0.11889714887E+02 0.12149638380E+02 0.12597906886E+02 0.13298957466E+02 0.14336285511E+02
 0.15834663228E+02 0.17980731942E+02 0.21020982906E+02 0.25211406594E+02 0.30816368271E+02
 0.38494680255E+02 0.48660690779E+02 0.61130163311E+02 0.75247830654E+02 0.90164212186E+02
 0.10506729370E+03 0.11922362397E+03 0.13185315422E+03 0.14201476572E+03 0.14867942949E+03
 0.15100961269E+03 0.14867942949E+03 0.14201476572E+03 0.13185315422E+03 0.11922362397E+03
 0.10506729370E+03 0.90164212186E+02 0.75247830654E+02 0.61130163311E+02 0.48660690779E+02
 0.38494680255E+02 0.30816368271E+02 0.25211406594E+02 0.21020982906E+02 0.17980731942E+02
 0.15834663228E+02 0.14336285511E+02 0.13298957466E+02 0.12597906886E+02 0.12149638380E+02
 0.11889714887E+02 0.11760450680E+02 0.11709946078E+02 0.11696977079E+02 0.10000228684E+02
 0.10024136786E+02 0.10103655770E+02 0.10262194576E+02 0.10537508299E+02 0.10978084404E+02
 0.11640903138E+02 0.12597906886E+02 0.13955331817E+02 0.15880895718E+02 0.18622411782E+02
 0.22489192604E+02 0.27774818305E+02 0.35079891535E+02 0.45204967385E+02 0.58260890020E+02
 0.73605107704E+02 0.90164212186E+02 0.10689664789E+03 0.12308090964E+03 0.13824206730E+03
 0.15181888796E+03 0.16289295141E+03 0.17026111779E+03 0.17285960152E+03 0.17026111779E+03
 0.16289295141E+03 0.15181888796E+03 0.13824206730E+03 0.12308090964E+03 0.10689664789E+03
 0.90164212186E+02 0.73605107704E+02 0.58260890020E+02 0.45204967385E+02 0.35079891535E+02
 0.27774818305E+02 0.22489192604E+02 0.18622411782E+02 0.15880895718E+02 0.13955331817E+02
 0.12597906886E+02 0.11640903138E+02 0.10978084404E+02 0.10537508299E+02 0.10262194576E+02
 0.10103655770E+02 0.10024136786E+02 0.87962987863E+01 0.88351149849E+01 0.89592803046E+01
 0.91921486716E+01 0.95715974933E+01 0.10146744654E+02 0.10978084404E+02 0.12149638380E+02
 0.13795401220E+02 0.16130803985E+02 0.19466853095E+02 0.24168665931E+02 0.30654208593E+02
 0.39926312418E+02 0.52672729654E+02 0.68596145033E+02 0.86542936477E+02 0.10506729370E+03
 0.12308090964E+03 0.14014008158E+03 0.15616772836E+03 0.17084093661E+03 0.18315164839E+03
 0.19153397590E+03 0.19452704315E+03 0.19153397590E+03 0.18315164839E+03 0.17084093661E+03
 0.15616772836E+03 0.14014008158E+03 0.12308090964E+03 0.10506729370E+03 0.86542936477E+02
 0.68596145033E+02 0.52672729654E+02 0.39926312418E+02 0.30654208593E+02 0.24168665931E+02
 0.19466853095E+02 0.16130803985E+02 0.13795401220E+02 0.12149638380E+02 0.10978084404E+02
 0.10146744654E+02 0.95715974933E+01 0.91921486716E+01 0.89592803046E+01 0.88351149849E+01
 0.79466979754E+01 0.79958307634E+01 0.81512512147E+01 0.84373206451E+01 0.88935737111E+01
 0.95715974933E+01 0.10537508299E+02 0.11889714887E+02 0.13792080034E+02 0.16508657588E+02
 0.20410985262E+02 0.25910513852E+02 0.33698911534E+02 0.45025027766E+02 0.60354167657E+02
 0.78936699804E+02 0.99130529508E+02 0.11922362397E+03 0.13824206730E+03 0.15616772836E+03
 0.17338140260E+03 0.18973084773E+03 0.20393974986E+03 0.21385611029E+03 0.21744023667E+03
 0.21385611029E+03 0.20393974986E+03 0.18973084773E+03 0.17338140260E+03 0.15616772836E+03
 0.13824206730E+03 0.11922362397E+03 0.99130529508E+02 0.78936699804E+02 0.60354167657E+02
 0.45025027766E+02 0.33698911534E+02 0.25910513852E+02 0.20410985262E+02 0.16508657588E+02
 0.13792080034E+02 0.11889714887E+02 0.10537508299E+02 0.95715974933E+01 0.88935737111E+01
 0.84373206451E+01 0.81512512147E+01 0.79958307634E+01 0.73680635274E+01 0.74243193611E+01
 0.76015229546E+01 0.79253229937E+01 0.84373206451E+01 0.91921486716E+01 0.10262194576E+02
 0.11760450680E+02 0.13879469946E+02 0.16928276494E+02 0.21331407250E+02 0.27556442530E+02
 0.36629705230E+02 0.49884736303E+02 0.67539929678E+02 0.88418186269E+02 0.11047339394E+03
 0.13185315422E+03 0.15181888796E+03 0.17084093661E+03 0.18973084773E+03 0.20839476346E+03
 0.22512717591E+03 0.23702998956E+03 0.24136980458E+03 0.23702998956E+03 0.22512717591E+03
 0.20839476346E+03 0.18973084773E+03 0.17084093661E+03 0.15181888796E+03 0.13185315422E+03
 0.11047339394E+03 0.88418186269E+02 0.67539929678E+02 0.49884736303E+02 0.36629705230E+02
 0.27556442530E+02 0.21331407250E+02 0.16928276494E+02 0.13879469946E+02 0.11760450680E+02
 0.10262194576E+02 0.91921486716E+01 0.84373206451E+01 0.79253229937E+01 0.76015229546E+01
 0.74243193611E+01 0.70003016194E+01 0.70611857531E+01 0.72526559559E+01 0.76015229546E+01
 0.81512512147E+01 0.89592803046E+01 0.10103655770E+02 0.11709946078E+02 0.13994645523E+02
 0.17303313505E+02 0.22101642659E+02 0.28929457940E+02 0.39093383761E+02 0.53932562502E+02
 0.73445708871E+02 0.96112422834E+02 0.11959941413E+03 0.14201476572E+03 0.16289295141E+03
 0.18315164839E+03 0.20393974986E+03 0.22512717591E+03 0.24452541123E+03 0.25848558443E+03
 0.26360080281E+03 0.25848558443E+03 0.24452541123E+03 0.22512717591E+03 0.20393974986E+03
 0.18315164839E+03 0.16289295141E+03 0.14201476572E+03 0.11959941413E+03 0.96112422834E+02
 0.73445708871E+02 0.53932562502E+02 0.39093383761E+02 0.28929457940E+02 0.22101642659E+02
 0.17303313505E+02 0.13994645523E+02 0.11709946078E+02 0.10103655770E+02 0.89592803046E+01
 0.81512512147E+01 0.76015229546E+01 0.72526559559E+01 0.70611857531E+01 0.67982162363E+01
 0.68616876967E+01 0.70611857531E+01 0.74243193611E+01 0.79958307634E+01 0.88351149849E+01
 0.10024136786E+02 0.11696977079E+02 0.14086035705E+02 0.17560743369E+02 0.22612839136E+02
 0.29846139799E+02 0.40742798133E+02 0.56625075170E+02 0.77341764980E+02 0.10115307904E+03
 0.12555975444E+03 0.14867942949E+03 0.17026111779E+03 0.19153397590E+03 0.21385611029E+03
 0.23702998956E+03 0.25848558443E+03 0.27401431066E+03 0.27971733462E+03 0.27401431066E+03
 0.25848558443E+03 0.23702998956E+03 0.21385611029E+03 0.19153397590E+03 0.17026111779E+03
 0.14867942949E+03 0.12555975444E+03 0.10115307904E+03 0.77341764980E+02 0.56625075170E+02
 0.40742798133E+02 0.29846139799E+02 0.22612839136E+02 0.17560743369E+02 0.14086035705E+02
 0.11696977079E+02 0.10024136786E+02 0.88351149849E+01 0.79958307634E+01 0.74243193611E+01
 0.70611857531E+01 0.68616876967E+01 0.67339141480E+01 0.67982162363E+01 0.70003016194E+01
 0.73680635274E+01 0.79466979754E+01 0.87962987863E+01 0.10000228684E+02 0.11695576046E+02
 0.14120315062E+02 0.17652178347E+02 0.22791817033E+02 0.30168725121E+02 0.41323717541E+02
 0.57570292039E+02 0.78704209341E+02 0.10291058047E+03 0.12763658144E+03 0.15100961269E+03
 0.17285960152E+03 0.19452704315E+03 0.21744023667E+03 0.24136980458E+03 0.26360080281E+03
 0.27971733462E+03 0.28564004366E+03 0.27971733462E+03 0.26360080281E+03 0.24136980458E+03
 0.21744023667E+03 0.19452704315E+03 0.17285960152E+03 0.15100961269E+03 0.12763658144E+03
 0.10291058047E+03 0.78704209341E+02 0.57570292039E+02 0.41323717541E+02 0.30168725121E+02
 0.22791817033E+02 0.17652178347E+02 0.14120315062E+02 0.11695576046E+02 0.10000228684E+02
 0.87962987863E+01 0.79466979754E+01 0.73680635274E+01 0.70003016194E+01 0.67982162363E+01
 0.67982162363E+01 0.68616876967E+01 0.70611857531E+01 0.74243193611E+01 0.79958307634E+01
 0.88351149849E+01 0.10024136786E+02 0.11696977079E+02 0.14086035705E+02 0.17560743369E+02
 0.22612839136E+02 0.29846139799E+02 0.40742798133E+02 0.56625075170E+02 0.77341764980E+02
 0.10115307904E+03 0.12555975444E+03 0.14867942949E+03 0.17026111779E+03 0.19153397590E+03
 0.21385611029E+03 0.23702998956E+03 0.25848558443E+03 0.27401431066E+03 0.27971733462E+03
 0.27401431066E+03 0.25848558443E+03 0.23702998956E+03 0.21385611029E+03 0.19153397590E+03
 0.17026111779E+03 0.14867942949E+03 0.12555975444E+03 0.10115307904E+03 0.77341764980E+02
 0.56625075170E+02 0.40742798133E+02 0.29846139799E+02 0.22612839136E+02 0.17560743369E+02
 0.14086035705E+02 0.11696977079E+02 0.10024136786E+02 0.88351149849E+01 0.79958307634E+01
 0.74243193611E+01 0.70611857531E+01 0.68616876967E+01 0.70003016194E+01 0.70611857531E+01
 0.72526559559E+01 0.76015229546E+01 0.81512512147E+01 0.89592803046E+01 0.10103655770E+02
 0.11709946078E+02 0.13994645523E+02 0.17303313505E+02 0.22101642659E+02 0.28929457940E+02
 0.39093383761E+02 0.53932562502E+02 0.73445708871E+02 0.96112422834E+02 0.11959941413E+03
 0.14201476572E+03 0.16289295141E+03 0.18315164839E+03 0.20393974986E+03 0.22512717591E+03
 0.24452541123E+03 0.25848558443E+03 0.26360080281E+03 0.25848558443E+03 0.24452541123E+03
 0.22512717591E+03 0.20393974986E+03 0.18315164839E+03 0.16289295141E+03 0.14201476572E+03
 0.11959941413E+03 0.96112422834E+02 0.73445708871E+02 0.53932562502E+02 0.39093383761E+02
 0.28929457940E+02 0.22101642659E+02 0.17303313505E+02 0.13994645523E+02 0.11709946078E+02
 0.10103655770E+02 0.89592803046E+01 0.81512512147E+01 0.76015229546E+01 0.72526559559E+01
 0.70611857531E+01 0.73680635274E+01 0.74243193611E+01 0.76015229546E+01 0.79253229937E+01
 0.84373206451E+01 0.91921486716E+01 0.10262194576E+02 0.11760450680E+02 0.13879469946E+02
 0.16928276494E+02 0.21331407250E+02 0.27556442530E+02 0.36629705230E+02 0.49884736303E+02
 0.67539929678E+02 0.88418186269E+02 0.11047339394E+03 0.13185315422E+03 0.15181888796E+03
 0.17084093661E+03 0.18973084773E+03 0.20839476346E+03 0.22512717591E+03 0.23702998956E+03
 0.24136980458E+03 0.23702998956E+03 0.22512717591E+03 0.20839476346E+03 0.18973084773E+03
 0.17084093661E+03 0.15181888796E+03 0.13185315422E+03 0.11047339394E+03 0.88418186269E+02
 0.67539929678E+02 0.49884736303E+02 0.36629705230E+02 0.27556442530E+02 0.21331407250E+02
 0.16928276494E+02 0.13879469946E+02 0.11760450680E+02 0.10262194576E+02 0.91921486716E+01
 0.84373206451E+01 0.79253229937E+01 0.76015229546E+01 0.74243193611E+01 0.79466979754E+01
 0.79958307634E+01 0.81512512147E+01 0.84373206451E+01 0.88935737111E+01 0.95715974933E+01
 0.10537508299E+02 0.11889714887E+02 0.13792080034E+02 0.16508657588E+02 0.20410985262E+02
 0.25910513852E+02 0.33698911534E+02 0.45025027766E+02 0.60354167657E+02 0.78936699804E+02
 0.99130529508E+02 0.11922362397E+03 0.13824206730E+03 0.15616772836E+03 0.17338140260E+03
 0.18973084773E+03 0.20393974986E+03 0.21385611029E+03 0.21744023667E+03 0.21385611029E+03
 0.20393974986E+03 0.18973084773E+03 0.17338140260E+03 0.15616772836E+03 0.13824206730E+03
 0.11922362397E+03 0.99130529508E+02 0.78936699804E+02 0.60354167657E+02 0.45025027766E+02
 0.33698911534E+02 0.25910513852E+02 0.20410985262E+02 0.16508657588E+02 0.13792080034E+02
 0.11889714887E+02 0.10537508299E+02 0.95715974933E+01 0.88935737111E+01 0.84373206451E+01
 0.81512512147E+01 0.79958307634E+01 0.87962987863E+01 0.88351149849E+01 0.89592803046E+01
 0.91921486716E+01 0.95715974933E+01 0.10146744654E+02 0.10978084404E+02 0.12149638380E+02
 0.13795401220E+02 0.16130803985E+02 0.19466853095E+02 0.24168665931E+02 0.30654208593E+02
 0.39926312418E+02 0.52672729654E+02 0.68596145033E+02 0.86542936477E+02 0.10506729370E+03
 0.12308090964E+03 0.14014008158E+03 0.15616772836E+03 0.17084093661E+03 0.18315164839E+03
 0.19153397590E+03 0.19452704315E+03 0.19153397590E+03 0.18315164839E+03 0.17084093661E+03
 0.15616772836E+03 0.14014008158E+03 0.12308090964E+03 0.10506729370E+03 0.86542936477E+02
 0.68596145033E+02 0.52672729654E+02 0.39926312418E+02 0.30654208593E+02 0.24168665931E+02
 0.19466853095E+02 0.16130803985E+02 0.13795401220E+02 0.12149638380E+02 0.10978084404E+02
 0.10146744654E+02 0.95715974933E+01 0.91921486716E+01 0.89592803046E+01 0.88351149849E+01
 0.10000228684E+02 0.10024136786E+02 0.10103655770E+02 0.10262194576E+02 0.10537508299E+02
 0.10978084404E+02 0.11640903138E+02 0.12597906886E+02 0.13955331817E+02 0.15880895718E+02
 0.18622411782E+02 0.22489192604E+02 0.27774818305E+02 0.35079891535E+02 0.45204967385E+02
 0.58260890020E+02 0.73605107704E+02 0.90164212186E+02 0.10689664789E+03 0.12308090964E+03
 0.13824206730E+03 0.15181888796E+03 0.16289295141E+03 0.17026111779E+03 0.17285960152E+03
 0.17026111779E+03 0.16289295141E+03 0.15181888796E+03 0.13824206730E+03 0.12308090964E+03
 0.10689664789E+03 0.90164212186E+02 0.73605107704E+02 0.58260890020E+02 0.45204967385E+02
 0.35079891535E+02 0.27774818305E+02 0.22489192604E+02 0.18622411782E+02 0.15880895718E+02
 0.13955331817E+02 0.12597906886E+02 0.11640903138E+02 0.10978084404E+02 0.10537508299E+02
 0.10262194576E+02 0.10103655770E+02 0.10024136786E+02 0.11695576046E+02 0.11696977079E+02
 0.11709946078E+02 0.11760450680E+02 0.11889714887E+02 0.12149638380E+02 0.12597906886E+02
 0.13298957466E+02 0.14336285511E+02 0.15834663228E+02 0.17980731942E+02 0.21020982906E+02
 0.25211406594E+02 0.30816368271E+02 0.38494680255E+02 0.48660690779E+02 0.61130163311E+02
 0.75247830654E+02 0.90164212186E+02 0.10506729370E+03 0.11922362397E+03 0.13185315422E+03
 0.14201476572E+03 0.14867942949E+03 0.15100961269E+03 0.14867942949E+03 0.14201476572E+03
 0.13185315422E+03 0.11922362397E+03 0.10506729370E+03 0.90164212186E+02 0.75247830654E+02
 0.61130163311E+02 0.48660690779E+02 0.38494680255E+02 0.30816368271E+02 0.25211406594E+02
 0.21020982906E+02 0.17980731942E+02 0.15834663228E+02 0.14336285511E+02 0.13298957466E+02
 0.12597906886E+02 0.12149638380E+02 0.11889714887E+02 0.11760450680E+02 0.11709946078E+02
 0.11696977079E+02 0.14120315062E+02 0.14086035705E+02 0.13994645523E+02 0.13879469946E+02
 0.13792080034E+02 0.13795401220E+02 0.13955331817E+02 0.14336285511E+02 0.15006856633E+02
 0.16056763359E+02 0.17617405074E+02 0.19870667381E+02 0.23027433856E+02 0.27263766438E+02
 0.32861875057E+02 0.40337819317E+02 0.49849999239E+02 0.61130163311E+02 0.73605107704E+02
 0.86542936477E+02 0.99130529508E+02 0.11047339394E+03 0.11959941413E+03 0.12555975444E+03
 0.12763658144E+03 0.12555975444E+03 0.11959941413E+03 0.11047339394E+03 0.99130529508E+02
 0.86542936477E+02 0.73605107704E+02 0.61130163311E+02 0.49849999239E+02 0.40337819317E+02
 0.32861875057E+02 0.27263766438E+02 0.23027433856E+02 0.19870667381E+02 0.17617405074E+02
 0.16056763359E+02 0.15006856633E+02 0.14336285511E+02 0.13955331817E+02 0.13795401220E+02
 0.13792080034E+02 0.13879469946E+02 0.13994645523E+02 0.14086035705E+02 0.17652178347E+02
 0.17560743369E+02 0.17303313505E+02 0.16928276494E+02 0.16508657588E+02 0.16130803985E+02
 0.15880895718E+02 0.15834663228E+02 0.16056763359E+02 0.16612475867E+02 0.17586945507E+02
 0.19100592563E+02 0.21306842314E+02 0.24361082172E+02 0.28368873363E+02 0.33582366588E+02
 0.40337819317E+02 0.48660690779E+02 0.58260890020E+02 0.68596145033E+02 0.78936699804E+02
 0.88418186269E+02 0.96112422834E+02 0.10115307904E+03 0.10291058047E+03 0.10115307904E+03
 0.96112422834E+02 0.88418186269E+02 0.78936699804E+02 0.68596145033E+02 0.58260890020E+02
 0.48660690779E+02 0.40337819317E+02 0.33582366588E+02 0.28368873363E+02 0.24361082172E+02
 0.21306842314E+02 0.19100592563E+02 0.17586945507E+02 0.16612475867E+02 0.16056763359E+02