   4   4   0   0
  0.1852200E+02  0.4200000E-09  0.4200000E-09  0.4200000E-09  0.5000000E-15
  1.000000000000000E-004
  CAR 
 unknown system                          
     12.86817205     -5.10045547  301      4.97278425      1.00000000
     -5.100  0.0000E+00  0.0000E+00
     -5.041  0.0000E+00  0.0000E+00
     -4.981  0.0000E+00  0.0000E+00
     -4.921  0.0000E+00  0.0000E+00
     -4.861  0.0000E+00  0.0000E+00
     -4.801  0.0000E+00  0.0000E+00
     -4.741  0.0000E+00  0.0000E+00
     -4.681  0.0000E+00  0.0000E+00
     -4.621  0.0000E+00  0.0000E+00
     -4.561  0.0000E+00  0.0000E+00
     -4.502  0.0000E+00  0.0000E+00
     -4.442  0.0000E+00  0.0000E+00
     -4.382  0.0000E+00  0.0000E+00
     -4.322  0.0000E+00  0.0000E+00
     -4.262  0.0000E+00  0.0000E+00
     -4.202  0.0000E+00  0.0000E+00
     -4.142  0.0000E+00  0.0000E+00
     -4.082  0.0000E+00  0.0000E+00
     -4.022  0.0000E+00  0.0000E+00
     -3.962  0.0000E+00  0.0000E+00
     -3.903  0.0000E+00  0.0000E+00
     -3.843  0.0000E+00  0.0000E+00
     -3.783  0.0000E+00  0.0000E+00
     -3.723  0.0000E+00  0.0000E+00
     -3.663  0.0000E+00  0.0000E+00
     -3.603  0.0000E+00  0.0000E+00
     -3.543  0.0000E+00  0.0000E+00
     -3.483  0.0000E+00  0.0000E+00
     -3.423  0.0000E+00  0.0000E+00
     -3.363  0.0000E+00  0.0000E+00
     -3.304  0.0000E+00  0.0000E+00
     -3.244  0.0000E+00  0.0000E+00
     -3.184  0.0000E+00  0.0000E+00
     -3.124  0.0000E+00  0.0000E+00
     -3.064  0.2776E-02  0.3372E-04
     -3.004  0.1940E-01  0.6229E-03
     -2.944  0.5101E-01  0.2657E-02
     -2.884  0.9763E-01  0.7033E-02
     -2.824  0.1505E+00  0.1452E-01
     -2.765  0.1889E+00  0.2476E-01
     -2.705  0.2120E+00  0.3685E-01
     -2.645  0.2197E+00  0.4985E-01
     -2.585  0.2248E+00  0.6313E-01
     -2.525  0.2363E+00  0.7691E-01
     -2.465  0.2542E+00  0.9156E-01
     -2.405  0.2771E+00  0.1075E+00
     -2.345  0.3013E+00  0.1248E+00
     -2.285  0.3266E+00  0.1436E+00
     -2.225  0.3528E+00  0.1639E+00
     -2.166  0.3765E+00  0.1858E+00
     -2.106  0.3938E+00  0.2089E+00
     -2.046  0.4048E+00  0.2328E+00
     -1.986  0.4137E+00  0.2573E+00
     -1.926  0.4279E+00  0.2825E+00
     -1.866  0.4471E+00  0.3087E+00
     -1.806  0.4674E+00  0.3361E+00
     -1.746  0.4868E+00  0.3647E+00
     -1.686  0.5064E+00  0.3944E+00
     -1.627  0.5263E+00  0.4253E+00
     -1.567  0.5465E+00  0.4575E+00
     -1.507  0.5670E+00  0.4908E+00
     -1.447  0.5878E+00  0.5254E+00
     -1.387  0.6118E+00  0.5613E+00
     -1.327  0.6405E+00  0.5988E+00
     -1.267  0.6708E+00  0.6380E+00
     -1.207  0.8149E+00  0.6818E+00
     -1.147  0.9782E+00  0.7356E+00
     -1.087  0.1125E+01  0.7987E+00
     -1.028  0.1119E+01  0.8680E+00
     -0.968  0.1035E+01  0.9324E+00
     -0.908  0.1048E+01  0.9940E+00
     -0.848  0.1092E+01  0.1058E+01
     -0.788  0.1129E+01  0.1125E+01
     -0.728  0.1160E+01  0.1193E+01
     -0.668  0.1184E+01  0.1263E+01
     -0.608  0.1202E+01  0.1335E+01
     -0.548  0.1447E+01  0.1423E+01
     -0.489  0.1657E+01  0.1514E+01
     -0.429  0.2303E+01  0.1635E+01
     -0.369  0.1038E+01  0.1765E+01
     -0.309  0.8649E+00  0.1822E+01
     -0.249  0.1488E+01  0.1916E+01
     -0.189  0.1860E+01  0.2016E+01
     -0.129  0.2472E+01  0.2144E+01
     -0.069  0.2786E+01  0.2302E+01
     -0.009  0.3740E+01  0.2517E+01
      0.051  0.4551E+01  0.2763E+01
      0.110  0.5516E+01  0.3063E+01
      0.170  0.5715E+01  0.3403E+01
      0.230  0.5787E+01  0.3752E+01
      0.290  0.5619E+01  0.4091E+01
      0.350  0.5948E+01  0.4437E+01
      0.410  0.6541E+01  0.4809E+01
      0.470  0.6856E+01  0.5212E+01
      0.530  0.1051E+02  0.5646E+01
      0.590  0.7229E+01  0.6087E+01
      0.650  0.6926E+01  0.6507E+01
      0.709  0.6856E+01  0.6920E+01
      0.769  0.6638E+01  0.7327E+01
      0.829  0.6849E+01  0.7730E+01
      0.889  0.6734E+01  0.8138E+01
      0.949  0.7438E+01  0.8546E+01
      1.009  0.5701E+01  0.9015E+01
      1.069  0.4481E+01  0.9326E+01
      1.129  0.4239E+01  0.9587E+01
      1.189  0.4059E+01  0.9835E+01
      1.248  0.3946E+01  0.1007E+02
      1.308  0.4111E+01  0.1031E+02
      1.368  0.9688E+01  0.1058E+02
      1.428  0.6632E+01  0.1106E+02
      1.488  0.7093E+01  0.1148E+02
      1.548  0.7586E+01  0.1192E+02
      1.608  0.7479E+01  0.1237E+02
      1.668  0.7081E+01  0.1280E+02
      1.728  0.7175E+01  0.1322E+02
      1.788  0.7285E+01  0.1366E+02
      1.847  0.7639E+01  0.1410E+02
      1.907  0.7974E+01  0.1457E+02
      1.967  0.7341E+01  0.1502E+02
      2.027  0.7619E+01  0.1548E+02
      2.087  0.8288E+01  0.1597E+02
      2.147  0.1309E+02  0.1659E+02
      2.207  0.9665E+01  0.1727E+02
      2.267  0.7608E+01  0.1774E+02
      2.327  0.1028E+02  0.1831E+02
      2.386  0.1112E+02  0.1891E+02
      2.446  0.1750E+02  0.1974E+02
      2.506  0.1419E+02  0.2063E+02
      2.566  0.1367E+02  0.2147E+02
      2.626  0.9570E+01  0.2218E+02
      2.686  0.6591E+01  0.2268E+02
      2.746  0.4649E+01  0.2300E+02
      2.806  0.6495E+01  0.2330E+02
      2.866  0.6003E+01  0.2368E+02
      2.926  0.5581E+01  0.2403E+02
      2.985  0.5765E+01  0.2436E+02
      3.045  0.8180E+01  0.2476E+02
      3.105  0.9507E+01  0.2529E+02
      3.165  0.9523E+01  0.2588E+02
      3.225  0.7517E+01  0.2641E+02
      3.285  0.7536E+01  0.2685E+02
      3.345  0.8172E+01  0.2732E+02
      3.405  0.8716E+01  0.2780E+02
      3.465  0.7056E+01  0.2831E+02
      3.524  0.6453E+01  0.2871E+02
      3.584  0.6184E+01  0.2909E+02
      3.644  0.5800E+01  0.2946E+02
      3.704  0.7475E+01  0.2984E+02
      3.764  0.7411E+01  0.3033E+02
      3.824  0.1263E+02  0.3090E+02
      3.884  0.9727E+01  0.3148E+02
      3.944  0.7345E+01  0.3194E+02
      4.004  0.6896E+01  0.3237E+02
      4.064  0.6493E+01  0.3277E+02
      4.123  0.5740E+01  0.3314E+02
      4.183  0.6239E+01  0.3350E+02
      4.243  0.6237E+01  0.3387E+02
      4.303  0.6501E+01  0.3425E+02
      4.363  0.6846E+01  0.3465E+02
      4.423  0.6914E+01  0.3506E+02
      4.483  0.7281E+01  0.3552E+02
      4.543  0.7625E+01  0.3597E+02
      4.603  0.7275E+01  0.3642E+02
      4.662  0.7315E+01  0.3685E+02
      4.722  0.7728E+01  0.3730E+02
      4.782  0.9298E+01  0.3784E+02
      4.842  0.1268E+02  0.3845E+02
      4.902  0.1191E+02  0.3921E+02
      4.962  0.1079E+02  0.3989E+02
      5.022  0.9085E+01  0.4050E+02
      5.082  0.9065E+01  0.4106E+02
      5.142  0.5571E+01  0.4148E+02
      5.202  0.4211E+01  0.4176E+02
      5.261  0.2878E+01  0.4198E+02
      5.321  0.1566E+01  0.4212E+02
      5.381  0.1498E+01  0.4221E+02
      5.441  0.1438E+01  0.4230E+02
      5.501  0.1385E+01  0.4238E+02
      5.561  0.1824E+01  0.4248E+02
      5.621  0.1255E+01  0.4258E+02
      5.681  0.1210E+01  0.4265E+02
      5.741  0.1216E+01  0.4272E+02
      5.801  0.1225E+01  0.4280E+02
      5.860  0.1237E+01  0.4287E+02
      5.920  0.1248E+01  0.4294E+02
      5.980  0.1259E+01  0.4302E+02
      6.040  0.1274E+01  0.4310E+02
      6.100  0.1287E+01  0.4317E+02
      6.160  0.1297E+01  0.4325E+02
      6.220  0.1305E+01  0.4333E+02
      6.280  0.1953E+01  0.4346E+02
      6.340  0.2088E+01  0.4358E+02
      6.399  0.2081E+01  0.4370E+02
      6.459  0.5365E+01  0.4387E+02
      6.519  0.1000E+01  0.4394E+02
      6.579  0.9760E+00  0.4400E+02
      6.639  0.9505E+00  0.4406E+02
      6.699  0.9256E+00  0.4412E+02
      6.759  0.9071E+00  0.4417E+02
      6.819  0.8954E+00  0.4422E+02
      6.879  0.8941E+00  0.4428E+02
      6.939  0.8999E+00  0.4433E+02
      6.998  0.9088E+00  0.4439E+02
      7.058  0.9289E+00  0.4444E+02
      7.118  0.9515E+00  0.4450E+02
      7.178  0.9766E+00  0.4456E+02
      7.238  0.1004E+01  0.4461E+02
      7.298  0.1032E+01  0.4468E+02
      7.358  0.1477E+01  0.4474E+02
      7.418  0.2678E+01  0.4484E+02
      7.478  0.1411E+01  0.4496E+02
      7.537  0.1444E+01  0.4504E+02
      7.597  0.1475E+01  0.4513E+02
      7.657  0.1484E+01  0.4522E+02
      7.717  0.1460E+01  0.4531E+02
      7.777  0.1431E+01  0.4539E+02
      7.837  0.1512E+01  0.4548E+02
      7.897  0.1466E+01  0.4557E+02
      7.957  0.1419E+01  0.4565E+02
      8.017  0.1371E+01  0.4574E+02
      8.077  0.1322E+01  0.4582E+02
      8.136  0.1273E+01  0.4590E+02
      8.196  0.1228E+01  0.4597E+02
      8.256  0.1235E+01  0.4605E+02
      8.316  0.1234E+01  0.4612E+02
      8.376  0.1227E+01  0.4619E+02
      8.436  0.1219E+01  0.4627E+02
      8.496  0.1210E+01  0.4634E+02
      8.556  0.1212E+01  0.4641E+02
      8.616  0.1227E+01  0.4648E+02
      8.675  0.1258E+01  0.4656E+02
      8.735  0.1299E+01  0.4664E+02
      8.795  0.1296E+01  0.4671E+02
      8.855  0.1276E+01  0.4679E+02
      8.915  0.1256E+01  0.4687E+02
      8.975  0.1235E+01  0.4694E+02
      9.035  0.1211E+01  0.4701E+02
      9.095  0.1183E+01  0.4709E+02
      9.155  0.1152E+01  0.4716E+02
      9.215  0.1118E+01  0.4722E+02
      9.274  0.1080E+01  0.4729E+02
      9.334  0.1152E+01  0.4736E+02
      9.394  0.1055E+01  0.4743E+02
      9.454  0.9590E+00  0.4749E+02
      9.514  0.7976E+00  0.4754E+02
      9.574  0.7235E+00  0.4758E+02
      9.634  0.6933E+00  0.4763E+02
      9.694  0.6674E+00  0.4767E+02
      9.754  0.6459E+00  0.4771E+02
      9.814  0.6288E+00  0.4774E+02
      9.873  0.6113E+00  0.4778E+02
      9.933  0.5893E+00  0.4782E+02
      9.993  0.4966E+00  0.4785E+02
     10.053  0.4445E+00  0.4788E+02
     10.113  0.3898E+00  0.4790E+02
     10.173  0.3324E+00  0.4792E+02
     10.233  0.2723E+00  0.4794E+02
     10.293  0.2096E+00  0.4796E+02
     10.353  0.1537E+00  0.4797E+02
     10.412  0.1278E+00  0.4798E+02
     10.472  0.1040E+00  0.4798E+02
     10.532  0.8238E-01  0.4799E+02
     10.592  0.6283E-01  0.4799E+02
     10.652  0.4539E-01  0.4800E+02
     10.712  0.3006E-01  0.4800E+02
     10.772  0.1684E-01  0.4800E+02
     10.832  0.5728E-02  0.4800E+02
     10.892  0.0000E+00  0.4800E+02
     10.952  0.0000E+00  0.4800E+02
     11.011  0.0000E+00  0.4800E+02
     11.071  0.0000E+00  0.4800E+02
     11.131  0.0000E+00  0.4800E+02
     11.191  0.0000E+00  0.4800E+02
     11.251  0.0000E+00  0.4800E+02
     11.311  0.0000E+00  0.4800E+02
     11.371  0.0000E+00  0.4800E+02
     11.431  0.0000E+00  0.4800E+02
     11.491  0.0000E+00  0.4800E+02
     11.550  0.0000E+00  0.4800E+02
     11.610  0.0000E+00  0.4800E+02
     11.670  0.0000E+00  0.4800E+02
     11.730  0.0000E+00  0.4800E+02
     11.790  0.0000E+00  0.4800E+02
     11.850  0.0000E+00  0.4800E+02
     11.910  0.0000E+00  0.4800E+02
     11.970  0.0000E+00  0.4800E+02
     12.030  0.0000E+00  0.4800E+02
     12.090  0.0000E+00  0.4800E+02
     12.149  0.0000E+00  0.4800E+02
     12.209  0.0000E+00  0.4800E+02
     12.269  0.0000E+00  0.4800E+02
     12.329  0.0000E+00  0.4800E+02
     12.389  0.0000E+00  0.4800E+02
     12.449  0.0000E+00  0.4800E+02
     12.509  0.0000E+00  0.4800E+02
     12.569  0.0000E+00  0.4800E+02
     12.629  0.0000E+00  0.4800E+02
     12.688  0.0000E+00  0.4800E+02
     12.748  0.0000E+00  0.4800E+02
     12.808  0.0000E+00  0.4800E+02
     12.868  0.0000E+00  0.4800E+02
