    4    4    1    1
  0.1852200E+02  0.4200000E-09  0.4200000E-09  0.4200000E-09  0.5000000E-15
  1.000000000000000E-004
  CAR 
 unknown system                          
     40     20     24
 
  0.0000000E+00  0.0000000E+00  0.0000000E+00  0.2915452E-02
    1       -3.100455   1.000000
    2       -0.089112   1.000000
    3       -0.089112   1.000000
    4       -0.089112   1.000000
    5        0.244164   1.000000
    6        0.244164   1.000000
    7        0.244164   1.000000
    8        2.294080   1.000000
    9        2.294080   1.000000
   10        2.294080   1.000000
   11        3.837279   1.000000
   12        3.837279   1.000000
   13        4.986330   0.999610
   14        4.986330   0.999608
   15        4.986330   0.998486
   16        5.310253   0.343384
   17        5.310253  -0.089788
   18        5.310253  -0.063136
   19        5.310253   0.000000
   20        5.310253   0.000000
   21        5.310253   0.000000
   22        7.205565   0.000000
   23        7.205565   0.000000
   24        7.205565   0.000000
 
  0.1428571E+00  0.0000000E+00  0.0000000E+00  0.1749271E-01
    1       -2.875219   1.000000
    2       -0.028250   1.000000
    3        0.066402   1.000000
    4        0.066402   1.000000
    5        0.329616   1.000000
    6        0.369949   1.000000
    7        0.369949   1.000000
    8        2.171302   1.000000
    9        2.398312   1.000000
   10        2.398312   1.000000
   11        3.705479   1.000000
   12        3.889488   1.000000
   13        4.486353   0.999998
   14        4.486353   0.999998
   15        4.792641   0.999827
   16        4.792641   0.981373
   17        4.924166   0.926094
   18        5.080344   0.607626
   19        5.080344   0.165109
   20        5.310636  -0.042332
   21        5.310635   0.000000
   22        5.954663   0.000000
   23        8.179078   0.000000
   24        8.179078   0.000000
 
  0.2857143E+00  0.0000000E+00  0.0000000E+00  0.1749271E-01
    1       -2.224095   1.000000
    2        0.039629   1.000000
    3        0.479906   1.000000
    4        0.479906   1.000000
    5        0.576034   1.000000
    6        0.745693   1.000000
    7        0.745693   1.000000
    8        1.842616   1.000000
    9        2.706040   1.000000
   10        2.706040   1.000000
   11        3.285532   1.000000
   12        3.285532   1.000000
   13        3.362383   1.000000
   14        4.038216   1.000000
   15        4.107210   1.000000
   16        4.277037   1.000000
   17        4.277037   1.000000
   18        4.512418   1.004398
   19        4.512418   1.086198
   20        4.753264   0.941904
   21        5.311508  -0.000794
   22        5.311508  -0.000103
   23        9.811769   0.000000
   24        9.811770   0.000000
 
  0.4285714E+00  0.0000000E+00  0.0000000E+00  0.1749271E-01
    1       -1.253320   1.000000
    2       -0.308560   1.000000
    3        0.925786   1.000000
    4        0.925786   1.000000
    5        0.952091   1.000000
    6        1.366397   1.000000
    7        1.366397   1.000000
    8        1.401980   1.000000
    9        2.221096   1.000000
   10        2.221096   1.000000
   11        2.989457   1.000000
   12        3.027392   1.000000
   13        3.197885   1.000000
   14        3.197885   1.000000
   15        3.734387   1.000000
   16        3.734387   1.000000
   17        3.829986   1.000000
   18        3.829986   1.000000
   19        4.259469   1.001936
   20        4.514363   1.072340
   21        5.312192  -0.011201
   22        5.312192  -0.010565
   23       10.868159   0.000000
   24       10.868172   0.000000
 
  0.1428571E+00  0.1428571E+00  0.0000000E+00  0.3498542E-01
    1       -2.656645   1.000000
    2        0.132094   1.000000
    3        0.132094   1.000000
    4        0.172664   1.000000
    5        0.450524   1.000000
    6        0.450524   1.000000
    7        0.524796   1.000000
    8        2.122645   1.000000
    9        2.438574   1.000000
   10        2.473531   1.000000
   11        3.676505   1.000000
   12        3.875154   1.000000
   13        4.076373   1.000021
   14        4.076373   1.000022
   15        4.086163   1.000171
   16        4.633455   1.003603
   17        4.802208   0.995953
   18        4.802208   0.979916
   19        5.079166   0.290637
   20        5.079166   0.035259
   21        5.160161  -0.008488
   22        6.985135   0.000000
   23        6.985135   0.000000
   24        8.883756   0.000000
 
  0.2857143E+00  0.1428571E+00  0.0000000E+00  0.6997085E-01
    1       -2.025118   1.000000
    2        0.210976   1.000000
    3        0.491724   1.000000
    4        0.563418   1.000000
    5        0.682355   1.000000
    6        0.810691   1.000000
    7        0.930807   1.000000
    8        1.852870   1.000000
    9        2.663697   1.000000
   10        2.712960   1.000000
   11        2.926037   1.000000
   12        3.155992   1.000000
   13        3.228294   1.000000
   14        3.432888   1.000000
   15        4.057766   1.000000
   16        4.194222   1.000000
   17        4.343619   1.000000
   18        4.508862   1.002601
   19        4.545596   1.105381
   20        5.075783   0.308485
   21        5.082851   0.039507
   22        5.547400  -0.000145
   23        8.281726   0.000000
   24       10.338119   0.000000
 
  0.4285714E+00  0.1428571E+00  0.0000000E+00  0.6997085E-01
    1       -1.081187   1.000000
    2       -0.143281   1.000000
    3        0.969958   1.000000
    4        1.034491   1.000000
    5        1.045973   1.000000
    6        1.389247   1.000000
    7        1.401366   1.000000
    8        1.451978   1.000000
    9        1.970595   1.000000
   10        2.201289   1.000000
   11        2.621692   1.000000
   12        2.679576   1.000000
   13        3.196522   1.000000
   14        3.445391   1.000000
   15        3.736687   1.000000
   16        3.816451   1.000000
   17        3.826074   1.000000
   18        3.966724   1.000000
   19        4.377680   1.003097
   20        4.803646   1.008159
   21        5.069562   0.061962
   22        5.071309  -0.000596
   23        9.288330   0.000000
   24        9.948175   0.000000
 
  0.2857143E+00  0.2857143E+00  0.0000000E+00  0.3498542E-01
    1       -1.453488   1.000000
    2        0.640717   1.000000
    3        0.682719   1.000000
    4        0.682719   1.000000
    5        0.995271   1.000000
    6        0.995271   1.000000
    7        1.316091   1.000000
    8        1.788511   1.000000
    9        2.295919   1.000000
   10        2.295919   1.000000
   11        2.619497   1.000000
   12        2.738602   1.000000
   13        2.847733   1.000000
   14        3.356543   1.000000
   15        3.926012   1.000000
   16        4.203136   1.000000
   17        4.203136   1.000000
   18        4.343544   1.000000
   19        4.502357   1.045503
   20        4.502357   1.164122
   21        4.737248   1.106588
   22        6.657191  -0.000080
   23        6.657191   0.000000
   24        9.458319   0.000000
 
  0.4285714E+00  0.2857143E+00  0.0000000E+00  0.6997085E-01
    1       -0.601444   1.000000
    2        0.293502   1.000000
    3        0.984006   1.000000
    4        1.266495   1.000000
    5        1.275789   1.000000
    6        1.492225   1.000000
    7        1.550450   1.000000
    8        1.563547   1.000000
    9        1.584090   1.000000
   10        2.116655   1.000000
   11        2.127979   1.000000
   12        2.440838   1.000000
   13        3.239349   1.000000
   14        3.362566   1.000000
   15        3.626379   1.000000
   16        3.755207   1.000000
   17        3.768727   1.000000
   18        3.830820   1.000000
   19        4.507832   1.002997
   20        4.561315   1.016496
   21        4.885165   0.767662
   22        5.593838  -0.003137
   23        7.633891   0.000000
   24        8.491295   0.000000
 
  0.4285714E+00  0.4285714E+00  0.0000000E+00  0.3498542E-01
    1        0.068743   1.000000
    2        0.758913   1.000000
    3        0.758913   1.000000
    4        0.939646   1.000000
    5        1.594249   1.000000
    6        1.594249   1.000000
    7        1.633591   1.000000
    8        1.853050   1.000000
    9        1.909218   1.000000
   10        1.909218   1.000000
   11        1.912762   1.000000
   12        2.285026   1.000000
   13        3.184124   1.000000
   14        3.367599   1.000000
   15        3.418452   1.000000
   16        3.418452   1.000000
   17        3.448234   1.000000
   18        3.898983   1.000000
   19        3.898983   1.000000
   20        4.124320   1.000000
   21        5.609336  -0.159538
   22        6.461131   0.000000
   23        6.461131   0.000000
   24        7.355794   0.000000
 
  0.1428571E+00  0.1428571E+00  0.1428571E+00  0.2332362E-01
    1       -2.447569   1.000000
    2        0.231383   1.000000
    3        0.231383   1.000000
    4        0.231383   1.000000
    5        0.609115   1.000000
    6        0.609115   1.000000
    7        0.609115   1.000000
    8        2.097487   1.000000
    9        2.493177   1.000000
   10        2.493177   1.000000
   11        3.734329   1.000000
   12        3.734329   1.000000
   13        3.734329   1.000014
   14        3.772587   1.000014
   15        3.772587   1.000041
   16        4.401609   1.007471
   17        4.401609   1.016941
   18        4.401610   1.030897
   19        5.164905   0.124749
   20        5.164905  -0.003252
   21        5.164905  -0.023293
   22        7.579888   0.000000
   23        7.579888   0.000000
   24        7.579888   0.000000
 
  0.2857143E+00  0.1428571E+00  0.1428571E+00  0.6997085E-01
    1       -1.845392   1.000000
    2        0.293503   1.000000
    3        0.532771   1.000000
    4        0.532771   1.000000
    5        0.847671   1.000000
    6        1.018190   1.000000
    7        1.018190   1.000000
    8        1.893292   1.000000
    9        2.638097   1.000000
   10        2.668066   1.000000
   11        2.863703   1.000000
   12        2.863703   1.000000
   13        2.947261   1.000000
   14        3.579367   1.000000
   15        3.924206   1.000000
   16        4.032876   1.000000
   17        4.069330   1.000000
   18        4.069330   1.002146
   19        5.040841   0.607352
   20        5.056017   0.293330
   21        5.056017   0.063639
   22        5.900373  -0.000072
   23        8.668752   0.000000
   24        8.668752   0.000000
 
  0.4285714E+00  0.1428571E+00  0.1428571E+00  0.6997085E-01
    1       -0.949951   1.000000
    2       -0.057807   1.000000
    3        1.009397   1.000000
    4        1.009397   1.000000
    5        1.179567   1.000000
    6        1.365324   1.000000
    7        1.365324   1.000000
    8        1.548768   1.000000
    9        2.139520   1.000000
   10        2.139520   1.000000
   11        2.459286   1.000000
   12        2.584494   1.000000
   13        2.977937   1.000000
   14        3.413555   1.000000
   15        3.696514   1.000000
   16        3.696514   1.000000
   17        3.801100   1.000000
   18        4.389444   1.000000
   19        4.626830   1.019080
   20        4.756467   1.029647
   21        4.964438   0.558139
   22        4.964438   0.012691
   23        9.547345   0.000000
   24        9.547345   0.000000
 
  0.2857143E+00  0.2857143E+00  0.1428571E+00  0.6997085E-01
    1       -1.335390   1.000000
    2        0.526705   1.000000
    3        0.526705   1.000000
    4        0.607152   1.000000
    5        1.282906   1.000000
    6        1.282906   1.000000
    7        1.393884   1.000000
    8        1.921249   1.000000
    9        2.326879   1.000000
   10        2.326879   1.000000
   11        2.598960   1.000000
   12        2.628405   1.000000
   13        2.680396   1.000000
   14        3.644114   1.000000
   15        3.652775   1.000000
   16        3.662954   1.000000
   17        3.662954   1.000000
   18        4.270269   1.000000
   19        4.916217   0.897939
   20        4.930070   0.809179
   21        4.930070   0.668637
   22        6.852061  -0.000036
   23        6.852061   0.000000
   24        9.455657   0.000000
 
  0.4285714E+00  0.2857143E+00  0.1428571E+00  0.1399417E+00
    1       -0.596059   1.000000
    2        0.147603   1.000000
    3        0.799347   1.000000
    4        0.813404   1.000000
    5        1.558357   1.000000
    6        1.560961   1.000000
    7        1.604841   1.000000
    8        1.809075   1.000000
    9        2.108486   1.000000
   10        2.145697   1.000000
   11        2.384237   1.000000
   12        2.431719   1.000000
   13        2.843633   1.000000
   14        3.191927   1.000000
   15        3.377248   1.000000
   16        3.438428   1.000000
   17        3.890856   1.000000
   18        4.504295   1.000000
   19        4.734911   1.015504
   20        4.738644   1.026694
   21        4.801034   0.938681
   22        5.547666  -0.001852
   23        7.824994   0.000000
   24        8.779064   0.000000
 
  0.4285714E+00  0.4285714E+00  0.1428571E+00  0.6997085E-01
    1       -0.120581   1.000000
    2        0.374968   1.000000
    3        0.374968   1.000000
    4        0.580688   1.000000
    5        1.796442   1.000000
    6        1.936554   1.000000
    7        1.936554   1.000000
    8        2.044597   1.000000
    9        2.185451   1.000000
   10        2.185451   1.000000
   11        2.353164   1.000000
   12        2.499727   1.000000
   13        2.796422   1.000000
   14        3.041803   1.000000
   15        3.041803   1.000000
   16        3.062567   1.000000
   17        3.919086   1.000000
   18        4.327218   1.000000
   19        4.327218   1.009649
   20        4.435825   1.009698
   21        5.523588  -0.136660
   22        6.444998   0.000000
   23        6.444998   0.000000
   24        7.440227   0.000000
 
  0.2857143E+00  0.2857143E+00  0.2857143E+00  0.2332362E-01
    1       -1.007707   1.000000
    2        0.400786   1.000000
    3        0.400786   1.000000
    4        0.400786   1.000000
    5        1.663777   1.000000
    6        1.663777   1.000000
    7        1.663777   1.000000
    8        2.252372   1.000000
    9        2.460139   1.000000
   10        2.460139   1.000000
   11        2.460139   1.000000
   12        2.537223   1.000000
   13        2.537223   1.000000
   14        3.181203   1.000000
   15        3.181203   1.000000
   16        3.181203   1.000000
   17        4.157018   1.000000
   18        4.157018   1.000000
   19        5.072400   0.387814
   20        5.072400   0.341975
   21        5.072400   0.009441
   22        7.438330  -0.000012
   23        7.438330   0.000000
   24        7.438330   0.000000
 
  0.4285714E+00  0.2857143E+00  0.2857143E+00  0.6997085E-01
    1       -0.539275   1.000000
    2       -0.025547   1.000000
    3        0.360761   1.000000
    4        0.360761   1.000000
    5        1.765947   1.000000
    6        1.765947   1.000000
    7        2.069210   1.000000
    8        2.370608   1.000000
    9        2.424412   1.000000
   10        2.486986   1.000000
   11        2.571464   1.000000
   12        2.774683   1.000000
   13        2.774683   1.000000
   14        2.795884   1.000000
   15        2.970431   1.000000
   16        2.970431   1.000000
   17        4.480922   1.000000
   18        4.641487   1.000000
   19        4.924691   0.966181
   20        4.924691   0.963976
   21        4.978655   0.344645
   22        5.653237  -0.000384
   23        8.192487   0.000000
   24        8.192486   0.000000
 
  0.4285714E+00  0.4285714E+00  0.2857143E+00  0.6997085E-01
    1       -0.370236   1.000000
    2       -0.063468   1.000000
    3       -0.063468   1.000000
    4        0.063815   1.000000
    5        1.975931   1.000000
    6        2.075095   1.000000
    7        2.075095   1.000000
    8        2.312881   1.000000
    9        2.456409   1.000000
   10        2.602783   1.000000
   11        2.602783   1.000000
   12        2.649266   1.000000
   13        3.162525   1.000000
   14        3.162525   1.000000
   15        3.170911   1.000000
   16        3.299944   1.000000
   17        4.474879   1.000000
   18        4.826570   1.000000
   19        4.826570   1.045595
   20        4.837577   1.043926
   21        5.255860  -0.044643
   22        6.370391   0.000000
   23        6.370391   0.000000
   24        7.407025   0.000000
 
  0.4285714E+00  0.4285714E+00  0.4285714E+00  0.2332362E-01
    1       -0.446255   1.000000
    2       -0.299292   1.000000
    3       -0.299292   1.000000
    4       -0.299292   1.000000
    5        2.186612   1.000000
    6        2.186612   1.000000
    7        2.186612   1.000000
    8        2.311169   1.000000
    9        2.311169   1.000000
   10        2.379615   1.000000
   11        2.379615   1.000000
   12        2.379615   1.000000
   13        4.073013   1.000000
   14        4.073013   1.000000
   15        4.073013   1.000000
   16        4.458564   1.000000
   17        4.880176   1.000000
   18        4.880176   1.000000
   19        5.014151   0.475714
   20        5.014151   0.458551
   21        5.014151   0.000000
   22        6.220917   0.000000
   23        6.220917   0.000000
   24        6.220917   0.000000
