 vasp.5.4.4.18Apr17-6-g9f103f2a35 (build Jun 30 2017 11:15:00) complex          
  
 executed on    STALLO_VASP_5.4.4 date 2019.11.01  11:03:23
 running on    4 total cores
 distrk:  each k-point on    4 cores,    1 groups
 distr:  one band on NCORES_PER_BAND=   2 cores,    2 groups


--------------------------------------------------------------------------------------------------------


 INCAR:
 POTCAR:   PAW_PBE Sr_sv 07Sep2000                
 POTCAR:   PAW_PBE Ti 08Apr2002                   
 POTCAR:   PAW_PBE O 08Apr2002                    
 POTCAR:   PAW_PBE Sr_sv 07Sep2000                
  local pseudopotential read in
  partial core-charges read in
  atomic valenz-charges read in
  non local Contribution for L=           0  read in
    real space projection operators read in
  non local Contribution for L=           0  read in
    real space projection operators read in
  non local Contribution for L=           1  read in
    real space projection operators read in
  non local Contribution for L=           1  read in
    real space projection operators read in
  non local Contribution for L=           2  read in
    real space projection operators read in
  non local Contribution for L=           2  read in
    real space projection operators read in
    PAW grid and wavefunctions read in
 
   number of l-projection  operators is LMAX  =           6
   number of lm-projection operators is LMMAX =          18
 
 POTCAR:   PAW_PBE Ti 08Apr2002                   
  local pseudopotential read in
  partial core-charges read in
  atomic valenz-charges read in
  non local Contribution for L=           2  read in
    real space projection operators read in
  non local Contribution for L=           2  read in
    real space projection operators read in
  non local Contribution for L=           0  read in
    real space projection operators read in
  non local Contribution for L=           0  read in
    real space projection operators read in
  non local Contribution for L=           1  read in
    real space projection operators read in
    PAW grid and wavefunctions read in
 
   number of l-projection  operators is LMAX  =           5
   number of lm-projection operators is LMMAX =          15
 
 POTCAR:   PAW_PBE O 08Apr2002                    
  local pseudopotential read in
  atomic valenz-charges read in
  non local Contribution for L=           0  read in
    real space projection operators read in
  non local Contribution for L=           0  read in
    real space projection operators read in
  non local Contribution for L=           1  read in
    real space projection operators read in
  non local Contribution for L=           1  read in
    real space projection operators read in
    PAW grid and wavefunctions read in
 
   number of l-projection  operators is LMAX  =           4
   number of lm-projection operators is LMMAX =           8
 

 ----------------------------------------------------------------------------- 
|                                                                             |
|  ADVICE TO THIS USER RUNNING 'VASP/VAMP'   (HEAR YOUR MASTER'S VOICE ...):  |
|                                                                             |
|      You have a (more or less) 'small supercell' and for smaller cells      |
|      it is recommended  to use the reciprocal-space projection scheme!      |
|      The real space optimization is not  efficient for small cells and it   |
|      is also less accurate ...                                              |
|      Therefore set LREAL=.FALSE. in the  INCAR file                         |
|                                                                             |
 ----------------------------------------------------------------------------- 

 Optimization of the real space projectors (new method)

 maximal supplied QI-value         = 15.12
 optimisation between [QCUT,QGAM] = [ 11.34, 22.83] = [ 36.00,145.93] Ry 
 Optimized for a Real-space Cutoff    1.56 Angstroem

   l    n(q)    QCUT    max X(q) W(low)/X(q) W(high)/X(q)  e(spline) 
   0     11    11.338     6.584    0.15E-04    0.24E-05    0.13E-07
   0     11    11.338    11.383    0.41E-04    0.15E-04    0.15E-06
   1     10    11.338     3.802    0.90E-05    0.33E-06    0.26E-07
   1     10    11.338    39.081    0.19E-03    0.53E-04    0.42E-06
   2     10    11.338     4.950    0.16E-04    0.40E-04    0.77E-07
   2     10    11.338    88.754    0.21E-03    0.41E-03    0.42E-06
 Optimization of the real space projectors (new method)

 maximal supplied QI-value         = 13.42
 optimisation between [QCUT,QGAM] = [ 11.40, 22.81] = [ 36.42,145.68] Ry 
 Optimized for a Real-space Cutoff    1.61 Angstroem

   l    n(q)    QCUT    max X(q) W(low)/X(q) W(high)/X(q)  e(spline) 
   2     10    11.404     5.474    0.89E-05    0.24E-04    0.66E-07
   2     10    11.404    20.898    0.40E-04    0.22E-03    0.47E-06
   0     11    11.404    23.292    0.14E-04    0.42E-06    0.65E-07
   0     11    11.404    27.738    0.59E-04    0.19E-04    0.40E-06
   1     11    11.404     9.492    0.14E-04    0.30E-04    0.10E-06
 Optimization of the real space projectors (new method)

 maximal supplied QI-value         = 24.76
 optimisation between [QCUT,QGAM] = [ 11.39, 22.77] = [ 36.31,145.25] Ry 
 Optimized for a Real-space Cutoff    1.03 Angstroem

   l    n(q)    QCUT    max X(q) W(low)/X(q) W(high)/X(q)  e(spline) 
   0      7    11.387     4.192    0.55E-04    0.17E-03    0.22E-07
   0      7    11.387     8.473    0.18E-03    0.93E-03    0.17E-06
   1      6    11.387     2.474    0.16E-03    0.14E-03    0.20E-07
   1      6    11.387     3.912    0.19E-03    0.47E-03    0.17E-06
 PAW_PBE Sr_sv 07Sep2000                :
 energy of atom  1       EATOM= -842.4562
 kinetic energy error for atom=    0.0012 (will be added to EATOM!!)
 PAW_PBE Ti 08Apr2002                   :
 energy of atom  2       EATOM=  -94.7929
 kinetic energy error for atom=    0.0002 (will be added to EATOM!!)
 PAW_PBE O 08Apr2002                    :
 energy of atom  3       EATOM= -432.3788
 kinetic energy error for atom=    0.0224 (will be added to EATOM!!)
 
 
 POSCAR: ICSD_CollCode262269                     
  positions in direct lattice
  velocities in cartesian coordinates
 exchange correlation table for  LEXCH =        8
   RHO(1)=    0.500       N(1)  =     2000
   RHO(2)=  100.500       N(2)  =     4000
 


--------------------------------------------------------------------------------------------------------


 ion  position               nearest neighbor table
   1  0.000  0.000  0.000-   3 2.79   4 2.79   5 2.79   4 2.79   5 2.79   3 2.79   5 2.79   5 2.79
                             3 2.79   4 2.79   4 2.79   3 2.79   2 3.42   2 3.42   2 3.42   2 3.42
   2  0.500  0.500  0.500-   3 1.97   4 1.97   5 1.97   3 1.97   4 1.97   5 1.97   1 3.42   1 3.42
                             1 3.42   1 3.42   1 3.42   1 3.42   1 3.42   1 3.42
   3  0.500  0.500  0.000-   2 1.97   2 1.97   1 2.79   1 2.79   1 2.79   1 2.79
   4  0.500  0.000  0.500-   2 1.97   2 1.97   1 2.79   1 2.79   1 2.79   1 2.79
   5  0.000  0.500  0.500-   2 1.97   2 1.97   1 2.79   1 2.79   1 2.79   1 2.79
 
  LATTYP: Found a simple cubic cell.
 ALAT       =     3.9468463416
  
  Lattice vectors:
  
 A1 = (   3.9468463416,   0.0000000000,   0.0000000000)
 A2 = (   0.0000000000,   3.9468463416,   0.0000000000)
 A3 = (   0.0000000000,   0.0000000000,   3.9468463416)


Analysis of symmetry for initial positions (statically):
=====================================================================
 Subroutine PRICEL returns:
 Original cell was already a primitive cell.
 

 Routine SETGRP: Setting up the symmetry group for a 
 simple cubic supercell.


 Subroutine GETGRP returns: Found 48 space group operations
 (whereof 48 operations were pure point group operations)
 out of a pool of 48 trial point group operations.


The static configuration has the point symmetry O_h .


Analysis of symmetry for dynamics (positions and initial velocities):
=====================================================================
 Subroutine PRICEL returns:
 Original cell was already a primitive cell.
 

 Routine SETGRP: Setting up the symmetry group for a 
 simple cubic supercell.


 Subroutine GETGRP returns: Found 48 space group operations
 (whereof 48 operations were pure point group operations)
 out of a pool of 48 trial point group operations.


The dynamic configuration has the point symmetry O_h .


 Subroutine INISYM returns: Found 48 space group operations
 (whereof 48 operations are pure point group operations),
 and found     1 'primitive' translations

 
 
 KPOINTS: k-density: 4.0                          

Automatic generation of k-mesh.
Space group operators:
 irot       det(A)        alpha          n_x          n_y          n_z        tau_x        tau_y        tau_z
    1     1.000000     0.000000     1.000000     0.000000     0.000000     0.000000     0.000000     0.000000
    2    -1.000000     0.000000     1.000000     0.000000     0.000000     0.000000     0.000000     0.000000
    3     1.000000   120.000000    -0.577350    -0.577350    -0.577350     0.000000     0.000000     0.000000
    4    -1.000000   120.000000    -0.577350    -0.577350    -0.577350     0.000000     0.000000     0.000000
    5     1.000000   120.000000     0.577350     0.577350     0.577350     0.000000     0.000000     0.000000
    6    -1.000000   120.000000     0.577350     0.577350     0.577350     0.000000     0.000000     0.000000
    7     1.000000    90.000000     0.000000     0.000000    -1.000000     0.000000     0.000000     0.000000
    8    -1.000000    90.000000     0.000000     0.000000    -1.000000     0.000000     0.000000     0.000000
    9     1.000000   180.000000     0.000000     0.707107     0.707107     0.000000     0.000000     0.000000
   10    -1.000000   180.000000     0.000000     0.707107     0.707107     0.000000     0.000000     0.000000
   11     1.000000    90.000000     0.000000     1.000000     0.000000     0.000000     0.000000     0.000000
   12    -1.000000    90.000000     0.000000     1.000000     0.000000     0.000000     0.000000     0.000000
   13     1.000000   180.000000     0.000000     0.000000     1.000000     0.000000     0.000000     0.000000
   14    -1.000000   180.000000     0.000000     0.000000     1.000000     0.000000     0.000000     0.000000
   15     1.000000   120.000000    -0.577350     0.577350     0.577350     0.000000     0.000000     0.000000
   16    -1.000000   120.000000    -0.577350     0.577350     0.577350     0.000000     0.000000     0.000000
   17     1.000000   120.000000    -0.577350     0.577350    -0.577350     0.000000     0.000000     0.000000
   18    -1.000000   120.000000    -0.577350     0.577350    -0.577350     0.000000     0.000000     0.000000
   19     1.000000    90.000000     0.000000     0.000000     1.000000     0.000000     0.000000     0.000000
   20    -1.000000    90.000000     0.000000     0.000000     1.000000     0.000000     0.000000     0.000000
   21     1.000000    90.000000    -1.000000     0.000000     0.000000     0.000000     0.000000     0.000000
   22    -1.000000    90.000000    -1.000000     0.000000     0.000000     0.000000     0.000000     0.000000
   23     1.000000   180.000000     0.707107     0.000000     0.707107     0.000000     0.000000     0.000000
   24    -1.000000   180.000000     0.707107     0.000000     0.707107     0.000000     0.000000     0.000000
   25     1.000000   120.000000     0.577350    -0.577350     0.577350     0.000000     0.000000     0.000000
   26    -1.000000   120.000000     0.577350    -0.577350     0.577350     0.000000     0.000000     0.000000
   27     1.000000   120.000000    -0.577350    -0.577350     0.577350     0.000000     0.000000     0.000000
   28    -1.000000   120.000000    -0.577350    -0.577350     0.577350     0.000000     0.000000     0.000000
   29     1.000000   180.000000     1.000000     0.000000     0.000000     0.000000     0.000000     0.000000
   30    -1.000000   180.000000     1.000000     0.000000     0.000000     0.000000     0.000000     0.000000
   31     1.000000    90.000000     0.000000    -1.000000     0.000000     0.000000     0.000000     0.000000
   32    -1.000000    90.000000     0.000000    -1.000000     0.000000     0.000000     0.000000     0.000000
   33     1.000000   180.000000     0.707107     0.707107     0.000000     0.000000     0.000000     0.000000
   34    -1.000000   180.000000     0.707107     0.707107     0.000000     0.000000     0.000000     0.000000
   35     1.000000    90.000000     1.000000     0.000000     0.000000     0.000000     0.000000     0.000000
   36    -1.000000    90.000000     1.000000     0.000000     0.000000     0.000000     0.000000     0.000000
   37     1.000000   120.000000     0.577350    -0.577350    -0.577350     0.000000     0.000000     0.000000
   38    -1.000000   120.000000     0.577350    -0.577350    -0.577350     0.000000     0.000000     0.000000
   39     1.000000   180.000000     0.000000     1.000000     0.000000     0.000000     0.000000     0.000000
   40    -1.000000   180.000000     0.000000     1.000000     0.000000     0.000000     0.000000     0.000000
   41     1.000000   120.000000     0.577350     0.577350    -0.577350     0.000000     0.000000     0.000000
   42    -1.000000   120.000000     0.577350     0.577350    -0.577350     0.000000     0.000000     0.000000
   43     1.000000   180.000000     0.000000    -0.707107     0.707107     0.000000     0.000000     0.000000
   44    -1.000000   180.000000     0.000000    -0.707107     0.707107     0.000000     0.000000     0.000000
   45     1.000000   180.000000     0.707107    -0.707107     0.000000     0.000000     0.000000     0.000000
   46    -1.000000   180.000000     0.707107    -0.707107     0.000000     0.000000     0.000000     0.000000
   47     1.000000   180.000000     0.707107     0.000000    -0.707107     0.000000     0.000000     0.000000
   48    -1.000000   180.000000     0.707107     0.000000    -0.707107     0.000000     0.000000     0.000000
 
 Subroutine IBZKPT returns following result:
 ===========================================
 
 Found     20 irreducible k-points:
 
 Following reciprocal coordinates:
            Coordinates               Weight
  0.000000  0.000000  0.000000      1.000000
  0.142857  0.000000  0.000000      6.000000
  0.285714  0.000000  0.000000      6.000000
  0.428571  0.000000  0.000000      6.000000
  0.142857  0.142857  0.000000     12.000000
  0.285714  0.142857  0.000000     24.000000
  0.428571  0.142857  0.000000     24.000000
  0.285714  0.285714  0.000000     12.000000
  0.428571  0.285714  0.000000     24.000000
  0.428571  0.428571  0.000000     12.000000
  0.142857  0.142857  0.142857      8.000000
  0.285714  0.142857  0.142857     24.000000
  0.428571  0.142857  0.142857     24.000000
  0.285714  0.285714  0.142857     24.000000
  0.428571  0.285714  0.142857     48.000000
  0.428571  0.428571  0.142857     24.000000
  0.285714  0.285714  0.285714      8.000000
  0.428571  0.285714  0.285714     24.000000
  0.428571  0.428571  0.285714     24.000000
  0.428571  0.428571  0.428571      8.000000
 
 Following cartesian coordinates:
            Coordinates               Weight
  0.000000  0.000000  0.000000      1.000000
  0.036195  0.000000  0.000000      6.000000
  0.072391  0.000000  0.000000      6.000000
  0.108586  0.000000  0.000000      6.000000
  0.036195  0.036195  0.000000     12.000000
  0.072391  0.036195  0.000000     24.000000
  0.108586  0.036195  0.000000     24.000000
  0.072391  0.072391  0.000000     12.000000
  0.108586  0.072391  0.000000     24.000000
  0.108586  0.108586  0.000000     12.000000
  0.036195  0.036195  0.036195      8.000000
  0.072391  0.036195  0.036195     24.000000
  0.108586  0.036195  0.036195     24.000000
  0.072391  0.072391  0.036195     24.000000
  0.108586  0.072391  0.036195     48.000000
  0.108586  0.108586  0.036195     24.000000
  0.072391  0.072391  0.072391      8.000000
  0.108586  0.072391  0.072391     24.000000
  0.108586  0.108586  0.072391     24.000000
  0.108586  0.108586  0.108586      8.000000
 


--------------------------------------------------------------------------------------------------------




 Dimension of arrays:
   k-points           NKPTS =     20   k-points in BZ     NKDIM =     20   number of bands    NBANDS=     20
   number of dos      NEDOS =    301   number of ions     NIONS =      5
   non local maximal  LDIM  =      6   non local SUM 2l+1 LMDIM =     18
   total plane-waves  NPLWV =  27000
   max r-space proj   IRMAX =   7742   max aug-charges    IRDMAX= 242810
   dimension x,y,z NGX =    30 NGY =   30 NGZ =   30
   dimension x,y,z NGXF=    60 NGYF=   60 NGZF=   60
   support grid    NGXF=   120 NGYF=  120 NGZF=  120
   ions per type =               1   1   3
   NGX,Y,Z   is equivalent  to a cutoff of  12.64, 12.64, 12.64 a.u.
   NGXF,Y,Z  is equivalent  to a cutoff of  25.27, 25.27, 25.27 a.u.

 SYSTEM =  unknown system                          
 POSCAR =  ICSD_CollCode262269                     

 Startparameter for this run:
   NWRITE =      1    write-flag & timer
   PREC   = accura    normal or accurate (medium, high low for compatibility)
   ISTART =      0    job   : 0-new  1-cont  2-samecut
   ICHARG =      2    charge: 1-file 2-atom 10-const
   ISPIN  =      1    spin polarized calculation?
   LNONCOLLINEAR =      F non collinear calculations
   LSORBIT =      F    spin-orbit coupling
   INIWAV =      1    electr: 0-lowe 1-rand  2-diag
   LASPH  =      F    aspherical Exc in radial PAW
   METAGGA=      F    non-selfconsistent MetaGGA calc.

 Electronic Relaxation 1
   ENCUT  =  500.0 eV  36.75 Ry    6.06 a.u.   7.20  7.20  7.20*2*pi/ulx,y,z
   ENINI  =  500.0     initial cutoff
   ENAUG  =  605.4 eV  augmentation charge cutoff
   NELM   =     60;   NELMIN=  4; NELMDL= -5     # of ELM steps 
   EDIFF  = 0.1E-04   stopping-criterion for ELM
   LREAL  =      T    real-space projection
   NLSPLINE    = F    spline interpolate recip. space projectors
   LCOMPAT=      F    compatible to vasp.4.4
   GGA_COMPAT  = T    GGA compatible to vasp.4.4-vasp.4.6
   LMAXPAW     = -100 max onsite density
   LMAXMIX     =    2 max onsite mixed and CHGCAR
   VOSKOWN=      0    Vosko Wilk Nusair interpolation
   ROPT   =   -0.00025  -0.00025  -0.00025
 Ionic relaxation
   EDIFFG = -.1E-01   stopping-criterion for IOM
   NSW    =     80    number of steps for IOM
   NBLOCK =      1;   KBLOCK =     80    inner block; outer block 
   IBRION =      1    ionic relax: 0-MD 1-quasi-New 2-CG
   NFREE  =      0    steps in history (QN), initial steepest desc. (CG)
   ISIF   =      3    stress and relaxation
   IWAVPR =     11    prediction:  0-non 1-charg 2-wave 3-comb
   ISYM   =      2    0-nonsym 1-usesym 2-fastsym
   LCORR  =      T    Harris-Foulkes like correction to forces

   POTIM  = 0.5000    time-step for ionic-motion
   TEIN   =    0.0    initial temperature
   TEBEG  =    0.0;   TEEND  =   0.0 temperature during run
   SMASS  =  -3.00    Nose mass-parameter (am)
   estimated Nose-frequenzy (Omega)   =  0.10E-29 period in steps =****** mass=  -0.356E-27a.u.
   SCALEE = 1.0000    scale energy and forces
   NPACO  =    256;   APACO  = 16.0  distance and # of slots for P.C.
   PSTRESS=    0.0 pullay stress

  Mass of Ions in am
   POMASS =  87.62 47.88 16.00
  Ionic Valenz
   ZVAL   =  10.00  4.00  6.00
  Atomic Wigner-Seitz radii
   RWIGS  =  -1.00 -1.00 -1.00
  virtual crystal weights 
   VCA    =   1.00  1.00  1.00
   NELECT =      32.0000    total number of electrons
   NUPDOWN=      -1.0000    fix difference up-down

 DOS related values:
   EMIN   =  10.00;   EMAX   =-10.00  energy-range for DOS
   EFERMI =   0.00
   ISMEAR =     0;   SIGMA  =   0.20  broadening in eV -4-tet -1-fermi 0-gaus

 Electronic relaxation 2 (details)
   IALGO  =     68    algorithm
   LDIAG  =      T    sub-space diagonalisation (order eigenvalues)
   LSUBROT=      F    optimize rotation matrix (better conditioning)
   TURBO    =      0    0=normal 1=particle mesh
   IRESTART =      0    0=no restart 2=restart with 2 vectors
   NREBOOT  =      0    no. of reboots
   NMIN     =      0    reboot dimension
   EREF     =   0.00    reference energy to select bands
   IMIX   =      4    mixing-type and parameters
     AMIX     =   0.40;   BMIX     =  1.00
     AMIX_MAG =   1.60;   BMIX_MAG =  1.00
     AMIN     =   0.10
     WC   =   100.;   INIMIX=   1;  MIXPRE=   1;  MAXMIX=  80

 Intra band minimization:
   WEIMIN = 0.0010     energy-eigenvalue tresh-hold
   EBREAK =  0.13E-06  absolut break condition
   DEPER  =   0.30     relativ break condition  

   TIME   =   0.40     timestep for ELM

  volume/ion in A,a.u.               =      12.30        82.98
  Fermi-wavevector in a.u.,A,eV,Ry     =   1.316865  2.488514 23.594319  1.734134
  Thomas-Fermi vector in A             =   2.446947
 
 Write flags
   LWAVE        =      T    write WAVECAR
   LDOWNSAMPLE  =      F    k-point downsampling of WAVECAR
   LCHARG       =      T    write CHGCAR
   LVTOT        =      F    write LOCPOT, total local potential
   LVHAR        =      F    write LOCPOT, Hartree potential only
   LELF         =      F    write electronic localiz. function (ELF)
   LORBIT       =      0    0 simple, 1 ext, 2 COOP (PROOUT), +10 PAW based schemes


 Dipole corrections
   LMONO  =      F    monopole corrections only (constant potential shift)
   LDIPOL =      F    correct potential (dipole corrections)
   IDIPOL =      0    1-x, 2-y, 3-z, 4-all directions 
   EPSILON=  1.0000000 bulk dielectric constant

 Exchange correlation treatment:
   GGA     =    --    GGA type
   LEXCH   =     8    internal setting for exchange type
   VOSKOWN=      0    Vosko Wilk Nusair interpolation
   LHFCALC =     F    Hartree Fock is set to
   LHFONE  =     F    Hartree Fock one center treatment
   AEXX    =    0.0000 exact exchange contribution

 Linear response parameters
   LEPSILON=     F    determine dielectric tensor
   LRPA    =     F    only Hartree local field effects (RPA)
   LNABLA  =     F    use nabla operator in PAW spheres
   LVEL    =     F    velocity operator in full k-point grid
   LINTERFAST=   F  fast interpolation
   KINTER  =     0    interpolate to denser k-point grid
   CSHIFT  =0.1000    complex shift for real part using Kramers Kronig
   OMEGAMAX=  -1.0    maximum frequency
   DEG_THRESHOLD= 0.2000000E-02 threshold for treating states as degnerate
   RTIME   =   -0.100 relaxation time in fs
  (WPLASMAI=    0.000 imaginary part of plasma frequency in eV, 0.658/RTIME)
   DFIELD  = 0.0000000 0.0000000 0.0000000 field for delta impulse in time
 
 Orbital magnetization related:
   ORBITALMAG=     F  switch on orbital magnetization
   LCHIMAG   =     F  perturbation theory with respect to B field
   DQ        =  0.001000  dq finite difference perturbation B field
   LLRAUG    =     F  two centre corrections for induced B field



--------------------------------------------------------------------------------------------------------


 quasi-Newton-method for relaxation of ions
 charge density and potential will be updated during run
 non-spin polarized calculation
 RMM-DIIS sequential band-by-band and
  variant of blocked Davidson during initial phase
 perform sub-space diagonalisation
    before iterative eigenvector-optimisation
 modified Broyden-mixing scheme, WC =      100.0
 initial mixing is a Kerker type mixing with AMIX =  0.4000 and BMIX =      1.0000
 Hartree-type preconditioning will be used
 using additional bands            4
 real space projection scheme for non local part
 use partial core corrections
 calculate Harris-corrections to forces 
   (improved forces if not selfconsistent)
 use gradient corrections 
 use of overlap-Matrix (Vanderbilt PP)
 Gauss-broadening in eV      SIGMA  =   0.20


--------------------------------------------------------------------------------------------------------


  energy-cutoff  :      500.00
  volume of cell :       61.48
      direct lattice vectors                 reciprocal lattice vectors
     3.946846342  0.000000000  0.000000000     0.253366844  0.000000000  0.000000000
     0.000000000  3.946846342  0.000000000     0.000000000  0.253366844  0.000000000
     0.000000000  0.000000000  3.946846342     0.000000000  0.000000000  0.253366844

  length of vectors
     3.946846342  3.946846342  3.946846342     0.253366844  0.253366844  0.253366844


 
 k-points in units of 2pi/SCALE and weight: k-density: 4.0                          
   0.00000000  0.00000000  0.00000000       0.003
   0.03619526  0.00000000  0.00000000       0.017
   0.07239053  0.00000000  0.00000000       0.017
   0.10858579  0.00000000  0.00000000       0.017
   0.03619526  0.03619526  0.00000000       0.035
   0.07239053  0.03619526  0.00000000       0.070
   0.10858579  0.03619526  0.00000000       0.070
   0.07239053  0.07239053  0.00000000       0.035
   0.10858579  0.07239053  0.00000000       0.070
   0.10858579  0.10858579  0.00000000       0.035
   0.03619526  0.03619526  0.03619526       0.023
   0.07239053  0.03619526  0.03619526       0.070
   0.10858579  0.03619526  0.03619526       0.070
   0.07239053  0.07239053  0.03619526       0.070
   0.10858579  0.07239053  0.03619526       0.140
   0.10858579  0.10858579  0.03619526       0.070
   0.07239053  0.07239053  0.07239053       0.023
   0.10858579  0.07239053  0.07239053       0.070
   0.10858579  0.10858579  0.07239053       0.070
   0.10858579  0.10858579  0.10858579       0.023
 
 k-points in reciprocal lattice and weights: k-density: 4.0                          
   0.00000000  0.00000000  0.00000000       0.003
   0.14285714  0.00000000  0.00000000       0.017
   0.28571429  0.00000000  0.00000000       0.017
   0.42857143  0.00000000  0.00000000       0.017
   0.14285714  0.14285714  0.00000000       0.035
   0.28571429  0.14285714  0.00000000       0.070
   0.42857143  0.14285714  0.00000000       0.070
   0.28571429  0.28571429  0.00000000       0.035
   0.42857143  0.28571429  0.00000000       0.070
   0.42857143  0.42857143  0.00000000       0.035
   0.14285714  0.14285714  0.14285714       0.023
   0.28571429  0.14285714  0.14285714       0.070
   0.42857143  0.14285714  0.14285714       0.070
   0.28571429  0.28571429  0.14285714       0.070
   0.42857143  0.28571429  0.14285714       0.140
   0.42857143  0.42857143  0.14285714       0.070
   0.28571429  0.28571429  0.28571429       0.023
   0.42857143  0.28571429  0.28571429       0.070
   0.42857143  0.42857143  0.28571429       0.070
   0.42857143  0.42857143  0.42857143       0.023
 
 position of ions in fractional coordinates (direct lattice) 
   0.00000000  0.00000000  0.00000000
   0.50000000  0.50000000  0.50000000
   0.50000000  0.50000000  0.00000000
   0.50000000  0.00000000  0.50000000
   0.00000000  0.50000000  0.50000000
 
 position of ions in cartesian coordinates  (Angst):
   0.00000000  0.00000000  0.00000000
   1.97342317  1.97342317  1.97342317
   1.97342317  1.97342317  0.00000000
   1.97342317  0.00000000  1.97342317
   0.00000000  1.97342317  1.97342317
 


--------------------------------------------------------------------------------------------------------


 k-point  1 :   0.0000 0.0000 0.0000  plane waves:    1551
 k-point  2 :   0.1429 0.0000 0.0000  plane waves:    1555
 k-point  3 :   0.2857 0.0000 0.0000  plane waves:    1546
 k-point  4 :   0.4286 0.0000 0.0000  plane waves:    1558
 k-point  5 :   0.1429 0.1429 0.0000  plane waves:    1564
 k-point  6 :   0.2857 0.1429 0.0000  plane waves:    1557
 k-point  7 :   0.4286 0.1429 0.0000  plane waves:    1567
 k-point  8 :   0.2857 0.2857 0.0000  plane waves:    1566
 k-point  9 :   0.4286 0.2857 0.0000  plane waves:    1564
 k-point 10 :   0.4286 0.4286 0.0000  plane waves:    1570
 k-point 11 :   0.1429 0.1429 0.1429  plane waves:    1569
 k-point 12 :   0.2857 0.1429 0.1429  plane waves:    1554
 k-point 13 :   0.4286 0.1429 0.1429  plane waves:    1557
 k-point 14 :   0.2857 0.2857 0.1429  plane waves:    1573
 k-point 15 :   0.4286 0.2857 0.1429  plane waves:    1563
 k-point 16 :   0.4286 0.4286 0.1429  plane waves:    1566
 k-point 17 :   0.2857 0.2857 0.2857  plane waves:    1559
 k-point 18 :   0.4286 0.2857 0.2857  plane waves:    1560
 k-point 19 :   0.4286 0.4286 0.2857  plane waves:    1557
 k-point 20 :   0.4286 0.4286 0.4286  plane waves:    1559

 maximum and minimum number of plane-waves per node :       797      763

 maximum number of plane-waves:      1573
 maximum index in each direction: 
   IXMAX=    7   IYMAX=    7   IZMAX=    7
   IXMIN=   -7   IYMIN=   -7   IZMIN=   -7


 real space projection operators:
  total allocation   :       2199.35 KBytes
  max/ min on nodes  :       1101.14       1098.21


 parallel 3D FFT for wavefunctions:
    minimum data exchange during FFTs selected (reduces bandwidth)
 parallel 3D FFT for charge:
    minimum data exchange during FFTs selected (reduces bandwidth)


 total amount of memory used by VASP MPI-rank0    47208. kBytes
=======================================================================

   base      :      30000. kBytes
   nonlr-proj:       2007. kBytes
   fftplans  :       8404. kBytes
   grid      :       4089. kBytes
   one-center:         46. kBytes
   wavefun   :       2662. kBytes
 
     INWAV:  cpu time    0.0000: real time    0.0003
 Broyden mixing: mesh for mixing (old mesh)
   NGX = 15   NGY = 15   NGZ = 15
  (NGX  = 60   NGY  = 60   NGZ  = 60)
  gives a total of   3375 points

 initial charge density was supplied:
 charge density of overlapping atoms calculated
 number of electron      32.0000000 magnetization 
 keeping initial charge density in first step


--------------------------------------------------------------------------------------------------------


 Maximum index for non-local projection operator         3732
 Maximum index for augmentation-charges        58975 (set IRDMAX)


--------------------------------------------------------------------------------------------------------


 First call to EWALD:  gamma=   0.449
 Maximum number of real-space cells 3x 3x 3
 Maximum number of reciprocal cells 3x 3x 3

    FEWALD:  cpu time    0.0020: real time    0.0015


--------------------------------------- Iteration      1(   1)  ---------------------------------------


    POTLOK:  cpu time    0.0370: real time    0.3998
    SETDIJ:  cpu time    0.0980: real time    0.0984
     EDDAV:  cpu time    0.4819: real time    0.4866
       DOS:  cpu time    0.0000: real time    0.0010
    --------------------------------------------
      LOOP:  cpu time    0.6169: real time    0.9858

 eigenvalue-minimisations  :   800
 total energy-change (2. order) : 0.2985201E+03  (-0.1547137E+04)
 number of electron      32.0000000 magnetization 
 augmentation part       32.0000000 magnetization 

 Free energy of the ion-electron system (eV)
  ---------------------------------------------------
  alpha Z        PSCENC =       179.60204115
  Ewald energy   TEWEN  =     -1913.70330965
  -Hartree energ DENC   =      -411.87486700
  -exchange      EXHF   =         0.00000000
  -V(xc)+E(xc)   XCENC  =        82.00661982
  PAW double counting   =      1333.61297253    -1284.78446064
  entropy T*S    EENTRO =        -0.03098092
  eigenvalues    EBANDS =        79.37502620
  atomic energy  EATOM  =      2234.31706254
  Solvation  Ediel_sol  =         0.00000000
  ---------------------------------------------------
  free energy    TOTEN  =       298.52010403 eV

  energy without entropy =      298.55108495  energy(sigma->0) =      298.53559449


--------------------------------------------------------------------------------------------------------




--------------------------------------- Iteration      1(   2)  ---------------------------------------


     EDDAV:  cpu time    0.5979: real time    0.6008
       DOS:  cpu time    0.0010: real time    0.0007
    --------------------------------------------
      LOOP:  cpu time    0.5989: real time    0.6015

 eigenvalue-minimisations  :  1076
 total energy-change (2. order) :-0.3155304E+03  (-0.3035639E+03)
 number of electron      32.0000000 magnetization 
 augmentation part       32.0000000 magnetization 

 Free energy of the ion-electron system (eV)
  ---------------------------------------------------
  alpha Z        PSCENC =       179.60204115
  Ewald energy   TEWEN  =     -1913.70330965
  -Hartree energ DENC   =      -411.87486700
  -exchange      EXHF   =         0.00000000
  -V(xc)+E(xc)   XCENC  =        82.00661982
  PAW double counting   =      1333.61297253    -1284.78446064
  entropy T*S    EENTRO =        -0.00735571
  eigenvalues    EBANDS =      -236.17895428
  atomic energy  EATOM  =      2234.31706254
  Solvation  Ediel_sol  =         0.00000000
  ---------------------------------------------------
  free energy    TOTEN  =       -17.01025124 eV

  energy without entropy =      -17.00289553  energy(sigma->0) =      -17.00657338


--------------------------------------------------------------------------------------------------------




--------------------------------------- Iteration      1(   3)  ---------------------------------------


     EDDAV:  cpu time    0.5369: real time    0.5376
       DOS:  cpu time    0.0010: real time    0.0005
    --------------------------------------------
      LOOP:  cpu time    0.5379: real time    0.5381

 eigenvalue-minimisations  :   952
 total energy-change (2. order) :-0.3218639E+02  (-0.3172662E+02)
 number of electron      32.0000000 magnetization 
 augmentation part       32.0000000 magnetization 

 Free energy of the ion-electron system (eV)
  ---------------------------------------------------
  alpha Z        PSCENC =       179.60204115
  Ewald energy   TEWEN  =     -1913.70330965
  -Hartree energ DENC   =      -411.87486700
  -exchange      EXHF   =         0.00000000
  -V(xc)+E(xc)   XCENC  =        82.00661982
  PAW double counting   =      1333.61297253    -1284.78446064
  entropy T*S    EENTRO =        -0.00000000
  eigenvalues    EBANDS =      -268.37269731
  atomic energy  EATOM  =      2234.31706254
  Solvation  Ediel_sol  =         0.00000000
  ---------------------------------------------------
  free energy    TOTEN  =       -49.19663856 eV

  energy without entropy =      -49.19663856  energy(sigma->0) =      -49.19663856


--------------------------------------------------------------------------------------------------------




--------------------------------------- Iteration      1(   4)  ---------------------------------------


     EDDAV:  cpu time    0.7199: real time    0.7238
       DOS:  cpu time    0.0010: real time    0.0005
    --------------------------------------------
      LOOP:  cpu time    0.7209: real time    0.7243

 eigenvalue-minimisations  :  1344
 total energy-change (2. order) :-0.1195714E+01  (-0.1193415E+01)
 number of electron      32.0000000 magnetization 
 augmentation part       32.0000000 magnetization 

 Free energy of the ion-electron system (eV)
  ---------------------------------------------------
  alpha Z        PSCENC =       179.60204115
  Ewald energy   TEWEN  =     -1913.70330965
  -Hartree energ DENC   =      -411.87486700
  -exchange      EXHF   =         0.00000000
  -V(xc)+E(xc)   XCENC  =        82.00661982
  PAW double counting   =      1333.61297253    -1284.78446064
  entropy T*S    EENTRO =        -0.00000000
  eigenvalues    EBANDS =      -269.56841135
  atomic energy  EATOM  =      2234.31706254
  Solvation  Ediel_sol  =         0.00000000
  ---------------------------------------------------
  free energy    TOTEN  =       -50.39235260 eV

  energy without entropy =      -50.39235260  energy(sigma->0) =      -50.39235260


--------------------------------------------------------------------------------------------------------




--------------------------------------- Iteration      1(   5)  ---------------------------------------


     EDDAV:  cpu time    0.5719: real time    0.5726
       DOS:  cpu time    0.0010: real time    0.0005
    CHARGE:  cpu time    0.1110: real time    0.1113
    MIXING:  cpu time    0.0010: real time    0.0011
    --------------------------------------------
      LOOP:  cpu time    0.6849: real time    0.6855

 eigenvalue-minimisations  :  1036
 total energy-change (2. order) :-0.3008312E-01  (-0.3006765E-01)
 number of electron      32.0000000 magnetization 
 augmentation part        3.3833381 magnetization 

 Broyden mixing:
  rms(total) = 0.18248E+01    rms(broyden)= 0.18245E+01
  rms(prec ) = 0.47568E+01
  weight for this iteration     100.00

 Free energy of the ion-electron system (eV)
  ---------------------------------------------------
  alpha Z        PSCENC =       179.60204115
  Ewald energy   TEWEN  =     -1913.70330965
  -Hartree energ DENC   =      -411.87486700
  -exchange      EXHF   =         0.00000000
  -V(xc)+E(xc)   XCENC  =        82.00661982
  PAW double counting   =      1333.61297253    -1284.78446064
  entropy T*S    EENTRO =        -0.00000000
  eigenvalues    EBANDS =      -269.59849448
  atomic energy  EATOM  =      2234.31706254
  Solvation  Ediel_sol  =         0.00000000
  ---------------------------------------------------
  free energy    TOTEN  =       -50.42243572 eV

  energy without entropy =      -50.42243572  energy(sigma->0) =      -50.42243572


--------------------------------------------------------------------------------------------------------




--------------------------------------- Iteration      1(   6)  ---------------------------------------


    POTLOK:  cpu time    0.0320: real time    0.0354
    SETDIJ:  cpu time    0.0880: real time    0.0872
    EDDIAG:  cpu time    0.0750: real time    0.0763
  RMM-DIIS:  cpu time    0.3339: real time    0.3333
    ORTHCH:  cpu time    0.0060: real time    0.0060
       DOS:  cpu time    0.0000: real time    0.0007
    CHARGE:  cpu time    0.1160: real time    0.1154
    MIXING:  cpu time    0.0010: real time    0.0013
    --------------------------------------------
      LOOP:  cpu time    0.6519: real time    0.6555

 eigenvalue-minimisations  :   807
 total energy-change (2. order) : 0.9906853E+01  (-0.6072559E+01)
 number of electron      32.0000000 magnetization 
 augmentation part        3.4698218 magnetization 

 Broyden mixing:
  rms(total) = 0.65194E+00    rms(broyden)= 0.65141E+00
  rms(prec ) = 0.12084E+01
  weight for this iteration     100.00

 eigenvalues of (default mixing * dielectric matrix)
  average eigenvalue GAMMA=   0.7810
  0.7810

 Free energy of the ion-electron system (eV)
  ---------------------------------------------------
  alpha Z        PSCENC =       179.60204115
  Ewald energy   TEWEN  =     -1913.70330965
  -Hartree energ DENC   =      -467.19439344
  -exchange      EXHF   =         0.00000000
  -V(xc)+E(xc)   XCENC  =        86.82483469
  PAW double counting   =      1483.65806715    -1438.01363505
  entropy T*S    EENTRO =        -0.00024962
  eigenvalues    EBANDS =      -206.00600021
  atomic energy  EATOM  =      2234.31706254
  Solvation  Ediel_sol  =         0.00000000
  ---------------------------------------------------
  free energy    TOTEN  =       -40.51558243 eV

  energy without entropy =      -40.51533281  energy(sigma->0) =      -40.51545762


--------------------------------------------------------------------------------------------------------




--------------------------------------- Iteration      1(   7)  ---------------------------------------


    POTLOK:  cpu time    0.0310: real time    0.0317
    SETDIJ:  cpu time    0.0870: real time    0.0864
    EDDIAG:  cpu time    0.0760: real time    0.0758
  RMM-DIIS:  cpu time    0.3629: real time    0.3638
    ORTHCH:  cpu time    0.0060: real time    0.0060
       DOS:  cpu time    0.0010: real time    0.0005
    CHARGE:  cpu time    0.1140: real time    0.1152
    MIXING:  cpu time    0.0020: real time    0.0011
    --------------------------------------------
      LOOP:  cpu time    0.6799: real time    0.6804

 eigenvalue-minimisations  :   857
 total energy-change (2. order) : 0.6771600E+00  (-0.1640094E+00)
 number of electron      32.0000000 magnetization 
 augmentation part        3.3733044 magnetization 

 Broyden mixing:
  rms(total) = 0.32444E+00    rms(broyden)= 0.32442E+00
  rms(prec ) = 0.58053E+00
  weight for this iteration     100.00

 eigenvalues of (default mixing * dielectric matrix)
  average eigenvalue GAMMA=   1.7027
  0.8614  2.5440

 Free energy of the ion-electron system (eV)
  ---------------------------------------------------
  alpha Z        PSCENC =       179.60204115
  Ewald energy   TEWEN  =     -1913.70330965
  -Hartree energ DENC   =      -453.87000569
  -exchange      EXHF   =         0.00000000
  -V(xc)+E(xc)   XCENC  =        85.87220559
  PAW double counting   =      1488.84952479    -1444.41811101
  entropy T*S    EENTRO =        -0.00000000
  eigenvalues    EBANDS =      -216.48783012
  atomic energy  EATOM  =      2234.31706254
  Solvation  Ediel_sol  =         0.00000000
  ---------------------------------------------------
  free energy    TOTEN  =       -39.83842239 eV

  energy without entropy =      -39.83842239  energy(sigma->0) =      -39.83842239


--------------------------------------------------------------------------------------------------------




--------------------------------------- Iteration      1(   8)  ---------------------------------------


    POTLOK:  cpu time    0.0310: real time    0.0353
    SETDIJ:  cpu time    0.0860: real time    0.0850
    EDDIAG:  cpu time    0.0750: real time    0.0753
  RMM-DIIS:  cpu time    0.3369: real time    0.3368
    ORTHCH:  cpu time    0.0060: real time    0.0060
       DOS:  cpu time    0.0000: real time    0.0005
    CHARGE:  cpu time    0.1110: real time    0.1108
    MIXING:  cpu time    0.0010: real time    0.0017
    --------------------------------------------
      LOOP:  cpu time    0.6469: real time    0.6515

 eigenvalue-minimisations  :   837
 total energy-change (2. order) : 0.8984983E-01  (-0.9356396E-01)
 number of electron      32.0000000 magnetization 
 augmentation part        3.4564077 magnetization 

 Broyden mixing:
  rms(total) = 0.60402E-01    rms(broyden)= 0.60335E-01
  rms(prec ) = 0.16045E+00
  weight for this iteration     100.00

 eigenvalues of (default mixing * dielectric matrix)
  average eigenvalue GAMMA=   1.3048
  2.2821  0.8162  0.8162

 Free energy of the ion-electron system (eV)
  ---------------------------------------------------
  alpha Z        PSCENC =       179.60204115
  Ewald energy   TEWEN  =     -1913.70330965
  -Hartree energ DENC   =      -445.78762773
  -exchange      EXHF   =         0.00000000
  -V(xc)+E(xc)   XCENC  =        85.57539222
  PAW double counting   =      1529.54020922    -1486.99749967
  entropy T*S    EENTRO =        -0.00000000
  eigenvalues    EBANDS =      -222.29484065
  atomic energy  EATOM  =      2234.31706254
  Solvation  Ediel_sol  =         0.00000000
  ---------------------------------------------------
  free energy    TOTEN  =       -39.74857256 eV

  energy without entropy =      -39.74857256  energy(sigma->0) =      -39.74857256


--------------------------------------------------------------------------------------------------------




--------------------------------------- Iteration      1(   9)  ---------------------------------------


    POTLOK:  cpu time    0.0310: real time    0.0311
    SETDIJ:  cpu time    0.0850: real time    0.0852
    EDDIAG:  cpu time    0.0760: real time    0.0753
  RMM-DIIS:  cpu time    0.3859: real time    0.3861
    ORTHCH:  cpu time    0.0060: real time    0.0060
       DOS:  cpu time    0.0000: real time    0.0005
    CHARGE:  cpu time    0.1120: real time    0.1120
    MIXING:  cpu time    0.0010: real time    0.0011
    --------------------------------------------
      LOOP:  cpu time    0.6969: real time    0.6973

 eigenvalue-minimisations  :   956
 total energy-change (2. order) : 0.7253634E-02  (-0.5557637E-02)
 number of electron      32.0000000 magnetization 
 augmentation part        3.4370397 magnetization 

 Broyden mixing:
  rms(total) = 0.65511E-01    rms(broyden)= 0.65505E-01
  rms(prec ) = 0.14407E+00
  weight for this iteration     100.00

 eigenvalues of (default mixing * dielectric matrix)
  average eigenvalue GAMMA=   1.4588
  2.0185  2.0185  0.7894  1.0089

 Free energy of the ion-electron system (eV)
  ---------------------------------------------------
  alpha Z        PSCENC =       179.60204115
  Ewald energy   TEWEN  =     -1913.70330965
  -Hartree energ DENC   =      -446.63757361
  -exchange      EXHF   =         0.00000000
  -V(xc)+E(xc)   XCENC  =        85.63602592
  PAW double counting   =      1538.07826740    -1495.78903474
  entropy T*S    EENTRO =        -0.00000000
  eigenvalues    EBANDS =      -221.24479794
  atomic energy  EATOM  =      2234.31706254
  Solvation  Ediel_sol  =         0.00000000
  ---------------------------------------------------
  free energy    TOTEN  =       -39.74131893 eV

  energy without entropy =      -39.74131893  energy(sigma->0) =      -39.74131893


--------------------------------------------------------------------------------------------------------




--------------------------------------- Iteration      1(  10)  ---------------------------------------


    POTLOK:  cpu time    0.0310: real time    0.0342
    SETDIJ:  cpu time    0.0860: real time    0.0849
    EDDIAG:  cpu time    0.0750: real time    0.0754
  RMM-DIIS:  cpu time    0.3459: real time    0.3463
    ORTHCH:  cpu time    0.0060: real time    0.0059
       DOS:  cpu time    0.0000: real time    0.0005
    CHARGE:  cpu time    0.1120: real time    0.1113
    MIXING:  cpu time    0.0010: real time    0.0012
    --------------------------------------------
      LOOP:  cpu time    0.6569: real time    0.6597

 eigenvalue-minimisations  :   877
 total energy-change (2. order) : 0.4963671E-02  (-0.1543477E-01)
 number of electron      32.0000000 magnetization 
 augmentation part        3.4158966 magnetization 

 Broyden mixing:
  rms(total) = 0.46203E-01    rms(broyden)= 0.46182E-01
  rms(prec ) = 0.10374E+00
  weight for this iteration     100.00

 eigenvalues of (default mixing * dielectric matrix)
  average eigenvalue GAMMA=   1.4302
  2.3609  1.7432  0.7665  1.1402  1.1402

 Free energy of the ion-electron system (eV)
  ---------------------------------------------------
  alpha Z        PSCENC =       179.60204115
  Ewald energy   TEWEN  =     -1913.70330965
  -Hartree energ DENC   =      -450.71532634
  -exchange      EXHF   =         0.00000000
  -V(xc)+E(xc)   XCENC  =        85.90294257
  PAW double counting   =      1546.59320568    -1504.30018117
  entropy T*S    EENTRO =        -0.00000000
  eigenvalues    EBANDS =      -217.43279005
  atomic energy  EATOM  =      2234.31706254
  Solvation  Ediel_sol  =         0.00000000
  ---------------------------------------------------
  free energy    TOTEN  =       -39.73635526 eV

  energy without entropy =      -39.73635526  energy(sigma->0) =      -39.73635526


--------------------------------------------------------------------------------------------------------




--------------------------------------- Iteration      1(  11)  ---------------------------------------


    POTLOK:  cpu time    0.0310: real time    0.0311
    SETDIJ:  cpu time    0.0850: real time    0.0848
    EDDIAG:  cpu time    0.0750: real time    0.0753
  RMM-DIIS:  cpu time    0.3429: real time    0.3429
    ORTHCH:  cpu time    0.0060: real time    0.0060
       DOS:  cpu time    0.0000: real time    0.0005
    CHARGE:  cpu time    0.1110: real time    0.1110
    MIXING:  cpu time    0.0020: real time    0.0012
    --------------------------------------------
      LOOP:  cpu time    0.6529: real time    0.6526

 eigenvalue-minimisations  :   883
 total energy-change (2. order) : 0.2420609E-02  (-0.3985653E-02)
 number of electron      32.0000000 magnetization 
 augmentation part        3.3961467 magnetization 

 Broyden mixing:
  rms(total) = 0.20421E-01    rms(broyden)= 0.20416E-01
  rms(prec ) = 0.60943E-01
  weight for this iteration     100.00

 eigenvalues of (default mixing * dielectric matrix)
  average eigenvalue GAMMA=   1.3244
  2.4491  1.5057  1.5057  1.1049  0.8216  0.5591

 Free energy of the ion-electron system (eV)
  ---------------------------------------------------
  alpha Z        PSCENC =       179.60204115
  Ewald energy   TEWEN  =     -1913.70330965
  -Hartree energ DENC   =      -449.28023196
  -exchange      EXHF   =         0.00000000
  -V(xc)+E(xc)   XCENC  =        85.79142041
  PAW double counting   =      1545.29348379    -1502.97730085
  entropy T*S    EENTRO =        -0.00000000
  eigenvalues    EBANDS =      -218.77710007
  atomic energy  EATOM  =      2234.31706254
  Solvation  Ediel_sol  =         0.00000000
  ---------------------------------------------------
  free energy    TOTEN  =       -39.73393465 eV

  energy without entropy =      -39.73393465  energy(sigma->0) =      -39.73393465


--------------------------------------------------------------------------------------------------------




--------------------------------------- Iteration      1(  12)  ---------------------------------------


    POTLOK:  cpu time    0.0310: real time    0.0334
    SETDIJ:  cpu time    0.0850: real time    0.0854
    EDDIAG:  cpu time    0.0760: real time    0.0753
  RMM-DIIS:  cpu time    0.3519: real time    0.3524
    ORTHCH:  cpu time    0.0060: real time    0.0060
       DOS:  cpu time    0.0000: real time    0.0005
    CHARGE:  cpu time    0.1120: real time    0.1116
    MIXING:  cpu time    0.0010: real time    0.0012
    --------------------------------------------
      LOOP:  cpu time    0.6629: real time    0.6657

 eigenvalue-minimisations  :   906
 total energy-change (2. order) : 0.1187202E-02  (-0.4659320E-03)
 number of electron      32.0000000 magnetization 
 augmentation part        3.4039921 magnetization 

 Broyden mixing:
  rms(total) = 0.11172E-01    rms(broyden)= 0.11171E-01
  rms(prec ) = 0.26859E-01
  weight for this iteration     100.00

 eigenvalues of (default mixing * dielectric matrix)
  average eigenvalue GAMMA=   1.5044
  2.4591  2.4591  2.0517  1.0157  0.7311  0.9069  0.9069

 Free energy of the ion-electron system (eV)
  ---------------------------------------------------
  alpha Z        PSCENC =       179.60204115
  Ewald energy   TEWEN  =     -1913.70330965
  -Hartree energ DENC   =      -449.17830164
  -exchange      EXHF   =         0.00000000
  -V(xc)+E(xc)   XCENC  =        85.79558050
  PAW double counting   =      1545.17554654    -1502.83404564
  entropy T*S    EENTRO =        -0.00000000
  eigenvalues    EBANDS =      -218.90732124
  atomic energy  EATOM  =      2234.31706254
  Solvation  Ediel_sol  =         0.00000000
  ---------------------------------------------------
  free energy    TOTEN  =       -39.73274745 eV

  energy without entropy =      -39.73274745  energy(sigma->0) =      -39.73274745


--------------------------------------------------------------------------------------------------------




--------------------------------------- Iteration      1(  13)  ---------------------------------------


    POTLOK:  cpu time    0.0300: real time    0.0313
    SETDIJ:  cpu time    0.0860: real time    0.0850
    EDDIAG:  cpu time    0.0750: real time    0.0752
  RMM-DIIS:  cpu time    0.3819: real time    0.3816
    ORTHCH:  cpu time    0.0050: real time    0.0060
       DOS:  cpu time    0.0010: real time    0.0005
    CHARGE:  cpu time    0.1110: real time    0.1114
    MIXING:  cpu time    0.0020: real time    0.0013
    --------------------------------------------
      LOOP:  cpu time    0.6919: real time    0.6921

 eigenvalue-minimisations  :   992
 total energy-change (2. order) :-0.3869184E-03  (-0.2269457E-03)
 number of electron      32.0000000 magnetization 
 augmentation part        3.4061341 magnetization 

 Broyden mixing:
  rms(total) = 0.15551E-01    rms(broyden)= 0.15551E-01
  rms(prec ) = 0.35904E-01
  weight for this iteration     100.00

 eigenvalues of (default mixing * dielectric matrix)
  average eigenvalue GAMMA=   1.4217
  2.5181  2.5181  1.2090  1.2090  1.1864  1.1864  0.8642  0.6824

 Free energy of the ion-electron system (eV)
  ---------------------------------------------------
  alpha Z        PSCENC =       179.60204115
  Ewald energy   TEWEN  =     -1913.70330965
  -Hartree energ DENC   =      -449.06383307
  -exchange      EXHF   =         0.00000000
  -V(xc)+E(xc)   XCENC  =        85.78886345
  PAW double counting   =      1544.64399329    -1502.20672683
  entropy T*S    EENTRO =        -0.00000000
  eigenvalues    EBANDS =      -219.11122525
  atomic energy  EATOM  =      2234.31706254
  Solvation  Ediel_sol  =         0.00000000
  ---------------------------------------------------
  free energy    TOTEN  =       -39.73313437 eV

  energy without entropy =      -39.73313437  energy(sigma->0) =      -39.73313437


--------------------------------------------------------------------------------------------------------




--------------------------------------- Iteration      1(  14)  ---------------------------------------


    POTLOK:  cpu time    0.0310: real time    0.0343
    SETDIJ:  cpu time    0.0860: real time    0.0852
    EDDIAG:  cpu time    0.0750: real time    0.0753
  RMM-DIIS:  cpu time    0.3379: real time    0.3382
    ORTHCH:  cpu time    0.0060: real time    0.0060
       DOS:  cpu time    0.0010: real time    0.0005
    CHARGE:  cpu time    0.1110: real time    0.1109
    MIXING:  cpu time    0.0010: real time    0.0013
    --------------------------------------------
      LOOP:  cpu time    0.6489: real time    0.6517

 eigenvalue-minimisations  :   879
 total energy-change (2. order) : 0.4566325E-03  (-0.2983786E-03)
 number of electron      32.0000000 magnetization 
 augmentation part        3.4048033 magnetization 

 Broyden mixing:
  rms(total) = 0.14193E-02    rms(broyden)= 0.14063E-02
  rms(prec ) = 0.32464E-02
  weight for this iteration     100.00

 eigenvalues of (default mixing * dielectric matrix)
  average eigenvalue GAMMA=   1.5356
  2.5637  2.5637  2.4023  1.3713  1.2326  1.2326  0.8715  0.8715  0.7115

 Free energy of the ion-electron system (eV)
  ---------------------------------------------------
  alpha Z        PSCENC =       179.60204115
  Ewald energy   TEWEN  =     -1913.70330965
  -Hartree energ DENC   =      -449.57023984
  -exchange      EXHF   =         0.00000000
  -V(xc)+E(xc)   XCENC  =        85.82517036
  PAW double counting   =      1546.09951997    -1503.69106656
  entropy T*S    EENTRO =        -0.00000000
  eigenvalues    EBANDS =      -218.61185569
  atomic energy  EATOM  =      2234.31706254
  Solvation  Ediel_sol  =         0.00000000
  ---------------------------------------------------
  free energy    TOTEN  =       -39.73267773 eV

  energy without entropy =      -39.73267773  energy(sigma->0) =      -39.73267773


--------------------------------------------------------------------------------------------------------




--------------------------------------- Iteration      1(  15)  ---------------------------------------


    POTLOK:  cpu time    0.0300: real time    0.0310
    SETDIJ:  cpu time    0.0870: real time    0.0859
    EDDIAG:  cpu time    0.0750: real time    0.0752
  RMM-DIIS:  cpu time    0.3449: real time    0.3447
    ORTHCH:  cpu time    0.0050: real time    0.0060
       DOS:  cpu time    0.0000: real time    0.0005
    CHARGE:  cpu time    0.1110: real time    0.1111
    MIXING:  cpu time    0.0020: real time    0.0013
    --------------------------------------------
      LOOP:  cpu time    0.6549: real time    0.6557

 eigenvalue-minimisations  :   858
 total energy-change (2. order) :-0.4276535E-04  (-0.3841470E-04)
 number of electron      32.0000000 magnetization 
 augmentation part        3.4035993 magnetization 

 Broyden mixing:
  rms(total) = 0.21005E-02    rms(broyden)= 0.21001E-02
  rms(prec ) = 0.56493E-02
  weight for this iteration     100.00

 eigenvalues of (default mixing * dielectric matrix)
  average eigenvalue GAMMA=   1.5128
  2.9900  2.9900  1.9577  1.7282  1.1158  1.1158  0.6902  0.8556  0.8427  0.8427

 Free energy of the ion-electron system (eV)
  ---------------------------------------------------
  alpha Z        PSCENC =       179.60204115
  Ewald energy   TEWEN  =     -1913.70330965
  -Hartree energ DENC   =      -449.53763828
  -exchange      EXHF   =         0.00000000
  -V(xc)+E(xc)   XCENC  =        85.82209604
  PAW double counting   =      1546.01670512    -1503.60412870
  entropy T*S    EENTRO =        -0.00000000
  eigenvalues    EBANDS =      -218.64554872
  atomic energy  EATOM  =      2234.31706254
  Solvation  Ediel_sol  =         0.00000000
  ---------------------------------------------------
  free energy    TOTEN  =       -39.73272050 eV

  energy without entropy =      -39.73272050  energy(sigma->0) =      -39.73272050


--------------------------------------------------------------------------------------------------------




--------------------------------------- Iteration      1(  16)  ---------------------------------------


    POTLOK:  cpu time    0.0310: real time    0.0345
    SETDIJ:  cpu time    0.0860: real time    0.0857
    EDDIAG:  cpu time    0.0750: real time    0.0754
  RMM-DIIS:  cpu time    0.3000: real time    0.2990
    ORTHCH:  cpu time    0.0050: real time    0.0060
       DOS:  cpu time    0.0010: real time    0.0005
    CHARGE:  cpu time    0.1120: real time    0.1118
    MIXING:  cpu time    0.0010: real time    0.0014
    --------------------------------------------
      LOOP:  cpu time    0.6109: real time    0.6144

 eigenvalue-minimisations  :   754
 total energy-change (2. order) :-0.1351069E-05  (-0.1104691E-04)
 number of electron      32.0000000 magnetization 
 augmentation part        3.4037547 magnetization 

 Broyden mixing:
  rms(total) = 0.87199E-03    rms(broyden)= 0.87150E-03
  rms(prec ) = 0.24626E-02
  weight for this iteration     100.00

 eigenvalues of (default mixing * dielectric matrix)
  average eigenvalue GAMMA=   1.4518
  2.3390  2.3390  2.3380  2.0350  1.1690  1.1690  1.0415  1.0415  0.7038  0.8972
  0.8972

 Free energy of the ion-electron system (eV)
  ---------------------------------------------------
  alpha Z        PSCENC =       179.60204115
  Ewald energy   TEWEN  =     -1913.70330965
  -Hartree energ DENC   =      -449.58682084
  -exchange      EXHF   =         0.00000000
  -V(xc)+E(xc)   XCENC  =        85.82555642
  PAW double counting   =      1546.05923192    -1503.63047751
  entropy T*S    EENTRO =        -0.00000000
  eigenvalues    EBANDS =      -218.61600588
  atomic energy  EATOM  =      2234.31706254
  Solvation  Ediel_sol  =         0.00000000
  ---------------------------------------------------
  free energy    TOTEN  =       -39.73272185 eV

  energy without entropy =      -39.73272185  energy(sigma->0) =      -39.73272185


--------------------------------------------------------------------------------------------------------




--------------------------------------- Iteration      1(  17)  ---------------------------------------


    POTLOK:  cpu time    0.0310: real time    0.0309
    SETDIJ:  cpu time    0.0860: real time    0.0856
    EDDIAG:  cpu time    0.0750: real time    0.0754
  RMM-DIIS:  cpu time    0.2420: real time    0.2417
    ORTHCH:  cpu time    0.0060: real time    0.0060
       DOS:  cpu time    0.0000: real time    0.0005
    --------------------------------------------
      LOOP:  cpu time    0.4399: real time    0.4400

 eigenvalue-minimisations  :   587
 total energy-change (2. order) :-0.4065946E-06  (-0.3802053E-05)
 number of electron      32.0000000 magnetization 
 augmentation part        3.4037547 magnetization 

 Free energy of the ion-electron system (eV)
  ---------------------------------------------------
  alpha Z        PSCENC =       179.60204115
  Ewald energy   TEWEN  =     -1913.70330965
  -Hartree energ DENC   =      -449.57651442
  -exchange      EXHF   =         0.00000000
  -V(xc)+E(xc)   XCENC  =        85.82538009
  PAW double counting   =      1546.07746308    -1503.64993509
  entropy T*S    EENTRO =        -0.00000000
  eigenvalues    EBANDS =      -218.62490995
  atomic energy  EATOM  =      2234.31706254
  Solvation  Ediel_sol  =         0.00000000
  ---------------------------------------------------
  free energy    TOTEN  =       -39.73272226 eV

  energy without entropy =      -39.73272226  energy(sigma->0) =      -39.73272226


--------------------------------------------------------------------------------------------------------




 average (electrostatic) potential at core
  the test charge radii are     1.1929  1.2598  0.7215
  (the norm of the test charge is              1.0000)
       1 -36.4728       2 -27.1493       3 -71.2607       4 -71.2607       5 -71.2607
 
 
 
 E-fermi :   3.2188     XC(G=0): -10.9867     alpha+bet :-12.2403


 k-point     1 :       0.0000    0.0000    0.0000
  band No.  band energies     occupation 
      1     -30.3977      2.00000
      2     -14.9163      2.00000
      3     -13.9395      2.00000
      4     -13.9395      2.00000
      5     -12.4506      2.00000
      6     -12.4506      2.00000
      7     -12.4506      2.00000
      8      -0.3976      2.00000
      9      -0.3976      2.00000
     10      -0.3976      2.00000
     11       1.3119      2.00000
     12       1.3119      2.00000
     13       1.3119      2.00000
     14       2.0815      2.00000
     15       2.0815      2.00000
     16       2.0815      2.00000
     17       4.0618      0.00000
     18       4.0618      0.00000
     19       4.0636      0.00000
     20       7.8330      0.00000

 k-point     2 :       0.1429    0.0000    0.0000
  band No.  band energies     occupation 
      1     -30.3940      2.00000
      2     -14.9274      2.00000
      3     -13.9655      2.00000
      4     -13.9326      2.00000
      5     -12.4427      2.00000
      6     -12.4427      2.00000
      7     -12.3227      2.00000
      8      -0.6513      2.00000
      9      -0.4057      2.00000
     10      -0.4057      2.00000
     11       1.0527      2.00000
     12       1.0527      2.00000
     13       1.1456      2.00000
     14       1.4999      2.00000
     15       1.9600      2.00000
     16       1.9600      2.00000
     17       4.0882      0.00000
     18       4.4886      0.00000
     19       4.4886      0.00000
     20       8.1182      0.00000

 k-point     3 :       0.2857    0.0000    0.0000
  band No.  band energies     occupation 
      1     -30.3856      2.00000
      2     -15.0045      2.00000
      3     -13.9172      2.00000
      4     -13.9143      2.00000
      5     -12.4246      2.00000
      6     -12.4246      2.00000
      7     -12.0838      2.00000
      8      -1.2464      2.00000
      9      -0.4118      2.00000
     10      -0.4118      2.00000
     11       0.5475      2.00000
     12       0.5475      2.00000
     13       0.5936      2.00000
     14       0.8115      2.00000
     15       1.8086      2.00000
     16       1.8086      2.00000
     17       4.1489      0.00000
     18       5.2556      0.00000
     19       5.2562      0.00000
     20       8.8775      0.00000

 k-point     4 :       0.4286    0.0000    0.0000
  band No.  band energies     occupation 
      1     -30.3788      2.00000
      2     -15.0970      2.00000
      3     -13.9050      2.00000
      4     -13.8010      2.00000
      5     -12.4101      2.00000
      6     -12.4101      2.00000
      7     -11.9245      2.00000
      8      -1.7493      2.00000
      9      -0.3869      2.00000
     10      -0.3869      2.00000
     11       0.0793      2.00000
     12       0.1790      2.00000
     13       0.1790      2.00000
     14       0.5735      2.00000
     15       1.7228      2.00000
     16       1.7228      2.00000
     17       4.1991      0.00000
     18       5.7888      0.00000
     19       5.7888      0.00000
     20       9.4984      0.00000

 k-point     5 :       0.1429    0.1429    0.0000
  band No.  band energies     occupation 
      1     -30.3904      2.00000
      2     -14.9142      2.00000
      3     -14.0002      2.00000
      4     -13.9294      2.00000
      5     -12.4345      2.00000
      6     -12.3697      2.00000
      7     -12.2827      2.00000
      8      -0.7992      2.00000
      9      -0.5230      2.00000
     10      -0.4122      2.00000
     11       0.5304      2.00000
     12       0.8592      2.00000
     13       1.3134      2.00000
     14       1.3304      2.00000
     15       1.6645      2.00000
     16       1.7832      2.00000
     17       4.4564      0.00000
     18       4.5537      0.00000
     19       4.7275      0.00000
     20       8.4053      0.00000

 k-point     6 :       0.2857    0.1429    0.0000
  band No.  band energies     occupation 
      1     -30.3822      2.00000
      2     -14.9392      2.00000
      3     -13.9995      2.00000
      4     -13.8960      2.00000
      5     -12.4160      2.00000
      6     -12.3405      2.00000
      7     -12.0993      2.00000
      8      -1.2947      2.00000
      9      -0.6652      2.00000
     10      -0.4145      2.00000
     11      -0.1363      2.00000
     12       0.4302      2.00000
     13       0.7334      2.00000
     14       1.2869      2.00000
     15       1.4950      2.00000
     16       1.5663      2.00000
     17       4.5414      0.00000
     18       5.2648      0.00000
     19       5.3203      0.00000
     20       9.1118      0.00000

 k-point     7 :       0.4286    0.1429    0.0000
  band No.  band energies     occupation 
      1     -30.3756      2.00000
      2     -15.0031      2.00000
      3     -13.9156      2.00000
      4     -13.8733      2.00000
      5     -12.4010      2.00000
      6     -12.3316      2.00000
      7     -11.9641      2.00000
      8      -1.7631      2.00000
      9      -0.8085      2.00000
     10      -0.5114      2.00000
     11      -0.3832      2.00000
     12       0.0866      2.00000
     13       0.4466      2.00000
     14       1.2288      2.00000
     15       1.3476      2.00000
     16       1.4565      2.00000
     17       4.5795      0.00000
     18       5.7894      0.00000
     19       5.8120      0.00000
     20       9.7192      0.00000

 k-point     8 :       0.2857    0.2857    0.0000
  band No.  band energies     occupation 
      1     -30.3745      2.00000
      2     -14.8106      2.00000
      3     -14.1162      2.00000
      4     -13.8697      2.00000
      5     -12.3963      2.00000
      6     -12.2047      2.00000
      7     -12.1066      2.00000
      8      -1.5076      2.00000
      9      -1.0651      2.00000
     10      -0.9011      2.00000
     11      -0.4114      2.00000
     12       0.1491      2.00000
     13       0.7055      2.00000
     14       1.0345      2.00000
     15       1.2092      2.00000
     16       1.8146      2.00000
     17       5.2180      0.00000
     18       5.3337      0.00000
     19       5.6208      0.00000
     20       9.5057      0.00000

 k-point     9 :       0.4286    0.2857    0.0000
  band No.  band energies     occupation 
      1     -30.3684      2.00000
      2     -14.7552      2.00000
      3     -14.0852      2.00000
      4     -13.9032      2.00000
      5     -12.3805      2.00000
      6     -12.1819      2.00000
      7     -12.0375      2.00000
      8      -1.8155      2.00000
      9      -1.5258      2.00000
     10      -1.1354      2.00000
     11      -0.3734      2.00000
     12      -0.1150      2.00000
     13       0.6655      2.00000
     14       0.9641      2.00000
     15       1.0175      2.00000
     16       1.9330      2.00000
     17       5.2887      0.00000
     18       5.7922      0.00000
     19       5.9737      0.00000
     20      10.0037      0.00000

 k-point    10 :       0.4286    0.4286    0.0000
  band No.  band energies     occupation 
      1     -30.3626      2.00000
      2     -14.4700      2.00000
      3     -14.1950      2.00000
      4     -14.0325      2.00000
      5     -12.3638      2.00000
      6     -12.0826      2.00000
      7     -12.0701      2.00000
      8      -1.9896      2.00000
      9      -1.9078      2.00000
     10      -1.6003      2.00000
     11      -0.3544      2.00000
     12      -0.2813      2.00000
     13       0.7466      2.00000
     14       0.8308      2.00000
     15       0.9043      2.00000
     16       2.2454      2.00000
     17       5.7839      0.00000
     18       5.8040      0.00000
     19       6.2093      0.00000
     20       8.6129      0.00000

 k-point    11 :       0.1429    0.1429    0.1429
  band No.  band energies     occupation 
      1     -30.3868      2.00000
      2     -14.8861      2.00000
      3     -13.9782      2.00000
      4     -13.9782      2.00000
      5     -12.3853      2.00000
      6     -12.3853      2.00000
      7     -12.2261      2.00000
      8      -0.9509      2.00000
      9      -0.5251      2.00000
     10      -0.5251      2.00000
     11       0.4329      2.00000
     12       0.4329      2.00000
     13       0.9527      2.00000
     14       1.5006      2.00000
     15       1.6139      2.00000
     16       1.6139      2.00000
     17       4.6916      0.00000
     18       4.7820      0.00000
     19       4.7820      0.00000
     20       8.6708      0.00000

 k-point    12 :       0.2857    0.1429    0.1429
  band No.  band energies     occupation 
      1     -30.3789      2.00000
      2     -14.8723      2.00000
      3     -13.9995      2.00000
      4     -13.9265      2.00000
      5     -12.4227      2.00000
      6     -12.3054      2.00000
      7     -12.0987      2.00000
      8      -1.3533      2.00000
      9      -0.7707      2.00000
     10      -0.5271      2.00000
     11      -0.1531      2.00000
     12      -0.0838      2.00000
     13       0.7026      2.00000
     14       1.3667      2.00000
     15       1.4818      2.00000
     16       1.4955      2.00000
     17       4.7991      0.00000
     18       5.3394      0.00000
     19       5.3503      0.00000
     20       9.3331      0.00000

 k-point    13 :       0.4286    0.1429    0.1429
  band No.  band energies     occupation 
      1     -30.3725      2.00000
      2     -14.9097      2.00000
      3     -13.9382      2.00000
      4     -13.8825      2.00000
      5     -12.4554      2.00000
      6     -12.2497      2.00000
      7     -12.0091      2.00000
      8      -1.7744      2.00000
      9      -0.9551      2.00000
     10      -0.5941      2.00000
     11      -0.5209      2.00000
     12      -0.3816      2.00000
     13       0.7847      2.00000
     14       1.1225      2.00000
     15       1.3522      2.00000
     16       1.4138      2.00000
     17       4.8437      0.00000
     18       5.8183      0.00000
     19       5.8371      0.00000
     20       9.9285      0.00000

 k-point    14 :       0.2857    0.2857    0.1429
  band No.  band energies     occupation 
      1     -30.3714      2.00000
      2     -14.7358      2.00000
      3     -14.0685      2.00000
      4     -13.8911      2.00000
      5     -12.4271      2.00000
      6     -12.2650      2.00000
      7     -12.0827      2.00000
      8      -1.5451      2.00000
      9      -1.0600      2.00000
     10      -0.8458      2.00000
     11      -0.6278      2.00000
     12      -0.2202      2.00000
     13       0.2620      2.00000
     14       1.3152      2.00000
     15       1.3732      2.00000
     16       1.8264      2.00000
     17       5.3427      0.00000
     18       5.4355      0.00000
     19       5.6533      0.00000
     20       9.9852      0.00000

 k-point    15 :       0.4286    0.2857    0.1429
  band No.  band energies     occupation 
      1     -30.3653      2.00000
      2     -14.6647      2.00000
      3     -14.0523      2.00000
      4     -13.8763      2.00000
      5     -12.4619      2.00000
      6     -12.1906      2.00000
      7     -12.0897      2.00000
      8      -1.8147      2.00000
      9      -1.4618      2.00000
     10      -1.1247      2.00000
     11      -0.6310      2.00000
     12      -0.4843      2.00000
     13       0.2792      2.00000
     14       1.2159      2.00000
     15       1.3111      2.00000
     16       1.9434      2.00000
     17       5.4238      0.00000
     18       5.8610      0.00000
     19       6.0046      0.00000
     20      10.2363      0.00000

 k-point    16 :       0.4286    0.4286    0.1429
  band No.  band energies     occupation 
      1     -30.3596      2.00000
      2     -14.3831      2.00000
      3     -14.1317      2.00000
      4     -13.9746      2.00000
      5     -12.4358      2.00000
      6     -12.1736      2.00000
      7     -12.1367      2.00000
      8      -1.9411      2.00000
      9      -1.8101      2.00000
     10      -1.5967      2.00000
     11      -0.6361      2.00000
     12      -0.5737      2.00000
     13       0.1290      2.00000
     14       1.2532      2.00000
     15       1.2933      2.00000
     16       2.2592      2.00000
     17       5.8756      0.00000
     18       5.8948      0.00000
     19       6.2457      0.00000
     20       9.7111      0.00000

 k-point    17 :       0.2857    0.2857    0.2857
  band No.  band energies     occupation 
      1     -30.3642      2.00000
      2     -14.5649      2.00000
      3     -13.9472      2.00000
      4     -13.9472      2.00000
      5     -12.4142      2.00000
      6     -12.4142      2.00000
      7     -12.0968      2.00000
      8      -1.6324      2.00000
      9      -1.0467      2.00000
     10      -1.0467      2.00000
     11      -0.7057      2.00000
     12      -0.6833      2.00000
     13      -0.6833      2.00000
     14       1.6177      2.00000
     15       1.6177      2.00000
     16       1.9520      2.00000
     17       5.6918      0.00000
     18       5.7460      0.00000
     19       5.7461      0.00000
     20      10.0068      0.00000

 k-point    18 :       0.4286    0.2857    0.2857
  band No.  band energies     occupation 
      1     -30.3584      2.00000
      2     -14.4307      2.00000
      3     -13.9903      2.00000
      4     -13.8300      2.00000
      5     -12.5540      2.00000
      6     -12.3141      2.00000
      7     -12.1864      2.00000
      8      -1.8221      2.00000
      9      -1.4023      2.00000
     10      -1.1398      2.00000
     11      -1.0263      2.00000
     12      -0.9474      2.00000
     13      -0.5749      2.00000
     14       1.6516      2.00000
     15       1.7749      2.00000
     16       2.0507      2.00000
     17       5.7858      0.00000
     18       6.0612      0.00000
     19       6.0889      0.00000
     20      10.0657      0.00000

 k-point    19 :       0.4286    0.4286    0.2857
  band No.  band energies     occupation 
      1     -30.3529      2.00000
      2     -14.1646      2.00000
      3     -13.9642      2.00000
      4     -13.8463      2.00000
      5     -12.5732      2.00000
      6     -12.4023      2.00000
      7     -12.3175      2.00000
      8      -1.9284      2.00000
      9      -1.5881      2.00000
     10      -1.5093      2.00000
     11      -1.0681      2.00000
     12      -0.9672      2.00000
     13      -0.8870      2.00000
     14       1.8654      2.00000
     15       1.8990      2.00000
     16       2.2942      2.00000
     17       6.1255      0.00000
     18       6.1378      0.00000
     19       6.3233      0.00000
     20       9.5352      0.00000

 k-point    20 :       0.4286    0.4286    0.4286
  band No.  band energies     occupation 
      1     -30.3474      2.00000
      2     -13.9236      2.00000
      3     -13.7860      2.00000
      4     -13.7860      2.00000
      5     -12.6293      2.00000
      6     -12.6293      2.00000
      7     -12.5237      2.00000
      8      -2.0294      2.00000
      9      -1.5803      2.00000
     10      -1.5803      2.00000
     11      -1.2889      2.00000
     12      -1.1878      2.00000
     13      -1.1878      2.00000
     14       2.2622      2.00000
     15       2.2622      2.00000
     16       2.3464      2.00000
     17       6.3791      0.00000
     18       6.3932      0.00000
     19       6.3933      0.00000
     20       9.4197      0.00000


--------------------------------------------------------------------------------------------------------


 soft charge-density along one line, spin component           1
         0         1         2         3         4         5         6         7         8         9
 total charge-density along one line
 
 pseudopotential strength for first ion, spin component:           1
-11.286  -7.485  -0.000   0.000  -0.000   0.000  -0.000   0.000
 -7.485  -5.739  -0.000   0.000  -0.000   0.000  -0.000   0.000
 -0.000  -0.000 -14.925  -0.000   0.000   0.107   0.000  -0.000
  0.000   0.000  -0.000 -14.925  -0.000   0.000   0.107   0.000
 -0.000  -0.000   0.000  -0.000 -14.925  -0.000   0.000   0.107
  0.000   0.000   0.107   0.000  -0.000   0.037   0.000  -0.000
 -0.000  -0.000   0.000   0.107   0.000   0.000   0.037   0.000
  0.000   0.000  -0.000   0.000   0.107  -0.000   0.000   0.037
  0.000   0.000  -0.000  -0.000  -0.000   0.000   0.000   0.000
 -0.000  -0.000   0.000  -0.000  -0.000  -0.000   0.000   0.000
 -0.000  -0.000   0.000   0.000   0.000  -0.000  -0.000  -0.000
 -0.000  -0.000  -0.000  -0.000   0.000   0.000   0.000  -0.000
 -0.000  -0.000   0.000   0.000  -0.000  -0.000  -0.000  -0.000
  0.000   0.000  -0.000  -0.000  -0.000  -0.000  -0.000  -0.000
 -0.000  -0.000   0.000  -0.000  -0.000   0.000  -0.000  -0.000
 -0.000  -0.000   0.000   0.000   0.000   0.000  -0.000  -0.000
 -0.000  -0.000  -0.000  -0.000   0.000  -0.000  -0.000   0.000
 -0.000  -0.000   0.000   0.000  -0.000  -0.000   0.000   0.000
 total augmentation occupancy for first ion, spin component:           1
  2.103  -0.220   0.000   0.000   0.000   0.000   0.000   0.000  -0.000   0.000  -0.000   0.000   0.000   0.000  -0.000   0.000
 -0.220   0.454   0.000   0.000   0.000   0.000   0.000   0.000   0.000  -0.000   0.000  -0.000   0.000  -0.000  -0.000   0.000
  0.000   0.000   2.025   0.000   0.000   0.070   0.000   0.000   0.000   0.000   0.000   0.000   0.000   0.000   0.000   0.000
  0.000   0.000   0.000   2.025  -0.000   0.000   0.070  -0.000   0.000   0.000   0.000   0.000   0.000   0.000   0.000   0.000
  0.000   0.000   0.000  -0.000   2.025   0.000   0.000   0.070   0.000   0.000   0.000   0.000   0.000   0.000   0.000   0.000
  0.000   0.000   0.070  -0.000  -0.000   0.279  -0.000   0.000   0.000   0.000   0.000   0.000   0.000   0.000   0.000   0.000
  0.000   0.000   0.000   0.070   0.000   0.000   0.279   0.000   0.000   0.000   0.000   0.000   0.000   0.000   0.000   0.000
  0.000   0.000  -0.000  -0.000   0.070   0.000  -0.000   0.279   0.000   0.000   0.000   0.000   0.000   0.000   0.000   0.000
 -0.000   0.000   0.000   0.000   0.000   0.000   0.000   0.000   0.089  -0.000  -0.000  -0.000   0.000  -0.393   0.000  -0.000
  0.000   0.000   0.000   0.000   0.000   0.000   0.000   0.000  -0.000   0.089   0.000   0.000  -0.000  -0.000  -0.393  -0.000
 -0.000   0.000   0.000   0.000   0.000   0.000   0.000   0.000  -0.000   0.000   0.060   0.000   0.000  -0.000  -0.000  -0.254
  0.000   0.000   0.000   0.000   0.000   0.000   0.000   0.000  -0.000   0.000   0.000   0.089   0.000  -0.000  -0.000  -0.000
  0.000   0.000   0.000   0.000   0.000   0.000   0.000   0.000   0.000  -0.000  -0.000   0.000   0.060   0.000   0.000   0.000
  0.000  -0.000   0.000   0.000   0.000   0.000   0.000   0.000  -0.393   0.000  -0.000   0.000  -0.000   1.840   0.000  -0.000
 -0.000  -0.000   0.000   0.000   0.000   0.000   0.000   0.000   0.000  -0.393  -0.000   0.000   0.000  -0.000   1.840   0.000
 -0.000   0.000   0.000   0.000   0.000   0.000   0.000   0.000  -0.000  -0.000  -0.254  -0.000   0.000   0.000   0.000   1.147
 -0.000  -0.000   0.000   0.000   0.000   0.000   0.000   0.000  -0.000   0.000  -0.000  -0.393  -0.000  -0.000  -0.000  -0.000
  0.000   0.000   0.000   0.000   0.000   0.000   0.000   0.000  -0.000   0.000   0.000  -0.000  -0.254   0.000  -0.000   0.000


------------------------ aborting loop because EDIFF is reached ----------------------------------------


    CHARGE:  cpu time    0.1120: real time    0.1123
    FORLOC:  cpu time    0.0040: real time    0.0038
    FORNL :  cpu time    0.6529: real time    0.6525
    STRESS:  cpu time    2.0347: real time    2.0346
    FORCOR:  cpu time    0.0330: real time    0.0329
    FORHAR:  cpu time    0.0080: real time    0.0080
    MIXING:  cpu time    0.0020: real time    0.0013
    OFIELD:  cpu time    0.0000: real time    0.0000

  FORCE on cell =-STRESS in cart. coord.  units (eV):
  Direction    XX          YY          ZZ          XY          YZ          ZX
  --------------------------------------------------------------------------------------
  Alpha Z   179.60204   179.60204   179.60204
  Ewald    -637.90153  -637.90153  -637.90153     0.00000     0.00000     0.00000
  Hartree   149.84454   149.84454   149.84454    -0.00000    -0.00000    -0.00000
  E(xc)    -144.86603  -144.86603  -144.86603    -0.00000     0.00000     0.00000
  Local     -13.96207   -13.96207   -13.96207    -0.00000     0.00000     0.00000
  n-local  -123.41054  -119.48601  -115.28932    -0.43925    -0.37491    -0.27681
  augment    28.94134    28.94134    28.94134     0.00000     0.00000     0.00000
  Kinetic   548.50586   560.24699   564.52434    -2.48280    -2.65902    -1.72208
  Fock        0.00000     0.00000     0.00000     0.00000     0.00000     0.00000
  -------------------------------------------------------------------------------------
  Total       0.02207     0.02207     0.02207    -0.00000    -0.00000     0.00000
  in kB       0.57511     0.57511     0.57511    -0.00000    -0.00000     0.00000
  external pressure =        0.58 kB  Pullay stress =        0.00 kB


 VOLUME and BASIS-vectors are now :
 -----------------------------------------------------------------------------
  energy-cutoff  :      500.00
  volume of cell :       61.48
      direct lattice vectors                 reciprocal lattice vectors
     3.946846342  0.000000000  0.000000000     0.253366844  0.000000000  0.000000000
     0.000000000  3.946846342  0.000000000     0.000000000  0.253366844  0.000000000
     0.000000000  0.000000000  3.946846342     0.000000000  0.000000000  0.253366844

  length of vectors
     3.946846342  3.946846342  3.946846342     0.253366844  0.253366844  0.253366844


 FORCES acting on ions
    electron-ion (+dipol)            ewald-force                    non-local-force                 convergence-correction
 -----------------------------------------------------------------------------------------------
   -.168E-14 0.237E-15 -.363E-14   -.612E-14 -.325E-14 -.318E-14   0.000E+00 0.000E+00 0.000E+00   0.724E-14 0.727E-14 -.330E-13
   -.146E-14 0.499E-12 -.995E-13   0.477E-14 0.490E-14 0.399E-14   0.000E+00 0.000E+00 0.000E+00   -.792E-15 0.321E-15 0.101E-13
   0.124E-12 0.170E-11 -.112E-11   0.565E-14 0.273E-14 -.453E-14   0.000E+00 0.000E+00 0.000E+00   0.702E-15 0.135E-13 -.321E-13
   0.124E-12 -.269E-16 -.242E-12   0.765E-14 -.446E-14 0.241E-14   0.000E+00 0.000E+00 0.000E+00   -.131E-14 0.160E-13 0.224E-13
   -.183E-15 0.128E-12 0.118E-12   -.117E-13 -.147E-15 0.245E-14   0.000E+00 0.000E+00 0.000E+00   0.562E-14 0.363E-14 0.254E-13
 -----------------------------------------------------------------------------------------------
   0.245E-12 0.233E-11 -.135E-11   0.257E-15 -.226E-15 0.113E-14   0.000E+00 0.000E+00 0.000E+00   0.115E-13 0.407E-13 -.720E-14
 
 
 POSITION                                       TOTAL-FORCE (eV/Angst)
 -----------------------------------------------------------------------------------
      0.00000      0.00000      0.00000         0.000000      0.000000      0.000000
      1.97342      1.97342      1.97342         0.000000      0.000000      0.000000
      1.97342      1.97342      0.00000         0.000000      0.000000      0.000000
      1.97342      0.00000      1.97342         0.000000      0.000000      0.000000
      0.00000      1.97342      1.97342         0.000000      0.000000      0.000000
 -----------------------------------------------------------------------------------
    total drift:                                0.000000      0.000000     -0.000000


--------------------------------------------------------------------------------------------------------



  FREE ENERGIE OF THE ION-ELECTRON SYSTEM (eV)
  ---------------------------------------------------
  free  energy   TOTEN  =       -39.73272226 eV

  energy  without entropy=      -39.73272226  energy(sigma->0) =      -39.73272226
 


--------------------------------------------------------------------------------------------------------


    POTLOK:  cpu time    0.1140: real time    0.1148


--------------------------------------------------------------------------------------------------------


 Quasi-Newton relaxation of ions (Broydens 2nd method)
  g(Force)  = 0.000E+00   g(Stress)= 0.141E-04

 Reset! Starting new Quasi-Newton update for ions 


--------------------------------------------------------------------------------------------------------


  
 reached required accuracy - stopping structural energy minimisation
 writing wavefunctions
     LOOP+:  cpu time   14.1528: real time   14.7940
    4ORBIT:  cpu time    0.0000: real time    0.0000

 total amount of memory used by VASP MPI-rank0    47208. kBytes
=======================================================================

   base      :      30000. kBytes
   nonlr-proj:       2007. kBytes
   fftplans  :       8404. kBytes
   grid      :       4089. kBytes
   one-center:         46. kBytes
   wavefun   :       2662. kBytes
 
  
  
 General timing and accounting informations for this job:
 ========================================================
  
                  Total CPU time used (sec):       16.478
                            User time (sec):       14.353
                          System time (sec):        2.126
                         Elapsed time (sec):       18.092
  
                   Maximum memory used (kb):       74328.
                   Average memory used (kb):           0.
  
                          Minor page faults:       329923
                          Major page faults:          162
                 Voluntary context switches:         3270
