unknown system                          
   1.00000000000000     
     3.946846    0.000000    0.000000
     0.000000    3.946846    0.000000
     0.000000    0.000000    3.946846
   Sr   Ti   O 
     1     1     3
Direct
  0.000000  0.000000  0.000000
  0.500000  0.500000  0.500000
  0.500000  0.500000  0.000000
  0.500000  0.000000  0.500000
  0.000000  0.500000  0.500000
 
   60   60   60
  199.13      199.16      199.04      198.16      195.69      190.78      182.81      171.45      156.86      139.58    
  120.52      100.80      81.599      63.946      48.602      35.972      26.095      18.719      13.405      9.6595    
  7.0707      5.3123      4.1290      3.3359      2.8076      2.4580      2.2295      2.0858      2.0007      1.9566    
  1.9429      1.9566      2.0007      2.0858      2.2295      2.4580      2.8076      3.3359      4.1290      5.3123    
  7.0707      9.6595      13.405      18.719      26.095      35.972      48.602      63.946      81.599      100.80    
  120.52      139.58      156.86      171.45      182.81      190.78      195.69      198.16      199.04      199.16    
  199.16      199.16      198.93      197.89      195.23      190.14      182.00      170.52      155.85      138.56    
  119.54      99.916      80.833      63.317      48.111      35.607      25.838      18.546      13.293      9.5905    
  7.0315      5.2933      4.1232      3.3396      2.8166      2.4710      2.2463      2.1048      2.0205      1.9766    
  1.9630      1.9766      2.0205      2.1048      2.2463      2.4710      2.8166      3.3396      4.1232      5.2933    
  7.0315      9.5905      13.293      18.546      25.838      35.607      48.111      63.317      80.833      99.916    
  119.54      138.56      155.85      170.52      182.00      190.14      195.23      197.89      198.93      199.16    
  199.04      198.93      198.40      196.91      193.72      188.10      179.50      167.68      152.83      135.52    
  116.64      97.289      78.569      61.462      46.667      34.538      25.084      18.039      12.967      9.3898    
  6.9184      5.2393      4.1090      3.3513      2.8467      2.5135      2.2961      2.1596      2.0790      2.0374    
  2.0245      2.0374      2.0790      2.1596      2.2961      2.5135      2.8467      3.3513      4.1090      5.2393    
  6.9184      9.3898      12.967      18.039      25.084      34.538      46.667      61.462      78.569      97.289    
  116.64      135.52      152.83      167.68      179.50      188.10      193.72      196.91      198.40      198.93    
  198.16      197.89      196.91      194.75      190.79      184.39      175.13      162.84      147.76      130.48    
  111.89      93.009      74.905      58.476      44.353      32.832      23.887      17.238      12.452      9.0760    
  6.7446      5.1602      4.0933      3.3787      2.9021      2.5885      2.3861      2.2591      2.1840      2.1450    
  2.1330      2.1450      2.1840      2.2591      2.3861      2.5885      2.9021      3.3787      4.0933      5.1602    
  6.7446      9.0760      12.452      17.238      23.887      32.832      44.353      58.476      74.905      93.009    
  111.89      130.48      147.76      162.84      175.13      184.39      190.79      194.75      196.91      197.89    
  195.69      195.23      193.72      190.79      185.92      178.65      168.65      155.88      140.64      123.52    
  105.40      87.234      70.005      54.515      41.304      30.599      22.329      16.200      11.789      8.6774    
  6.5302      5.0707      4.0880      3.4300      2.9930      2.7062      2.5219      2.4075      2.3410      2.3069    
  2.2966      2.3069      2.3410      2.4075      2.5219      2.7062      2.9930      3.4300      4.0880      5.0707    
  6.5302      8.6774      11.789      16.200      22.329      30.599      41.304      54.515      70.005      87.234    
  105.40      123.52      140.64      155.88      168.65      178.65      185.92      190.79      193.72      195.23    
  190.78      190.14      188.10      184.39      178.65      170.54      159.89      146.77      131.53      114.79    
  97.378      80.192      64.097      49.786      37.697      27.977      20.513      14.998      11.028      8.2297    
  6.3004      4.9894      4.1077      3.5191      3.1299      2.8764      2.7171      2.6201      2.5646      2.5363    
  2.5279      2.5363      2.5646      2.6201      2.7171      2.8764      3.1299      3.5191      4.1077      4.9894    
  6.3004      8.2297      11.028      14.998      20.513      27.977      37.697      49.786      64.097      80.192    
  97.378      114.79      131.53      146.77      159.89      170.54      178.65      184.39      188.10      190.14    
  182.81      182.00      179.50      175.13      168.65      159.89      148.81      135.58      120.62      104.54    
  88.124      72.183      57.464      44.539      33.736      25.126      18.555      13.712      10.225      7.7720    
  6.0833      4.9379      4.1704      3.6611      3.3292      3.1174      2.9864      2.9100      2.8690      2.8496    
  2.8441      2.8496      2.8690      2.9100      2.9864      3.1174      3.3292      3.6611      4.1704      4.9379    
  6.0833      7.7720      10.225      13.712      18.555      25.126      33.736      44.539      57.464      72.183    
  88.124      104.54      120.62      135.58      148.81      159.89      168.65      175.13      179.50      182.00    
  171.45      170.52      167.68      162.84      155.88      146.77      135.58      122.59      108.24      93.140    
  78.013      63.569      50.431      39.045      29.637      22.206      16.568      12.420      9.4363      7.3443    
  5.9086      4.9402      4.2969      3.8778      3.6111      3.4486      3.3560      3.3072      3.2842      3.2751    
  3.2729      3.2751      3.2842      3.3072      3.3560      3.4486      3.6111      3.8778      4.2969      4.9402    
  5.9086      7.3443      9.4363      12.420      16.568      22.206      29.637      39.045      50.431      63.569    
  78.013      93.140      108.24      122.59      135.58      146.77      155.88      162.84      167.68      170.52    
  156.86      155.85      152.83      147.76      140.64      131.53      120.62      108.24      94.854      81.060    
  67.489      54.748      43.335      33.577      25.607      19.367      14.658      11.195      8.7145      6.9851    
  5.8073      5.0231      4.5140      4.1948      4.0059      3.9037      3.8565      3.8427      3.8449      3.8511    
  3.8539      3.8511      3.8449      3.8427      3.8565      3.9037      4.0059      4.1948      4.5140      5.0231    
  5.8073      6.9851      8.7145      11.195      14.658      19.367      25.607      33.577      43.335      54.748    
  67.489      81.060      94.854      108.24      120.62      131.53      140.64      147.76      152.83      155.85    
  139.58      138.56      135.52      130.48      123.52      114.79      104.54      93.140      81.060      68.840    
  57.029      46.123      36.500      28.383      21.827      16.736      12.907      10.101      8.1066      6.7315    
  5.8117      5.2182      4.8540      4.6490      4.5512      4.5234      4.5377      4.5707      4.6058      4.6313    
  4.6407      4.6313      4.6058      4.5707      4.5377      4.5234      4.5512      4.6490      4.8540      5.2182    
  5.8117      6.7315      8.1066      10.101      12.907      16.736      21.827      28.383      36.500      46.123    
  57.029      68.840      81.060      93.140      104.54      114.79      123.52      130.48      135.52      138.56    
  120.52      119.54      116.64      111.89      105.40      97.378      88.124      78.013      67.489      57.029    
  47.089      38.056      30.202      23.662      18.435      14.402      11.380      9.1874      7.6525      6.6191    
  5.9567      5.5623      5.3580      5.2847      5.2994      5.3662      5.4572      5.5517      5.6322      5.6858    
  5.7046      5.6858      5.6322      5.5517      5.4572      5.3662      5.2994      5.2847      5.3580      5.5623    
  5.9567      6.6191      7.6525      9.1874      11.380      14.402      18.435      23.662      30.202      38.056    
  47.089      57.029      67.489      78.013      88.124      97.378      105.40      111.89      116.64      119.54    
  100.80      99.916      97.289      93.009      87.234      80.192      72.183      63.569      54.748      46.123    
  38.056      30.835      24.644      19.550      15.515      12.421      10.126      8.4939      7.3866      6.6827    
  6.2803      6.0989      6.0750      6.1599      6.3123      6.5002      6.6957      6.8737      7.0149      7.1053    
  7.1365      7.1053      7.0149      6.8737      6.6957      6.5002      6.3123      6.1599      6.0750      6.0989    
  6.2803      6.6827      7.3866      8.4939      10.126      12.421      15.515      19.550      24.644      30.835    
  38.056      46.123      54.748      63.569      72.183      80.192      87.234      93.009      97.289      99.916    
  81.599      80.833      78.569      74.905      70.005      64.097      57.464      50.431      43.335      36.500    
  30.202      24.644      19.939      16.110      13.102      10.822      9.1733      8.0468      7.3388      6.9570    
  6.8243      6.8772      7.0640      7.3403      7.6692      8.0148      8.3454      8.6350      8.8604      9.0033    
  9.0522      9.0033      8.8604      8.6350      8.3454      8.0148      7.6692      7.3403      7.0640      6.8772    
  6.8243      6.9570      7.3388      8.0468      9.1733      10.822      13.102      16.110      19.939      24.644    
  30.202      36.500      43.335      50.431      57.464      64.097      70.005      74.905      78.569      80.833    
  63.946      63.317      61.462      58.476      54.515      49.786      44.539      39.045      33.577      28.383    
  23.662      19.550      16.110      13.339      11.193      9.6159      8.5328      7.8644      7.5351      7.4775    
  7.6336      7.9533      8.3917      8.9084      9.4622      10.016      10.534      10.978      11.320      11.534    
  11.608      11.534      11.320      10.978      10.534      10.016      9.4622      8.9084      8.3917      7.9533    
  7.6336      7.4775      7.5351      7.8644      8.5328      9.6159      11.193      13.339      16.110      19.550    
  23.662      28.383      33.577      39.045      44.539      49.786      54.515      58.476      61.462      63.317    
  48.602      48.111      46.667      44.353      41.304      37.697      33.736      29.637      25.607      21.827    
  18.435      15.515      13.102      11.193      9.7697      8.7908      8.2051      7.9584      7.9992      8.2797    
  8.7569      9.3896      10.138      10.960      11.814      12.652      13.425      14.087      14.597      14.919    
  15.028      14.919      14.597      14.087      13.425      12.652      11.814      10.960      10.138      9.3896    
  8.7569      8.2797      7.9992      7.9584      8.2051      8.7908      9.7697      11.193      13.102      15.515    
  18.435      21.827      25.607      29.637      33.736      37.697      41.304      44.353      46.667      48.111    
  35.972      35.607      34.538      32.832      30.599      27.977      25.126      22.206      19.367      16.736    
  14.402      12.421      10.822      9.6159      8.7908      8.3232      8.1826      8.3366      8.7530      9.4003    
  10.247      11.260      12.401      13.628      14.888      16.124      17.269      18.254      19.012      19.491    
  19.655      19.491      19.012      18.254      17.269      16.124      14.888      13.628      12.401      11.260    
  10.247      9.4003      8.7530      8.3366      8.1826      8.3232      8.7908      9.6159      10.822      12.421    
  14.402      16.736      19.367      22.206      25.126      27.977      30.599      32.832      34.538      35.607    
  26.095      25.838      25.084      23.887      22.329      20.513      18.555      16.568      14.658      12.907    
  11.380      10.126      9.1733      8.5328      8.2051      8.1826      8.4534      9.0034      9.8173      10.878    
  12.165      13.653      15.309      17.086      18.922      20.734      22.425      23.893      25.034      25.759    
  26.008      25.759      25.034      23.893      22.425      20.734      18.922      17.086      15.309      13.653    
  12.165      10.878      9.8173      9.0034      8.4534      8.1826      8.2051      8.5328      9.1733      10.126    
  11.380      12.907      14.658      16.568      18.555      20.513      22.329      23.887      25.084      25.838    
  18.719      18.546      18.039      17.238      16.200      14.998      13.712      12.420      11.195      10.101    
  9.1874      8.4939      8.0468      7.8644      7.9584      8.3366      9.0034      9.9618      11.213      12.755    
  14.584      16.687      19.036      21.583      24.243      26.906      29.426      31.632      33.356      34.457    
  34.835      34.457      33.356      31.632      29.426      26.906      24.243      21.583      19.036      16.687    
  14.584      12.755      11.213      9.9618      9.0034      8.3366      7.9584      7.8644      8.0468      8.4939    
  9.1874      10.101      11.195      12.420      13.712      14.998      16.200      17.238      18.039      18.546    
  13.405      13.293      12.967      12.452      11.789      11.028      10.225      9.4363      8.7145      8.1066    
  7.6525      7.3866      7.3388      7.5351      7.9992      8.7530      9.8173      11.213      12.960      15.081    
  17.595      20.510      23.811      27.444      31.305      35.221      38.965      42.280      44.893      46.570    
  47.147      46.570      44.893      42.280      38.965      35.221      31.305      27.444      23.811      20.510    
  17.595      15.081      12.960      11.213      9.8173      8.7530      7.9992      7.5351      7.3388      7.3866    
  7.6525      8.1066      8.7145      9.4363      10.225      11.028      11.789      12.452      12.967      13.293    
  9.6595      9.5905      9.3898      9.0760      8.6774      8.2297      7.7720      7.3443      6.9851      6.7315    
  6.6191      6.6827      6.9570      7.4775      8.2797      9.4003      10.878      12.755      15.081      17.913    
  21.306      25.304      29.912      35.077      40.644      46.372      51.910      56.836      60.729      63.232    
  64.095      63.232      60.729      56.836      51.910      46.372      40.644      35.077      29.912      25.304    
  21.306      17.913      15.081      12.755      10.878      9.4003      8.2797      7.4775      6.9570      6.6827    
  6.6191      6.7315      6.9851      7.3443      7.7720      8.2297      8.6774      9.0760      9.3898      9.5905    
  7.0707      7.0315      6.9184      6.7446      6.5302      6.3004      6.0833      5.9086      5.8073      5.8117    
  5.9567      6.2803      6.8243      7.6336      8.7569      10.247      12.165      14.584      17.595      21.306    
  25.831      31.263      37.644      44.907      52.851      61.082      69.087      76.302      82.099      85.876    
  87.189      85.876      82.099      76.302      69.087      61.082      52.851      44.907      37.644      31.263    
  25.831      21.306      17.595      14.584      12.165      10.247      8.7569      7.6336      6.8243      6.2803    
  5.9567      5.8117      5.8073      5.9086      6.0833      6.3004      6.5302      6.7446      6.9184      7.0315    
  5.3123      5.2933      5.2393      5.1602      5.0707      4.9894      4.9379      4.9402      5.0231      5.2182    
  5.5623      6.0989      6.8772      7.9533      9.3896      11.260      13.653      16.687      20.510      25.304    
  31.263      38.556      47.264      57.308      68.369      80.025      91.705      102.51      111.34      117.14    
  119.16      117.14      111.34      102.51      91.705      80.025      68.369      57.308      47.264      38.556    
  31.263      25.304      20.510      16.687      13.653      11.260      9.3896      7.9533      6.8772      6.0989    
  5.5623      5.2182      5.0231      4.9402      4.9379      4.9894      5.0707      5.1602      5.2393      5.2933    
  4.1290      4.1232      4.1090      4.0933      4.0880      4.1077      4.1704      4.2969      4.5140      4.8540    
  5.3580      6.0750      7.0640      8.3917      10.138      12.401      15.309      19.036      23.811      29.912    
  37.644      47.264      58.900      72.435      87.742      104.47      121.60      137.56      150.61      159.16    
  162.14      159.16      150.61      137.56      121.60      104.47      87.742      72.435      58.900      47.264    
  37.644      29.912      23.811      19.036      15.309      12.401      10.138      8.3917      7.0640      6.0750    
  5.3580      4.8540      4.5140      4.2969      4.1704      4.1077      4.0880      4.0933      4.1090      4.1232    
  3.3359      3.3396      3.3513      3.3787      3.4300      3.5191      3.6611      3.8778      4.1948      4.6490    
  5.2847      6.1599      7.3403      8.9084      10.960      13.628      17.086      21.583      27.444      35.077    
  44.907      57.308      72.435      90.544      111.78      135.33      159.45      181.79      199.89      211.65    
  215.73      211.65      199.89      181.79      159.45      135.33      111.78      90.544      72.435      57.308    
  44.907      35.077      27.444      21.583      17.086      13.628      10.960      8.9084      7.3403      6.1599    
  5.2847      4.6490      4.1948      3.8778      3.6611      3.5191      3.4300      3.3787      3.3513      3.3396    
  2.8076      2.8166      2.8467      2.9021      2.9930      3.1299      3.3292      3.6111      4.0059      4.5512    
  5.2994      6.3123      7.6692      9.4622      11.814      14.888      18.922      24.243      31.305      40.644    
  52.851      68.369      87.742      111.78      140.34      171.94      203.95      233.14      256.43      271.38    
  276.53      271.38      256.43      233.14      203.95      171.94      140.34      111.78      87.742      68.369    
  52.851      40.644      31.305      24.243      18.922      14.888      11.814      9.4622      7.6692      6.3123    
  5.2994      4.5512      4.0059      3.6111      3.3292      3.1299      2.9930      2.9021      2.8467      2.8166    
  2.4580      2.4710      2.5135      2.5885      2.7062      2.8764      3.1174      3.4486      3.9037      4.5234    
  5.3662      6.5002      8.0148      10.016      12.652      16.124      20.734      26.906      35.221      46.372    
  61.082      80.025      104.47      135.33      171.94      211.96      251.73      287.27      315.03      332.58    
  338.56      332.58      315.03      287.27      251.73      211.96      171.94      135.33      104.47      80.025    
  61.082      46.372      35.221      26.906      20.734      16.124      12.652      10.016      8.0148      6.5002    
  5.3662      4.5234      3.9037      3.4486      3.1174      2.8764      2.7062      2.5885      2.5135      2.4710    
  2.2295      2.2463      2.2961      2.3861      2.5219      2.7171      2.9864      3.3560      3.8565      4.5377    
  5.4572      6.6957      8.3454      10.534      13.425      17.269      22.425      29.426      38.965      51.910    
  69.087      91.705      121.60      159.45      203.95      251.73      298.20      338.67      369.53      388.63    
  395.07      388.63      369.53      338.67      298.20      251.73      203.95      159.45      121.60      91.705    
  69.087      51.910      38.965      29.426      22.425      17.269      13.425      10.534      8.3454      6.6957    
  5.4572      4.5377      3.8565      3.3560      2.9864      2.7171      2.5219      2.3861      2.2961      2.2463    
  2.0858      2.1048      2.1596      2.2591      2.4075      2.6201      2.9100      3.3072      3.8427      4.5707    
  5.5517      6.8737      8.6350      10.978      14.087      18.254      23.893      31.632      42.280      56.836    
  76.302      102.51      137.56      181.79      233.14      287.27      338.67      382.27      414.60      434.14    
  440.64      434.14      414.60      382.27      338.67      287.27      233.14      181.79      137.56      102.51    
  76.302      56.836      42.280      31.632      23.893      18.254      14.087      10.978      8.6350      6.8737    
  5.5517      4.5707      3.8427      3.3072      2.9100      2.6201      2.4075      2.2591      2.1596      2.1048    
  2.0007      2.0205      2.0790      2.1840      2.3410      2.5646      2.8690      3.2842      3.8449      4.6058    
  5.6322      7.0149      8.8604      11.320      14.597      19.012      25.034      33.356      44.893      60.729    
  82.099      111.34      150.61      199.89      256.43      315.03      369.53      414.60      447.13      466.31    
  472.58      466.31      447.13      414.60      369.53      315.03      256.43      199.89      150.61      111.34    
  82.099      60.729      44.893      33.356      25.034      19.012      14.597      11.320      8.8604      7.0149    
  5.6322      4.6058      3.8449      3.2842      2.8690      2.5646      2.3410      2.1840      2.0790      2.0205    
  1.9566      1.9766      2.0374      2.1450      2.3069      2.5363      2.8496      3.2751      3.8511      4.6313    
  5.6858      7.1053      9.0033      11.534      14.919      19.491      25.759      34.457      46.570      63.232    
  85.876      117.14      159.16      211.65      271.38      332.58      388.63      434.14      466.31      484.89    
  490.90      484.89      466.31      434.14      388.63      332.58      271.38      211.65      159.16      117.14    
  85.876      63.232      46.570      34.457      25.759      19.491      14.919      11.534      9.0033      7.1053    
  5.6858      4.6313      3.8511      3.2751      2.8496      2.5363      2.3069      2.1450      2.0374      1.9766    
  1.9429      1.9630      2.0245      2.1330      2.2966      2.5279      2.8441      3.2729      3.8539      4.6407    
  5.7046      7.1365      9.0522      11.608      15.028      19.655      26.008      34.835      47.147      64.095    
  87.189      119.16      162.14      215.73      276.53      338.56      395.07      440.64      472.58      490.90    
  496.79      490.90      472.58      440.64      395.07      338.56      276.53      215.73      162.14      119.16    
  87.189      64.095      47.147      34.835      26.008      19.655      15.028      11.608      9.0522      7.1365    
  5.7046      4.6407      3.8539      3.2729      2.8441      2.5279      2.2966      2.1330      2.0245      1.9630    
  1.9566      1.9766      2.0374      2.1450      2.3069      2.5363      2.8496      3.2751      3.8511      4.6313    
  5.6858      7.1053      9.0033      11.534      14.919      19.491      25.759      34.457      46.570      63.232    
  85.876      117.14      159.16      211.65      271.38      332.58      388.63      434.14      466.31      484.89    
  490.90      484.89      466.31      434.14      388.63      332.58      271.38      211.65      159.16      117.14    
  85.876      63.232      46.570      34.457      25.759      19.491      14.919      11.534      9.0033      7.1053    
  5.6858      4.6313      3.8511      3.2751      2.8496      2.5363      2.3069      2.1450      2.0374      1.9766    
  2.0007      2.0205      2.0790      2.1840      2.3410      2.5646      2.8690      3.2842      3.8449      4.6058    
  5.6322      7.0149      8.8604      11.320      14.597      19.012      25.034      33.356      44.893      60.729    
  82.099      111.34      150.61      199.89      256.43      315.03      369.53      414.60      447.13      466.31    
  472.58      466.31      447.13      414.60      369.53      315.03      256.43      199.89      150.61      111.34    
  82.099      60.729      44.893      33.356      25.034      19.012      14.597      11.320      8.8604      7.0149    
  5.6322      4.6058      3.8449      3.2842      2.8690      2.5646      2.3410      2.1840      2.0790      2.0205    
  2.0858      2.1048      2.1596      2.2591      2.4075      2.6201      2.9100      3.3072      3.8427      4.5707    
  5.5517      6.8737      8.6350      10.978      14.087      18.254      23.893      31.632      42.280      56.836    
  76.302      102.51      137.56      181.79      233.14      287.27      338.67      382.27      414.60      434.14    
  440.64      434.14      414.60      382.27      338.67      287.27      233.14      181.79      137.56      102.51    
  76.302      56.836      42.280      31.632      23.893      18.254      14.087      10.978      8.6350      6.8737    
  5.5517      4.5707      3.8427      3.3072      2.9100      2.6201      2.4075      2.2591      2.1596      2.1048    
  2.2295      2.2463      2.2961      2.3861      2.5219      2.7171      2.9864      3.3560      3.8565      4.5377    
  5.4572      6.6957      8.3454      10.534      13.425      17.269      22.425      29.426      38.965      51.910    
  69.087      91.705      121.60      159.45      203.95      251.73      298.20      338.67      369.53      388.63    
  395.07      388.63      369.53      338.67      298.20      251.73      203.95      159.45      121.60      91.705    
  69.087      51.910      38.965      29.426      22.425      17.269      13.425      10.534      8.3454      6.6957    
  5.4572      4.5377      3.8565      3.3560      2.9864      2.7171      2.5219      2.3861      2.2961      2.2463    
  2.4580      2.4710      2.5135      2.5885      2.7062      2.8764      3.1174      3.4486      3.9037      4.5234    
  5.3662      6.5002      8.0148      10.016      12.652      16.124      20.734      26.906      35.221      46.372    
  61.082      80.025      104.47      135.33      171.94      211.96      251.73      287.27      315.03      332.58    
  338.56      332.58      315.03      287.27      251.73      211.96      171.94      135.33      104.47      80.025    
  61.082      46.372      35.221      26.906      20.734      16.124      12.652      10.016      8.0148      6.5002    
  5.3662      4.5234      3.9037      3.4486      3.1174      2.8764      2.7062      2.5885      2.5135      2.4710    
  2.8076      2.8166      2.8467      2.9021      2.9930      3.1299      3.3292      3.6111      4.0059      4.5512    
  5.2994      6.3123      7.6692      9.4622      11.814      14.888      18.922      24.243      31.305      40.644    
  52.851      68.369      87.742      111.78      140.34      171.94      203.95      233.14      256.43      271.38    
  276.53      271.38      256.43      233.14      203.95      171.94      140.34      111.78      87.742      68.369    
  52.851      40.644      31.305      24.243      18.922      14.888      11.814      9.4622      7.6692      6.3123    
  5.2994      4.5512      4.0059      3.6111      3.3292      3.1299      2.9930      2.9021      2.8467      2.8166    
  3.3359      3.3396      3.3513      3.3787      3.4300      3.5191      3.6611      3.8778      4.1948      4.6490    
  5.2847      6.1599      7.3403      8.9084      10.960      13.628      17.086      21.583      27.444      35.077    
  44.907      57.308      72.435      90.544      111.78      135.33      159.45      181.79      199.89      211.65    
  215.73      211.65      199.89      181.79      159.45      135.33      111.78      90.544      72.435      57.308    
  44.907      35.077      27.444      21.583      17.086      13.628      10.960      8.9084      7.3403      6.1599    
  5.2847      4.6490      4.1948      3.8778      3.6611      3.5191      3.4300      3.3787      3.3513      3.3396    
  4.1290      4.1232      4.1090      4.0933      4.0880      4.1077      4.1704      4.2969      4.5140      4.8540    
  5.3580      6.0750      7.0640      8.3917      10.138      12.401      15.309      19.036      23.811      29.912    
  37.644      47.264      58.900      72.435      87.742      104.47      121.60      137.56      150.61      159.16    
  162.14      159.16      150.61      137.56      121.60      104.47      87.742      72.435      58.900      47.264    
  37.644      29.912      23.811      19.036      15.309      12.401      10.138      8.3917      7.0640      6.0750    
  5.3580      4.8540      4.5140      4.2969      4.1704      4.1077      4.0880      4.0933      4.1090      4.1232    
  5.3123      5.2933      5.2393      5.1602      5.0707      4.9894      4.9379      4.9402      5.0231      5.2182    
  5.5623      6.0989      6.8772      7.9533      9.3896      11.260      13.653      16.687      20.510      25.304    
  31.263      38.556      47.264      57.308      68.369      80.025      91.705      102.51      111.34      117.14    
  119.16      117.14      111.34      102.51      91.705      80.025      68.369      57.308      47.264      38.556    
  31.263      25.304      20.510      16.687      13.653      11.260      9.3896      7.9533      6.8772      6.0989    
  5.5623      5.2182      5.0231      4.9402      4.9379      4.9894      5.0707      5.1602      5.2393      5.2933    
  7.0707      7.0315      6.9184      6.7446      6.5302      6.3004      6.0833      5.9086      5.8073      5.8117    
  5.9567      6.2803      6.8243      7.6336      8.7569      10.247      12.165      14.584      17.595      21.306    
  25.831      31.263      37.644      44.907      52.851      61.082      69.087      76.302      82.099      85.876    
  87.189      85.876      82.099      76.302      69.087      61.082      52.851      44.907      37.644      31.263    