unknown system                          
   1.00000000000000     
     3.946846    0.000000    0.000000
     0.000000    3.946846    0.000000
     0.000000    0.000000    3.946846
   Sr   Ti   O 
     1     1     3
Direct
  0.000000  0.000000  0.000000
  0.500000  0.500000  0.500000
  0.500000  0.500000  0.000000
  0.500000  0.000000  0.500000
  0.000000  0.500000  0.500000
 
   60   60   60
 0.19913123422E+03 0.19916412836E+03 0.19904144350E+03 0.19815827998E+03 0.19568608973E+03
 0.19078397389E+03 0.18280536429E+03 0.17145283690E+03 0.15685744504E+03 0.13957623404E+03
 0.12051672917E+03 0.10080165996E+03 0.81598924813E+02 0.63945544652E+02 0.48602245400E+02
 0.35971738072E+02 0.26095084595E+02 0.18719158867E+02 0.13405285166E+02 0.96595476541E+01
 0.70707163596E+01 0.53123495243E+01 0.41289701034E+01 0.33359451985E+01 0.28076366231E+01
 0.24580359718E+01 0.22294658644E+01 0.20857920325E+01 0.20006614978E+01 0.19565769851E+01
 0.19428760226E+01 0.19565769851E+01 0.20006614978E+01 0.20857920325E+01 0.22294658644E+01
 0.24580359718E+01 0.28076366231E+01 0.33359451985E+01 0.41289701034E+01 0.53123495243E+01
 0.70707163596E+01 0.96595476541E+01 0.13405285166E+02 0.18719158867E+02 0.26095084595E+02
 0.35971738072E+02 0.48602245400E+02 0.63945544652E+02 0.81598924813E+02 0.10080165996E+03
 0.12051672917E+03 0.13957623404E+03 0.15685744504E+03 0.17145283690E+03 0.18280536429E+03
 0.19078397389E+03 0.19568608973E+03 0.19815827998E+03 0.19904144350E+03 0.19916412836E+03
 0.19916412836E+03 0.19915946003E+03 0.19893019003E+03 0.19788846234E+03 0.19522980765E+03
 0.19013977019E+03 0.18199597711E+03 0.17051993212E+03 0.15585445408E+03 0.13856083683E+03
 0.11954343176E+03 0.99916110561E+02 0.80833398288E+02 0.63316567050E+02 0.48111177952E+02
 0.35607356790E+02 0.25837824050E+02 0.18545949538E+02 0.13293368308E+02 0.95905304148E+01
 0.70314882071E+01 0.52933001379E+01 0.41232117855E+01 0.33395560621E+01 0.28166437046E+01
 0.24710154569E+01 0.22462526362E+01 0.21047602026E+01 0.20205056613E+01 0.19766122826E+01
 0.19629960484E+01 0.19766122826E+01 0.20205056613E+01 0.21047602026E+01 0.22462526362E+01
 0.24710154569E+01 0.28166437046E+01 0.33395560621E+01 0.41232117855E+01 0.52933001379E+01
 0.70314882071E+01 0.95905304148E+01 0.13293368308E+02 0.18545949538E+02 0.25837824050E+02
 0.35607356790E+02 0.48111177952E+02 0.63316567050E+02 0.80833398288E+02 0.99916110561E+02
 0.11954343176E+03 0.13856083683E+03 0.15585445408E+03 0.17051993212E+03 0.18199597711E+03
 0.19013977019E+03 0.19522980765E+03 0.19788846234E+03 0.19893019003E+03 0.19915946003E+03
 0.19904144350E+03 0.19893019003E+03 0.19839869756E+03 0.19690777736E+03 0.19372202922E+03
 0.18810285502E+03 0.17949752247E+03 0.16768169966E+03 0.15283176889E+03 0.13552077277E+03
 0.11664410045E+03 0.97288699150E+02 0.78569346367E+02 0.61461707060E+02 0.46666546142E+02
 0.34537791571E+02 0.25084212188E+02 0.18039467479E+02 0.12966763849E+02 0.93898351295E+01
 0.69184392726E+01 0.52393217813E+01 0.41090098839E+01 0.33513482433E+01 0.28466766500E+01
 0.25134755015E+01 0.22960941120E+01 0.21595953125E+01 0.20789775064E+01 0.20373736989E+01
 0.20245086801E+01 0.20373736989E+01 0.20789775064E+01 0.21595953125E+01 0.22960941120E+01
 0.25134755015E+01 0.28466766500E+01 0.33513482433E+01 0.41090098839E+01 0.52393217813E+01
 0.69184392726E+01 0.93898351295E+01 0.12966763849E+02 0.18039467479E+02 0.25084212188E+02
 0.34537791571E+02 0.46666546142E+02 0.61461707060E+02 0.78569346367E+02 0.97288699150E+02
 0.11664410045E+03 0.13552077277E+03 0.15283176889E+03 0.16768169966E+03 0.17949752247E+03
 0.18810285502E+03 0.19372202922E+03 0.19690777736E+03 0.19839869756E+03 0.19893019003E+03
 0.19815827998E+03 0.19788846234E+03 0.19690777736E+03 0.19475096037E+03 0.19078749854E+03
 0.18439437766E+03 0.17512510475E+03 0.16283830079E+03 0.14776135777E+03 0.13048421093E+03
 0.11188577452E+03 0.93009176226E+02 0.74905143099E+02 0.58476101753E+02 0.44352523138E+02
 0.32831965744E+02 0.23887004345E+02 0.17237764020E+02 0.12451667756E+02 0.90759877546E+01
 0.67446008648E+01 0.51602241718E+01 0.40932605946E+01 0.33787041518E+01 0.29021148521E+01
 0.25885187258E+01 0.23861278658E+01 0.22591100287E+01 0.21839660137E+01 0.21449544125E+01
 0.21330194956E+01 0.21449544125E+01 0.21839660137E+01 0.22591100287E+01 0.23861278658E+01
 0.25885187258E+01 0.29021148521E+01 0.33787041518E+01 0.40932605946E+01 0.51602241718E+01
 0.67446008648E+01 0.90759877546E+01 0.12451667756E+02 0.17237764020E+02 0.23887004345E+02
 0.32831965744E+02 0.44352523138E+02 0.58476101753E+02 0.74905143099E+02 0.93009176226E+02
 0.11188577452E+03 0.13048421093E+03 0.14776135777E+03 0.16283830079E+03 0.17512510475E+03
 0.18439437766E+03 0.19078749854E+03 0.19475096037E+03 0.19690777736E+03 0.19788846234E+03
 0.19568608973E+03 0.19522980765E+03 0.19372202922E+03 0.19078749854E+03 0.18592387603E+03
 0.17864975843E+03 0.16864922737E+03 0.15588248746E+03 0.14063838991E+03 0.12352469664E+03
 0.10539575030E+03 0.87234172444E+02 0.70004966913E+02 0.54514898593E+02 0.41303802273E+02
 0.30598635708E+02 0.22328544581E+02 0.16199530342E+02 0.11788602713E+02 0.86774232150E+01
 0.65302263248E+01 0.50706517244E+01 0.40880279864E+01 0.34299879865E+01 0.29929903179E+01
 0.27061555925E+01 0.25219174416E+01 0.24074895971E+01 0.23409590456E+01 0.23068522079E+01
 0.22965584036E+01 0.23068522079E+01 0.23409590456E+01 0.24074895971E+01 0.25219174416E+01
 0.27061555925E+01 0.29929903179E+01 0.34299879865E+01 0.40880279864E+01 0.50706517244E+01
 0.65302263248E+01 0.86774232150E+01 0.11788602713E+02 0.16199530342E+02 0.22328544581E+02
 0.30598635708E+02 0.41303802273E+02 0.54514898593E+02 0.70004966913E+02 0.87234172444E+02
 0.10539575030E+03 0.12352469664E+03 0.14063838991E+03 0.15588248746E+03 0.16864922737E+03
 0.17864975843E+03 0.18592387603E+03 0.19078749854E+03 0.19372202922E+03 0.19522980765E+03
 0.19078397389E+03 0.19013977019E+03 0.18810285502E+03 0.18439437766E+03 0.17864975843E+03
 0.17054003514E+03 0.15989010915E+03 0.14676900820E+03 0.13152943718E+03 0.11479277936E+03
 0.97378033546E+02 0.80192132486E+02 0.64096892731E+02 0.49786121513E+02 0.37696698280E+02
 0.27977259226E+02 0.20512712613E+02 0.14997662148E+02 0.11027924333E+02 0.82297053943E+01
 0.63004091568E+01 0.49894284474E+01 0.41076715325E+01 0.35190976825E+01 0.31298810612E+01
 0.28764488895E+01 0.27170846706E+01 0.26201241441E+01 0.25645842040E+01 0.25363364786E+01
 0.25279411259E+01 0.25363364786E+01 0.25645842040E+01 0.26201241441E+01 0.27170846706E+01
 0.28764488895E+01 0.31298810612E+01 0.35190976825E+01 0.41076715325E+01 0.49894284474E+01
 0.63004091568E+01 0.82297053943E+01 0.11027924333E+02 0.14997662148E+02 0.20512712613E+02
 0.27977259226E+02 0.37696698280E+02 0.49786121513E+02 0.64096892731E+02 0.80192132486E+02
 0.97378033546E+02 0.11479277936E+03 0.13152943718E+03 0.14676900820E+03 0.15989010915E+03
 0.17054003514E+03 0.17864975843E+03 0.18439437766E+03 0.18810285502E+03 0.19013977019E+03
 0.18280536429E+03 0.18199597711E+03 0.17949752247E+03 0.17512510475E+03 0.16864922737E+03
 0.15989010915E+03 0.14881042565E+03 0.13558329913E+03 0.12061875859E+03 0.10454182450E+03
 0.88124463941E+02 0.72183445190E+02 0.57464465637E+02 0.44538848017E+02 0.33735758330E+02
 0.25125691030E+02 0.18554509876E+02 0.13711633255E+02 0.10225113118E+02 0.77720350156E+01
 0.60833030557E+01 0.49379080848E+01 0.41703850043E+01 0.36610871367E+01 0.33291911936E+01
 0.31174252619E+01 0.29863688427E+01 0.29099716515E+01 0.28689718560E+01 0.28496466102E+01
 0.28440713408E+01 0.28496466102E+01 0.28689718560E+01 0.29099716515E+01 0.29863688427E+01
 0.31174252619E+01 0.33291911936E+01 0.36610871367E+01 0.41703850043E+01 0.49379080848E+01
 0.60833030557E+01 0.77720350156E+01 0.10225113118E+02 0.13711633255E+02 0.18554509876E+02
 0.25125691030E+02 0.33735758330E+02 0.44538848017E+02 0.57464465637E+02 0.72183445190E+02
 0.88124463941E+02 0.10454182450E+03 0.12061875859E+03 0.13558329913E+03 0.14881042565E+03
 0.15989010915E+03 0.16864922737E+03 0.17512510475E+03 0.17949752247E+03 0.18199597711E+03
 0.17145283690E+03 0.17051993212E+03 0.16768169966E+03 0.16283830079E+03 0.15588248746E+03
 0.14676900820E+03 0.13558329913E+03 0.12258787855E+03 0.10823551557E+03 0.93140342217E+02
 0.78013150261E+02 0.63569230809E+02 0.50431070977E+02 0.39045140264E+02 0.29636696818E+02
 0.22205637568E+02 0.16568434615E+02 0.12420098402E+02 0.94362932417E+01 0.73443376918E+01
 0.59085613166E+01 0.49402282319E+01 0.42968728041E+01 0.38778306550E+01 0.36110508159E+01
 0.34486015436E+01 0.33560339846E+01 0.33072354242E+01 0.32841968311E+01 0.32751392699E+01
 0.32728894137E+01 0.32751392699E+01 0.32841968311E+01 0.33072354242E+01 0.33560339846E+01
 0.34486015436E+01 0.36110508159E+01 0.38778306550E+01 0.42968728041E+01 0.49402282319E+01
 0.59085613166E+01 0.73443376918E+01 0.94362932417E+01 0.12420098402E+02 0.16568434615E+02
 0.22205637568E+02 0.29636696818E+02 0.39045140264E+02 0.50431070977E+02 0.63569230809E+02
 0.78013150261E+02 0.93140342217E+02 0.10823551557E+03 0.12258787855E+03 0.13558329913E+03
 0.14676900820E+03 0.15588248746E+03 0.16283830079E+03 0.16768169966E+03 0.17051993212E+03
 0.15685744504E+03 0.15585445408E+03 0.15283176889E+03 0.14776135777E+03 0.14063838991E+03
 0.13152943718E+03 0.12061875859E+03 0.10823551557E+03 0.94853967931E+02 0.81059860827E+02
 0.67489363242E+02 0.54748456338E+02 0.43335077729E+02 0.33577462254E+02 0.25606954942E+02
 0.19367452658E+02 0.14657675100E+02 0.11195368724E+02 0.87144861376E+01 0.69851451830E+01
 0.58072701502E+01 0.50231081309E+01 0.45140343016E+01 0.41947820736E+01 0.40058655830E+01
 0.39037365867E+01 0.38565278366E+01 0.38426930666E+01 0.38448601937E+01 0.38511016414E+01
 0.38538635403E+01 0.38511016414E+01 0.38448601937E+01 0.38426930666E+01 0.38565278366E+01
 0.39037365867E+01 0.40058655830E+01 0.41947820736E+01 0.45140343016E+01 0.50231081309E+01
 0.58072701502E+01 0.69851451830E+01 0.87144861376E+01 0.11195368724E+02 0.14657675100E+02
 0.19367452658E+02 0.25606954942E+02 0.33577462254E+02 0.43335077729E+02 0.54748456338E+02
 0.67489363242E+02 0.81059860827E+02 0.94853967931E+02 0.10823551557E+03 0.12061875859E+03
 0.13152943718E+03 0.14063838991E+03 0.14776135777E+03 0.15283176889E+03 0.15585445408E+03
 0.13957623404E+03 0.13856083683E+03 0.13552077277E+03 0.13048421093E+03 0.12352469664E+03
 0.11479277936E+03 0.10454182450E+03 0.93140342217E+02 0.81059860827E+02 0.68839619785E+02
 0.57028851150E+02 0.46122679485E+02 0.36499883907E+02 0.28383303635E+02 0.21826975676E+02
 0.16736288693E+02 0.12906750441E+02 0.10100581368E+02 0.81065696961E+01 0.67314764841E+01
 0.58117450002E+01 0.52181578566E+01 0.48539836165E+01 0.46490329661E+01 0.45511661606E+01
 0.45234029274E+01 0.45377392745E+01 0.45706643454E+01 0.46057528426E+01 0.46313238886E+01
 0.46407162788E+01 0.46313238886E+01 0.46057528426E+01 0.45706643454E+01 0.45377392745E+01
 0.45234029274E+01 0.45511661606E+01 0.46490329661E+01 0.48539836165E+01 0.52181578566E+01
 0.58117450002E+01 0.67314764841E+01 0.81065696961E+01 0.10100581368E+02 0.12906750441E+02
 0.16736288693E+02 0.21826975676E+02 0.28383303635E+02 0.36499883907E+02 0.46122679485E+02
 0.57028851150E+02 0.68839619785E+02 0.81059860827E+02 0.93140342217E+02 0.10454182450E+03
 0.11479277936E+03 0.12352469664E+03 0.13048421093E+03 0.13552077277E+03 0.13856083683E+03
 0.12051672917E+03 0.11954343176E+03 0.11664410045E+03 0.11188577452E+03 0.10539575030E+03
 0.97378033546E+02 0.88124463941E+02 0.78013150261E+02 0.67489363242E+02 0.57028851150E+02
 0.47088890209E+02 0.38055732791E+02 0.30201830680E+02 0.23662281468E+02 0.18434687545E+02
 0.14402383875E+02 0.11380497846E+02 0.91873509916E+01 0.76524916419E+01 0.66190604858E+01
 0.59567330852E+01 0.55622753640E+01 0.53580284263E+01 0.52847329075E+01 0.52993587549E+01
 0.53661815994E+01 0.54572340790E+01 0.55516963680E+01 0.56322400242E+01 0.56858476257E+01
 0.57045795030E+01 0.56858476257E+01 0.56322400242E+01 0.55516963680E+01 0.54572340790E+01
 0.53661815994E+01 0.52993587549E+01 0.52847329075E+01 0.53580284263E+01 0.55622753640E+01
 0.59567330852E+01 0.66190604858E+01 0.76524916419E+01 0.91873509916E+01 0.11380497846E+02
 0.14402383875E+02 0.18434687545E+02 0.23662281468E+02 0.30201830680E+02 0.38055732791E+02
 0.47088890209E+02 0.57028851150E+02 0.67489363242E+02 0.78013150261E+02 0.88124463941E+02
 0.97378033546E+02 0.10539575030E+03 0.11188577452E+03 0.11664410045E+03 0.11954343176E+03
 0.10080165996E+03 0.99916110561E+02 0.97288699150E+02 0.93009176226E+02 0.87234172444E+02
 0.80192132486E+02 0.72183445190E+02 0.63569230809E+02 0.54748456338E+02 0.46122679485E+02
 0.38055732791E+02 0.30834913956E+02 0.24643713241E+02 0.19549770588E+02 0.15515306951E+02
 0.12420971978E+02 0.10126299983E+02 0.84939080366E+01 0.73866015024E+01 0.66827222502E+01
 0.62802845212E+01 0.60988851478E+01 0.60750001827E+01 0.61599463073E+01 0.63122972319E+01
 0.65001588300E+01 0.66957039875E+01 0.68737296621E+01 0.70148761663E+01 0.71053286983E+01
 0.71364657326E+01 0.71053286983E+01 0.70148761663E+01 0.68737296621E+01 0.66957039875E+01
 0.65001588300E+01 0.63122972319E+01 0.61599463073E+01 0.60750001827E+01 0.60988851478E+01
 0.62802845212E+01 0.66827222502E+01 0.73866015024E+01 0.84939080366E+01 0.10126299983E+02
 0.12420971978E+02 0.15515306951E+02 0.19549770588E+02 0.24643713241E+02 0.30834913956E+02
 0.38055732791E+02 0.46122679485E+02 0.54748456338E+02 0.63569230809E+02 0.72183445190E+02
 0.80192132486E+02 0.87234172444E+02 0.93009176226E+02 0.97288699150E+02 0.99916110561E+02
 0.81598924813E+02 0.80833398288E+02 0.78569346367E+02 0.74905143099E+02 0.70004966913E+02
 0.64096892731E+02 0.57464465637E+02 0.50431070977E+02 0.43335077729E+02 0.36499883907E+02
 0.30201830680E+02 0.24643713241E+02 0.19938606226E+02 0.16109903271E+02 0.13101641302E+02
 0.10822219696E+02 0.91732523723E+01 0.80467540604E+01 0.73388339679E+01 0.69570456157E+01
 0.68243254253E+01 0.68771693199E+01 0.70640434400E+01 0.73403193942E+01 0.76692043654E+01
 0.80147979895E+01 0.83454053057E+01 0.86350239163E+01 0.88604252076E+01 0.90033386190E+01
 0.90522467494E+01 0.90033386190E+01 0.88604252076E+01 0.86350239163E+01 0.83454053057E+01
 0.80147979895E+01 0.76692043654E+01 0.73403193942E+01 0.70640434400E+01 0.68771693199E+01
 0.68243254253E+01 0.69570456157E+01 0.73388339679E+01 0.80467540604E+01 0.91732523723E+01
 0.10822219696E+02 0.13101641302E+02 0.16109903271E+02 0.19938606226E+02 0.24643713241E+02
 0.30201830680E+02 0.36499883907E+02 0.43335077729E+02 0.50431070977E+02 0.57464465637E+02
 0.64096892731E+02 0.70004966913E+02 0.74905143099E+02 0.78569346367E+02 0.80833398288E+02
 0.63945544652E+02 0.63316567050E+02 0.61461707060E+02 0.58476101753E+02 0.54514898593E+02
 0.49786121513E+02 0.44538848017E+02 0.39045140264E+02 0.33577462254E+02 0.28383303635E+02
 0.23662281468E+02 0.19549770588E+02 0.16109903271E+02 0.13338571274E+02 0.11193117796E+02
 0.96159122413E+01 0.85327619928E+01 0.78643956724E+01 0.75350579785E+01 0.74775432689E+01
 0.76336185390E+01 0.79533031578E+01 0.83916872383E+01 0.89083669967E+01 0.94621821538E+01
 0.10016182179E+02 0.10533784781E+02 0.10978385040E+02 0.11319687024E+02 0.11534427020E+02
 0.11607782494E+02 0.11534427020E+02 0.11319687024E+02 0.10978385040E+02 0.10533784781E+02
 0.10016182179E+02 0.94621821538E+01 0.89083669967E+01 0.83916872383E+01 0.79533031578E+01
 0.76336185390E+01 0.74775432689E+01 0.75350579785E+01 0.78643956724E+01 0.85327619928E+01
 0.96159122413E+01 0.11193117796E+02 0.13338571274E+02 0.16109903271E+02 0.19549770588E+02
 0.23662281468E+02 0.28383303635E+02 0.33577462254E+02 0.39045140264E+02 0.44538848017E+02
 0.49786121513E+02 0.54514898593E+02 0.58476101753E+02 0.61461707060E+02 0.63316567050E+02
 0.48602245400E+02 0.48111177952E+02 0.46666546142E+02 0.44352523138E+02 0.41303802273E+02
 0.37696698280E+02 0.33735758330E+02 0.29636696818E+02 0.25606954942E+02 0.21826975676E+02
 0.18434687545E+02 0.15515306951E+02 0.13101641302E+02 0.11193117796E+02 0.97697151940E+01
 0.87908069240E+01 0.82050929198E+01 0.79584440753E+01 0.79991756907E+01 0.82797300592E+01
 0.87568622542E+01 0.93896355301E+01 0.10138255093E+02 0.10960487736E+02 0.11814435402E+02
 0.12652001428E+02 0.13424599215E+02 0.14087329884E+02 0.14597128279E+02 0.14918552515E+02
 0.15028305114E+02 0.14918552515E+02 0.14597128279E+02 0.14087329884E+02 0.13424599215E+02
 0.12652001428E+02 0.11814435402E+02 0.10960487736E+02 0.10138255093E+02 0.93896355301E+01
 0.87568622542E+01 0.82797300592E+01 0.79991756907E+01 0.79584440753E+01 0.82050929198E+01
 0.87908069240E+01 0.97697151940E+01 0.11193117796E+02 0.13101641302E+02 0.15515306951E+02
 0.18434687545E+02 0.21826975676E+02 0.25606954942E+02 0.29636696818E+02 0.33735758330E+02
 0.37696698280E+02 0.41303802273E+02 0.44352523138E+02 0.46666546142E+02 0.48111177952E+02
 0.35971738072E+02 0.35607356790E+02 0.34537791571E+02 0.32831965744E+02 0.30598635708E+02
 0.27977259226E+02 0.25125691030E+02 0.22205637568E+02 0.19367452658E+02 0.16736288693E+02
 0.14402383875E+02 0.12420971978E+02 0.10822219696E+02 0.96159122413E+01 0.87908069240E+01
 0.83231685721E+01 0.81825583207E+01 0.83365867352E+01 0.87529562571E+01 0.94002840678E+01
 0.10246896888E+02 0.11259635461E+02 0.12400838030E+02 0.13628090644E+02 0.14888085905E+02
 0.16123558675E+02 0.17269281583E+02 0.18253880436E+02 0.19012301798E+02 0.19491139766E+02
 0.19655007327E+02 0.19491139766E+02 0.19012301798E+02 0.18253880436E+02 0.17269281583E+02
 0.16123558675E+02 0.14888085905E+02 0.13628090644E+02 0.12400838030E+02 0.11259635461E+02
 0.10246896888E+02 0.94002840678E+01 0.87529562571E+01 0.83365867352E+01 0.81825583207E+01
 0.83231685721E+01 0.87908069240E+01 0.96159122413E+01 0.10822219696E+02 0.12420971978E+02
 0.14402383875E+02 0.16736288693E+02 0.19367452658E+02 0.22205637568E+02 0.25125691030E+02
 0.27977259226E+02 0.30598635708E+02 0.32831965744E+02 0.34537791571E+02 0.35607356790E+02
 0.26095084595E+02 0.25837824050E+02 0.25084212188E+02 0.23887004345E+02 0.22328544581E+02
 0.20512712613E+02 0.18554509876E+02 0.16568434615E+02 0.14657675100E+02 0.12906750441E+02
 0.11380497846E+02 0.10126299983E+02 0.91732523723E+01 0.85327619928E+01 0.82050929198E+01
 0.81825583207E+01 0.84533928307E+01 0.90034319910E+01 0.98172664682E+01 0.10877668627E+02
 0.12164771889E+02 0.13653151932E+02 0.15309349693E+02 0.17085606719E+02 0.18921532345E+02
 0.20733770834E+02 0.22424998887E+02 0.23893039816E+02 0.25034104394E+02 0.25759016655E+02
 0.26007598218E+02 0.25759016655E+02 0.25034104394E+02 0.23893039816E+02 0.22424998887E+02
 0.20733770834E+02 0.18921532345E+02 0.17085606719E+02 0.15309349693E+02 0.13653151932E+02
 0.12164771889E+02 0.10877668627E+02 0.98172664682E+01 0.90034319910E+01 0.84533928307E+01
 0.81825583207E+01 0.82050929198E+01 0.85327619928E+01 0.91732523723E+01 0.10126299983E+02
 0.11380497846E+02 0.12906750441E+02 0.14657675100E+02 0.16568434615E+02 0.18554509876E+02
 0.20512712613E+02 0.22328544581E+02 0.23887004345E+02 0.25084212188E+02 0.25837824050E+02
 0.18719158867E+02 0.18545949538E+02 0.18039467479E+02 0.17237764020E+02 0.16199530342E+02
 0.14997662148E+02 0.13711633255E+02 0.12420098402E+02 0.11195368724E+02 0.10100581368E+02
 0.91873509916E+01 0.84939080366E+01 0.80467540604E+01 0.78643956724E+01 0.79584440753E+01
 0.83365867352E+01 0.90034319910E+01 0.99617634762E+01 0.11212543376E+02 0.12754934350E+02
 0.14583945141E+02 0.16686974015E+02 0.19036132231E+02 0.21582667989E+02 0.24243062306E+02
 0.26905988168E+02 0.29425977158E+02 0.31631929430E+02 0.33356487127E+02 0.34456542040E+02
 0.34834892393E+02 0.34456542040E+02 0.33356487127E+02 0.31631929430E+02 0.29425977158E+02
 0.26905988168E+02 0.24243062306E+02 0.21582667989E+02 0.19036132231E+02 0.16686974015E+02
 0.14583945141E+02 0.12754934350E+02 0.11212543376E+02 0.99617634762E+01 0.90034319910E+01
 0.83365867352E+01 0.79584440753E+01 0.78643956724E+01 0.80467540604E+01 0.84939080366E+01
 0.91873509916E+01 0.10100581368E+02 0.11195368724E+02 0.12420098402E+02 0.13711633255E+02
 0.14997662148E+02 0.16199530342E+02 0.17237764020E+02 0.18039467479E+02 0.18545949538E+02
 0.13405285166E+02 0.13293368308E+02 0.12966763849E+02 0.12451667756E+02 0.11788602713E+02
 0.11027924333E+02 0.10225113118E+02 0.94362932417E+01 0.87144861376E+01 0.81065696961E+01
 0.76524916419E+01 0.73866015024E+01 0.73388339679E+01 0.75350579785E+01 0.79991756907E+01
 0.87529562571E+01 0.98172664682E+01 0.11212543376E+02 0.12960117086E+02 0.15081437013E+02
 0.17595442581E+02 0.20510103787E+02 0.23811200855E+02 0.27443640030E+02 0.31304526823E+02
 0.35220594872E+02 0.38964998715E+02 0.42279539973E+02 0.44893482123E+02 0.46569708227E+02
 0.47147219156E+02 0.46569708227E+02 0.44893482123E+02 0.42279539973E+02 0.38964998715E+02
 0.35220594872E+02 0.31304526823E+02 0.27443640030E+02 0.23811200855E+02 0.20510103787E+02
 0.17595442581E+02 0.15081437013E+02 0.12960117086E+02 0.11212543376E+02 0.98172664682E+01
 0.87529562571E+01 0.79991756907E+01 0.75350579785E+01 0.73388339679E+01 0.73866015024E+01
 0.76524916419E+01 0.81065696961E+01 0.87144861376E+01 0.94362932417E+01 0.10225113118E+02
 0.11027924333E+02 0.11788602713E+02 0.12451667756E+02 0.12966763849E+02 0.13293368308E+02
 0.96595476541E+01 0.95905304148E+01 0.93898351295E+01 0.90759877546E+01 0.86774232150E+01
 0.82297053943E+01 0.77720350156E+01 0.73443376918E+01 0.69851451830E+01 0.67314764841E+01
 0.66190604858E+01 0.66827222502E+01 0.69570456157E+01 0.74775432689E+01 0.82797300592E+01
 0.94002840678E+01 0.10877668627E+02 0.12754934350E+02 0.15081437013E+02 0.17913205361E+02
 0.21306367349E+02 0.25304055484E+02 0.29912440971E+02 0.35076574730E+02 0.40644226943E+02
 0.46371860398E+02 0.51910426888E+02 0.56835750757E+02 0.60729062091E+02 0.63231508456E+02
 0.64095458107E+02 0.63231508456E+02 0.60729062091E+02 0.56835750757E+02 0.51910426888E+02
 0.46371860398E+02 0.40644226943E+02 0.35076574730E+02 0.29912440971E+02 0.25304055484E+02
 0.21306367349E+02 0.17913205361E+02 0.15081437013E+02 0.12754934350E+02 0.10877668627E+02
 0.94002840678E+01 0.82797300592E+01 0.74775432689E+01 0.69570456157E+01 0.66827222502E+01
 0.66190604858E+01 0.67314764841E+01 0.69851451830E+01 0.73443376918E+01 0.77720350156E+01
 0.82297053943E+01 0.86774232150E+01 0.90759877546E+01 0.93898351295E+01 0.95905304148E+01
 0.70707163596E+01 0.70314882071E+01 0.69184392726E+01 0.67446008648E+01 0.65302263248E+01
 0.63004091568E+01 0.60833030557E+01 0.59085613166E+01 0.58072701502E+01 0.58117450002E+01
 0.59567330852E+01 0.62802845212E+01 0.68243254253E+01 0.76336185390E+01 0.87568622542E+01
 0.10246896888E+02 0.12164771889E+02 0.14583945141E+02 0.17595442581E+02 0.21306367349E+02
 0.25830511122E+02 0.31262955097E+02 0.37643874805E+02 0.44907073163E+02 0.52850709768E+02
 0.61081761178E+02 0.69087294549E+02 0.76301571858E+02 0.82098663185E+02 0.85875605901E+02
 0.87188612007E+02 0.85875605901E+02 0.82098663185E+02 0.76301571858E+02 0.69087294549E+02
 0.61081761178E+02 0.52850709768E+02 0.44907073163E+02 0.37643874805E+02 0.31262955097E+02
 0.25830511122E+02 0.21306367349E+02 0.17595442581E+02 0.14583945141E+02 0.12164771889E+02
 0.10246896888E+02 0.87568622542E+01 0.76336185390E+01 0.68243254253E+01 0.62802845212E+01
 0.59567330852E+01 0.58117450002E+01 0.58072701502E+01 0.59085613166E+01 0.60833030557E+01
 0.63004091568E+01 0.65302263248E+01 0.67446008648E+01 0.69184392726E+01 0.70314882071E+01
 0.53123495243E+01 0.52933001379E+01 0.52393217813E+01 0.51602241718E+01 0.50706517244E+01
 0.49894284474E+01 0.49379080848E+01 0.49402282319E+01 0.50231081309E+01 0.52181578566E+01
 0.55622753640E+01 0.60988851478E+01 0.68771693199E+01 0.79533031578E+01 0.93896355301E+01
 0.11259635461E+02 0.13653151932E+02 0.16686974015E+02 0.20510103787E+02 0.25304055484E+02
 0.31262955097E+02 0.38556459849E+02 0.47264389956E+02 0.57307742674E+02 0.68368602920E+02
 0.80025403729E+02 0.91705488495E+02 0.10251212537E+03 0.11134229267E+03 0.11714170823E+03
 0.11916498107E+03 0.11714170823E+03 0.11134229267E+03 0.10251212537E+03 0.91705488495E+02
 0.80025403729E+02 0.68368602920E+02 0.57307742674E+02 0.47264389956E+02 0.38556459849E+02
 0.31262955097E+02 0.25304055484E+02 0.20510103787E+02 0.16686974015E+02 0.13653151932E+02
 0.11259635461E+02 0.93896355301E+01 0.79533031578E+01 0.68771693199E+01 0.60988851478E+01
 0.55622753640E+01 0.52181578566E+01 0.50231081309E+01 0.49402282319E+01 0.49379080848E+01
 0.49894284474E+01 0.50706517244E+01 0.51602241718E+01 0.52393217813E+01 0.52933001379E+01
 0.41289701034E+01 0.41232117855E+01 0.41090098839E+01 0.40932605946E+01 0.40880279864E+01
 0.41076715325E+01 0.41703850043E+01 0.42968728041E+01 0.45140343016E+01 0.48539836165E+01
 0.53580284263E+01 0.60750001827E+01 0.70640434400E+01 0.83916872383E+01 0.10138255093E+02
 0.12400838030E+02 0.15309349693E+02 0.19036132231E+02 0.23811200855E+02 0.29912440971E+02
 0.37643874805E+02 0.47264389956E+02 0.58899613486E+02 0.72435491760E+02 0.87742138094E+02
 0.10446962192E+03 0.12159595472E+03 0.13756190742E+03 0.15060689100E+03 0.15915850103E+03
 0.16213529013E+03 0.15915850103E+03 0.15060689100E+03 0.13756190742E+03 0.12159595472E+03
 0.10446962192E+03 0.87742138094E+02 0.72435491760E+02 0.58899613486E+02 0.47264389956E+02
 0.37643874805E+02 0.29912440971E+02 0.23811200855E+02 0.19036132231E+02 0.15309349693E+02
 0.12400838030E+02 0.10138255093E+02 0.83916872383E+01 0.70640434400E+01 0.60750001827E+01
 0.53580284263E+01 0.48539836165E+01 0.45140343016E+01 0.42968728041E+01 0.41703850043E+01
 0.41076715325E+01 0.40880279864E+01 0.40932605946E+01 0.41090098839E+01 0.41232117855E+01
 0.33359451985E+01 0.33395560621E+01 0.33513482433E+01 0.33787041518E+01 0.34299879865E+01
 0.35190976825E+01 0.36610871367E+01 0.38778306550E+01 0.41947820736E+01 0.46490329661E+01
 0.52847329075E+01 0.61599463073E+01 0.73403193942E+01 0.89083669967E+01 0.10960487736E+02
 0.13628090644E+02 0.17085606719E+02 0.21582667989E+02 0.27443640030E+02 0.35076574730E+02
 0.44907073163E+02 0.57307742674E+02 0.72435491760E+02 0.90543514022E+02 0.11177810490E+03
 0.13532843334E+03 0.15945069931E+03 0.18178944327E+03 0.19988676460E+03 0.21165399776E+03
 0.21573427968E+03 0.21165399776E+03 0.19988676460E+03 0.18178944327E+03 0.15945069931E+03
 0.13532843334E+03 0.11177810490E+03 0.90543514022E+02 0.72435491760E+02 0.57307742674E+02
 0.44907073163E+02 0.35076574730E+02 0.27443640030E+02 0.21582667989E+02 0.17085606719E+02
 0.13628090644E+02 0.10960487736E+02 0.89083669967E+01 0.73403193942E+01 0.61599463073E+01
 0.52847329075E+01 0.46490329661E+01 0.41947820736E+01 0.38778306550E+01 0.36610871367E+01
 0.35190976825E+01 0.34299879865E+01 0.33787041518E+01 0.33513482433E+01 0.33395560621E+01
 0.28076366231E+01 0.28166437046E+01 0.28466766500E+01 0.29021148521E+01 0.29929903179E+01
 0.31298810612E+01 0.33291911936E+01 0.36110508159E+01 0.40058655830E+01 0.45511661606E+01
 0.52993587549E+01 0.63122972319E+01 0.76692043654E+01 0.94621821538E+01 0.11814435402E+02
 0.14888085905E+02 0.18921532345E+02 0.24243062306E+02 0.31304526823E+02 0.40644226943E+02
 0.52850709768E+02 0.68368602920E+02 0.87742138094E+02 0.11177810490E+03 0.14033743225E+03
 0.17193836845E+03 0.20394822717E+03 0.23314400790E+03 0.25642798428E+03 0.27138316216E+03
 0.27653066862E+03 0.27138316216E+03 0.25642798428E+03 0.23314400790E+03 0.20394822717E+03
 0.17193836845E+03 0.14033743225E+03 0.11177810490E+03 0.87742138094E+02 0.68368602920E+02
 0.52850709768E+02 0.40644226943E+02 0.31304526823E+02 0.24243062306E+02 0.18921532345E+02
 0.14888085905E+02 0.11814435402E+02 0.94621821538E+01 0.76692043654E+01 0.63122972319E+01
 0.52993587549E+01 0.45511661606E+01 0.40058655830E+01 0.36110508159E+01 0.33291911936E+01
 0.31298810612E+01 0.29929903179E+01 0.29021148521E+01 0.28466766500E+01 0.28166437046E+01
 0.24580359718E+01 0.24710154569E+01 0.25134755015E+01 0.25885187258E+01 0.27061555925E+01
 0.28764488895E+01 0.31174252619E+01 0.34486015436E+01 0.39037365867E+01 0.45234029274E+01
 0.53661815994E+01 0.65001588300E+01 0.80147979895E+01 0.10016182179E+02 0.12652001428E+02
 0.16123558675E+02 0.20733770834E+02 0.26905988168E+02 0.35220594872E+02 0.46371860398E+02
 0.61081761178E+02 0.80025403729E+02 0.10446962192E+03 0.13532843334E+03 0.17193836845E+03
 0.21195609000E+03 0.25173451254E+03 0.28726593885E+03 0.31503104957E+03 0.33257793442E+03
 0.33855997990E+03 0.33257793442E+03 0.31503104957E+03 0.28726593885E+03 0.25173451254E+03
 0.21195609000E+03 0.17193836845E+03 0.13532843334E+03 0.10446962192E+03 0.80025403729E+02
 0.61081761178E+02 0.46371860398E+02 0.35220594872E+02 0.26905988168E+02 0.20733770834E+02
 0.16123558675E+02 0.12652001428E+02 0.10016182179E+02 0.80147979895E+01 0.65001588300E+01
 0.53661815994E+01 0.45234029274E+01 0.39037365867E+01 0.34486015436E+01 0.31174252619E+01
 0.28764488895E+01 0.27061555925E+01 0.25885187258E+01 0.25134755015E+01 0.24710154569E+01
 0.22294658644E+01 0.22462526362E+01 0.22960941120E+01 0.23861278658E+01 0.25219174416E+01
 0.27170846706E+01 0.29863688427E+01 0.33560339846E+01 0.38565278366E+01 0.45377392745E+01
 0.54572340790E+01 0.66957039875E+01 0.83454053057E+01 0.10533784781E+02 0.13424599215E+02
 0.17269281583E+02 0.22424998887E+02 0.29425977158E+02 0.38964998715E+02 0.51910426888E+02
 0.69087294549E+02 0.91705488495E+02 0.12159595472E+03 0.15945069931E+03 0.20394822717E+03
 0.25173451254E+03 0.29819930400E+03 0.33867355121E+03 0.36953340960E+03 0.38863423314E+03
 0.39507368563E+03 0.38863423314E+03 0.36953340960E+03 0.33867355121E+03 0.29819930400E+03
 0.25173451254E+03 0.20394822717E+03 0.15945069931E+03 0.12159595472E+03 0.91705488495E+02
 0.69087294549E+02 0.51910426888E+02 0.38964998715E+02 0.29425977158E+02 0.22424998887E+02
 0.17269281583E+02 0.13424599215E+02 0.10533784781E+02 0.83454053057E+01 0.66957039875E+01
 0.54572340790E+01 0.45377392745E+01 0.38565278366E+01 0.33560339846E+01 0.29863688427E+01
 0.27170846706E+01 0.25219174416E+01 0.23861278658E+01 0.22960941120E+01 0.22462526362E+01
 0.20857920325E+01 0.21047602026E+01 0.21595953125E+01 0.22591100287E+01 0.24074895971E+01