<?xml version="1.0" encoding="ISO-8859-1"?>
<modeling>
 <generator>
  <i name="program" type="string">vasp </i>
  <i name="version" type="string">5.4.4.18Apr17-6-g9f103f2a35  </i>
  <i name="subversion" type="string">(build Jun 30 2017 11:15:00) complex            parallel </i>
  <i name="platform" type="string">STALLO_VASP_5.4.4 </i>
  <i name="date" type="string">2019 11 01 </i>
  <i name="time" type="string">11:03:23 </i>
 </generator>
 <incar>
  <i type="string" name="PREC">accurate  ! normal/accurate</i>
  <i type="string" name="ALGO"> Fast      ! Algorithm for electronic re</i>
  <i type="logical" name="ADDGRID"> T  </i>
  <i type="int" name="ISPIN">     1</i>
  <i type="int" name="MAXMIX">    80</i>
  <i type="int" name="NELMIN">     4</i>
  <i type="int" name="IBRION">     1</i>
  <i name="EDIFF">      0.00001000</i>
  <i name="EDIFFG">     -0.01000000</i>
  <i type="int" name="NSW">    80</i>
  <i type="int" name="ISIF">     3</i>
  <i name="ENCUT">    500.00000000</i>
  <i type="string" name="LREAL"> Auto      ! Projection in reciprocal sp</i>
  <i type="int" name="ISMEAR">     0</i>
  <i name="SIGMA">      0.20000000</i>
  <i type="int" name="NWRITE">     1</i>
  <v type="int" name="KPOINT_BSE">    -1     0     0     0</v>
 </incar>
 <structure name="primitive_cell" >
  <crystal>
   <varray name="basis" >
    <v>       3.94684634       0.00000000       0.00000000 </v>
    <v>       0.00000000       3.94684634       0.00000000 </v>
    <v>       0.00000000       0.00000000       3.94684634 </v>
   </varray>
   <i name="volume">     61.48237796 </i>
   <varray name="rec_basis" >
    <v>       0.25336684       0.00000000       0.00000000 </v>
    <v>       0.00000000       0.25336684       0.00000000 </v>
    <v>       0.00000000       0.00000000       0.25336684 </v>
   </varray>
  </crystal>
  <varray name="positions" >
   <v>       0.00000000       0.00000000       0.00000000 </v>
   <v>      -0.50000000      -0.50000000       0.00000000 </v>
   <v>      -0.50000000       0.00000000      -0.50000000 </v>
   <v>       0.00000000      -0.50000000      -0.50000000 </v>
   <v>      -0.50000000      -0.50000000      -0.50000000 </v>
  </varray>
 </structure>
 <varray name="primitive_index" >
  <v type="int" >        1 </v>
  <v type="int" >        3 </v>
  <v type="int" >        4 </v>
  <v type="int" >        5 </v>
  <v type="int" >        2 </v>
 </varray>
 <kpoints>
  <generation param="Gamma">
   <v type="int" name="divisions">       7        7        7 </v>
   <v name="usershift">      0.00000000       0.00000000       0.00000000 </v>
   <v name="genvec1">      0.14285714       0.00000000       0.00000000 </v>
   <v name="genvec2">      0.00000000       0.14285714       0.00000000 </v>
   <v name="genvec3">      0.00000000       0.00000000       0.14285714 </v>
   <v name="shift">      0.00000000       0.00000000       0.00000000 </v>
  </generation>
  <varray name="kpointlist" >
   <v>       0.00000000       0.00000000       0.00000000 </v>
   <v>       0.14285714       0.00000000       0.00000000 </v>
   <v>       0.28571429       0.00000000       0.00000000 </v>
   <v>       0.42857143       0.00000000       0.00000000 </v>
   <v>       0.14285714       0.14285714       0.00000000 </v>
   <v>       0.28571429       0.14285714       0.00000000 </v>
   <v>       0.42857143       0.14285714       0.00000000 </v>
   <v>       0.28571429       0.28571429       0.00000000 </v>
   <v>       0.42857143       0.28571429       0.00000000 </v>
   <v>       0.42857143       0.42857143       0.00000000 </v>
   <v>       0.14285714       0.14285714       0.14285714 </v>
   <v>       0.28571429       0.14285714       0.14285714 </v>
   <v>       0.42857143       0.14285714       0.14285714 </v>
   <v>       0.28571429       0.28571429       0.14285714 </v>
   <v>       0.42857143       0.28571429       0.14285714 </v>
   <v>       0.42857143       0.42857143       0.14285714 </v>
   <v>       0.28571429       0.28571429       0.28571429 </v>
   <v>       0.42857143       0.28571429       0.28571429 </v>
   <v>       0.42857143       0.42857143       0.28571429 </v>
   <v>       0.42857143       0.42857143       0.42857143 </v>
  </varray>
  <varray name="weights" >
   <v>       0.00291545 </v>
   <v>       0.01749271 </v>
   <v>       0.01749271 </v>
   <v>       0.01749271 </v>
   <v>       0.03498542 </v>
   <v>       0.06997085 </v>
   <v>       0.06997085 </v>
   <v>       0.03498542 </v>
   <v>       0.06997085 </v>
   <v>       0.03498542 </v>
   <v>       0.02332362 </v>
   <v>       0.06997085 </v>
   <v>       0.06997085 </v>
   <v>       0.06997085 </v>
   <v>       0.13994169 </v>
   <v>       0.06997085 </v>
   <v>       0.02332362 </v>
   <v>       0.06997085 </v>
   <v>       0.06997085 </v>
   <v>       0.02332362 </v>
  </varray>
 </kpoints>
 <parameters>
  <separator name="general" >
   <i type="string" name="SYSTEM">unknown system</i>
   <i type="logical" name="LCOMPAT"> F  </i>
  </separator>
  <separator name="electronic" >
   <i type="string" name="PREC">accura</i>
   <i name="ENMAX">    500.00000000</i>
   <i name="ENAUG">    605.39200000</i>
   <i name="EDIFF">      0.00001000</i>
   <i type="int" name="IALGO">    68</i>
   <i type="int" name="IWAVPR">    11</i>
   <i type="int" name="NBANDS">    20</i>
   <i name="NELECT">     32.00000000</i>
   <i type="int" name="TURBO">     0</i>
   <i type="int" name="IRESTART">     0</i>
   <i type="int" name="NREBOOT">     0</i>
   <i type="int" name="NMIN">     0</i>
   <i name="EREF">      0.00000000</i>
   <separator name="electronic smearing" >
    <i type="int" name="ISMEAR">     0</i>
    <i name="SIGMA">      0.20000000</i>
    <i name="KSPACING">      0.50000000</i>
    <i type="logical" name="KGAMMA"> T  </i>
   </separator>
   <separator name="electronic projectors" >
    <i type="logical" name="LREAL"> T  </i>
    <v name="ROPT">     -0.00025000     -0.00025000     -0.00025000</v>
    <i type="int" name="LMAXPAW">  -100</i>
    <i type="int" name="LMAXMIX">     2</i>
    <i type="logical" name="NLSPLINE"> F  </i>
   </separator>
   <separator name="electronic startup" >
    <i type="int" name="ISTART">     0</i>
    <i type="int" name="ICHARG">     2</i>
    <i type="int" name="INIWAV">     1</i>
   </separator>
   <separator name="electronic spin" >
    <i type="int" name="ISPIN">     1</i>
    <i type="logical" name="LNONCOLLINEAR"> F  </i>
    <v name="MAGMOM">      1.00000000      1.00000000      1.00000000      1.00000000      1.00000000</v>
    <i name="NUPDOWN">     -1.00000000</i>
    <i type="logical" name="LSORBIT"> F  </i>
    <v name="SAXIS">      0.00000000      0.00000000      1.00000000</v>
    <i type="logical" name="LSPIRAL"> F  </i>
    <v name="QSPIRAL">      0.00000000      0.00000000      0.00000000</v>
    <i type="logical" name="LZEROZ"> F  </i>
   </separator>
   <separator name="electronic exchange-correlation" >
    <i type="logical" name="LASPH"> F  </i>
    <i type="logical" name="LMETAGGA"> F  </i>
   </separator>
   <separator name="electronic convergence" >
    <i type="int" name="NELM">    60</i>
    <i type="int" name="NELMDL">    -5</i>
    <i type="int" name="NELMIN">     4</i>
    <i name="ENINI">    500.00000000</i>
    <separator name="electronic convergence detail" >
     <i type="logical" name="LDIAG"> T  </i>
     <i type="logical" name="LSUBROT"> F  </i>
     <i name="WEIMIN">      0.00100000</i>
     <i name="EBREAK">      0.00000013</i>
     <i name="DEPER">      0.30000000</i>
     <i type="int" name="NRMM">     4</i>
     <i name="TIME">      0.40000000</i>
    </separator>
   </separator>
   <separator name="electronic mixer" >
    <i name="AMIX">      0.40000000</i>
    <i name="BMIX">      1.00000000</i>
    <i name="AMIN">      0.10000000</i>
    <i name="AMIX_MAG">      1.60000000</i>
    <i name="BMIX_MAG">      1.00000000</i>
    <separator name="electronic mixer details" >
     <i type="int" name="IMIX">     4</i>
     <i type="logical" name="MIXFIRST"> F  </i>
     <i type="int" name="MAXMIX">    80</i>
     <i name="WC">    100.00000000</i>
     <i type="int" name="INIMIX">     1</i>
     <i type="int" name="MIXPRE">     1</i>
     <i type="int" name="MREMOVE">     5</i>
    </separator>
   </separator>
   <separator name="electronic dipolcorrection" >
    <i type="logical" name="LDIPOL"> F  </i>
    <i type="logical" name="LMONO"> F  </i>
    <i type="int" name="IDIPOL">     0</i>
    <i name="EPSILON">      1.00000000</i>
    <v name="DIPOL">   -100.00000000   -100.00000000   -100.00000000</v>
    <i name="EFIELD">      0.00000000</i>
   </separator>
  </separator>
  <separator name="grids" >
   <i type="int" name="NGX">    30</i>
   <i type="int" name="NGY">    30</i>
   <i type="int" name="NGZ">    30</i>
   <i type="int" name="NGXF">    60</i>
   <i type="int" name="NGYF">    60</i>
   <i type="int" name="NGZF">    60</i>
   <i type="logical" name="ADDGRID"> T  </i>
  </separator>
  <separator name="ionic" >
   <i type="int" name="NSW">    80</i>
   <i type="int" name="IBRION">     1</i>
   <i type="int" name="MDALGO">     0</i>
   <i type="int" name="ISIF">     3</i>
   <i name="PSTRESS">      0.00000000</i>
   <i name="EDIFFG">     -0.01000000</i>
   <i type="int" name="NFREE">     0</i>
   <i name="POTIM">      0.50000000</i>
   <i name="SMASS">     -3.00000000</i>
   <i name="SCALEE">      1.00000000</i>
  </separator>
  <separator name="ionic md" >
   <i name="TEBEG">      0.00010000</i>
   <i name="TEEND">      0.00010000</i>
   <i type="int" name="NBLOCK">     1</i>
   <i type="int" name="KBLOCK">    80</i>
   <i type="int" name="NPACO">   256</i>
   <i name="APACO">     16.00000000</i>
  </separator>
  <separator name="symmetry" >
   <i type="int" name="ISYM">     2</i>
   <i name="SYMPREC">      0.00001000</i>
  </separator>
  <separator name="dos" >
   <i type="int" name="LORBIT">     0</i>
   <v name="RWIGS">     -1.00000000     -1.00000000     -1.00000000</v>
   <i type="int" name="NEDOS">   301</i>
   <i name="EMIN">     10.00000000</i>
   <i name="EMAX">    -10.00000000</i>
   <i name="EFERMI">      0.00000000</i>
  </separator>
  <separator name="writing" >
   <i type="int" name="NWRITE">     1</i>
   <i type="logical" name="LWAVE"> T  </i>
   <i type="logical" name="LDOWNSAMPLE"> F  </i>
   <i type="logical" name="LCHARG"> T  </i>
   <i type="logical" name="LPARD"> F  </i>
   <i type="logical" name="LVTOT"> F  </i>
   <i type="logical" name="LVHAR"> F  </i>
   <i type="logical" name="LELF"> F  </i>
   <i type="logical" name="LOPTICS"> F  </i>
   <v name="STM">      0.00000000      0.00000000      0.00000000      0.00000000      0.00000000      0.00000000      0.00000000</v>
  </separator>
  <separator name="performance" >
   <i type="int" name="NPAR">     2</i>
   <i type="int" name="NSIM">     4</i>
   <i type="int" name="NBLK">    -1</i>
   <i type="logical" name="LPLANE"> T  </i>
   <i type="logical" name="LSCALAPACK"> T  </i>
   <i type="logical" name="LSCAAWARE"> F  </i>
   <i type="logical" name="LSCALU"> F  </i>
   <i type="logical" name="LASYNC"> F  </i>
   <i type="logical" name="LORBITALREAL"> F  </i>
  </separator>
  <separator name="miscellaneous" >
   <i type="int" name="IDIOT">     3</i>
   <i type="int" name="ISPECIAL">     0</i>
   <i type="logical" name="LMUSIC"> F  </i>
   <v name="POMASS">     87.62000000     47.88000000     16.00000000</v>
   <v name="DARWINR">      0.00000000      0.00000000      0.00000000</v>
   <v name="DARWINV">      1.00000000      1.00000000      1.00000000</v>
   <i type="logical" name="LCORR"> T  </i>
  </separator>
  <i type="logical" name="GGA_COMPAT"> T  </i>
  <i type="logical" name="LBERRY"> F  </i>
  <i type="int" name="ICORELEVEL">     0</i>
  <i type="logical" name="LDAU"> F  </i>
  <i type="int" name="I_CONSTRAINED_M">     0</i>
  <separator name="electronic exchange-correlation" >
   <i type="string" name="GGA">--</i>
   <i type="int" name="VOSKOWN">     0</i>
   <i type="logical" name="LHFCALC"> F  </i>
   <i type="string" name="PRECFOCK"></i>
   <i type="logical" name="LSYMGRAD"> F  </i>
   <i type="logical" name="LHFONE"> F  </i>
   <i type="logical" name="LRHFCALC"> F  </i>
   <i type="logical" name="LTHOMAS"> F  </i>
   <i type="logical" name="LMODELHF"> F  </i>
   <i name="ENCUT4O">     -1.00000000</i>
   <i type="int" name="EXXOEP">     0</i>
   <i type="int" name="FOURORBIT">     0</i>
   <i name="AEXX">      0.00000000</i>
   <i name="HFALPHA">      0.00000000</i>
   <i name="MCALPHA">      0.00000000</i>
   <i name="ALDAX">      1.00000000</i>
   <i name="AGGAX">      1.00000000</i>
   <i name="ALDAC">      1.00000000</i>
   <i name="AGGAC">      1.00000000</i>
   <i type="int" name="NKREDX">     1</i>
   <i type="int" name="NKREDY">     1</i>
   <i type="int" name="NKREDZ">     1</i>
   <i type="logical" name="SHIFTRED"> F  </i>
   <i type="logical" name="ODDONLY"> F  </i>
   <i type="logical" name="EVENONLY"> F  </i>
   <i type="int" name="LMAXFOCK">     0</i>
   <i type="int" name="NMAXFOCKAE">     0</i>
   <i type="logical" name="LFOCKAEDFT"> F  </i>
   <i name="HFSCREEN">      0.00000000</i>
   <i name="HFSCREENC">      0.00000000</i>
   <i type="int" name="NBANDSGWLOW">     0</i>
  </separator>
  <separator name="vdW DFT" >
   <i type="logical" name="LUSE_VDW"> F  </i>
   <i name="Zab_VDW">     -0.84910000</i>
   <i name="PARAM1">      0.12340000</i>
   <i name="PARAM2">      1.00000000</i>
   <i name="PARAM3">      0.00000000</i>
  </separator>
  <separator name="model GW" >
   <i type="int" name="MODEL_GW">     0</i>
   <i name="MODEL_EPS0">      7.37788536</i>
   <i name="MODEL_ALPHA">      1.00000000</i>
  </separator>
  <separator name="linear response parameters" >
   <i type="logical" name="LEPSILON"> F  </i>
   <i type="logical" name="LRPA"> F  </i>
   <i type="logical" name="LNABLA"> F  </i>
   <i type="logical" name="LVEL"> F  </i>
   <i type="int" name="KINTER">     0</i>
   <i name="CSHIFT">      0.10000000</i>
   <i name="OMEGAMAX">     -1.00000000</i>
   <i name="DEG_THRESHOLD">      0.00200000</i>
   <i name="RTIME">     -0.10000000</i>
   <i name="WPLASMAI">      0.00000000</i>
   <v name="DFIELD">      0.00000000      0.00000000      0.00000000</v>
   <v name="WPLASMA">      0.00000000      0.00000000      0.00000000      0.00000000      0.00000000      0.00000000      0.00000000      0.00000000      0.00000000</v>
  </separator>
  <separator name="orbital magnetization" >
   <i type="logical" name="NUCIND"> F  </i>
   <v name="MAGPOS">      0.00000000      0.00000000      0.00000000</v>
   <i type="logical" name="LNICSALL"> T  </i>
   <i type="logical" name="ORBITALMAG"> F  </i>
   <i type="logical" name="LMAGBLOCH"> F  </i>
   <i type="logical" name="LCHIMAG"> F  </i>
   <i type="logical" name="LGAUGE"> T  </i>
   <i type="int" name="MAGATOM">     0</i>
   <v name="MAGDIPOL">      0.00000000      0.00000000      0.00000000</v>
   <v name="AVECCONST">      0.00000000      0.00000000      0.00000000</v>
  </separator>
  <separator name="response functions" >
   <i type="logical" name="LADDER"> F  </i>
   <i type="logical" name="LRPAFORCE"> F  </i>
   <i type="logical" name="LFXC"> F  </i>
   <i type="logical" name="LHARTREE"> T  </i>
   <i type="int" name="IBSE">     0</i>
   <v type="int" name="KPOINT">    -1     0     0     0</v>
   <i type="logical" name="LTCTE"> F  </i>
   <i type="logical" name="LTETE"> F  </i>
   <i type="logical" name="LTRIPLET"> F  </i>
   <i type="logical" name="LFXCEPS"> F  </i>
   <i type="logical" name="LFXHEG"> F  </i>
   <i type="int" name="NATURALO">     2</i>
   <i type="logical" name="L2ORDER"> F  </i>
   <i type="logical" name="LMP2LT"> F  </i>
   <i type="logical" name="LUSEW"> F  </i>
   <i name="ENCUTGW">     -2.00000000</i>
   <i name="ENCUTGWSOFT">     -2.00000000</i>
   <i name="ENCUTLF">     -1.00000000</i>
   <i type="int" name="LMAXMP2">    -1</i>
   <i name="SCISSOR">      0.00000000</i>
   <i type="int" name="NOMEGA">     0</i>
   <i type="int" name="NOMEGAR">     0</i>
   <i type="int" name="NBANDSGW">    -1</i>
   <i type="int" name="NBANDSO">    -1</i>
   <i type="int" name="NBANDSV">    -1</i>
   <i type="int" name="NELM">     1</i>
   <i type="int" name="NELMHF">     1</i>
   <i type="int" name="DIM">     3</i>
   <i type="int" name="ANTIRES">     0</i>
   <i name="OMEGAMAX">    -30.00000000</i>
   <i name="OMEGAMIN">    -30.00000000</i>
   <i name="OMEGATL">   -200.00000000</i>
   <i type="int" name="OMEGAGRID">   140</i>
   <i name="CSHIFT">     -0.10000000</i>
   <i type="logical" name="SELFENERGY"> F  </i>
   <i type="logical" name="LSPECTRAL"> F  </i>
   <i type="logical" name="LSPECTRALGW"> F  </i>
   <i type="logical" name="LSINGLES"> F  </i>
   <i type="logical" name="LFERMIGW"> F  </i>
   <i type="logical" name="ODDONLYGW"> F  </i>
   <i type="logical" name="EVENONLYGW"> F  </i>
   <i type="int" name="NKREDLFX">     1</i>
   <i type="int" name="NKREDLFY">     1</i>
   <i type="int" name="NKREDLFZ">     1</i>
   <i type="int" name="MAXMEM">  2800</i>
   <i type="int" name="TELESCOPE">     0</i>
   <i type="int" name="TAUPAR">     1</i>
   <i type="int" name="OMEGAPAR">    -1</i>
   <i name="LAMBDA">      1.00000000</i>
  </separator>
  <separator name="External order field" >
   <i name="OFIELD_KAPPA">      0.00000000</i>
   <v name="OFIELD_K">      0.00000000      0.00000000      0.00000000</v>
   <i name="OFIELD_Q6_NEAR">      0.00000000</i>
   <i name="OFIELD_Q6_FAR">      0.00000000</i>
   <i name="OFIELD_A">      0.00000000</i>
  </separator>
 </parameters>
 <atominfo>
  <atoms>       5 </atoms>
  <types>       3 </types>
  <array name="atoms" >
   <dimension dim="1">ion</dimension>
   <field type="string">element</field>
   <field type="int">atomtype</field>
   <set>
    <rc><c>Sr</c><c>   1</c></rc>
    <rc><c>Ti</c><c>   2</c></rc>
    <rc><c>O </c><c>   3</c></rc>
    <rc><c>O </c><c>   3</c></rc>
    <rc><c>O </c><c>   3</c></rc>
   </set>
  </array>
  <array name="atomtypes" >
   <dimension dim="1">type</dimension>
   <field type="int">atomspertype</field>
   <field type="string">element</field>
   <field>mass</field>
   <field>valence</field>
   <field type="string">pseudopotential</field>
   <set>
    <rc><c>   1</c><c>Sr</c><c>     87.62000000</c><c>     10.00000000</c><c> PAW_PBE Sr_sv 07Sep2000                </c></rc>
    <rc><c>   1</c><c>Ti</c><c>     47.88000000</c><c>      4.00000000</c><c> PAW_PBE Ti 08Apr2002                   </c></rc>
    <rc><c>   3</c><c>O </c><c>     16.00000000</c><c>      6.00000000</c><c> PAW_PBE O 08Apr2002                    </c></rc>
   </set>
  </array>
 </atominfo>
 <structure name="initialpos" >
  <crystal>
   <varray name="basis" >
    <v>       3.94684634       0.00000000       0.00000000 </v>
    <v>       0.00000000       3.94684634       0.00000000 </v>
    <v>       0.00000000       0.00000000       3.94684634 </v>
   </varray>
   <i name="volume">     61.48237796 </i>
   <varray name="rec_basis" >
    <v>       0.25336684       0.00000000       0.00000000 </v>
    <v>       0.00000000       0.25336684       0.00000000 </v>
    <v>       0.00000000       0.00000000       0.25336684 </v>
   </varray>
  </crystal>
  <varray name="positions" >
   <v>       0.00000000       0.00000000       0.00000000 </v>
   <v>       0.50000000       0.50000000       0.50000000 </v>
   <v>       0.50000000       0.50000000       0.00000000 </v>
   <v>       0.50000000       0.00000000       0.50000000 </v>
   <v>       0.00000000       0.50000000       0.50000000 </v>
  </varray>
 </structure>
 <calculation>
  <scstep>
   <time name="dav">    0.48    0.49</time>
   <time name="total">    0.62    0.99</time>
   <energy>
    <i name="alphaZ">    179.60204115 </i>
    <i name="ewald">  -1913.70330965 </i>
    <i name="hartreedc">   -411.87486700 </i>
    <i name="XCdc">     82.00661982 </i>
    <i name="pawpsdc">   1333.61297253 </i>
    <i name="pawaedc">  -1284.78446064 </i>
    <i name="eentropy">     -0.03098092 </i>
    <i name="bandstr">     79.37502620 </i>
    <i name="atom">   2234.31706254 </i>
    <i name="e_fr_energy">    298.52010403 </i>
    <i name="e_wo_entrp">    298.55108495 </i>
    <i name="e_0_energy">    298.53559449 </i>
   </energy>
  </scstep>
  <scstep>
   <time name="dav">    0.60    0.60</time>
   <time name="total">    0.60    0.60</time>
   <energy>
    <i name="e_fr_energy">    -17.01025124 </i>
    <i name="e_wo_entrp">    -17.00289553 </i>
    <i name="e_0_energy">    -17.00657338 </i>
   </energy>
  </scstep>
  <scstep>
   <time name="dav">    0.54    0.54</time>
   <time name="total">    0.54    0.54</time>
   <energy>
    <i name="e_fr_energy">    -49.19663856 </i>
    <i name="e_wo_entrp">    -49.19663856 </i>
    <i name="e_0_energy">    -49.19663856 </i>
   </energy>
  </scstep>
  <scstep>
   <time name="dav">    0.72    0.72</time>
   <time name="total">    0.72    0.72</time>
   <energy>
    <i name="e_fr_energy">    -50.39235260 </i>
    <i name="e_wo_entrp">    -50.39235260 </i>
    <i name="e_0_energy">    -50.39235260 </i>
   </energy>
  </scstep>
  <scstep>
   <time name="dav">    0.57    0.57</time>
   <time name="total">    0.68    0.69</time>
   <energy>
    <i name="e_fr_energy">    -50.42243572 </i>
    <i name="e_wo_entrp">    -50.42243572 </i>
    <i name="e_0_energy">    -50.42243572 </i>
   </energy>
  </scstep>
  <scstep>
   <time name="diag">    0.07    0.08</time>
   <time name="diis">    0.33    0.33</time>
   <time name="orth">    0.01    0.01</time>
   <time name="total">    0.65    0.66</time>
   <energy>
    <i name="e_fr_energy">    -40.51558243 </i>
    <i name="e_wo_entrp">    -40.51533281 </i>
    <i name="e_0_energy">    -40.51545762 </i>
   </energy>
  </scstep>
  <scstep>
   <time name="diag">    0.08    0.08</time>
   <time name="diis">    0.36    0.36</time>
   <time name="orth">    0.01    0.01</time>
   <time name="total">    0.68    0.68</time>
   <energy>
    <i name="e_fr_energy">    -39.83842239 </i>
    <i name="e_wo_entrp">    -39.83842239 </i>
    <i name="e_0_energy">    -39.83842239 </i>
   </energy>
  </scstep>
  <scstep>
   <time name="diag">    0.07    0.08</time>
   <time name="diis">    0.34    0.34</time>
   <time name="orth">    0.01    0.01</time>
   <time name="total">    0.65    0.65</time>
   <energy>
    <i name="e_fr_energy">    -39.74857256 </i>
    <i name="e_wo_entrp">    -39.74857256 </i>
    <i name="e_0_energy">    -39.74857256 </i>
   </energy>
  </scstep>
  <scstep>
   <time name="diag">    0.08    0.08</time>
   <time name="diis">    0.39    0.39</time>
   <time name="orth">    0.01    0.01</time>
   <time name="total">    0.70    0.70</time>
   <energy>
    <i name="e_fr_energy">    -39.74131893 </i>
    <i name="e_wo_entrp">    -39.74131893 </i>
    <i name="e_0_energy">    -39.74131893 </i>
   </energy>
  </scstep>
  <scstep>
   <time name="diag">    0.07    0.08</time>
   <time name="diis">    0.35    0.35</time>
   <time name="orth">    0.01    0.01</time>
   <time name="total">    0.66    0.66</time>
   <energy>
    <i name="e_fr_energy">    -39.73635526 </i>
    <i name="e_wo_entrp">    -39.73635526 </i>
    <i name="e_0_energy">    -39.73635526 </i>
   </energy>
  </scstep>
  <scstep>
   <time name="diag">    0.07    0.08</time>
   <time name="diis">    0.34    0.34</time>
   <time name="orth">    0.01    0.01</time>
   <time name="total">    0.65    0.65</time>
   <energy>
    <i name="e_fr_energy">    -39.73393465 </i>
    <i name="e_wo_entrp">    -39.73393465 </i>
    <i name="e_0_energy">    -39.73393465 </i>
   </energy>
  </scstep>
  <scstep>
   <time name="diag">    0.08    0.08</time>
   <time name="diis">    0.35    0.35</time>
   <time name="orth">    0.01    0.01</time>
   <time name="total">    0.66    0.67</time>
   <energy>
    <i name="e_fr_energy">    -39.73274745 </i>
    <i name="e_wo_entrp">    -39.73274745 </i>
    <i name="e_0_energy">    -39.73274745 </i>
   </energy>
  </scstep>
  <scstep>
   <time name="diag">    0.07    0.08</time>
   <time name="diis">    0.38    0.38</time>
   <time name="orth">    0.00    0.01</time>
   <time name="total">    0.69    0.69</time>
   <energy>
    <i name="e_fr_energy">    -39.73313437 </i>
    <i name="e_wo_entrp">    -39.73313437 </i>
    <i name="e_0_energy">    -39.73313437 </i>
   </energy>
  </scstep>
  <scstep>
   <time name="diag">    0.07    0.08</time>
   <time name="diis">    0.34    0.34</time>
   <time name="orth">    0.01    0.01</time>
   <time name="total">    0.65    0.65</time>
   <energy>
    <i name="e_fr_energy">    -39.73267773 </i>
    <i name="e_wo_entrp">    -39.73267773 </i>
    <i name="e_0_energy">    -39.73267773 </i>
   </energy>
  </scstep>
  <scstep>
   <time name="diag">    0.07    0.08</time>
   <time name="diis">    0.34    0.34</time>
   <time name="orth">    0.00    0.01</time>
   <time name="total">    0.65    0.66</time>
   <energy>
    <i name="e_fr_energy">    -39.73272050 </i>
    <i name="e_wo_entrp">    -39.73272050 </i>
    <i name="e_0_energy">    -39.73272050 </i>
   </energy>
  </scstep>
  <scstep>
   <time name="diag">    0.07    0.08</time>
   <time name="diis">    0.30    0.30</time>
   <time name="orth">    0.00    0.01</time>
   <time name="total">    0.61    0.61</time>
   <energy>
    <i name="e_fr_energy">    -39.73272185 </i>
    <i name="e_wo_entrp">    -39.73272185 </i>
    <i name="e_0_energy">    -39.73272185 </i>
   </energy>
  </scstep>
  <scstep>
   <time name="diag">    0.07    0.08</time>
   <time name="diis">    0.24    0.24</time>
   <time name="orth">    0.01    0.01</time>
   <time name="total">    0.44    0.44</time>
   <energy>
    <i name="alphaZ">    179.60204115 </i>
    <i name="ewald">  -1913.70330965 </i>
    <i name="hartreedc">   -449.57651442 </i>
    <i name="XCdc">     85.82538009 </i>
    <i name="pawpsdc">   1546.07746308 </i>
    <i name="pawaedc">  -1503.64993509 </i>
    <i name="eentropy">     -0.00000000 </i>
    <i name="bandstr">   -218.62490995 </i>
    <i name="atom">   2234.31706254 </i>
    <i name="e_fr_energy">    -39.73272226 </i>
    <i name="e_wo_entrp">    -39.73272226 </i>
    <i name="e_0_energy">    -39.73272226 </i>
   </energy>
  </scstep>
  <structure>
   <crystal>
    <varray name="basis" >
     <v>       3.94684634       0.00000000       0.00000000 </v>
     <v>       0.00000000       3.94684634       0.00000000 </v>
     <v>       0.00000000       0.00000000       3.94684634 </v>
    </varray>
    <i name="volume">     61.48237796 </i>
    <varray name="rec_basis" >
     <v>       0.25336684       0.00000000       0.00000000 </v>
     <v>       0.00000000       0.25336684       0.00000000 </v>
     <v>       0.00000000       0.00000000       0.25336684 </v>
    </varray>
   </crystal>
   <varray name="positions" >
    <v>       0.00000000       0.00000000       0.00000000 </v>
    <v>       0.50000000       0.50000000       0.50000000 </v>
    <v>       0.50000000       0.50000000       0.00000000 </v>
    <v>       0.50000000       0.00000000       0.50000000 </v>
    <v>       0.00000000       0.50000000       0.50000000 </v>
   </varray>
  </structure>
  <varray name="forces" >
   <v>       0.00000000       0.00000000       0.00000000 </v>
   <v>       0.00000000       0.00000000       0.00000000 </v>
   <v>       0.00000000       0.00000000       0.00000000 </v>
   <v>       0.00000000       0.00000000       0.00000000 </v>
   <v>       0.00000000       0.00000000       0.00000000 </v>
  </varray>
  <varray name="stress" >
   <v>       0.57510574       0.00000000       0.00000000 </v>
   <v>      -0.00000000       0.57510574       0.00000000 </v>
   <v>      -0.00000000      -0.00000000       0.57510574 </v>
  </varray>
  <energy>
   <i name="e_fr_energy">    -39.73272226 </i>
   <i name="e_wo_entrp">    -39.73272226 </i>
   <i name="e_0_energy">     -0.00000000 </i>
  </energy>
  <time name="totalsc">   14.15   14.79</time>
  <eigenvalues>
   <array>
    <dimension dim="1">band</dimension>
    <dimension dim="2">kpoint</dimension>
    <dimension dim="3">spin</dimension>
    <field>eigene</field>
    <field>occ</field>
    <set>
     <set comment="spin 1">
      <set comment="kpoint 1">
       <r>  -30.3977    1.0000 </r>
       <r>  -14.9163    1.0000 </r>
       <r>  -13.9395    1.0000 </r>
       <r>  -13.9395    1.0000 </r>
       <r>  -12.4506    1.0000 </r>
       <r>  -12.4506    1.0000 </r>
       <r>  -12.4506    1.0000 </r>
       <r>   -0.3976    1.0000 </r>
       <r>   -0.3976    1.0000 </r>
       <r>   -0.3976    1.0000 </r>
       <r>    1.3119    1.0000 </r>
       <r>    1.3119    1.0000 </r>
       <r>    1.3119    1.0000 </r>
       <r>    2.0815    1.0000 </r>
       <r>    2.0815    1.0000 </r>
       <r>    2.0815    1.0000 </r>
       <r>    4.0618    0.0000 </r>
       <r>    4.0618    0.0000 </r>
       <r>    4.0636    0.0000 </r>
       <r>    7.8330    0.0000 </r>
      </set>
      <set comment="kpoint 2">
       <r>  -30.3940    1.0000 </r>
       <r>  -14.9274    1.0000 </r>
       <r>  -13.9655    1.0000 </r>
       <r>  -13.9326    1.0000 </r>
       <r>  -12.4427    1.0000 </r>
       <r>  -12.4427    1.0000 </r>
       <r>  -12.3227    1.0000 </r>
       <r>   -0.6513    1.0000 </r>
       <r>   -0.4057    1.0000 </r>
       <r>   -0.4057    1.0000 </r>
       <r>    1.0527    1.0000 </r>
       <r>    1.0527    1.0000 </r>
       <r>    1.1456    1.0000 </r>
       <r>    1.4999    1.0000 </r>
       <r>    1.9600    1.0000 </r>
       <r>    1.9600    1.0000 </r>
       <r>    4.0882    0.0000 </r>
       <r>    4.4886    0.0000 </r>
       <r>    4.4886    0.0000 </r>
       <r>    8.1182    0.0000 </r>
      </set>
      <set comment="kpoint 3">
       <r>  -30.3856    1.0000 </r>
       <r>  -15.0045    1.0000 </r>
       <r>  -13.9172    1.0000 </r>
       <r>  -13.9143    1.0000 </r>
       <r>  -12.4246    1.0000 </r>
       <r>  -12.4246    1.0000 </r>
       <r>  -12.0838    1.0000 </r>
       <r>   -1.2464    1.0000 </r>
       <r>   -0.4118    1.0000 </r>
       <r>   -0.4118    1.0000 </r>
       <r>    0.5475    1.0000 </r>
       <r>    0.5475    1.0000 </r>
       <r>    0.5936    1.0000 </r>
       <r>    0.8115    1.0000 </r>
       <r>    1.8086    1.0000 </r>
       <r>    1.8086    1.0000 </r>
       <r>    4.1489    0.0000 </r>
       <r>    5.2556    0.0000 </r>
       <r>    5.2562    0.0000 </r>
       <r>    8.8775    0.0000 </r>
      </set>
      <set comment="kpoint 4">
       <r>  -30.3788    1.0000 </r>
       <r>  -15.0970    1.0000 </r>
       <r>  -13.9050    1.0000 </r>
       <r>  -13.8010    1.0000 </r>
       <r>  -12.4101    1.0000 </r>
       <r>  -12.4101    1.0000 </r>
       <r>  -11.9245    1.0000 </r>
       <r>   -1.7493    1.0000 </r>
       <r>   -0.3869    1.0000 </r>
       <r>   -0.3869    1.0000 </r>
       <r>    0.0793    1.0000 </r>
       <r>    0.1790    1.0000 </r>
       <r>    0.1790    1.0000 </r>
       <r>    0.5735    1.0000 </r>
       <r>    1.7228    1.0000 </r>
       <r>    1.7228    1.0000 </r>
       <r>    4.1991    0.0000 </r>
       <r>    5.7888    0.0000 </r>
       <r>    5.7888    0.0000 </r>
       <r>    9.4984    0.0000 </r>
      </set>
      <set comment="kpoint 5">
       <r>  -30.3904    1.0000 </r>
       <r>  -14.9142    1.0000 </r>
       <r>  -14.0002    1.0000 </r>
       <r>  -13.9294    1.0000 </r>
       <r>  -12.4345    1.0000 </r>
       <r>  -12.3697    1.0000 </r>
       <r>  -12.2827    1.0000 </r>
       <r>   -0.7992    1.0000 </r>
       <r>   -0.5230    1.0000 </r>
       <r>   -0.4122    1.0000 </r>
       <r>    0.5304    1.0000 </r>
       <r>    0.8592    1.0000 </r>
       <r>    1.3134    1.0000 </r>
       <r>    1.3304    1.0000 </r>
       <r>    1.6645    1.0000 </r>
       <r>    1.7832    1.0000 </r>
       <r>    4.4564    0.0000 </r>
       <r>    4.5537    0.0000 </r>
       <r>    4.7275    0.0000 </r>
       <r>    8.4053    0.0000 </r>
      </set>
      <set comment="kpoint 6">
       <r>  -30.3822    1.0000 </r>
       <r>  -14.9392    1.0000 </r>
       <r>  -13.9995    1.0000 </r>
       <r>  -13.8960    1.0000 </r>
       <r>  -12.4160    1.0000 </r>
       <r>  -12.3405    1.0000 </r>
       <r>  -12.0993    1.0000 </r>
       <r>   -1.2947    1.0000 </r>
       <r>   -0.6652    1.0000 </r>
       <r>   -0.4145    1.0000 </r>
       <r>   -0.1363    1.0000 </r>
       <r>    0.4302    1.0000 </r>
       <r>    0.7334    1.0000 </r>
       <r>    1.2869    1.0000 </r>
       <r>    1.4950    1.0000 </r>
       <r>    1.5663    1.0000 </r>
       <r>    4.5414    0.0000 </r>
       <r>    5.2648    0.0000 </r>
       <r>    5.3203    0.0000 </r>
       <r>    9.1118    0.0000 </r>
      </set>
      <set comment="kpoint 7">
       <r>  -30.3756    1.0000 </r>
       <r>  -15.0031    1.0000 </r>
       <r>  -13.9156    1.0000 </r>
       <r>  -13.8733    1.0000 </r>
       <r>  -12.4010    1.0000 </r>
       <r>  -12.3316    1.0000 </r>
       <r>  -11.9641    1.0000 </r>
       <r>   -1.7631    1.0000 </r>
       <r>   -0.8085    1.0000 </r>
       <r>   -0.5114    1.0000 </r>
       <r>   -0.3832    1.0000 </r>
       <r>    0.0866    1.0000 </r>
       <r>    0.4466    1.0000 </r>
       <r>    1.2288    1.0000 </r>
       <r>    1.3476    1.0000 </r>
       <r>    1.4565    1.0000 </r>
       <r>    4.5795    0.0000 </r>
       <r>    5.7894    0.0000 </r>
       <r>    5.8120    0.0000 </r>
       <r>    9.7192    0.0000 </r>
      </set>
      <set comment="kpoint 8">
       <r>  -30.3745    1.0000 </r>
       <r>  -14.8106    1.0000 </r>
       <r>  -14.1162    1.0000 </r>
       <r>  -13.8697    1.0000 </r>
       <r>  -12.3963    1.0000 </r>
       <r>  -12.2047    1.0000 </r>
       <r>  -12.1066    1.0000 </r>
       <r>   -1.5076    1.0000 </r>
       <r>   -1.0651    1.0000 </r>
       <r>   -0.9011    1.0000 </r>
       <r>   -0.4114    1.0000 </r>
       <r>    0.1491    1.0000 </r>
       <r>    0.7055    1.0000 </r>
       <r>    1.0345    1.0000 </r>
       <r>    1.2092    1.0000 </r>
       <r>    1.8146    1.0000 </r>
       <r>    5.2180    0.0000 </r>
       <r>    5.3337    0.0000 </r>
       <r>    5.6208    0.0000 </r>
       <r>    9.5057    0.0000 </r>
      </set>
      <set comment="kpoint 9">
       <r>  -30.3684    1.0000 </r>
       <r>  -14.7552    1.0000 </r>
       <r>  -14.0852    1.0000 </r>
       <r>  -13.9032    1.0000 </r>
       <r>  -12.3805    1.0000 </r>
       <r>  -12.1819    1.0000 </r>
       <r>  -12.0375    1.0000 </r>
       <r>   -1.8155    1.0000 </r>
       <r>   -1.5258    1.0000 </r>
       <r>   -1.1354    1.0000 </r>
       <r>   -0.3734    1.0000 </r>
       <r>   -0.1150    1.0000 </r>
       <r>    0.6655    1.0000 </r>
       <r>    0.9641    1.0000 </r>
       <r>    1.0175    1.0000 </r>
       <r>    1.9330    1.0000 </r>
       <r>    5.2887    0.0000 </r>
       <r>    5.7922    0.0000 </r>
       <r>    5.9737    0.0000 </r>
       <r>   10.0037    0.0000 </r>
      </set>
      <set comment="kpoint 10">
       <r>  -30.3626    1.0000 </r>
       <r>  -14.4700    1.0000 </r>
       <r>  -14.1950    1.0000 </r>
       <r>  -14.0325    1.0000 </r>
       <r>  -12.3638    1.0000 </r>
       <r>  -12.0826    1.0000 </r>
       <r>  -12.0701    1.0000 </r>
       <r>   -1.9896    1.0000 </r>
       <r>   -1.9078    1.0000 </r>
       <r>   -1.6003    1.0000 </r>
       <r>   -0.3544    1.0000 </r>
       <r>   -0.2813    1.0000 </r>
       <r>    0.7466    1.0000 </r>
       <r>    0.8308    1.0000 </r>
       <r>    0.9043    1.0000 </r>
       <r>    2.2454    1.0000 </r>
       <r>    5.7839    0.0000 </r>
       <r>    5.8040    0.0000 </r>
       <r>    6.2093    0.0000 </r>
       <r>    8.6129    0.0000 </r>
      </set>
      <set comment="kpoint 11">
       <r>  -30.3868    1.0000 </r>
       <r>  -14.8861    1.0000 </r>
       <r>  -13.9782    1.0000 </r>
       <r>  -13.9782    1.0000 </r>
       <r>  -12.3853    1.0000 </r>
       <r>  -12.3853    1.0000 </r>
       <r>  -12.2261    1.0000 </r>
       <r>   -0.9509    1.0000 </r>
       <r>   -0.5251    1.0000 </r>
       <r>   -0.5251    1.0000 </r>
       <r>    0.4329    1.0000 </r>
       <r>    0.4329    1.0000 </r>
       <r>    0.9527    1.0000 </r>
       <r>    1.5006    1.0000 </r>
       <r>    1.6139    1.0000 </r>
       <r>    1.6139    1.0000 </r>
       <r>    4.6916    0.0000 </r>
       <r>    4.7820    0.0000 </r>
       <r>    4.7820    0.0000 </r>
       <r>    8.6708    0.0000 </r>
      </set>
      <set comment="kpoint 12">
       <r>  -30.3789    1.0000 </r>
       <r>  -14.8723    1.0000 </r>
       <r>  -13.9995    1.0000 </r>
       <r>  -13.9265    1.0000 </r>
       <r>  -12.4227    1.0000 </r>
       <r>  -12.3054    1.0000 </r>
       <r>  -12.0987    1.0000 </r>
       <r>   -1.3533    1.0000 </r>
       <r>   -0.7707    1.0000 </r>
       <r>   -0.5271    1.0000 </r>
       <r>   -0.1531    1.0000 </r>
       <r>   -0.0838    1.0000 </r>
       <r>    0.7026    1.0000 </r>
       <r>    1.3667    1.0000 </r>
       <r>    1.4818    1.0000 </r>
       <r>    1.4955    1.0000 </r>
       <r>    4.7991    0.0000 </r>
       <r>    5.3394    0.0000 </r>
       <r>    5.3503    0.0000 </r>
       <r>    9.3331    0.0000 </r>
      </set>
      <set comment="kpoint 13">
       <r>  -30.3725    1.0000 </r>
       <r>  -14.9097    1.0000 </r>
       <r>  -13.9382    1.0000 </r>
       <r>  -13.8825    1.0000 </r>
       <r>  -12.4554    1.0000 </r>
       <r>  -12.2497    1.0000 </r>
       <r>  -12.0091    1.0000 </r>
       <r>   -1.7744    1.0000 </r>
       <r>   -0.9551    1.0000 </r>
       <r>   -0.5941    1.0000 </r>
       <r>   -0.5209    1.0000 </r>
       <r>   -0.3816    1.0000 </r>
       <r>    0.7847    1.0000 </r>
       <r>    1.1225    1.0000 </r>
       <r>    1.3522    1.0000 </r>
       <r>    1.4138    1.0000 </r>
       <r>    4.8437    0.0000 </r>
       <r>    5.8183    0.0000 </r>
       <r>    5.8371    0.0000 </r>
       <r>    9.9285    0.0000 </r>
      </set>
      <set comment="kpoint 14">
       <r>  -30.3714    1.0000 </r>
       <r>  -14.7358    1.0000 </r>
       <r>  -14.0685    1.0000 </r>
       <r>  -13.8911    1.0000 </r>
       <r>  -12.4271    1.0000 </r>
       <r>  -12.2650    1.0000 </r>
       <r>  -12.0827    1.0000 </r>
       <r>   -1.5451    1.0000 </r>
       <r>   -1.0600    1.0000 </r>
       <r>   -0.8458    1.0000 </r>
       <r>   -0.6278    1.0000 </r>
       <r>   -0.2202    1.0000 </r>
       <r>    0.2620    1.0000 </r>
       <r>    1.3152    1.0000 </r>
       <r>    1.3732    1.0000 </r>
       <r>    1.8264    1.0000 </r>
       <r>    5.3427    0.0000 </r>
       <r>    5.4355    0.0000 </r>
       <r>    5.6533    0.0000 </r>
       <r>    9.9852    0.0000 </r>
      </set>
      <set comment="kpoint 15">
       <r>  -30.3653    1.0000 </r>
       <r>  -14.6647    1.0000 </r>
       <r>  -14.0523    1.0000 </r>
       <r>  -13.8763    1.0000 </r>
       <r>  -12.4619    1.0000 </r>
       <r>  -12.1906    1.0000 </r>
       <r>  -12.0897    1.0000 </r>
       <r>   -1.8147    1.0000 </r>
       <r>   -1.4618    1.0000 </r>
       <r>   -1.1247    1.0000 </r>
       <r>   -0.6310    1.0000 </r>
       <r>   -0.4843    1.0000 </r>
       <r>    0.2792    1.0000 </r>
       <r>    1.2159    1.0000 </r>
       <r>    1.3111    1.0000 </r>
       <r>    1.9434    1.0000 </r>
       <r>    5.4238    0.0000 </r>
       <r>    5.8610    0.0000 </r>
       <r>    6.0046    0.0000 </r>
       <r>   10.2363    0.0000 </r>
      </set>
      <set comment="kpoint 16">
       <r>  -30.3596    1.0000 </r>
       <r>  -14.3831    1.0000 </r>
       <r>  -14.1317    1.0000 </r>
       <r>  -13.9746    1.0000 </r>
       <r>  -12.4358    1.0000 </r>
       <r>  -12.1736    1.0000 </r>
       <r>  -12.1367    1.0000 </r>
       <r>   -1.9411    1.0000 </r>
       <r>   -1.8101    1.0000 </r>
       <r>   -1.5967    1.0000 </r>
       <r>   -0.6361    1.0000 </r>
       <r>   -0.5737    1.0000 </r>
       <r>    0.1290    1.0000 </r>
       <r>    1.2532    1.0000 </r>
       <r>    1.2933    1.0000 </r>
       <r>    2.2592    1.0000 </r>
       <r>    5.8756    0.0000 </r>
       <r>    5.8948    0.0000 </r>
       <r>    6.2457    0.0000 </r>
       <r>    9.7111    0.0000 </r>
      </set>
      <set comment="kpoint 17">
       <r>  -30.3642    1.0000 </r>
       <r>  -14.5649    1.0000 </r>
       <r>  -13.9472    1.0000 </r>
       <r>  -13.9472    1.0000 </r>
       <r>  -12.4142    1.0000 </r>
       <r>  -12.4142    1.0000 </r>
       <r>  -12.0968    1.0000 </r>
       <r>   -1.6324    1.0000 </r>
       <r>   -1.0467    1.0000 </r>
       <r>   -1.0467    1.0000 </r>
       <r>   -0.7057    1.0000 </r>
       <r>   -0.6833    1.0000 </r>
       <r>   -0.6833    1.0000 </r>
       <r>    1.6177    1.0000 </r>
       <r>    1.6177    1.0000 </r>
       <r>    1.9520    1.0000 </r>
       <r>    5.6918    0.0000 </r>
       <r>    5.7460    0.0000 </r>
       <r>    5.7461    0.0000 </r>
       <r>   10.0068    0.0000 </r>
      </set>
      <set comment="kpoint 18">
       <r>  -30.3584    1.0000 </r>
       <r>  -14.4307    1.0000 </r>
       <r>  -13.9903    1.0000 </r>
       <r>  -13.8300    1.0000 </r>
       <r>  -12.5540    1.0000 </r>
       <r>  -12.3141    1.0000 </r>
       <r>  -12.1864    1.0000 </r>
       <r>   -1.8221    1.0000 </r>
       <r>   -1.4023    1.0000 </r>
       <r>   -1.1398    1.0000 </r>
       <r>   -1.0263    1.0000 </r>
       <r>   -0.9474    1.0000 </r>
       <r>   -0.5749    1.0000 </r>
       <r>    1.6516    1.0000 </r>
       <r>    1.7749    1.0000 </r>
       <r>    2.0507    1.0000 </r>
       <r>    5.7858    0.0000 </r>
       <r>    6.0612    0.0000 </r>
       <r>    6.0889    0.0000 </r>
       <r>   10.0657    0.0000 </r>
      </set>
      <set comment="kpoint 19">
       <r>  -30.3529    1.0000 </r>
       <r>  -14.1646    1.0000 </r>
       <r>  -13.9642    1.0000 </r>
       <r>  -13.8463    1.0000 </r>
       <r>  -12.5732    1.0000 </r>
       <r>  -12.4023    1.0000 </r>
       <r>  -12.3175    1.0000 </r>
       <r>   -1.9284    1.0000 </r>
       <r>   -1.5881    1.0000 </r>
       <r>   -1.5093    1.0000 </r>
       <r>   -1.0681    1.0000 </r>
       <r>   -0.9672    1.0000 </r>
       <r>   -0.8870    1.0000 </r>
       <r>    1.8654    1.0000 </r>
       <r>    1.8990    1.0000 </r>
       <r>    2.2942    1.0000 </r>
       <r>    6.1255    0.0000 </r>
       <r>    6.1378    0.0000 </r>
       <r>    6.3233    0.0000 </r>
       <r>    9.5352    0.0000 </r>
      </set>
      <set comment="kpoint 20">
       <r>  -30.3474    1.0000 </r>
       <r>  -13.9236    1.0000 </r>
       <r>  -13.7860    1.0000 </r>
       <r>  -13.7860    1.0000 </r>
       <r>  -12.6293    1.0000 </r>
       <r>  -12.6293    1.0000 </r>
       <r>  -12.5237    1.0000 </r>
       <r>   -2.0294    1.0000 </r>
       <r>   -1.5803    1.0000 </r>
       <r>   -1.5803    1.0000 </r>
       <r>   -1.2889    1.0000 </r>
       <r>   -1.1878    1.0000 </r>
       <r>   -1.1878    1.0000 </r>
       <r>    2.2622    1.0000 </r>
       <r>    2.2622    1.0000 </r>
       <r>    2.3464    1.0000 </r>
       <r>    6.3791    0.0000 </r>
       <r>    6.3932    0.0000 </r>
       <r>    6.3933    0.0000 </r>
       <r>    9.4197    0.0000 </r>
      </set>
     </set>
    </set>
   </array>
  </eigenvalues>
  <separator name="orbital magnetization" >
   <v name="MAGDIPOLOUT">      0.00000000      0.00000000      0.00000000</v>
  </separator>
 </calculation>
 <structure name="finalpos" >
  <crystal>
   <varray name="basis" >
    <v>       3.94684634       0.00000000       0.00000000 </v>
    <v>       0.00000000       3.94684634       0.00000000 </v>
    <v>       0.00000000       0.00000000       3.94684634 </v>
   </varray>
   <i name="volume">     61.48237796 </i>
   <varray name="rec_basis" >
    <v>       0.25336684       0.00000000       0.00000000 </v>
    <v>       0.00000000       0.25336684       0.00000000 </v>
    <v>       0.00000000       0.00000000       0.25336684 </v>
   </varray>
  </crystal>
  <varray name="positions" >
   <v>       0.00000000       0.00000000       0.00000000 </v>
   <v>       0.50000000       0.50000000       0.50000000 </v>
   <v>       0.50000000       0.50000000       0.00000000 </v>
   <v>       0.50000000       0.00000000       0.50000000 </v>
   <v>       0.00000000       0.50000000       0.50000000 </v>
  </varray>
 </structure>
</modeling>
