unknown system                          
   4.10000000000000     
     1.000000    0.000000    0.000000
     0.000000    1.000000    0.000000
     0.000000    0.000000    1.000000
   Pt
     4
Direct
  0.000000  0.000000  0.000000
  0.000000  0.500000  0.500000
  0.500000  0.000000  0.500000
  0.500000  0.500000  0.000000
 
   48   48   48
  264.77      259.54      245.23      225.35      203.75      182.94      163.33      143.78      123.00      100.85    
  78.686      58.707      42.746      31.391      23.841      18.611      14.962      12.445      10.686      9.4366    
  8.5493      7.9382      7.5455      7.3286      7.2596      7.3286      7.5455      7.9382      8.5493      9.4366    
  10.686      12.445      14.962      18.611      23.841      31.391      42.746      58.707      78.686      100.85    
  123.00      143.78      163.33      182.94      203.75      225.35      245.23      259.54      259.54      254.49    
  240.68      221.46      200.52      180.24      160.99      141.68      121.12      99.232      77.402      57.786    
  42.159      31.057      23.661      18.518      14.927      12.447      10.712      9.4782      8.6018      7.9982    
  7.6107      7.3967      7.3286      7.3967      7.6107      7.9982      8.6018      9.4782      10.712      12.447    
  14.927      18.518      23.661      31.057      42.159      57.786      77.402      99.232      121.12      141.68    
  160.99      180.24      200.52      221.46      240.68      254.49      245.23      240.68      228.21      210.77    
  191.57      172.67      154.36      135.69      115.72      94.592      73.721      55.155      40.488      30.110    
  23.148      18.255      14.834      12.464      10.799      9.6117      8.7680      8.1876      7.8157      7.6107    
  7.5455      7.6107      7.8157      8.1876      8.7680      9.6117      10.799      12.464      14.834      18.255    
  23.148      30.110      40.488      55.155      73.721      94.592      115.72      135.69      154.36      172.67    
  191.57      210.77      228.21      240.68      225.35      221.46      210.77      195.65      178.70      161.54    
  144.39      126.54      107.44      87.479      68.112      51.179      37.984      28.696      22.375      17.874    
  14.720      12.523      10.972      9.8621      9.0735      8.5327      8.1876      7.9982      7.9382      7.9982    
  8.1876      8.5327      9.0735      9.8621      10.972      12.523      14.720      17.874      22.375      28.696    
  37.984      51.179      68.112      87.479      107.44      126.54      144.39      161.54      178.70      195.65    
  210.77      221.46      203.75      200.52      191.57      178.70      163.86      148.28      132.16      115.15    
  97.097      78.657      61.234      46.368      34.991      27.014      21.452      17.450      14.639      12.669    
  11.269      10.267      9.5567      9.0735      8.7680      8.6018      8.5493      8.6018      8.7680      9.0735    
  9.5567      10.267      11.269      12.669      14.639      17.450      21.452      27.014      34.991      46.368    
  61.234      78.657      97.097      115.15      132.16      148.28      163.86      178.70      191.57      200.52    
  182.94      180.24      172.67      161.54      148.28      133.84      118.53      102.34      85.543      68.947    
  53.803      41.271      31.872      25.262      20.503      17.071      14.654      12.951      11.738      10.872    
  10.267      9.8621      9.6117      9.4782      9.4366      9.4782      9.6117      9.8621      10.267      10.872    
  11.738      12.951      14.654      17.071      20.503      25.262      31.872      41.271      53.803      68.947    
  85.543      102.34      118.53      133.84      148.28      161.54      172.67      180.24      163.33      160.99    
  154.36      144.39      132.16      118.53      103.95      88.775      73.546      59.118      46.484      36.376    
  28.927      23.590      19.650      16.823      14.829      13.424      12.432      11.738      11.269      10.972    
  10.799      10.712      10.686      10.712      10.799      10.972      11.269      11.738      12.432      13.424    
  14.829      16.823      19.650      23.590      28.927      36.376      46.484      59.118      73.546      88.775    
  103.95      118.53      132.16      144.39      154.36      160.99      143.78      141.68      135.69      126.54    
  115.15      102.34      88.775      75.039      61.808      49.839      39.804      32.034      26.341      22.116    
  18.999      16.780      15.228      14.154      13.424      12.951      12.669      12.523      12.464      12.447    
  12.445      12.447      12.464      12.523      12.669      12.951      13.424      14.154      15.228      16.780    
  18.999      22.116      26.341      32.034      39.804      49.839      61.808      75.039      88.775      102.34    
  115.15      126.54      135.69      141.68      123.00      121.12      115.72      107.44      97.097      85.543    
  73.546      61.808      50.983      41.635      34.113      28.418      24.162      20.948      18.625      17.009    
  15.922      15.228      14.829      14.654      14.639      14.720      14.834      14.927      14.962      14.927    
  14.834      14.720      14.639      14.654      14.829      15.228      15.922      17.009      18.625      20.948    
  24.162      28.418      34.113      41.635      50.983      61.808      73.546      85.543      97.097      107.44    
  115.72      121.12      100.85      99.232      94.592      87.479      78.657      68.947      59.118      49.839    
  41.635      34.843      29.541      25.514      22.423      20.157      18.590      17.582      17.009      16.780    
  16.823      17.071      17.450      17.874      18.255      18.518      18.611      18.518      18.255      17.874    
  17.450      17.071      16.823      16.780      17.009      17.582      18.590      20.157      22.423      25.514    
  29.541      34.843      41.635      49.839      59.118      68.947      78.657      87.479      94.592      99.232    
  78.686      77.402      73.721      68.112      61.234      53.803      46.484      39.804      34.113      29.541    
  25.986      23.218      21.173      19.783      18.952      18.590      18.625      18.999      19.650      20.503    
  21.452      22.375      23.148      23.661      23.841      23.661      23.148      22.375      21.452      20.503    
  19.650      18.999      18.625      18.590      18.952      19.783      21.173      23.218      25.986      29.541    
  34.113      39.804      46.484      53.803      61.234      68.112      73.721      77.402      58.707      57.786    
  55.155      51.179      46.368      41.271      36.376      32.034      28.418      25.514      23.218      21.530    
  20.426      19.860      19.783      20.157      20.948      22.116      23.590      25.262      27.014      28.696    
  30.110      31.057      31.391      31.057      30.110      28.696      27.014      25.262      23.590      22.116    
  20.948      20.157      19.783      19.860      20.426      21.530      23.218      25.514      28.418      32.034    
  36.376      41.271      46.368      51.179      55.155      57.786      42.746      42.159      40.488      37.984    
  34.991      31.872      28.927      26.341      24.162      22.423      21.173      20.426      20.178      20.426    
  21.173      22.423      24.162      26.341      28.927      31.872      34.991      37.984      40.488      42.159    
  42.746      42.159      40.488      37.984      34.991      31.872      28.927      26.341      24.162      22.423    
  21.173      20.426      20.178      20.426      21.173      22.423      24.162      26.341      28.927      31.872    
  34.991      37.984      40.488      42.159      31.391      31.057      30.110      28.696      27.014      25.262    
  23.590      22.116      20.948      20.157      19.783      19.860      20.426      21.530      23.218      25.514    
  28.418      32.034      36.376      41.271      46.368      51.179      55.155      57.786      58.707      57.786    
  55.155      51.179      46.368      41.271      36.376      32.034      28.418      25.514      23.218      21.530    
  20.426      19.860      19.783      20.157      20.948      22.116      23.590      25.262      27.014      28.696    
  30.110      31.057      23.841      23.661      23.148      22.375      21.452      20.503      19.650      18.999    
  18.625      18.590      18.952      19.783      21.173      23.218      25.986      29.541      34.113      39.804    
  46.484      53.803      61.234      68.112      73.721      77.402      78.686      77.402      73.721      68.112    
  61.234      53.803      46.484      39.804      34.113      29.541      25.986      23.218      21.173      19.783    
  18.952      18.590      18.625      18.999      19.650      20.503      21.452      22.375      23.148      23.661    
  18.611      18.518      18.255      17.874      17.450      17.071      16.823      16.780      17.009      17.582    
  18.590      20.157      22.423      25.514      29.541      34.843      41.635      49.839      59.118      68.947    
  78.657      87.479      94.592      99.232      100.85      99.232      94.592      87.479      78.657      68.947    
  59.118      49.839      41.635      34.843      29.541      25.514      22.423      20.157      18.590      17.582    
  17.009      16.780      16.823      17.071      17.450      17.874      18.255      18.518      14.962      14.927    
  14.834      14.720      14.639      14.654      14.829      15.228      15.922      17.009      18.625      20.948    
  24.162      28.418      34.113      41.635      50.983      61.808      73.546      85.543      97.097      107.44    
  115.72      121.12      123.00      121.12      115.72      107.44      97.097      85.543      73.546      61.808    
  50.983      41.635      34.113      28.418      24.162      20.948      18.625      17.009      15.922      15.228    
  14.829      14.654      14.639      14.720      14.834      14.927      12.445      12.447      12.464      12.523    
  12.669      12.951      13.424      14.154      15.228      16.780      18.999      22.116      26.341      32.034    
  39.804      49.839      61.808      75.039      88.775      102.34      115.15      126.54      135.69      141.68    
  143.78      141.68      135.69      126.54      115.15      102.34      88.775      75.039      61.808      49.839    
  39.804      32.034      26.341      22.116      18.999      16.780      15.228      14.154      13.424      12.951    
  12.669      12.523      12.464      12.447      10.686      10.712      10.799      10.972      11.269      11.738    
  12.432      13.424      14.829      16.823      19.650      23.590      28.927      36.376      46.484      59.118    
  73.546      88.775      103.95      118.53      132.16      144.39      154.36      160.99      163.33      160.99    
  154.36      144.39      132.16      118.53      103.95      88.775      73.546      59.118      46.484      36.376    
  28.927      23.590      19.650      16.823      14.829      13.424      12.432      11.738      11.269      10.972    
  10.799      10.712      9.4366      9.4782      9.6117      9.8621      10.267      10.872      11.738      12.951    
  14.654      17.071      20.503      25.262      31.872      41.271      53.803      68.947      85.543      102.34    
  118.53      133.84      148.28      161.54      172.67      180.24      182.94      180.24      172.67      161.54    
  148.28      133.84      118.53      102.34      85.543      68.947      53.803      41.271      31.872      25.262    
  20.503      17.071      14.654      12.951      11.738      10.872      10.267      9.8621      9.6117      9.4782    
  8.5493      8.6018      8.7680      9.0735      9.5567      10.267      11.269      12.669      14.639      17.450    
  21.452      27.014      34.991      46.368      61.234      78.657      97.097      115.15      132.16      148.28    
  163.86      178.70      191.57      200.52      203.75      200.52      191.57      178.70      163.86      148.28    
  132.16      115.15      97.097      78.657      61.234      46.368      34.991      27.014      21.452      17.450    
  14.639      12.669      11.269      10.267      9.5567      9.0735      8.7680      8.6018      7.9382      7.9982    
  8.1876      8.5327      9.0735      9.8621      10.972      12.523      14.720      17.874      22.375      28.696    
  37.984      51.179      68.112      87.479      107.44      126.54      144.39      161.54      178.70      195.65    
  210.77      221.46      225.35      221.46      210.77      195.65      178.70      161.54      144.39      126.54    
  107.44      87.479      68.112      51.179      37.984      28.696      22.375      17.874      14.720      12.523    
  10.972      9.8621      9.0735      8.5327      8.1876      7.9982      7.5455      7.6107      7.8157      8.1876    
  8.7680      9.6117      10.799      12.464      14.834      18.255      23.148      30.110      40.488      55.155    
  73.721      94.592      115.72      135.69      154.36      172.67      191.57      210.77      228.21      240.68    
  245.23      240.68      228.21      210.77      191.57      172.67      154.36      135.69      115.72      94.592    
  73.721      55.155      40.488      30.110      23.148      18.255      14.834      12.464      10.799      9.6117    
  8.7680      8.1876      7.8157      7.6107      7.3286      7.3967      7.6107      7.9982      8.6018      9.4782    
  10.712      12.447      14.927      18.518      23.661      31.057      42.159      57.786      77.402      99.232    
  121.12      141.68      160.99      180.24      200.52      221.46      240.68      254.49      259.54      254.49    
  240.68      221.46      200.52      180.24      160.99      141.68      121.12      99.232      77.402      57.786    
  42.159      31.057      23.661      18.518      14.927      12.447      10.712      9.4782      8.6018      7.9982    
  7.6107      7.3967      7.2596      7.3286      7.5455      7.9382      8.5493      9.4366      10.686      12.445    
  14.962      18.611      23.841      31.391      42.746      58.707      78.686      100.85      123.00      143.78    
  163.33      182.94      203.75      225.35      245.23      259.54      264.77      259.54      245.23      225.35    
  203.75      182.94      163.33      143.78      123.00      100.85      78.686      58.707      42.746      31.391    
  23.841      18.611      14.962      12.445      10.686      9.4366      8.5493      7.9382      7.5455      7.3286    
  7.3286      7.3967      7.6107      7.9982      8.6018      9.4782      10.712      12.447      14.927      18.518    
  23.661      31.057      42.159      57.786      77.402      99.232      121.12      141.68      160.99      180.24    
  200.52      221.46      240.68      254.49      259.54      254.49      240.68      221.46      200.52      180.24    
  160.99      141.68      121.12      99.232      77.402      57.786      42.159      31.057      23.661      18.518    
  14.927      12.447      10.712      9.4782      8.6018      7.9982      7.6107      7.3967      7.5455      7.6107    
  7.8157      8.1876      8.7680      9.6117      10.799      12.464      14.834      18.255      23.148      30.110    
  40.488      55.155      73.721      94.592      115.72      135.69      154.36      172.67      191.57      210.77    
  228.21      240.68      245.23      240.68      228.21      210.77      191.57      172.67      154.36      135.69    
  115.72      94.592      73.721      55.155      40.488      30.110      23.148      18.255      14.834      12.464    
  10.799      9.6117      8.7680      8.1876      7.8157      7.6107      7.9382      7.9982      8.1876      8.5327    
  9.0735      9.8621      10.972      12.523      14.720      17.874      22.375      28.696      37.984      51.179    
  68.112      87.479      107.44      126.54      144.39      161.54      178.70      195.65      210.77      221.46    
  225.35      221.46      210.77      195.65      178.70      161.54      144.39      126.54      107.44      87.479    
  68.112      51.179      37.984      28.696      22.375      17.874      14.720      12.523      10.972      9.8621    
  9.0735      8.5327      8.1876      7.9982      8.5493      8.6018      8.7680      9.0735      9.5567      10.267    
  11.269      12.669      14.639      17.450      21.452      27.014      34.991      46.368      61.234      78.657    
  97.097      115.15      132.16      148.28      163.86      178.70      191.57      200.52      203.75      200.52    
  191.57      178.70      163.86      148.28      132.16      115.15      97.097      78.657      61.234      46.368    
  34.991      27.014      21.452      17.450      14.639      12.669      11.269      10.267      9.5567      9.0735    
  8.7680      8.6018      9.4366      9.4782      9.6117      9.8621      10.267      10.872      11.738      12.951    
  14.654      17.071      20.503      25.262      31.872      41.271      53.803      68.947      85.543      102.34    
  118.53      133.84      148.28      161.54      172.67      180.24      182.94      180.24      172.67      161.54    
  148.28      133.84      118.53      102.34      85.543      68.947      53.803      41.271      31.872      25.262    
  20.503      17.071      14.654      12.951      11.738      10.872      10.267      9.8621      9.6117      9.4782    
  10.686      10.712      10.799      10.972      11.269      11.738      12.432      13.424      14.829      16.823    
  19.650      23.590      28.927      36.376      46.484      59.118      73.546      88.775      103.95      118.53    
  132.16      144.39      154.36      160.99      163.33      160.99      154.36      144.39      132.16      118.53    
  103.95      88.775      73.546      59.118      46.484      36.376      28.927      23.590      19.650      16.823    
  14.829      13.424      12.432      11.738      11.269      10.972      10.799      10.712      12.445      12.447    
  12.464      12.523      12.669      12.951      13.424      14.154      15.228      16.780      18.999      22.116    
  26.341      32.034      39.804      49.839      61.808      75.039      88.775      102.34      115.15      126.54    
  135.69      141.68      143.78      141.68      135.69      126.54      115.15      102.34      88.775      75.039    
  61.808      49.839      39.804      32.034      26.341      22.116      18.999      16.780      15.228      14.154    
  13.424      12.951      12.669      12.523      12.464      12.447      14.962      14.927      14.834      14.720    
  14.639      14.654      14.829      15.228      15.922      17.009      18.625      20.948      24.162      28.418    
  34.113      41.635      50.983      61.808      73.546      85.543      97.097      107.44      115.72      121.12    
  123.00      121.12      115.72      107.44      97.097      85.543      73.546      61.808      50.983      41.635    
  34.113      28.418      24.162      20.948      18.625      17.009      15.922      15.228      14.829      14.654    
  14.639      14.720      14.834      14.927      18.611      18.518      18.255      17.874      17.450      17.071    
  16.823      16.780      17.009      17.582      18.590      20.157      22.423      25.514      29.541      34.843    
  41.635      49.839      59.118      68.947      78.657      87.479      94.592      99.232      100.85      99.232    
  94.592      87.479      78.657      68.947      59.118      49.839      41.635      34.843      29.541      25.514    
  22.423      20.157      18.590      17.582      17.009      16.780      16.823      17.071      17.450      17.874    
  18.255      18.518      23.841      23.661      23.148      22.375      21.452      20.503      19.650      18.999    
  18.625      18.590      18.952      19.783      21.173      23.218      25.986      29.541      34.113      39.804    
  46.484      53.803      61.234      68.112      73.721      77.402      78.686      77.402      73.721      68.112    
  61.234      53.803      46.484      39.804      34.113      29.541      25.986      23.218      21.173      19.783    
  18.952      18.590      18.625      18.999      19.650      20.503      21.452      22.375      23.148      23.661    
  31.391      31.057      30.110      28.696      27.014      25.262      23.590      22.116      20.948      20.157    
  19.783      19.860      20.426      21.530      23.218      25.514      28.418      32.034      36.376      41.271    
  46.368      51.179      55.155      57.786      58.707      57.786      55.155      51.179      46.368      41.271    
  36.376      32.034      28.418      25.514      23.218      21.530      20.426      19.860      19.783      20.157    
  20.948      22.116      23.590      25.262      27.014      28.696      30.110      31.057      42.746      42.159    
  40.488      37.984      34.991      31.872      28.927      26.341      24.162      22.423      21.173      20.426    
  20.178      20.426      21.173      22.423      24.162      26.341      28.927      31.872      34.991      37.984    
  40.488      42.159      42.746      42.159      40.488      37.984      34.991      31.872      28.927      26.341    
  24.162      22.423      21.173      20.426      20.178      20.426      21.173      22.423      24.162      26.341    
  28.927      31.872      34.991      37.984      40.488      42.159      58.707      57.786      55.155      51.179    
  46.368      41.271      36.376      32.034      28.418      25.514      23.218      21.530      20.426      19.860    
  19.783      20.157      20.948      22.116      23.590      25.262      27.014      28.696      30.110      31.057    
  31.391      31.057      30.110      28.696      27.014      25.262      23.590      22.116      20.948      20.157    
  19.783      19.860      20.426      21.530      23.218      25.514      28.418      32.034      36.376      41.271    
  46.368      51.179      55.155      57.786      78.686      77.402      73.721      68.112      61.234      53.803    
  46.484      39.804      34.113      29.541      25.986      23.218      21.173      19.783      18.952      18.590    
  18.625      18.999      19.650      20.503      21.452      22.375      23.148      23.661      23.841      23.661    
  23.148      22.375      21.452      20.503      19.650      18.999      18.625      18.590      18.952      19.783    
  21.173      23.218      25.986      29.541      34.113      39.804      46.484      53.803      61.234      68.112    
  73.721      77.402      100.85      99.232      94.592      87.479      78.657      68.947      59.118      49.839    
  41.635      34.843      29.541      25.514      22.423      20.157      18.590      17.582      17.009      16.780    
  16.823      17.071      17.450      17.874      18.255      18.518      18.611      18.518      18.255      17.874    
  17.450      17.071      16.823      16.780      17.009      17.582      18.590      20.157      22.423      25.514    
  29.541      34.843      41.635      49.839      59.118      68.947      78.657      87.479      94.592      99.232    
  123.00      121.12      115.72      107.44      97.097      85.543      73.546      61.808      50.983      41.635    
  34.113      28.418      24.162      20.948      18.625      17.009      15.922      15.228      14.829      14.654    
  14.639      14.720      14.834      14.927      14.962      14.927      14.834      14.720      14.639      14.654    
  14.829      15.228      15.922      17.009      18.625      20.948      24.162      28.418      34.113      41.635    
  50.983      61.808      73.546      85.543      97.097      107.44      115.72      121.12      143.78      141.68    
  135.69      126.54      115.15      102.34      88.775      75.039      61.808      49.839      39.804      32.034    
  26.341      22.116      18.999      16.780      15.228      14.154      13.424      12.951      12.669      12.523    
  12.464      12.447      12.445      12.447      12.464      12.523      12.669      12.951      13.424      14.154    
  15.228      16.780      18.999      22.116      26.341      32.034      39.804      49.839      61.808      75.039    
  88.775      102.34      115.15      126.54      135.69      141.68      163.33      160.99      154.36      144.39    
  132.16      118.53      103.95      88.775      73.546      59.118      46.484      36.376      28.927      23.590    
  19.650      16.823      14.829      13.424      12.432      11.738      11.269      10.972      10.799      10.712    
  10.686      10.712      10.799      10.972      11.269      11.738      12.432      13.424      14.829      16.823    
  19.650      23.590      28.927      36.376      46.484      59.118      73.546      88.775      103.95      118.53    
  132.16      144.39      154.36      160.99      182.94      180.24      172.67      161.54      148.28      133.84    
  118.53      102.34      85.543      68.947      53.803      41.271      31.872      25.262      20.503      17.071    
  14.654      12.951      11.738      10.872      10.267      9.8621      9.6117      9.4782      9.4366      9.4782    
  9.6117      9.8621      10.267      10.872      11.738      12.951      14.654      17.071      20.503      25.262    
  31.872      41.271      53.803      68.947      85.543      102.34      118.53      133.84      148.28      161.54    
  172.67      180.24      203.75      200.52      191.57      178.70      163.86      148.28      132.16      115.15    
  97.097      78.657      61.234      46.368      34.991      27.014      21.452      17.450      14.639      12.669    
  11.269      10.267      9.5567      9.0735      8.7680      8.6018      8.5493      8.6018      8.7680      9.0735    
  9.5567      10.267      11.269      12.669      14.639      17.450      21.452      27.014      34.991      46.368    
  61.234      78.657      97.097      115.15      132.16      148.28      163.86      178.70      191.57      200.52    
  225.35      221.46      210.77      195.65      178.70      161.54      144.39      126.54      107.44      87.479    
  68.112      51.179      37.984      28.696      22.375      17.874      14.720      12.523      10.972      9.8621    
  9.0735      8.5327      8.1876      7.9982      7.9382      7.9982      8.1876      8.5327      9.0735      9.8621    
  10.972      12.523      14.720      17.874      22.375      28.696      37.984      51.179      68.112      87.479    
  107.44      126.54      144.39      161.54      178.70      195.65      210.77      221.46      245.23      240.68    
  228.21      210.77      191.57      172.67      154.36      135.69      115.72      94.592      73.721      55.155    
  40.488      30.110      23.148      18.255      14.834      12.464      10.799      9.6117      8.7680      8.1876    
  7.8157      7.6107      7.5455      7.6107      7.8157      8.1876      8.7680      9.6117      10.799      12.464    
  14.834      18.255      23.148      30.110      40.488      55.155      73.721      94.592      115.72      135.69    
  154.36      172.67      191.57      210.77      228.21      240.68      259.54      254.49      240.68      221.46    
  200.52      180.24      160.99      141.68      121.12      99.232      77.402      57.786      42.159      31.057    
  23.661      18.518      14.927      12.447      10.712      9.4782      8.6018      7.9982      7.6107      7.3967    
  7.3286      7.3967      7.6107      7.9982      8.6018      9.4782      10.712      12.447      14.927      18.518    
  23.661      31.057      42.159      57.786      77.402      99.232      121.12      141.68      160.99      180.24    
  200.52      221.46      240.68      254.49      259.54      254.49      240.68      221.46      200.52      180.24    
  160.99      141.68      121.12      99.232      77.402      57.786      42.159      31.057      23.661      18.518    
  14.927      12.447      10.712      9.4782      8.6018      7.9982      7.6107      7.3967      7.3286      7.3967    
  7.6107      7.9982      8.6018      9.4782      10.712      12.447      14.927      18.518      23.661      31.057    
  42.159      57.786      77.402      99.232      121.12      141.68      160.99      180.24      200.52      221.46    
  240.68      254.49      254.49      249.62      236.29      217.70      197.38      177.60      158.70      139.62    
  119.27      97.645      76.142      56.884      41.585      30.731      23.484      18.425      14.892      12.449    
  10.737      9.5190      8.6533      8.0574      7.6749      7.4639      7.3967      7.4639      7.6749      8.0574    
  8.6533      9.5190      10.737      12.449      14.892      18.425      23.484      30.731      41.585      56.884    
  76.142      97.645      119.27      139.62      158.70      177.60      197.38      217.70      236.29      249.62    
  240.68      236.29      224.23      207.33      188.67      170.20      152.18      133.72      113.96      93.083    
  72.531      54.308      39.951      29.804      22.978      18.165      14.800      12.464      10.822      9.6499    
  8.8167      8.2439      7.8770      7.6749      7.6107      7.6749      7.8770      8.2439      8.8167      9.6499    
  10.822      12.464      14.800      18.165      22.978      29.804      39.951      54.308      72.531      93.083    
  113.96      133.72      152.18      170.20      188.67      207.33      224.23      236.29      221.46      217.70    