unknown system                          
   4.10000000000000     
     1.000000    0.000000    0.000000
     0.000000    1.000000    0.000000
     0.000000    0.000000    1.000000
   Pt
     4
Direct
  0.000000  0.000000  0.000000
  0.000000  0.500000  0.500000
  0.500000  0.000000  0.500000
  0.500000  0.500000  0.000000
 
   48   48   48
 0.26476933077E+03 0.25953592020E+03 0.24523448538E+03 0.22535176364E+03 0.20374883349E+03
 0.18293918155E+03 0.16332984169E+03 0.14377892914E+03 0.12299952454E+03 0.10084707437E+03
 0.78686328133E+02 0.58707250249E+02 0.42745793303E+02 0.31390751977E+02 0.23840697403E+02
 0.18611248442E+02 0.14962455525E+02 0.12445060225E+02 0.10686174991E+02 0.94366084245E+01
 0.85493134000E+01 0.79381627844E+01 0.75455157005E+01 0.73286216735E+01 0.72595756312E+01
 0.73286216735E+01 0.75455157005E+01 0.79381627844E+01 0.85493134000E+01 0.94366084245E+01
 0.10686174991E+02 0.12445060225E+02 0.14962455525E+02 0.18611248442E+02 0.23840697403E+02
 0.31390751977E+02 0.42745793303E+02 0.58707250249E+02 0.78686328133E+02 0.10084707437E+03
 0.12299952454E+03 0.14377892914E+03 0.16332984169E+03 0.18293918155E+03 0.20374883349E+03
 0.22535176364E+03 0.24523448538E+03 0.25953592020E+03 0.25953592020E+03 0.25448729497E+03
 0.24068306385E+03 0.22146395552E+03 0.20051993981E+03 0.18023897298E+03 0.16099146202E+03
 0.14168445581E+03 0.12112142544E+03 0.99232301254E+02 0.77402235965E+02 0.57786178752E+02
 0.42158675054E+02 0.31057150376E+02 0.23660909950E+02 0.18517666590E+02 0.14927272827E+02
 0.12447252326E+02 0.10712122913E+02 0.94782192582E+01 0.86017606158E+01 0.79982250821E+01
 0.76106787995E+01 0.73967143389E+01 0.73286216735E+01 0.73967143389E+01 0.76106787995E+01
 0.79982250821E+01 0.86017606158E+01 0.94782192582E+01 0.10712122913E+02 0.12447252326E+02
 0.14927272827E+02 0.18517666590E+02 0.23660909950E+02 0.31057150376E+02 0.42158675054E+02
 0.57786178752E+02 0.77402235965E+02 0.99232301254E+02 0.12112142544E+03 0.14168445581E+03
 0.16099146202E+03 0.18023897298E+03 0.20051993981E+03 0.22146395552E+03 0.24068306385E+03
 0.25448729497E+03 0.24523448538E+03 0.24068306385E+03 0.22821337255E+03 0.21076616969E+03
 0.19156662243E+03 0.17266896386E+03 0.15435831806E+03 0.13569050772E+03 0.11572453739E+03
 0.94591657228E+02 0.73720836392E+02 0.55155274133E+02 0.40488239170E+02 0.30110130750E+02
 0.23148079994E+02 0.18254880797E+02 0.14834495484E+02 0.12463839276E+02 0.10798860379E+02
 0.96117397236E+01 0.87679902638E+01 0.81876147932E+01 0.78156587668E+01 0.76106787995E+01
 0.75455157005E+01 0.76106787995E+01 0.78156587668E+01 0.81876147932E+01 0.87679902638E+01
 0.96117397236E+01 0.10798860379E+02 0.12463839276E+02 0.14834495484E+02 0.18254880797E+02
 0.23148079994E+02 0.30110130750E+02 0.40488239170E+02 0.55155274133E+02 0.73720836392E+02
 0.94591657228E+02 0.11572453739E+03 0.13569050772E+03 0.15435831806E+03 0.17266896386E+03
 0.19156662243E+03 0.21076616969E+03 0.22821337255E+03 0.24068306385E+03 0.22535176364E+03
 0.22146395552E+03 0.21076616969E+03 0.19564560330E+03 0.17869574253E+03 0.16153890620E+03
 0.14438621123E+03 0.12654169439E+03 0.10743940350E+03 0.87478795582E+02 0.68111734088E+02
 0.51178841562E+02 0.37983894709E+02 0.28696067923E+02 0.22375485139E+02 0.17873901734E+02
 0.14720495323E+02 0.12523426122E+02 0.10971854386E+02 0.98620629718E+01 0.90734621034E+01
 0.85326799663E+01 0.81876147932E+01 0.79982250821E+01 0.79381627844E+01 0.79982250821E+01
 0.81876147932E+01 0.85326799663E+01 0.90734621034E+01 0.98620629718E+01 0.10971854386E+02
 0.12523426122E+02 0.14720495323E+02 0.17873901734E+02 0.22375485139E+02 0.28696067923E+02
 0.37983894709E+02 0.51178841562E+02 0.68111734088E+02 0.87478795582E+02 0.10743940350E+03
 0.12654169439E+03 0.14438621123E+03 0.16153890620E+03 0.17869574253E+03 0.19564560330E+03
 0.21076616969E+03 0.22146395552E+03 0.20374883349E+03 0.20051993981E+03 0.19156662243E+03
 0.17869574253E+03 0.16385915552E+03 0.14827898414E+03 0.13216477355E+03 0.11515133918E+03
 0.97097159329E+02 0.78656961722E+02 0.61233700599E+02 0.46367747807E+02 0.34991460407E+02
 0.27013770782E+02 0.21451688561E+02 0.17450325666E+02 0.14639396114E+02 0.12668810271E+02
 0.11269371978E+02 0.10266722191E+02 0.95567045559E+01 0.90734621034E+01 0.87679902638E+01
 0.86017606158E+01 0.85493134000E+01 0.86017606158E+01 0.87679902638E+01 0.90734621034E+01
 0.95567045559E+01 0.10266722191E+02 0.11269371978E+02 0.12668810271E+02 0.14639396114E+02
 0.17450325666E+02 0.21451688561E+02 0.27013770782E+02 0.34991460407E+02 0.46367747807E+02
 0.61233700599E+02 0.78656961722E+02 0.97097159329E+02 0.11515133918E+03 0.13216477355E+03
 0.14827898414E+03 0.16385915552E+03 0.17869574253E+03 0.19156662243E+03 0.20051993981E+03
 0.18293918155E+03 0.18023897298E+03 0.17266896386E+03 0.16153890620E+03 0.14827898414E+03
 0.13383880890E+03 0.11852540727E+03 0.10234333510E+03 0.85542902368E+02 0.68946553320E+02
 0.53803462154E+02 0.41271092251E+02 0.31872377113E+02 0.25261641356E+02 0.20502521398E+02
 0.17071479350E+02 0.14654311314E+02 0.12950775969E+02 0.11737823147E+02 0.10872323903E+02
 0.10266722191E+02 0.98620629718E+01 0.96117397236E+01 0.94782192582E+01 0.94366084245E+01
 0.94782192582E+01 0.96117397236E+01 0.98620629718E+01 0.10266722191E+02 0.10872323903E+02
 0.11737823147E+02 0.12950775969E+02 0.14654311314E+02 0.17071479350E+02 0.20502521398E+02
 0.25261641356E+02 0.31872377113E+02 0.41271092251E+02 0.53803462154E+02 0.68946553320E+02
 0.85542902368E+02 0.10234333510E+03 0.11852540727E+03 0.13383880890E+03 0.14827898414E+03
 0.16153890620E+03 0.17266896386E+03 0.18023897298E+03 0.16332984169E+03 0.16099146202E+03
 0.15435831806E+03 0.14438621123E+03 0.13216477355E+03 0.11852540727E+03 0.10394636589E+03
 0.88774679661E+02 0.73546121752E+02 0.59118178782E+02 0.46483511151E+02 0.36375895623E+02
 0.28927178351E+02 0.23589581950E+02 0.19650482075E+02 0.16822836795E+02 0.14829353699E+02
 0.13424462803E+02 0.12431751669E+02 0.11737823147E+02 0.11269371978E+02 0.10971854386E+02
 0.10798860379E+02 0.10712122913E+02 0.10686174991E+02 0.10712122913E+02 0.10798860379E+02
 0.10971854386E+02 0.11269371978E+02 0.11737823147E+02 0.12431751669E+02 0.13424462803E+02
 0.14829353699E+02 0.16822836795E+02 0.19650482075E+02 0.23589581950E+02 0.28927178351E+02
 0.36375895623E+02 0.46483511151E+02 0.59118178782E+02 0.73546121752E+02 0.88774679661E+02
 0.10394636589E+03 0.11852540727E+03 0.13216477355E+03 0.14438621123E+03 0.15435831806E+03
 0.16099146202E+03 0.14377892914E+03 0.14168445581E+03 0.13569050772E+03 0.12654169439E+03
 0.11515133918E+03 0.10234333510E+03 0.88774679661E+02 0.75039142549E+02 0.61807678921E+02
 0.49838618611E+02 0.39804306026E+02 0.32033598513E+02 0.26340581422E+02 0.22115809917E+02
 0.18998628092E+02 0.16779628549E+02 0.15228090450E+02 0.14154076409E+02 0.13424462803E+02
 0.12950775969E+02 0.12668810271E+02 0.12523426122E+02 0.12463839276E+02 0.12447252326E+02
 0.12445060225E+02 0.12447252326E+02 0.12463839276E+02 0.12523426122E+02 0.12668810271E+02
 0.12950775969E+02 0.13424462803E+02 0.14154076409E+02 0.15228090450E+02 0.16779628549E+02
 0.18998628092E+02 0.22115809917E+02 0.26340581422E+02 0.32033598513E+02 0.39804306026E+02
 0.49838618611E+02 0.61807678921E+02 0.75039142549E+02 0.88774679661E+02 0.10234333510E+03
 0.11515133918E+03 0.12654169439E+03 0.13569050772E+03 0.14168445581E+03 0.12299952454E+03
 0.12112142544E+03 0.11572453739E+03 0.10743940350E+03 0.97097159329E+02 0.85542902368E+02
 0.73546121752E+02 0.61807678921E+02 0.50982612803E+02 0.41635015956E+02 0.34113479244E+02
 0.28418203226E+02 0.24162474375E+02 0.20948246851E+02 0.18625055837E+02 0.17008802174E+02
 0.15922290400E+02 0.15228090450E+02 0.14829353699E+02 0.14654311314E+02 0.14639396114E+02
 0.14720495323E+02 0.14834495484E+02 0.14927272827E+02 0.14962455525E+02 0.14927272827E+02
 0.14834495484E+02 0.14720495323E+02 0.14639396114E+02 0.14654311314E+02 0.14829353699E+02
 0.15228090450E+02 0.15922290400E+02 0.17008802174E+02 0.18625055837E+02 0.20948246851E+02
 0.24162474375E+02 0.28418203226E+02 0.34113479244E+02 0.41635015956E+02 0.50982612803E+02
 0.61807678921E+02 0.73546121752E+02 0.85542902368E+02 0.97097159329E+02 0.10743940350E+03
 0.11572453739E+03 0.12112142544E+03 0.10084707437E+03 0.99232301254E+02 0.94591657228E+02
 0.87478795582E+02 0.78656961722E+02 0.68946553320E+02 0.59118178782E+02 0.49838618611E+02
 0.41635015956E+02 0.34842985142E+02 0.29541447809E+02 0.25514255559E+02 0.22423324469E+02
 0.20156655257E+02 0.18590099347E+02 0.17581581410E+02 0.17008802174E+02 0.16779628549E+02
 0.16822836795E+02 0.17071479350E+02 0.17450325666E+02 0.17873901734E+02 0.18254880797E+02
 0.18517666590E+02 0.18611248442E+02 0.18517666590E+02 0.18254880797E+02 0.17873901734E+02
 0.17450325666E+02 0.17071479350E+02 0.16822836795E+02 0.16779628549E+02 0.17008802174E+02
 0.17581581410E+02 0.18590099347E+02 0.20156655257E+02 0.22423324469E+02 0.25514255559E+02
 0.29541447809E+02 0.34842985142E+02 0.41635015956E+02 0.49838618611E+02 0.59118178782E+02
 0.68946553320E+02 0.78656961722E+02 0.87478795582E+02 0.94591657228E+02 0.99232301254E+02
 0.78686328133E+02 0.77402235965E+02 0.73720836392E+02 0.68111734088E+02 0.61233700599E+02
 0.53803462154E+02 0.46483511151E+02 0.39804306026E+02 0.34113479244E+02 0.29541447809E+02
 0.25986119120E+02 0.23218258497E+02 0.21173308229E+02 0.19783105628E+02 0.18952146544E+02
 0.18590099347E+02 0.18625055837E+02 0.18998628092E+02 0.19650482075E+02 0.20502521398E+02
 0.21451688561E+02 0.22375485139E+02 0.23148079994E+02 0.23660909950E+02 0.23840697403E+02
 0.23660909950E+02 0.23148079994E+02 0.22375485139E+02 0.21451688561E+02 0.20502521398E+02
 0.19650482075E+02 0.18998628092E+02 0.18625055837E+02 0.18590099347E+02 0.18952146544E+02
 0.19783105628E+02 0.21173308229E+02 0.23218258497E+02 0.25986119120E+02 0.29541447809E+02
 0.34113479244E+02 0.39804306026E+02 0.46483511151E+02 0.53803462154E+02 0.61233700599E+02
 0.68111734088E+02 0.73720836392E+02 0.77402235965E+02 0.58707250249E+02 0.57786178752E+02
 0.55155274133E+02 0.51178841562E+02 0.46367747807E+02 0.41271092251E+02 0.36375895623E+02
 0.32033598513E+02 0.28418203226E+02 0.25514255559E+02 0.23218258497E+02 0.21529781426E+02
 0.20426275665E+02 0.19860188443E+02 0.19783105628E+02 0.20156655257E+02 0.20948246851E+02
 0.22115809917E+02 0.23589581950E+02 0.25261641356E+02 0.27013770782E+02 0.28696067923E+02
 0.30110130750E+02 0.31057150376E+02 0.31390751977E+02 0.31057150376E+02 0.30110130750E+02
 0.28696067923E+02 0.27013770782E+02 0.25261641356E+02 0.23589581950E+02 0.22115809917E+02
 0.20948246851E+02 0.20156655257E+02 0.19783105628E+02 0.19860188443E+02 0.20426275665E+02
 0.21529781426E+02 0.23218258497E+02 0.25514255559E+02 0.28418203226E+02 0.32033598513E+02
 0.36375895623E+02 0.41271092251E+02 0.46367747807E+02 0.51178841562E+02 0.55155274133E+02
 0.57786178752E+02 0.42745793303E+02 0.42158675054E+02 0.40488239170E+02 0.37983894709E+02
 0.34991460407E+02 0.31872377113E+02 0.28927178351E+02 0.26340581422E+02 0.24162474375E+02
 0.22423324469E+02 0.21173308229E+02 0.20426275665E+02 0.20178449441E+02 0.20426275665E+02
 0.21173308229E+02 0.22423324469E+02 0.24162474375E+02 0.26340581422E+02 0.28927178351E+02
 0.31872377113E+02 0.34991460407E+02 0.37983894709E+02 0.40488239170E+02 0.42158675054E+02
 0.42745793303E+02 0.42158675054E+02 0.40488239170E+02 0.37983894709E+02 0.34991460407E+02
 0.31872377113E+02 0.28927178351E+02 0.26340581422E+02 0.24162474375E+02 0.22423324469E+02
 0.21173308229E+02 0.20426275665E+02 0.20178449441E+02 0.20426275665E+02 0.21173308229E+02
 0.22423324469E+02 0.24162474375E+02 0.26340581422E+02 0.28927178351E+02 0.31872377113E+02
 0.34991460407E+02 0.37983894709E+02 0.40488239170E+02 0.42158675054E+02 0.31390751977E+02
 0.31057150376E+02 0.30110130750E+02 0.28696067923E+02 0.27013770782E+02 0.25261641356E+02
 0.23589581950E+02 0.22115809917E+02 0.20948246851E+02 0.20156655257E+02 0.19783105628E+02
 0.19860188443E+02 0.20426275665E+02 0.21529781426E+02 0.23218258497E+02 0.25514255559E+02
 0.28418203226E+02 0.32033598513E+02 0.36375895623E+02 0.41271092251E+02 0.46367747807E+02
 0.51178841562E+02 0.55155274133E+02 0.57786178752E+02 0.58707250249E+02 0.57786178752E+02
 0.55155274133E+02 0.51178841562E+02 0.46367747807E+02 0.41271092251E+02 0.36375895623E+02
 0.32033598513E+02 0.28418203226E+02 0.25514255559E+02 0.23218258497E+02 0.21529781426E+02
 0.20426275665E+02 0.19860188443E+02 0.19783105628E+02 0.20156655257E+02 0.20948246851E+02
 0.22115809917E+02 0.23589581950E+02 0.25261641356E+02 0.27013770782E+02 0.28696067923E+02
 0.30110130750E+02 0.31057150376E+02 0.23840697403E+02 0.23660909950E+02 0.23148079994E+02
 0.22375485139E+02 0.21451688561E+02 0.20502521398E+02 0.19650482075E+02 0.18998628092E+02
 0.18625055837E+02 0.18590099347E+02 0.18952146544E+02 0.19783105628E+02 0.21173308229E+02
 0.23218258497E+02 0.25986119120E+02 0.29541447809E+02 0.34113479244E+02 0.39804306026E+02
 0.46483511151E+02 0.53803462154E+02 0.61233700599E+02 0.68111734088E+02 0.73720836392E+02
 0.77402235965E+02 0.78686328133E+02 0.77402235965E+02 0.73720836392E+02 0.68111734088E+02
 0.61233700599E+02 0.53803462154E+02 0.46483511151E+02 0.39804306026E+02 0.34113479244E+02
 0.29541447809E+02 0.25986119120E+02 0.23218258497E+02 0.21173308229E+02 0.19783105628E+02
 0.18952146544E+02 0.18590099347E+02 0.18625055837E+02 0.18998628092E+02 0.19650482075E+02
 0.20502521398E+02 0.21451688561E+02 0.22375485139E+02 0.23148079994E+02 0.23660909950E+02
 0.18611248442E+02 0.18517666590E+02 0.18254880797E+02 0.17873901734E+02 0.17450325666E+02
 0.17071479350E+02 0.16822836795E+02 0.16779628549E+02 0.17008802174E+02 0.17581581410E+02
 0.18590099347E+02 0.20156655257E+02 0.22423324469E+02 0.25514255559E+02 0.29541447809E+02
 0.34842985142E+02 0.41635015956E+02 0.49838618611E+02 0.59118178782E+02 0.68946553320E+02
 0.78656961722E+02 0.87478795582E+02 0.94591657228E+02 0.99232301254E+02 0.10084707437E+03
 0.99232301254E+02 0.94591657228E+02 0.87478795582E+02 0.78656961722E+02 0.68946553320E+02
 0.59118178782E+02 0.49838618611E+02 0.41635015956E+02 0.34842985142E+02 0.29541447809E+02
 0.25514255559E+02 0.22423324469E+02 0.20156655257E+02 0.18590099347E+02 0.17581581410E+02
 0.17008802174E+02 0.16779628549E+02 0.16822836795E+02 0.17071479350E+02 0.17450325666E+02
 0.17873901734E+02 0.18254880797E+02 0.18517666590E+02 0.14962455525E+02 0.14927272827E+02
 0.14834495484E+02 0.14720495323E+02 0.14639396114E+02 0.14654311314E+02 0.14829353699E+02
 0.15228090450E+02 0.15922290400E+02 0.17008802174E+02 0.18625055837E+02 0.20948246851E+02
 0.24162474375E+02 0.28418203226E+02 0.34113479244E+02 0.41635015956E+02 0.50982612803E+02
 0.61807678921E+02 0.73546121752E+02 0.85542902368E+02 0.97097159329E+02 0.10743940350E+03
 0.11572453739E+03 0.12112142544E+03 0.12299952454E+03 0.12112142544E+03 0.11572453739E+03
 0.10743940350E+03 0.97097159329E+02 0.85542902368E+02 0.73546121752E+02 0.61807678921E+02
 0.50982612803E+02 0.41635015956E+02 0.34113479244E+02 0.28418203226E+02 0.24162474375E+02
 0.20948246851E+02 0.18625055837E+02 0.17008802174E+02 0.15922290400E+02 0.15228090450E+02
 0.14829353699E+02 0.14654311314E+02 0.14639396114E+02 0.14720495323E+02 0.14834495484E+02
 0.14927272827E+02 0.12445060225E+02 0.12447252326E+02 0.12463839276E+02 0.12523426122E+02
 0.12668810271E+02 0.12950775969E+02 0.13424462803E+02 0.14154076409E+02 0.15228090450E+02
 0.16779628549E+02 0.18998628092E+02 0.22115809917E+02 0.26340581422E+02 0.32033598513E+02
 0.39804306026E+02 0.49838618611E+02 0.61807678921E+02 0.75039142549E+02 0.88774679661E+02
 0.10234333510E+03 0.11515133918E+03 0.12654169439E+03 0.13569050772E+03 0.14168445581E+03
 0.14377892914E+03 0.14168445581E+03 0.13569050772E+03 0.12654169439E+03 0.11515133918E+03
 0.10234333510E+03 0.88774679661E+02 0.75039142549E+02 0.61807678921E+02 0.49838618611E+02
 0.39804306026E+02 0.32033598513E+02 0.26340581422E+02 0.22115809917E+02 0.18998628092E+02
 0.16779628549E+02 0.15228090450E+02 0.14154076409E+02 0.13424462803E+02 0.12950775969E+02
 0.12668810271E+02 0.12523426122E+02 0.12463839276E+02 0.12447252326E+02 0.10686174991E+02
 0.10712122913E+02 0.10798860379E+02 0.10971854386E+02 0.11269371978E+02 0.11737823147E+02
 0.12431751669E+02 0.13424462803E+02 0.14829353699E+02 0.16822836795E+02 0.19650482075E+02
 0.23589581950E+02 0.28927178351E+02 0.36375895623E+02 0.46483511151E+02 0.59118178782E+02
 0.73546121752E+02 0.88774679661E+02 0.10394636589E+03 0.11852540727E+03 0.13216477355E+03
 0.14438621123E+03 0.15435831806E+03 0.16099146202E+03 0.16332984169E+03 0.16099146202E+03
 0.15435831806E+03 0.14438621123E+03 0.13216477355E+03 0.11852540727E+03 0.10394636589E+03
 0.88774679661E+02 0.73546121752E+02 0.59118178782E+02 0.46483511151E+02 0.36375895623E+02
 0.28927178351E+02 0.23589581950E+02 0.19650482075E+02 0.16822836795E+02 0.14829353699E+02
 0.13424462803E+02 0.12431751669E+02 0.11737823147E+02 0.11269371978E+02 0.10971854386E+02
 0.10798860379E+02 0.10712122913E+02 0.94366084245E+01 0.94782192582E+01 0.96117397236E+01
 0.98620629718E+01 0.10266722191E+02 0.10872323903E+02 0.11737823147E+02 0.12950775969E+02
 0.14654311314E+02 0.17071479350E+02 0.20502521398E+02 0.25261641356E+02 0.31872377113E+02
 0.41271092251E+02 0.53803462154E+02 0.68946553320E+02 0.85542902368E+02 0.10234333510E+03
 0.11852540727E+03 0.13383880890E+03 0.14827898414E+03 0.16153890620E+03 0.17266896386E+03
 0.18023897298E+03 0.18293918155E+03 0.18023897298E+03 0.17266896386E+03 0.16153890620E+03
 0.14827898414E+03 0.13383880890E+03 0.11852540727E+03 0.10234333510E+03 0.85542902368E+02
 0.68946553320E+02 0.53803462154E+02 0.41271092251E+02 0.31872377113E+02 0.25261641356E+02
 0.20502521398E+02 0.17071479350E+02 0.14654311314E+02 0.12950775969E+02 0.11737823147E+02
 0.10872323903E+02 0.10266722191E+02 0.98620629718E+01 0.96117397236E+01 0.94782192582E+01
 0.85493134000E+01 0.86017606158E+01 0.87679902638E+01 0.90734621034E+01 0.95567045559E+01
 0.10266722191E+02 0.11269371978E+02 0.12668810271E+02 0.14639396114E+02 0.17450325666E+02
 0.21451688561E+02 0.27013770782E+02 0.34991460407E+02 0.46367747807E+02 0.61233700599E+02
 0.78656961722E+02 0.97097159329E+02 0.11515133918E+03 0.13216477355E+03 0.14827898414E+03
 0.16385915552E+03 0.17869574253E+03 0.19156662243E+03 0.20051993981E+03 0.20374883349E+03
 0.20051993981E+03 0.19156662243E+03 0.17869574253E+03 0.16385915552E+03 0.14827898414E+03
 0.13216477355E+03 0.11515133918E+03 0.97097159329E+02 0.78656961722E+02 0.61233700599E+02
 0.46367747807E+02 0.34991460407E+02 0.27013770782E+02 0.21451688561E+02 0.17450325666E+02
 0.14639396114E+02 0.12668810271E+02 0.11269371978E+02 0.10266722191E+02 0.95567045559E+01
 0.90734621034E+01 0.87679902638E+01 0.86017606158E+01 0.79381627844E+01 0.79982250821E+01
 0.81876147932E+01 0.85326799663E+01 0.90734621034E+01 0.98620629718E+01 0.10971854386E+02
 0.12523426122E+02 0.14720495323E+02 0.17873901734E+02 0.22375485139E+02 0.28696067923E+02
 0.37983894709E+02 0.51178841562E+02 0.68111734088E+02 0.87478795582E+02 0.10743940350E+03
 0.12654169439E+03 0.14438621123E+03 0.16153890620E+03 0.17869574253E+03 0.19564560330E+03
 0.21076616969E+03 0.22146395552E+03 0.22535176364E+03 0.22146395552E+03 0.21076616969E+03
 0.19564560330E+03 0.17869574253E+03 0.16153890620E+03 0.14438621123E+03 0.12654169439E+03
 0.10743940350E+03 0.87478795582E+02 0.68111734088E+02 0.51178841562E+02 0.37983894709E+02
 0.28696067923E+02 0.22375485139E+02 0.17873901734E+02 0.14720495323E+02 0.12523426122E+02
 0.10971854386E+02 0.98620629718E+01 0.90734621034E+01 0.85326799663E+01 0.81876147932E+01
 0.79982250821E+01 0.75455157005E+01 0.76106787995E+01 0.78156587668E+01 0.81876147932E+01
 0.87679902638E+01 0.96117397236E+01 0.10798860379E+02 0.12463839276E+02 0.14834495484E+02
 0.18254880797E+02 0.23148079994E+02 0.30110130750E+02 0.40488239170E+02 0.55155274133E+02
 0.73720836392E+02 0.94591657228E+02 0.11572453739E+03 0.13569050772E+03 0.15435831806E+03
 0.17266896386E+03 0.19156662243E+03 0.21076616969E+03 0.22821337255E+03 0.24068306385E+03
 0.24523448538E+03 0.24068306385E+03 0.22821337255E+03 0.21076616969E+03 0.19156662243E+03
 0.17266896386E+03 0.15435831806E+03 0.13569050772E+03 0.11572453739E+03 0.94591657228E+02
 0.73720836392E+02 0.55155274133E+02 0.40488239170E+02 0.30110130750E+02 0.23148079994E+02
 0.18254880797E+02 0.14834495484E+02 0.12463839276E+02 0.10798860379E+02 0.96117397236E+01
 0.87679902638E+01 0.81876147932E+01 0.78156587668E+01 0.76106787995E+01 0.73286216735E+01
 0.73967143389E+01 0.76106787995E+01 0.79982250821E+01 0.86017606158E+01 0.94782192582E+01
 0.10712122913E+02 0.12447252326E+02 0.14927272827E+02 0.18517666590E+02 0.23660909950E+02
 0.31057150376E+02 0.42158675054E+02 0.57786178752E+02 0.77402235965E+02 0.99232301254E+02
 0.12112142544E+03 0.14168445581E+03 0.16099146202E+03 0.18023897298E+03 0.20051993981E+03
 0.22146395552E+03 0.24068306385E+03 0.25448729497E+03 0.25953592020E+03 0.25448729497E+03
 0.24068306385E+03 0.22146395552E+03 0.20051993981E+03 0.18023897298E+03 0.16099146202E+03
 0.14168445581E+03 0.12112142544E+03 0.99232301254E+02 0.77402235965E+02 0.57786178752E+02
 0.42158675054E+02 0.31057150376E+02 0.23660909950E+02 0.18517666590E+02 0.14927272827E+02
 0.12447252326E+02 0.10712122913E+02 0.94782192582E+01 0.86017606158E+01 0.79982250821E+01
 0.76106787995E+01 0.73967143389E+01 0.72595756312E+01 0.73286216735E+01 0.75455157005E+01
 0.79381627844E+01 0.85493134000E+01 0.94366084245E+01 0.10686174991E+02 0.12445060225E+02
 0.14962455525E+02 0.18611248442E+02 0.23840697403E+02 0.31390751977E+02 0.42745793303E+02
 0.58707250249E+02 0.78686328133E+02 0.10084707437E+03 0.12299952454E+03 0.14377892914E+03
 0.16332984169E+03 0.18293918155E+03 0.20374883349E+03 0.22535176364E+03 0.24523448538E+03
 0.25953592020E+03 0.26476933077E+03 0.25953592020E+03 0.24523448538E+03 0.22535176364E+03
 0.20374883349E+03 0.18293918155E+03 0.16332984169E+03 0.14377892914E+03 0.12299952454E+03
 0.10084707437E+03 0.78686328133E+02 0.58707250249E+02 0.42745793303E+02 0.31390751977E+02
 0.23840697403E+02 0.18611248442E+02 0.14962455525E+02 0.12445060225E+02 0.10686174991E+02
 0.94366084245E+01 0.85493134000E+01 0.79381627844E+01 0.75455157005E+01 0.73286216735E+01
 0.73286216735E+01 0.73967143389E+01 0.76106787995E+01 0.79982250821E+01 0.86017606158E+01
 0.94782192582E+01 0.10712122913E+02 0.12447252326E+02 0.14927272827E+02 0.18517666590E+02
 0.23660909950E+02 0.31057150376E+02 0.42158675054E+02 0.57786178752E+02 0.77402235965E+02
 0.99232301254E+02 0.12112142544E+03 0.14168445581E+03 0.16099146202E+03 0.18023897298E+03
 0.20051993981E+03 0.22146395552E+03 0.24068306385E+03 0.25448729497E+03 0.25953592020E+03
 0.25448729497E+03 0.24068306385E+03 0.22146395552E+03 0.20051993981E+03 0.18023897298E+03
 0.16099146202E+03 0.14168445581E+03 0.12112142544E+03 0.99232301254E+02 0.77402235965E+02
 0.57786178752E+02 0.42158675054E+02 0.31057150376E+02 0.23660909950E+02 0.18517666590E+02
 0.14927272827E+02 0.12447252326E+02 0.10712122913E+02 0.94782192582E+01 0.86017606158E+01
 0.79982250821E+01 0.76106787995E+01 0.73967143389E+01 0.75455157005E+01 0.76106787995E+01
 0.78156587668E+01 0.81876147932E+01 0.87679902638E+01 0.96117397236E+01 0.10798860379E+02
 0.12463839276E+02 0.14834495484E+02 0.18254880797E+02 0.23148079994E+02 0.30110130750E+02
 0.40488239170E+02 0.55155274133E+02 0.73720836392E+02 0.94591657228E+02 0.11572453739E+03
 0.13569050772E+03 0.15435831806E+03 0.17266896386E+03 0.19156662243E+03 0.21076616969E+03
 0.22821337255E+03 0.24068306385E+03 0.24523448538E+03 0.24068306385E+03 0.22821337255E+03
 0.21076616969E+03 0.19156662243E+03 0.17266896386E+03 0.15435831806E+03 0.13569050772E+03
 0.11572453739E+03 0.94591657228E+02 0.73720836392E+02 0.55155274133E+02 0.40488239170E+02
 0.30110130750E+02 0.23148079994E+02 0.18254880797E+02 0.14834495484E+02 0.12463839276E+02
 0.10798860379E+02 0.96117397236E+01 0.87679902638E+01 0.81876147932E+01 0.78156587668E+01
 0.76106787995E+01 0.79381627844E+01 0.79982250821E+01 0.81876147932E+01 0.85326799663E+01
 0.90734621034E+01 0.98620629718E+01 0.10971854386E+02 0.12523426122E+02 0.14720495323E+02
 0.17873901734E+02 0.22375485139E+02 0.28696067923E+02 0.37983894709E+02 0.51178841562E+02
 0.68111734088E+02 0.87478795582E+02 0.10743940350E+03 0.12654169439E+03 0.14438621123E+03
 0.16153890620E+03 0.17869574253E+03 0.19564560330E+03 0.21076616969E+03 0.22146395552E+03
 0.22535176364E+03 0.22146395552E+03 0.21076616969E+03 0.19564560330E+03 0.17869574253E+03
 0.16153890620E+03 0.14438621123E+03 0.12654169439E+03 0.10743940350E+03 0.87478795582E+02
 0.68111734088E+02 0.51178841562E+02 0.37983894709E+02 0.28696067923E+02 0.22375485139E+02
 0.17873901734E+02 0.14720495323E+02 0.12523426122E+02 0.10971854386E+02 0.98620629718E+01
 0.90734621034E+01 0.85326799663E+01 0.81876147932E+01 0.79982250821E+01 0.85493134000E+01
 0.86017606158E+01 0.87679902638E+01 0.90734621034E+01 0.95567045559E+01 0.10266722191E+02
 0.11269371978E+02 0.12668810271E+02 0.14639396114E+02 0.17450325666E+02 0.21451688561E+02
 0.27013770782E+02 0.34991460407E+02 0.46367747807E+02 0.61233700599E+02 0.78656961722E+02
 0.97097159329E+02 0.11515133918E+03 0.13216477355E+03 0.14827898414E+03 0.16385915552E+03
 0.17869574253E+03 0.19156662243E+03 0.20051993981E+03 0.20374883349E+03 0.20051993981E+03
 0.19156662243E+03 0.17869574253E+03 0.16385915552E+03 0.14827898414E+03 0.13216477355E+03
 0.11515133918E+03 0.97097159329E+02 0.78656961722E+02 0.61233700599E+02 0.46367747807E+02
 0.34991460407E+02 0.27013770782E+02 0.21451688561E+02 0.17450325666E+02 0.14639396114E+02
 0.12668810271E+02 0.11269371978E+02 0.10266722191E+02 0.95567045559E+01 0.90734621034E+01
 0.87679902638E+01 0.86017606158E+01 0.94366084245E+01 0.94782192582E+01 0.96117397236E+01
 0.98620629718E+01 0.10266722191E+02 0.10872323903E+02 0.11737823147E+02 0.12950775969E+02
 0.14654311314E+02 0.17071479350E+02 0.20502521398E+02 0.25261641356E+02 0.31872377113E+02
 0.41271092251E+02 0.53803462154E+02 0.68946553320E+02 0.85542902368E+02 0.10234333510E+03
 0.11852540727E+03 0.13383880890E+03 0.14827898414E+03 0.16153890620E+03 0.17266896386E+03
 0.18023897298E+03 0.18293918155E+03 0.18023897298E+03 0.17266896386E+03 0.16153890620E+03
 0.14827898414E+03 0.13383880890E+03 0.11852540727E+03 0.10234333510E+03 0.85542902368E+02
 0.68946553320E+02 0.53803462154E+02 0.41271092251E+02 0.31872377113E+02 0.25261641356E+02
 0.20502521398E+02 0.17071479350E+02 0.14654311314E+02 0.12950775969E+02 0.11737823147E+02
 0.10872323903E+02 0.10266722191E+02 0.98620629718E+01 0.96117397236E+01 0.94782192582E+01
 0.10686174991E+02 0.10712122913E+02 0.10798860379E+02 0.10971854386E+02 0.11269371978E+02
 0.11737823147E+02 0.12431751669E+02 0.13424462803E+02 0.14829353699E+02 0.16822836795E+02
 0.19650482075E+02 0.23589581950E+02 0.28927178351E+02 0.36375895623E+02 0.46483511151E+02
 0.59118178782E+02 0.73546121752E+02 0.88774679661E+02 0.10394636589E+03 0.11852540727E+03
 0.13216477355E+03 0.14438621123E+03 0.15435831806E+03 0.16099146202E+03 0.16332984169E+03
 0.16099146202E+03 0.15435831806E+03 0.14438621123E+03 0.13216477355E+03 0.11852540727E+03
 0.10394636589E+03 0.88774679661E+02 0.73546121752E+02 0.59118178782E+02 0.46483511151E+02
 0.36375895623E+02 0.28927178351E+02 0.23589581950E+02 0.19650482075E+02 0.16822836795E+02
 0.14829353699E+02 0.13424462803E+02 0.12431751669E+02 0.11737823147E+02 0.11269371978E+02
 0.10971854386E+02 0.10798860379E+02 0.10712122913E+02 0.12445060225E+02 0.12447252326E+02
 0.12463839276E+02 0.12523426122E+02 0.12668810271E+02 0.12950775969E+02 0.13424462803E+02
 0.14154076409E+02 0.15228090450E+02 0.16779628549E+02 0.18998628092E+02 0.22115809917E+02
 0.26340581422E+02 0.32033598513E+02 0.39804306026E+02 0.49838618611E+02 0.61807678921E+02
 0.75039142549E+02 0.88774679661E+02 0.10234333510E+03 0.11515133918E+03 0.12654169439E+03
 0.13569050772E+03 0.14168445581E+03 0.14377892914E+03 0.14168445581E+03 0.13569050772E+03
 0.12654169439E+03 0.11515133918E+03 0.10234333510E+03 0.88774679661E+02 0.75039142549E+02
 0.61807678921E+02 0.49838618611E+02 0.39804306026E+02 0.32033598513E+02 0.26340581422E+02
 0.22115809917E+02 0.18998628092E+02 0.16779628549E+02 0.15228090450E+02 0.14154076409E+02
 0.13424462803E+02 0.12950775969E+02 0.12668810271E+02 0.12523426122E+02 0.12463839276E+02
 0.12447252326E+02 0.14962455525E+02 0.14927272827E+02 0.14834495484E+02 0.14720495323E+02
 0.14639396114E+02 0.14654311314E+02 0.14829353699E+02 0.15228090450E+02 0.15922290400E+02
 0.17008802174E+02 0.18625055837E+02 0.20948246851E+02 0.24162474375E+02 0.28418203226E+02
 0.34113479244E+02 0.41635015956E+02 0.50982612803E+02 0.61807678921E+02 0.73546121752E+02
 0.85542902368E+02 0.97097159329E+02 0.10743940350E+03 0.11572453739E+03 0.12112142544E+03
 0.12299952454E+03 0.12112142544E+03 0.11572453739E+03 0.10743940350E+03 0.97097159329E+02
 0.85542902368E+02 0.73546121752E+02 0.61807678921E+02 0.50982612803E+02 0.41635015956E+02
 0.34113479244E+02 0.28418203226E+02 0.24162474375E+02 0.20948246851E+02 0.18625055837E+02
 0.17008802174E+02 0.15922290400E+02 0.15228090450E+02 0.14829353699E+02 0.14654311314E+02
 0.14639396114E+02 0.14720495323E+02 0.14834495484E+02 0.14927272827E+02 0.18611248442E+02
 0.18517666590E+02 0.18254880797E+02 0.17873901734E+02 0.17450325666E+02 0.17071479350E+02
 0.16822836795E+02 0.16779628549E+02 0.17008802174E+02 0.17581581410E+02 0.18590099347E+02
 0.20156655257E+02 0.22423324469E+02 0.25514255559E+02 0.29541447809E+02 0.34842985142E+02
 0.41635015956E+02 0.49838618611E+02 0.59118178782E+02 0.68946553320E+02 0.78656961722E+02
 0.87478795582E+02 0.94591657228E+02 0.99232301254E+02 0.10084707437E+03 0.99232301254E+02
 0.94591657228E+02 0.87478795582E+02 0.78656961722E+02 0.68946553320E+02 0.59118178782E+02
 0.49838618611E+02 0.41635015956E+02 0.34842985142E+02 0.29541447809E+02 0.25514255559E+02
 0.22423324469E+02 0.20156655257E+02 0.18590099347E+02 0.17581581410E+02 0.17008802174E+02