   4   4   0   0
  0.1723025E+02  0.4100000E-09  0.4100000E-09  0.4100000E-09  0.5000000E-15
  1.000000000000000E-004
  CAR 
 unknown system                          
     14.27800691     -4.85251994  301      5.92382033      1.00000000
     -4.853  0.0000E+00  0.0000E+00
     -4.789  0.0000E+00  0.0000E+00
     -4.725  0.0000E+00  0.0000E+00
     -4.661  0.0000E+00  0.0000E+00
     -4.597  0.0000E+00  0.0000E+00
     -4.534  0.0000E+00  0.0000E+00
     -4.470  0.0000E+00  0.0000E+00
     -4.406  0.0000E+00  0.0000E+00
     -4.342  0.0000E+00  0.0000E+00
     -4.279  0.0000E+00  0.0000E+00
     -4.215  0.0000E+00  0.0000E+00
     -4.151  0.0000E+00  0.0000E+00
     -4.087  0.0000E+00  0.0000E+00
     -4.024  0.0000E+00  0.0000E+00
     -3.960  0.0000E+00  0.0000E+00
     -3.896  0.0000E+00  0.0000E+00
     -3.832  0.0000E+00  0.0000E+00
     -3.768  0.0000E+00  0.0000E+00
     -3.705  0.0000E+00  0.0000E+00
     -3.641  0.0000E+00  0.0000E+00
     -3.577  0.0000E+00  0.0000E+00
     -3.513  0.0000E+00  0.0000E+00
     -3.450  0.0000E+00  0.0000E+00
     -3.386  0.0000E+00  0.0000E+00
     -3.322  0.0000E+00  0.0000E+00
     -3.258  0.0000E+00  0.0000E+00
     -3.195  0.0000E+00  0.0000E+00
     -3.131  0.0000E+00  0.0000E+00
     -3.067  0.0000E+00  0.0000E+00
     -3.003  0.0000E+00  0.0000E+00
     -2.939  0.0000E+00  0.0000E+00
     -2.876  0.0000E+00  0.0000E+00
     -2.812  0.2821E-02  0.3817E-04
     -2.748  0.1865E-01  0.6486E-03
     -2.684  0.4840E-01  0.2712E-02
     -2.621  0.9207E-01  0.7117E-02
     -2.557  0.1415E+00  0.1462E-01
     -2.493  0.1774E+00  0.2486E-01
     -2.429  0.1990E+00  0.3694E-01
     -2.366  0.2063E+00  0.4994E-01
     -2.302  0.2112E+00  0.6322E-01
     -2.238  0.2221E+00  0.7701E-01
     -2.174  0.2391E+00  0.9168E-01
     -2.110  0.2608E+00  0.1076E+00
     -2.047  0.2837E+00  0.1250E+00
     -1.983  0.3076E+00  0.1438E+00
     -1.919  0.3324E+00  0.1642E+00
     -1.855  0.3550E+00  0.1862E+00
     -1.792  0.3716E+00  0.2094E+00
     -1.728  0.3823E+00  0.2334E+00
     -1.664  0.3912E+00  0.2581E+00
     -1.600  0.4053E+00  0.2834E+00
     -1.537  0.4244E+00  0.3099E+00
     -1.473  0.4441E+00  0.3376E+00
     -1.409  0.4629E+00  0.3665E+00
     -1.345  0.4821E+00  0.3966E+00
     -1.281  0.5016E+00  0.4280E+00
     -1.218  0.5214E+00  0.4606E+00
     -1.154  0.5415E+00  0.4945E+00
     -1.090  0.5620E+00  0.5297E+00
     -1.026  0.5861E+00  0.5662E+00
     -0.963  0.6145E+00  0.6045E+00
     -0.899  0.6449E+00  0.6447E+00
     -0.835  0.8001E+00  0.6904E+00
     -0.771  0.9556E+00  0.7464E+00
     -0.708  0.1155E+01  0.8121E+00
     -0.644  0.1064E+01  0.8828E+00
     -0.580  0.9848E+00  0.9480E+00
     -0.516  0.1027E+01  0.1012E+01
     -0.452  0.1073E+01  0.1079E+01
     -0.389  0.1113E+01  0.1149E+01
     -0.325  0.1145E+01  0.1221E+01
     -0.261  0.1171E+01  0.1294E+01
     -0.197  0.1783E+01  0.1379E+01
     -0.134  0.1731E+01  0.1481E+01
     -0.070  0.2210E+01  0.1619E+01
     -0.006  0.1008E+01  0.1744E+01
      0.058  0.1234E+01  0.1825E+01
      0.121  0.1408E+01  0.1908E+01
      0.185  0.1739E+01  0.2008E+01
      0.249  0.2201E+01  0.2132E+01
      0.313  0.3430E+01  0.2305E+01
      0.376  0.3881E+01  0.2535E+01
      0.440  0.4895E+01  0.2814E+01
      0.504  0.5257E+01  0.3143E+01
      0.568  0.5331E+01  0.3488E+01
      0.632  0.5289E+01  0.3829E+01
      0.695  0.5610E+01  0.4173E+01
      0.759  0.6026E+01  0.4546E+01
      0.823  0.6294E+01  0.4938E+01
      0.887  0.6594E+01  0.5347E+01
      0.950  0.6749E+01  0.5792E+01
      1.014  0.6354E+01  0.6210E+01
      1.078  0.6328E+01  0.6615E+01
      1.142  0.6286E+01  0.7017E+01
      1.205  0.6233E+01  0.7416E+01
      1.269  0.6418E+01  0.7817E+01
      1.333  0.6322E+01  0.8224E+01
      1.397  0.7629E+01  0.8670E+01
      1.461  0.5647E+01  0.9092E+01
      1.524  0.4021E+01  0.9374E+01
      1.588  0.3819E+01  0.9624E+01
      1.652  0.3673E+01  0.9863E+01
      1.716  0.3588E+01  0.1009E+02
      1.779  0.3734E+01  0.1033E+02
      1.843  0.6628E+01  0.1058E+02
      1.907  0.5779E+01  0.1105E+02
      1.971  0.6351E+01  0.1144E+02
      2.034  0.6747E+01  0.1186E+02
      2.098  0.6602E+01  0.1229E+02
      2.162  0.6321E+01  0.1270E+02
      2.226  0.6376E+01  0.1311E+02
      2.290  0.6425E+01  0.1351E+02
      2.353  0.6534E+01  0.1393E+02
      2.417  0.6849E+01  0.1436E+02
      2.481  0.6627E+01  0.1480E+02
      2.545  0.6770E+01  0.1522E+02
      2.608  0.6800E+01  0.1566E+02
      2.672  0.7167E+01  0.1614E+02
      2.736  0.1066E+02  0.1681E+02
      2.800  0.6898E+01  0.1739E+02
      2.863  0.6757E+01  0.1783E+02
      2.927  0.9194E+01  0.1838E+02
      2.991  0.9816E+01  0.1896E+02
      3.055  0.1530E+02  0.1974E+02
      3.119  0.1230E+02  0.2057E+02
      3.182  0.1209E+02  0.2135E+02
      3.246  0.8740E+01  0.2207E+02
      3.310  0.7009E+01  0.2259E+02
      3.374  0.4175E+01  0.2295E+02
      3.437  0.4779E+01  0.2321E+02
      3.501  0.5630E+01  0.2356E+02
      3.565  0.5183E+01  0.2390E+02
      3.629  0.4916E+01  0.2422E+02
      3.692  0.6014E+01  0.2456E+02
      3.756  0.8589E+01  0.2502E+02
      3.820  0.8001E+01  0.2558E+02
      3.884  0.7718E+01  0.2609E+02
      3.948  0.6450E+01  0.2657E+02
      4.011  0.6474E+01  0.2697E+02
      4.075  0.7240E+01  0.2741E+02
      4.139  0.7655E+01  0.2786E+02
      4.203  0.6267E+01  0.2834E+02
      4.266  0.5750E+01  0.2872E+02
      4.330  0.5441E+01  0.2908E+02
      4.394  0.5305E+01  0.2942E+02
      4.458  0.5952E+01  0.2976E+02
      4.521  0.6515E+01  0.3024E+02
      4.585  0.8397E+01  0.3069E+02
      4.649  0.7742E+01  0.3127E+02
      4.713  0.6624E+01  0.3175E+02
      4.777  0.6331E+01  0.3216E+02
      4.840  0.5862E+01  0.3257E+02
      4.904  0.4907E+01  0.3293E+02
      4.968  0.5183E+01  0.3325E+02
      5.032  0.5292E+01  0.3359E+02
      5.095  0.5427E+01  0.3393E+02
      5.159  0.5605E+01  0.3429E+02
      5.223  0.5933E+01  0.3465E+02
      5.287  0.6025E+01  0.3503E+02
      5.350  0.9760E+01  0.3544E+02
      5.414  0.6777E+01  0.3588E+02
      5.478  0.6373E+01  0.3630E+02
      5.542  0.6255E+01  0.3670E+02
      5.606  0.6496E+01  0.3710E+02
      5.669  0.8227E+01  0.3755E+02
      5.733  0.7993E+01  0.3807E+02
      5.797  0.1120E+02  0.3871E+02
      5.861  0.1001E+02  0.3940E+02
      5.924  0.9042E+01  0.4000E+02
      5.988  0.7930E+01  0.4056E+02
      6.052  0.7778E+01  0.4109E+02
      6.116  0.5064E+01  0.4149E+02
      6.179  0.3872E+01  0.4177E+02
      6.243  0.2754E+01  0.4198E+02
      6.307  0.1896E+01  0.4213E+02
      6.371  0.1405E+01  0.4222E+02
      6.434  0.1359E+01  0.4231E+02
      6.498  0.1316E+01  0.4240E+02
      6.562  0.1800E+01  0.4250E+02
      6.626  0.1168E+01  0.4260E+02
      6.690  0.1166E+01  0.4268E+02
      6.753  0.1163E+01  0.4275E+02
      6.817  0.1169E+01  0.4282E+02
      6.881  0.1191E+01  0.4290E+02
      6.945  0.1208E+01  0.4298E+02
      7.008  0.1223E+01  0.4305E+02
      7.072  0.1236E+01  0.4313E+02
      7.136  0.1560E+01  0.4323E+02
      7.200  0.1609E+01  0.4333E+02
      7.263  0.1649E+01  0.4344E+02
      7.327  0.1679E+01  0.4354E+02
      7.391  0.1607E+01  0.4365E+02
      7.455  0.1553E+01  0.4375E+02
      7.519  0.3127E+01  0.4386E+02
      7.582  0.9362E+00  0.4398E+02
      7.646  0.9125E+00  0.4404E+02
      7.710  0.8876E+00  0.4409E+02
      7.774  0.8634E+00  0.4415E+02
      7.837  0.8453E+00  0.4420E+02
      7.901  0.8337E+00  0.4426E+02
      7.965  0.8331E+00  0.4431E+02
      8.029  0.8495E+00  0.4436E+02
      8.092  0.8734E+00  0.4442E+02
      8.156  0.8975E+00  0.4448E+02
      8.220  0.9219E+00  0.4453E+02
      8.284  0.9465E+00  0.4459E+02
      8.348  0.9714E+00  0.4465E+02
      8.411  0.9964E+00  0.4472E+02
      8.475  0.1322E+01  0.4480E+02
      8.539  0.2024E+01  0.4491E+02
      8.603  0.1348E+01  0.4501E+02
      8.666  0.1375E+01  0.4510E+02
      8.730  0.1400E+01  0.4519E+02
      8.794  0.1413E+01  0.4528E+02
      8.858  0.1383E+01  0.4536E+02
      8.921  0.1350E+01  0.4545E+02
      8.985  0.1442E+01  0.4554E+02
      9.049  0.1373E+01  0.4563E+02
      9.113  0.1304E+01  0.4571E+02
      9.177  0.1239E+01  0.4579E+02
      9.240  0.1176E+01  0.4587E+02
      9.304  0.1149E+01  0.4595E+02
      9.368  0.1154E+01  0.4602E+02
      9.432  0.1156E+01  0.4609E+02
      9.495  0.1148E+01  0.4617E+02
      9.559  0.1139E+01  0.4624E+02
      9.623  0.1128E+01  0.4631E+02
      9.687  0.1118E+01  0.4638E+02
      9.750  0.1119E+01  0.4645E+02
      9.814  0.1132E+01  0.4653E+02
      9.878  0.1162E+01  0.4660E+02
      9.942  0.1187E+01  0.4667E+02
     10.006  0.1175E+01  0.4675E+02
     10.069  0.1165E+01  0.4682E+02
     10.133  0.1151E+01  0.4690E+02
     10.197  0.1135E+01  0.4697E+02
     10.261  0.1116E+01  0.4704E+02
     10.324  0.1093E+01  0.4711E+02
     10.388  0.1068E+01  0.4718E+02
     10.452  0.1040E+01  0.4725E+02
     10.516  0.1008E+01  0.4731E+02
     10.579  0.1065E+01  0.4738E+02
     10.643  0.9856E+00  0.4745E+02
     10.707  0.8956E+00  0.4751E+02
     10.771  0.7668E+00  0.4756E+02
     10.835  0.6736E+00  0.4761E+02
     10.898  0.6473E+00  0.4765E+02
     10.962  0.6322E+00  0.4769E+02
     11.026  0.6154E+00  0.4773E+02
     11.090  0.5950E+00  0.4777E+02
     11.153  0.5712E+00  0.4781E+02
     11.217  0.5438E+00  0.4784E+02
     11.281  0.4261E+00  0.4787E+02
     11.345  0.3599E+00  0.4790E+02
     11.408  0.2918E+00  0.4792E+02
     11.472  0.2218E+00  0.4793E+02
     11.536  0.1749E+00  0.4795E+02
     11.600  0.1529E+00  0.4796E+02
     11.664  0.1322E+00  0.4797E+02
     11.727  0.1128E+00  0.4797E+02
     11.791  0.9474E-01  0.4798E+02
     11.855  0.7798E-01  0.4799E+02
     11.919  0.6253E-01  0.4799E+02
     11.982  0.4839E-01  0.4799E+02
     12.046  0.3556E-01  0.4800E+02
     12.110  0.2405E-01  0.4800E+02
     12.174  0.1385E-01  0.4800E+02
     12.237  0.4965E-02  0.4800E+02
     12.301  0.0000E+00  0.4800E+02
     12.365  0.0000E+00  0.4800E+02
     12.429  0.0000E+00  0.4800E+02
     12.492  0.0000E+00  0.4800E+02
     12.556  0.0000E+00  0.4800E+02
     12.620  0.0000E+00  0.4800E+02
     12.684  0.0000E+00  0.4800E+02
     12.748  0.0000E+00  0.4800E+02
     12.811  0.0000E+00  0.4800E+02
     12.875  0.0000E+00  0.4800E+02
     12.939  0.0000E+00  0.4800E+02
     13.003  0.0000E+00  0.4800E+02
     13.066  0.0000E+00  0.4800E+02
     13.130  0.0000E+00  0.4800E+02
     13.194  0.0000E+00  0.4800E+02
     13.258  0.0000E+00  0.4800E+02
     13.321  0.0000E+00  0.4800E+02
     13.385  0.0000E+00  0.4800E+02
     13.449  0.0000E+00  0.4800E+02
     13.513  0.0000E+00  0.4800E+02
     13.577  0.0000E+00  0.4800E+02
     13.640  0.0000E+00  0.4800E+02
     13.704  0.0000E+00  0.4800E+02
     13.768  0.0000E+00  0.4800E+02
     13.832  0.0000E+00  0.4800E+02
     13.895  0.0000E+00  0.4800E+02
     13.959  0.0000E+00  0.4800E+02
     14.023  0.0000E+00  0.4800E+02
     14.087  0.0000E+00  0.4800E+02
     14.150  0.0000E+00  0.4800E+02
     14.214  0.0000E+00  0.4800E+02
     14.278  0.0000E+00  0.4800E+02
