    4    4    1    1
  0.1723025E+02  0.4100000E-09  0.4100000E-09  0.4100000E-09  0.5000000E-15
  1.000000000000000E-004
  CAR 
 unknown system                          
     40     20     24
 
  0.0000000E+00  0.0000000E+00  0.0000000E+00  0.2915452E-02
    1       -2.852520   1.000000
    2        0.226110   1.000000
    3        0.226110   1.000000
    4        0.226110   1.000000
    5        0.597082   1.000000
    6        0.597082   1.000000
    7        0.597082   1.000000
    8        2.898626   1.000000
    9        2.898626   1.000000
   10        2.898626   1.000000
   11        4.640405   1.000000
   12        4.640406   1.000000
   13        5.943193   0.999450
   14        5.943193   0.999443
   15        5.943193   0.997683
   16        6.313838   0.339166
   17        6.313838  -0.095114
   18        6.313838  -0.063206
   19        6.313838   0.000000
   20        6.313838   0.000000
   21        6.313838   0.000000
   22        8.012824   0.000000
   23        8.012824   0.000000
   24        8.012824   0.000000
 
  0.1428571E+00  0.0000000E+00  0.0000000E+00  0.1749271E-01
    1       -2.611680   1.000000
    2        0.298821   1.000000
    3        0.396307   1.000000
    4        0.396307   1.000000
    5        0.691674   1.000000
    6        0.737506   1.000000
    7        0.737506   1.000000
    8        2.758374   1.000000
    9        3.015079   1.000000
   10        3.015079   1.000000
   11        4.488223   1.000000
   12        4.699196   1.000000
   13        5.327361   1.000000
   14        5.327361   1.000001
   15        5.717438   0.999735
   16        5.717438   0.981074
   17        5.872137   0.923314
   18        6.047247   0.612699
   19        6.047247   0.166633
   20        6.314280  -0.042414
   21        6.314280   0.000000
   22        6.768525   0.000000
   23        9.148710   0.000000
   24        9.148710   0.000000
 
  0.2857143E+00  0.0000000E+00  0.0000000E+00  0.1749271E-01
    1       -1.917569   1.000000
    2        0.397944   1.000000
    3        0.849063   1.000000
    4        0.849063   1.000000
    5        0.965013   1.000000
    6        1.156737   1.000000
    7        1.156737   1.000000
    8        2.384884   1.000000
    9        3.359051   1.000000
   10        3.359051   1.000000
   11        3.979246   1.000000
   12        3.979246   1.000000
   13        4.092843   1.000000
   14        4.849871   1.000000
   15        4.866840   1.000000
   16        5.121401   1.000000
   17        5.121401   1.000000
   18        5.395614   1.004272
   19        5.395614   1.084369
   20        5.677180   0.931770
   21        6.315332  -0.000700
   22        6.315332  -0.000100
   23       10.925809   0.000000
   24       10.925809   0.000000
 
  0.4285714E+00  0.0000000E+00  0.0000000E+00  0.1749271E-01
    1       -0.892082   1.000000
    2        0.077503   1.000000
    3        1.337097   1.000000
    4        1.337097   1.000000
    5        1.383893   1.000000
    6        1.847706   1.000000
    7        1.847706   1.000000
    8        1.887745   1.000000
    9        2.797001   1.000000
   10        2.797001   1.000000
   11        3.664692   1.000000
   12        3.698470   1.000000
   13        3.910097   1.000000
   14        3.910097   1.000000
   15        4.502339   1.000000
   16        4.502339   1.000000
   17        4.621565   1.000000
   18        4.621565   1.000000
   19        5.116719   1.001992
   20        5.405595   1.071997
   21        6.316180  -0.010525
   22        6.316180  -0.009993
   23       12.277808   0.000000
   24       12.278007   0.000000
 
  0.1428571E+00  0.1428571E+00  0.0000000E+00  0.3498542E-01
    1       -2.378427   1.000000
    2        0.474028   1.000000
    3        0.474028   1.000000
    4        0.513907   1.000000
    5        0.826782   1.000000
    6        0.826782   1.000000
    7        0.908719   1.000000
    8        2.701718   1.000000
    9        3.059960   1.000000
   10        3.098774   1.000000
   11        4.454270   1.000000
   12        4.681301   1.000000
   13        4.864599   1.000029
   14        4.864599   1.000029
   15        4.871179   1.000260
   16        5.533387   1.003612
   17        5.721192   0.996717
   18        5.721192   0.981965
   19        6.046004   0.293368
   20        6.046004   0.034765
   21        6.141338  -0.008832
   22        7.984629   0.000000
   23        7.984629   0.000000
   24        9.932552   0.000000
 
  0.2857143E+00  0.1428571E+00  0.0000000E+00  0.6997085E-01
    1       -1.706342   1.000000
    2        0.584378   1.000000
    3        0.867356   1.000000
    4        0.945384   1.000000
    5        1.083976   1.000000
    6        1.228789   1.000000
    7        1.357215   1.000000
    8        2.395198   1.000000
    9        3.309520   1.000000
   10        3.366690   1.000000
   11        3.582564   1.000000
   12        3.834255   1.000000
   13        3.918835   1.000000
   14        4.173129   1.000000
   15        4.887013   1.000000
   16        5.027774   1.000000
   17        5.193966   1.000000
   18        5.391819   1.002481
   19        5.420585   1.107529
   20        6.042366   0.306985
   21        6.051782   0.039102
   22        6.518424  -0.000128
   23        9.419922   0.000000
   24       11.503619   0.000000
 
  0.4285714E+00  0.1428571E+00  0.0000000E+00  0.6997085E-01
    1       -0.709704   1.000000
    2        0.255912   1.000000
    3        1.392173   1.000000
    4        1.471567   1.000000
    5        1.476057   1.000000
    6        1.869543   1.000000
    7        1.886478   1.000000
    8        1.943405   1.000000
    9        2.523464   1.000000
   10        2.774996   1.000000
   11        3.250672   1.000000
   12        3.318977   1.000000
   13        3.908655   1.000000
   14        4.184089   1.000000
   15        4.505765   1.000000
   16        4.594224   1.000000
   17        4.617355   1.000000
   18        4.766080   1.000000
   19        5.248677   1.003120
   20        5.726187   1.009247
   21        6.035877   0.066217
   22        6.037502  -0.000645
   23       10.520498   0.000000
   24       11.222005   0.000000
 
  0.2857143E+00  0.2857143E+00  0.0000000E+00  0.3498542E-01
    1       -1.100882   1.000000
    2        1.039277   1.000000
    3        1.098161   1.000000
    4        1.098161   1.000000
    5        1.433608   1.000000
    6        1.433608   1.000000
    7        1.779250   1.000000
    8        2.320645   1.000000
    9        2.887888   1.000000
   10        2.887888   1.000000
   11        3.255558   1.000000
   12        3.370391   1.000000
   13        3.517851   1.000000
   14        4.085276   1.000000
   15        4.722882   1.000000
   16        5.030543   1.000000
   17        5.030543   1.000000
   18        5.207518   1.000000
   19        5.385031   1.045120
   20        5.385031   1.163315
   21        5.656753   1.101341
   22        7.731437  -0.000078
   23        7.731437   0.000000
   24       10.663609   0.000000
 
  0.4285714E+00  0.2857143E+00  0.0000000E+00  0.6997085E-01
    1       -0.203023   1.000000
    2        0.727105   1.000000
    3        1.427670   1.000000
    4        1.735421   1.000000
    5        1.748899   1.000000
    6        1.987425   1.000000
    7        2.052898   1.000000
    8        2.067468   1.000000
    9        2.073967   1.000000
   10        2.681087   1.000000
   11        2.694618   1.000000
   12        3.047444   1.000000
   13        3.957341   1.000000
   14        4.088714   1.000000
   15        4.381992   1.000000
   16        4.525742   1.000000
   17        4.539071   1.000000
   18        4.623453   1.000000
   19        5.392312   1.003179
   20        5.454799   1.016437
   21        5.816527   0.782391
   22        6.599201  -0.002986
   23        8.780417   0.000000
   24        9.664691   0.000000
 
  0.4285714E+00  0.4285714E+00  0.0000000E+00  0.3498542E-01
    1        0.500774   1.000000
    2        1.224056   1.000000
    3        1.224056   1.000000
    4        1.399664   1.000000
    5        2.100940   1.000000
    6        2.100940   1.000000
    7        2.144989   1.000000
    8        2.368371   1.000000
    9        2.438157   1.000000
   10        2.438157   1.000000
   11        2.454954   1.000000
   12        2.865074   1.000000
   13        3.886095   1.000000
   14        4.090827   1.000000
   15        4.146010   1.000000
   16        4.146010   1.000000
   17        4.193153   1.000000
   18        4.701872   1.000000
   19        4.701872   1.000000
   20        4.958319   1.000000
   21        6.622525  -0.155492
   22        7.546299   0.000000
   23        7.546299   0.000000
   24        8.488893   0.000000
 
  0.1428571E+00  0.1428571E+00  0.1428571E+00  0.2332362E-01
    1       -2.156058   1.000000
    2        0.583760   1.000000
    3        0.583760   1.000000
    4        0.583760   1.000000
    5        1.001906   1.000000
    6        1.001906   1.000000
    7        1.001906   1.000000
    8        2.671326   1.000000
    9        3.120870   1.000000
   10        3.120870   1.000000
   11        4.476706   1.000000
   12        4.476706   1.000000
   13        4.476706   1.000020
   14        4.562886   1.000019
   15        4.562886   1.000060
   16        5.268549   1.007468
   17        5.268549   1.016849
   18        5.268549   1.030183
   19        6.147409   0.125707
   20        6.147409  -0.005029
   21        6.147409  -0.024138
   22        8.645655   0.000000
   23        8.645655   0.000000
   24        8.645655   0.000000
 
  0.2857143E+00  0.1428571E+00  0.1428571E+00  0.6997085E-01
    1       -1.517294   1.000000
    2        0.673529   1.000000
    3        0.918196   1.000000
    4        0.918196   1.000000
    5        1.267444   1.000000
    6        1.452507   1.000000
    7        1.452507   1.000000
    8        2.439200   1.000000
    9        3.280326   1.000000
   10        3.315876   1.000000
   11        3.512590   1.000000
   12        3.512590   1.000000
   13        3.608357   1.000000
   14        4.338974   1.000000
   15        4.726509   1.000000
   16        4.857497   1.000000
   17        4.884977   1.000000
   18        4.884977   1.002108
   19        6.005696   0.600397
   20        6.020916   0.289944
   21        6.020916   0.063918
   22        6.881674  -0.000066
   23        9.850523   0.000000
   24        9.850523   0.000000
 
  0.4285714E+00  0.1428571E+00  0.1428571E+00  0.6997085E-01
    1       -0.574356   1.000000
    2        0.343904   1.000000
    3        1.445672   1.000000
    4        1.445672   1.000000
    5        1.638584   1.000000
    6        1.837665   1.000000
    7        1.837665   1.000000
    8        2.051603   1.000000
    9        2.707609   1.000000
   10        2.707609   1.000000
   11        3.069559   1.000000
   12        3.211895   1.000000
   13        3.662234   1.000000
   14        4.150771   1.000000
   15        4.460310   1.000000
   16        4.460310   1.000000
   17        4.583406   1.000000
   18        5.262343   1.000000
   19        5.497428   1.020491
   20        5.680535   1.028552
   21        5.914762   0.553775
   22        5.914762   0.012133
   23       10.830057   0.000000
   24       10.830057   0.000000
 
  0.2857143E+00  0.2857143E+00  0.1428571E+00  0.6997085E-01
    1       -0.982139   1.000000
    2        0.930783   1.000000
    3        0.930783   1.000000
    4        1.009162   1.000000
    5        1.745495   1.000000
    6        1.745495   1.000000
    7        1.863166   1.000000
    8        2.467888   1.000000
    9        2.922888   1.000000
   10        2.922888   1.000000
   11        3.233929   1.000000
   12        3.250163   1.000000
   13        3.328250   1.000000
   14        4.405671   1.000000
   15        4.421663   1.000000
   16        4.426707   1.000000
   17        4.426707   1.000000
   18        5.123802   1.000000
   19        5.861291   0.889806
   20        5.873680   0.809590
   21        5.873680   0.671129
   22        7.926910  -0.000035
   23        7.926910   0.000000
   24       10.753870   0.000000
 
  0.4285714E+00  0.2857143E+00  0.1428571E+00  0.1399417E+00
    1       -0.210403   1.000000
    2        0.556426   1.000000
    3        1.233359   1.000000
    4        1.253295   1.000000
    5        2.044477   1.000000
    6        2.047532   1.000000
    7        2.110353   1.000000
    8        2.341614   1.000000
    9        2.672320   1.000000
   10        2.717895   1.000000
   11        2.973144   1.000000
   12        3.038510   1.000000
   13        3.509465   1.000000
   14        3.898671   1.000000
   15        4.102878   1.000000
   16        4.170266   1.000000
   17        4.686992   1.000000
   18        5.379102   1.000000
   19        5.652574   1.015931
   20        5.654799   1.026979
   21        5.720939   0.953866
   22        6.536775  -0.001786
   23        8.971136   0.000000
   24        9.959504   0.000000
 
  0.4285714E+00  0.4285714E+00  0.1428571E+00  0.6997085E-01
    1        0.278510   1.000000
    2        0.792793   1.000000
    3        0.792793   1.000000
    4        1.005768   1.000000
    5        2.315163   1.000000
    6        2.478469   1.000000
    7        2.478469   1.000000
    8        2.606240   1.000000
    9        2.748463   1.000000
   10        2.748463   1.000000
   11        2.937373   1.000000
   12        3.092940   1.000000
   13        3.453519   1.000000
   14        3.726077   1.000000
   15        3.726077   1.000000
   16        3.749875   1.000000
   17        4.722868   1.000000
   18        5.183637   1.000000
   19        5.183637   1.010023
   20        5.311180   1.010003
   21        6.522142  -0.131471
   22        7.513502   0.000000
   23        7.513502   0.000000
   24        8.558310   0.000000
 
  0.2857143E+00  0.2857143E+00  0.2857143E+00  0.2332362E-01
    1       -0.651417   1.000000
    2        0.799257   1.000000
    3        0.799257   1.000000
    4        0.799257   1.000000
    5        2.161917   1.000000
    6        2.161917   1.000000
    7        2.161917   1.000000
    8        2.830055   1.000000
    9        3.065887   1.000000
   10        3.065887   1.000000
   11        3.065887   1.000000
   12        3.166551   1.000000
   13        3.166551   1.000000
   14        3.885387   1.000000
   15        3.885387   1.000000
   16        3.885387   1.000000
   17        4.994596   1.000000
   18        4.994596   1.000000
   19        6.041463   0.373222
   20        6.041463   0.326984
   21        6.041463   0.006955
   22        8.530256  -0.000013
   23        8.530256   0.000000
   24        8.530256   0.000000
 
  0.4285714E+00  0.2857143E+00  0.2857143E+00  0.6997085E-01
    1       -0.174051   1.000000
    2        0.356317   1.000000
    3        0.761029   1.000000
    4        0.761029   1.000000
    5        2.281005   1.000000
    6        2.281005   1.000000
    7        2.621697   1.000000
    8        2.976427   1.000000
    9        3.022001   1.000000
   10        3.080546   1.000000
   11        3.203707   1.000000
   12        3.401419   1.000000
   13        3.401419   1.000000
   14        3.453981   1.000000
   15        3.644414   1.000000
   16        3.644414   1.000000
   17        5.346071   1.000000
   18        5.547586   1.000000
   19        5.870436   0.962574
   20        5.870436   0.960627
   21        5.934236   0.333296
   22        6.611220  -0.000382
   23        9.270283   0.000000
   24        9.270283   0.000000
 
  0.4285714E+00  0.4285714E+00  0.2857143E+00  0.6997085E-01
    1       -0.012032   1.000000
    2        0.307274   1.000000
    3        0.307274   1.000000
    4        0.440568   1.000000
    5        2.522573   1.000000
    6        2.636354   1.000000
    7        2.636354   1.000000
    8        2.910489   1.000000
    9        3.072765   1.000000
   10        3.235682   1.000000
   11        3.235682   1.000000
   12        3.287398   1.000000
   13        3.814620   1.000000
   14        3.816531   1.000000
   15        3.816531   1.000000
   16        3.968087   1.000000
   17        5.355685   1.000000
   18        5.755004   1.000000
   19        5.755004   1.045905
   20        5.771029   1.043248
   21        6.213138  -0.037310
   22        7.374134   0.000000
   23        7.374134   0.000000
   24        8.421362   0.000000
 
  0.4285714E+00  0.4285714E+00  0.4285714E+00  0.2332362E-01
    1       -0.106928   1.000000
    2        0.046671   1.000000
    3        0.046671   1.000000
    4        0.046671   1.000000
    5        2.766624   1.000000
    6        2.766624   1.000000
    7        2.766624   1.000000
    8        2.910182   1.000000
    9        2.910182   1.000000
   10        2.986305   1.000000
   11        2.986305   1.000000
   12        2.986305   1.000000
   13        4.812657   1.000000
   14        4.812657   1.000000
   15        4.812657   1.000000
   16        5.143918   1.000000
   17        5.820502   1.000000
   18        5.820502   1.000000
   19        5.974631   0.457035
   20        5.974631   0.434249
   21        5.974631   0.000000
   22        7.119189   0.000000
   23        7.119189   0.000000
   24        7.119189   0.000000
