       N       E                     dE             d eps       ncg     rms          rms(c)
DAV:   1     0.449119418934E+03    0.44912E+03   -0.18147E+04   960   0.160E+03
DAV:   2     0.755452146665E+01   -0.44156E+03   -0.42796E+03   960   0.520E+02
DAV:   3    -0.243617620300E+02   -0.31916E+02   -0.30995E+02  1384   0.122E+02
DAV:   4    -0.253650096734E+02   -0.10032E+01   -0.99032E+00  1008   0.296E+01
DAV:   5    -0.253986837465E+02   -0.33674E-01   -0.33654E-01  1248   0.338E+00    0.723E+00
RMM:   6    -0.239752613201E+02    0.14234E+01   -0.36178E+00   960   0.201E+01    0.222E+00
RMM:   7    -0.239158098432E+02    0.59451E-01   -0.12079E+00  1004   0.774E+00    0.714E-01
RMM:   8    -0.239041269939E+02    0.11683E-01   -0.61080E-02   983   0.263E+00    0.259E-01
RMM:   9    -0.239034265108E+02    0.70048E-03   -0.13240E-02  1119   0.642E-01    0.365E-02
RMM:  10    -0.239035913509E+02   -0.16484E-03   -0.17321E-03  1020   0.396E-01    0.693E-02
RMM:  11    -0.239034559815E+02    0.13537E-03   -0.58908E-04   974   0.285E-01    0.306E-03
RMM:  12    -0.239034592357E+02   -0.32542E-05   -0.48613E-05   641   0.292E-02
   1 F= -.23903459E+02 E0= -.23903459E+02  d E =0.000000E+00
