unknown system                          
   1.00000000000000     
     4.913700    0.000000    0.000000
    -2.456850    4.255389    0.000000
     0.000000    0.000000    5.405130
   Si   O 
     3     6
Direct
  0.469800  0.020000  0.666670
  0.000000  0.469800  0.333330
  0.530200  0.530200  0.000000
  0.414500  0.266200  0.785600
  0.733800  0.148300  0.452270
  0.851700  0.585500  0.118930
  0.148300  0.733800  0.547730
  0.266200  0.414500  0.214400
  0.585500  0.851700  0.881070
 
   64   64   72
  1.4897      1.4322      1.4084      1.4098      1.4322      1.4734      1.5321      1.6068      1.6960      1.7982    
  1.9119      2.0348      2.1638      2.2953      2.4256      2.5525      2.6742      2.7900      2.9000      3.0066    
  3.1167      3.2433      3.4056      3.6268      3.9313      4.3435      4.8915      5.6123      6.5565      7.7884    
  9.3779      11.390      13.872      16.848      20.312      24.225      28.499      32.981      37.437      41.553    
  44.963      47.307      48.307      47.827      45.914      42.784      38.768      34.243      29.561      25.004    
  20.771      16.983      13.699      10.937      8.6775      6.8742      5.4620      4.3682      3.5247      2.8767    
  2.3849      2.0217      1.7652      1.5947      1.4461      1.3868      1.3639      1.3693      1.3989      1.4512    
  1.5256      1.6207      1.7351      1.8667      2.0134      2.1724      2.3396      2.5100      2.6782      2.8393    
  2.9897      3.1269      3.2494      3.3571      3.4529      3.5444      3.6458      3.7772      3.9622      4.2248    
  4.5895      5.0830      5.7396      6.6037      7.7289      9.1702      10.974      13.167      15.751      18.694    
  21.933      25.358      28.812      32.085      34.929      37.082      38.318      38.490      37.569      35.646    
  32.914      29.626      26.049      22.419      18.928      15.709      12.849      10.391      8.3393      6.6720    
  5.3435      4.2982      3.4807      2.8450      2.3568      1.9919      1.7308      1.5550      1.4349      1.3768    
  1.3569      1.3672      1.4042      1.4673      1.5563      1.6707      1.8091      1.9695      2.1493      2.3453    
  2.5528      2.7660      2.9779      3.1813      3.3697      3.5381      3.6830      3.8021      3.8953      3.9662    
  4.0242      4.0848      4.1694      4.3021      4.5073      4.8085      5.2309      5.8047      6.5669      7.5599    
  8.8243      10.390      12.266      14.438      16.858      19.450      22.102      24.669      26.979      28.847    
  30.100      30.607      30.306      29.219      27.446      25.143      22.498      19.696      16.903      14.249    
  11.829      9.7012      7.8890      6.3871      5.1682      4.1925      3.4180      2.8078      2.3342      1.9767    
  1.7185      1.5435      1.4480      1.3945      1.3798      1.3966      1.4420      1.5160      1.6194      1.7524    
  1.9142      2.1028      2.3158      2.5497      2.7998      3.0598      3.3214      3.5755      3.8126      4.0242    
  4.2036      4.3458      4.4483      4.5118      4.5414      4.5487      4.5516      4.5731      4.6381      4.7712    
  4.9950      5.3323      5.8084      6.4526      7.2963      8.3669      9.6802      11.233      12.999      14.924    
  16.929      18.912      20.751      22.312      23.467      24.107      24.166      23.628      22.536      20.980    
  19.085      16.985      14.815      12.689      10.699      8.9078      7.3492      6.0309      4.9400      4.0507    
  3.3333      2.7605      2.3112      1.9691      1.7207      1.5520      1.4815      1.4361      1.4294      1.4549    
  1.5103      1.5962      1.7141      1.8653      2.0496      2.2658      2.5116      2.7839      3.0783      3.3885    
  3.7057      4.0190      4.3162      4.5847      4.8135      4.9936      5.1193      5.1885      5.2035      5.1725    
  5.1103      5.0377      4.9797      4.9626      5.0107      5.1455      5.3868      5.7550      6.2717      6.9582    
  7.8304      8.8930      10.134      11.520      12.998      14.496      15.925      17.189      18.190      18.844    
  19.087      18.890      18.263      17.253      15.936      14.408      12.769      11.114      9.5223      8.0548    
  6.7490      5.6206      4.6675      3.8758      3.2263      2.7008      2.2844      1.9654      1.7332      1.5763    
  1.5334      1.5003      1.5053      1.5425      1.6101      1.7093      1.8426      2.0119      2.2181      2.4608    
  2.7386      3.0490      3.3884      3.7513      4.1288      4.5092      4.8776      5.2177      5.5130      5.7493    
  5.9158      6.0066      6.0214      5.9659      5.8525      5.7005      5.5342      5.3813      5.2690      5.2215    
  5.2587      5.3973      5.6527      6.0393      6.5694      7.2496      8.0759      9.0303      10.079      11.172    
  12.247      13.233      14.059      14.657      14.972      14.972      14.648      14.022      13.137      12.057    
  10.852      9.5976      8.3580      7.1864      6.1194      5.1766      4.3631      3.6741      3.0995      2.6286    
  2.2524      1.9634      1.7537      1.6141      1.6024      1.5865      1.6076      1.6603      1.7433      1.8582    
  2.0083      2.1964      2.4243      2.6926      3.0011      3.3486      3.7329      4.1494      4.5906      5.0443    
  5.4940      5.9197      6.2996      6.6127      6.8417      6.9746      7.0071      6.9422      6.7910      6.5718    
  6.3091      6.0319      5.7702      5.5522      5.4015      5.3362      5.3698      5.5126      5.7725      6.1544    
  6.6573      7.2713      7.9751      8.7358      9.5099      10.247      10.893      11.396      11.713      11.810    
  11.673      11.305      10.731      9.9880      9.1261      8.1983      7.2559      6.3422      5.4898      4.7194    
  4.0402      3.4538      2.9570      2.5455      2.2151      1.9618      1.7804      1.6637      1.6870      1.6935    
  1.7356      1.8085      1.9110      2.0452      2.2145      2.4229      2.6730      2.9666      3.3048      3.6881    
  4.1160      4.5862      5.0924      5.6236      6.1623      6.6858      7.1673      7.5787      7.8943      8.0945    
  8.1678      8.1133      7.9399      7.6658      7.3168      6.9239      6.5205      6.1393      5.8087      5.5512    
  5.3825      5.3125      5.3471      5.4886      5.7359      6.0822      6.5132      7.0066      7.5318      8.0526    
  8.5295      8.9233      9.1989      9.3282      9.2938      9.0911      8.7295      8.2309      7.6271      6.9550    
  6.2525      5.5535      4.8855      4.2679      3.7122      3.2238      2.8045      2.4547      2.1737      1.9606    
  1.8124      1.7238      1.7856      1.8195      1.8878      1.9861      2.1131      2.2709      2.4632      2.6944    
  2.9684      3.2879      3.6555      4.0735      4.5435      5.0658      5.6367      6.2468      6.8794      7.5099    
  8.1074      8.6369      9.0640      9.3590      9.5014      9.4829      9.3084      8.9953      8.5709      8.0699    
  7.5300      6.9893      6.4820      6.0362      5.6724      5.4031      5.2349      5.1693      5.2042      5.3334    
  5.5460      5.8252      6.1486      6.4887      6.8158      7.1002      7.3144      7.4356      7.4469      7.3401    
  7.1162      6.7858      6.3680      5.8872      5.3701      4.8424      4.3262      3.8386      3.3918      2.9935    
  2.6485      2.3601      2.1305      1.9606      1.8494      1.7931      1.8967      1.9625      2.0621      2.1912    
  2.3481      2.5347      2.7546      3.0127      3.3135      3.6608      4.0585      4.5105      5.0210      5.5930    
  6.2263      6.9144      7.6424      8.3854      9.1095      9.7738      10.335      10.753      10.995      11.044    
  10.896      10.566      10.082      9.4819      8.8102      8.1114      7.4272      6.7925      6.2339      5.7686    
  5.4057      5.1477      4.9924      4.9341      4.9632      5.0656      5.2230      5.4133      5.6122      5.7960    
  5.9426      6.0334      6.0540      5.9951      5.8533      5.6322      5.3420      4.9979      4.6182      4.2217    
  3.8257      3.4449      3.0909      2.7723      2.4959      2.2666      2.0883      1.9633      1.8916      1.8710    
  2.0186      2.1202      2.2556      2.4207      2.6134      2.8348      3.0883      3.3785      3.7105      4.0890    
  4.5188      5.0052      5.5547      6.1736      6.8654      7.6278      8.4490      9.3058      10.163      10.974    
  11.689      12.255      12.629      12.779      12.691      12.374      11.852      11.168      10.371      9.5153    
  8.6518      7.8243      7.0670      6.4032      5.8458      5.3995      5.0631      4.8311      4.6947      4.6415    
  4.6554      4.7170      4.8050      4.8984      4.9780      5.0278      5.0355      4.9921      4.8929      4.7373    
  4.5297      4.2789      3.9969      3.6973      3.3934      3.0975      2.8200      2.5699      2.3544      2.1798    
  2.0507      1.9702      1.9393      1.9566      2.1489      2.2893      2.4647      2.6708      2.9053      3.1683    
  3.4623      3.7917      4.1613      4.5761      5.0416      5.5641      6.1521      6.8147      7.5599      8.3904    
  9.2993      10.266      11.257      12.223      13.106      13.844      14.378      14.664      14.673      14.404    
  13.875      13.128      12.218      11.210      10.165      9.1381      8.1748      7.3061      6.5501      5.9145    
  5.3990      4.9983      4.7039      4.5044      4.3854      4.3293      4.3162      4.3258      4.3399      4.3432    
  4.3242      4.2748      4.1899      4.0675      3.9085      3.7175      3.5019      3.2712      3.0355      2.8049    
  2.5886      2.3950      2.2318      2.1055      2.0214      1.9832      1.9924      2.0485      2.2841      2.4655    
  2.6844      2.9364      3.2189      3.5309      3.8739      4.2511      4.6668      5.1256      5.6328      6.1953    
  6.8226      7.5267      8.3197      9.2101      10.197      11.267      12.388      13.509      14.569      15.496    
  16.217      16.672      16.817      16.634      16.134      15.354      14.353      13.201      11.975      10.743    
  9.5645      8.4809      7.5186      6.6891      5.9933      5.4252      4.9757      4.6335      4.3852      4.2147    
  4.1031      4.0307      3.9785      3.9307      3.8753      3.8045      3.7132      3.5991      3.4620      3.3040    
  3.1294      2.9446      2.7569      2.5744      2.4049      2.2561      2.1354      2.0495      2.0043      2.0038    
  2.0506      2.1446      2.4205      2.6436      2.9083      3.2106      3.5472      3.9162      4.3177      4.7535    
  5.2264      5.7397      6.2979      6.9074      7.5779      8.3232      9.1593      10.101      11.155      12.314    
  13.553      14.825      16.063      17.188      18.117      18.771      19.089      19.035      18.606      17.831    
  16.767      15.491      14.091      12.652      11.248      9.9378      8.7576      7.7255      6.8446      6.1082    
  5.5050      5.0220      4.6457      4.3608      4.1497      3.9930      3.8712      3.7671      3.6674      3.5632    
  3.4493      3.3236      3.1859      3.0375      2.8813      2.7214      2.5633      2.4127      2.2760      2.1600    
  2.0714      2.0170      2.0029      2.0341      2.1137      2.2429      2.5540      2.8177      3.1292      3.4848    
  3.8809      4.3148      4.7851      5.2917      5.8352      6.4170      7.0395      7.7073      8.4293      9.2199    
  10.098      11.083      12.191      13.423      14.762      16.168      17.575      18.900      20.047      20.923    
  21.448      21.565      21.254      20.528      19.440      18.070      16.514      14.873      13.241      11.693    
  10.281      9.0335      7.9582      7.0487      6.2910      5.6687      5.1657      4.7662      4.4535      4.2091    
  4.0131      3.8472      3.6959      3.5486      3.3994      3.2458      3.0881      2.9280      2.7681      2.6121    
  2.4638      2.3278      2.2090      2.1126      2.0448      2.0120      2.0205      2.0758      2.1821      2.3415    
  2.6819      2.9826      3.3394      3.7491      4.2084      4.7140      5.2631      5.8533      6.4827      7.1497    
  7.8536      8.5963      9.3842      10.230      11.154      12.180      13.330      14.616      16.032      17.546    
  19.099      20.608      21.971      23.081      23.838      24.164      24.016      23.392      22.330      20.909    
  19.230      17.409      15.556      13.766      12.110      10.632      9.3483      8.2557      7.3383      6.5754    
  5.9466      5.4333      5.0180      4.6827      4.4080      4.1745      3.9650      3.7666      3.5717      3.3770    
  3.1830      2.9921      2.8078      2.6338      2.4741      2.3326      2.2133      2.1209      2.0605      2.0380    
  2.0594      2.1306      2.2563      2.4396      2.8023      3.1342      3.5319      3.9936      4.5169      5.0983    
  5.7341      6.4199      7.1506      7.9210      8.7268      9.5656      10.440      11.360      12.342      13.414    
  14.600      15.923      17.387      18.974      20.637      22.297      23.853      25.188      26.187      26.750    
  26.809      26.339      25.362      23.948      22.197      20.235      18.185      16.165      14.264      12.544    
  11.038      9.7475      8.6600      7.7511      6.9952      6.3687      5.8511      5.4233      5.0659      4.7592    
  4.4847      4.2275      3.9777      3.7308      3.4868      3.2486      3.0206      2.8076      2.6144      2.4452    
  2.3044      2.1965      2.1266      2.1001      2.1227      2.2000      2.3368      2.5368      2.9141      3.2697    
  3.7012      4.2092      4.7931      5.4505      6.1773      6.9673      7.8127      8.7045      9.6336      10.593    
  11.580      12.599      13.662      14.793      16.020      17.368      18.855      20.476      22.199      23.959    
  25.663      27.192      28.420      29.228      29.524      29.256      28.425      27.084      25.330      23.287    
  21.091      18.874      16.746      14.788      13.051      11.551      10.280      9.2165      8.3293      7.5893    
  6.9707      6.4507      6.0084      5.6234      5.2766      4.9516      4.6366      4.3256      4.0178      3.7165    
  3.4270      3.1552      2.9071      2.6880      2.5031      2.3576      2.2575      2.2086      2.2169      2.2876    
  2.4253      2.6333      3.0174      3.3874      3.8435      4.3888      5.0253      5.7533      6.5697      7.4676    
  8.4366      9.4640      10.536      11.641      12.769      13.918      15.093      16.310      17.592      18.967    
  20.458      22.075      23.803      25.599      27.384      29.049      30.467      31.504      32.046      32.013    
  31.382      30.183      28.501      26.456      24.188      21.837      19.528      17.360      15.404      13.692    
  12.232      11.006      9.9826      9.1287      8.4115      7.8024      7.2761      6.8099      6.3836      5.9798    
  5.5861      5.1954      4.8067      4.4235      4.0523      3.7008      3.3762      3.0851      2.8335      2.6275    
  2.4742      2.3809      2.3549      2.4020      2.5265      2.7310      3.1143      3.4870      3.9564      4.5271    
  5.2044      5.9920      6.8897      7.8915      8.9859      10.157      11.387      12.658      13.955      15.268    
  16.590      17.928      19.294      20.711      22.202      23.788      25.472      27.234      29.020      30.742    
  32.281      33.502      34.272      34.487      34.092      33.093      31.557      29.595      27.344      24.945    
  22.532      20.217      18.084      16.187      14.548      13.162      12.004      11.039      10.229      9.5379    
  8.9334      8.3878      7.8778      7.3846      6.8954      6.4039      5.9099      5.4186      4.9386      4.4801    
  4.0526      3.6643      3.3219      3.0320      2.8021      2.6408      2.5572      2.5589      2.6510      2.8359    
  3.2117      3.5714      4.0398      4.6216      5.3242      6.1555      7.1193      8.2127      9.4249      10.738    
  12.132      13.584      15.072      16.577      18.084      19.584      21.074      22.563      24.070      25.616    
  27.220      28.886      30.592      32.279      33.847      35.169      36.110      36.550      36.408      35.659    
  34.340      32.543      30.398      28.051      25.635      23.266      21.038      19.017      17.243      15.726    
  14.451      13.388      12.498      11.737      11.067      10.451      9.8596      9.2705      8.6700      8.0531    
  7.4223      6.7867      6.1591      5.5544      4.9862      4.4658      4.0017      3.6005      3.2688      3.0150    
  2.8489      2.7801      2.8158      2.9596      3.3225      3.6483      4.0974      4.6729      5.3828      6.2378    
  7.2466      8.4109      9.7233      11.167      12.718      14.353      16.043      17.763      19.487      21.189    
  22.848      24.454      26.010      27.532      29.047      30.578      32.130      33.666      35.119      36.397    
  37.388      37.976      38.063      37.596      36.579      35.068      33.162      30.986      28.678      26.371    
  24.162      22.122      20.298      18.715      17.371      16.244      15.300      14.493      13.777      13.109    
  12.448      11.766      11.045      10.280      9.4781      8.6540      7.8280      7.0226      6.2593      5.5556    
  4.9240      4.3724      3.9063      3.5318      3.2569      3.0913      3.0440      3.1206      3.4656      3.7318    
  4.1385      4.6867      5.3830      6.2389      7.2672      8.4752      9.8604      11.410      13.100      14.906    
  16.796      18.739      20.699      22.635      24.507      26.281      27.937      29.477      30.923      32.307    
  33.632      34.887      36.056      37.102      37.962      38.548      38.768      38.553      37.875      36.756    
  35.256      33.458      31.461      29.374      27.318      25.392      23.647      22.108      20.783      19.659    
  18.710      17.896      17.168      16.475      15.769      15.009      14.170      13.244      12.240      11.182    
  10.099      9.0253      7.9949      7.0360      6.1698      5.4091      4.7600      4.2257      3.8099      3.5189    
  3.3606      3.3417      3.6643      3.8418      4.1787      4.6744      5.3331      6.1651      7.1849      8.4047    
  9.8284      11.449      13.246      15.196      17.267      19.423      21.623      23.812      25.931      27.921    
  29.735      31.353      32.782      34.030      35.080      35.949      36.671      37.277      37.777      38.143    
  38.318      38.240      37.866      37.184      36.213      34.990      33.561      31.984      30.330      28.693    
  27.178      25.830      24.655      23.643      22.774      22.017      21.329      20.657      19.943      19.136    
  18.197      17.110      15.885      14.552      13.152      11.736      10.354      9.0491      7.8583      6.8048    
  5.9000      5.1468      4.5442      4.0916      3.7914      3.6478      3.9429      4.0019      4.2395      4.6543    
  5.2483      6.0294      7.0114      8.2094      9.6331      11.282      13.144      15.197      17.412      19.754    
  22.175      24.616      26.998      29.241      31.269      33.034      34.516      35.668      36.449      36.878    
  37.027      36.997      36.885      36.756      36.628      36.481      36.282      36.000      35.616      35.117    
  34.489      33.721      32.814      31.802      30.752      29.766      28.901      28.147      27.485      26.889    
  26.324      25.742      25.082      24.279      23.278      22.051      20.600      18.959      17.186      15.350    
  13.522      11.768      10.144      8.6901      7.4300      6.3722      5.5138      4.8470      4.3649      4.0638    
  4.3262      4.2364      4.3449      4.6493      5.1498      5.8515      6.7660      7.9085      9.2929      10.925    
  12.801      14.906      17.214      19.694      22.300      24.966      27.605      30.116      32.400      34.375    
  35.986      37.119      37.690      37.694      37.214      36.402      35.446      34.527      33.776      33.264    
  33.006      32.982      33.150      33.450      33.802      34.112      34.294      34.290      34.095      33.762    
  33.392      33.066      32.770      32.481      32.168      31.789      31.280      30.567      29.575      28.254    
  26.591      24.622      22.420      20.081      17.705      15.387      13.206      11.225      9.4866      8.0110    
  6.7998      5.8416      5.1197      4.6183      4.8424      4.5699      4.5197      4.6848      5.0628      5.6563    
  6.4739      7.5290      8.8368      10.408      12.247      14.345      16.686      19.243      21.975      24.819    
  27.682      30.452      33.006      35.238      37.049      38.262      38.728      38.393      37.315      35.666    
  33.706      31.733      30.025      28.788      28.139      28.114      28.680      29.745      31.167      32.761    
  34.330      35.705      36.773      37.503      37.952      38.245      38.492      38.688      38.803      38.795    
  38.596      38.115      37.254      35.928      34.103      31.805      29.124      26.188      23.141      20.119    
  17.238      14.587      12.228      10.199      8.5119      7.1575      6.1130      5.3501      5.5290      5.0296    
  4.7878      4.7855      5.0139      5.4719      6.1646      7.1029      8.3006      9.7712      11.523      13.557    
  15.866      18.430      21.218      24.172      27.204      30.195      33.007      35.513      37.579      38.970    
  39.464      38.934      37.381      34.954      31.946      28.754      25.806      23.481      22.050      21.659    
  22.333      23.987      26.436      29.409      32.586      35.655      38.365      40.567      42.240      43.479    
  44.459      45.329      46.081      46.668      47.006      46.979      46.448      45.285      43.410      40.827    
  37.632      33.997      30.129      26.228      22.466      18.969      15.825      13.088      10.780      8.9001    
  7.4240      6.3144      6.4368      5.6502      5.1749      4.9745      5.0278      5.3258      5.8688      6.6643    
  7.7235      9.0594      10.683      12.602      14.816      17.317      20.084      23.070      26.196      29.347    
  32.378      35.143      37.491      39.141      39.800      39.254      37.421      34.387      30.430      26.001    
  21.659      17.962      15.371      14.194      14.571      16.480      19.738      24.017      28.882      33.859    
  38.520      42.559      45.840      48.403      50.424      52.152      53.751      55.186      56.350      57.082    
  57.184      56.456      54.747      52.009      48.328      43.913      39.054      34.051      29.167      24.595    
  20.460      16.832      13.741      11.188      9.1496      7.5842      7.6303      6.4766      5.7114      5.2752    
  5.1266      5.2425      5.6151      6.2464      7.1443      8.3192      9.7825      11.544      13.611      15.985    
  18.656      21.592      24.730      27.964      31.151      34.136      36.757      38.719      39.660      39.282    
  37.407      34.027      29.356      23.843      18.129      12.928      8.8999      6.5487      6.1777      7.8824    
  11.548      16.850      23.278      30.204      36.999      43.154      48.371      52.596      55.988      58.841    
  61.464      63.985      66.283      68.139      69.269      69.369      68.180      65.558      61.538      56.345    
  50.355      44.005      37.699      31.748      26.348      21.598      17.530      14.138      11.392      9.2444    
  9.1799      7.5624      6.4350      5.7133      5.3305      5.2427      5.4275      5.8784      6.5979      7.5933    
  8.8734      10.449      12.329      14.524      17.035      19.847      22.913      26.147      29.416      32.561    
  35.417      37.707      39.016      38.972      37.301      33.885      28.837      22.548      15.672      9.0312    
  3.4600     -.33601     -1.8627     -.86237      2.6787      8.5143      16.134      24.811      33.724      42.128    
  49.507      55.661      60.698      64.942      68.791      72.563      76.255      79.595      82.194      83.613    
  83.438      81.375      77.349      71.547      64.406      56.513      48.469      40.773      33.753      27.576    
  22.286      17.861      14.247      11.379      11.151      8.9632      7.3884      6.3187      5.6606      5.3437    
  5.3247      5.5830      6.1132      6.9173      8.0010      9.3723      11.042      13.023      15.327      17.952    
  20.874      24.027      27.298      30.534      33.568      36.163      37.891      38.314      37.071      33.940    
  28.909      22.262      14.600      6.7780     -.24390     -5.5800     -8.5422     -8.6897     -5.8408     -.96761E-01
  8.1231      18.085      28.837      39.405      49.014      57.254      64.123      69.944      75.198      80.331    
  85.558      90.647      95.111      98.354      99.773      98.871      95.385      89.385      81.298      71.835    
  61.822      52.016      42.969      34.986      28.161      22.461      17.796      14.060      13.591      10.726    
  8.6125      7.1231      6.1388      5.5611      5.3206      5.3765      5.7107      6.3183      7.2003      8.3613    
  9.8099      11.560      13.627      16.024      18.744      21.747      24.943      28.198      31.347      34.194    
  36.347      37.326      36.701      34.150      29.540      23.015      15.058      6.4803     -1.7082     -8.4878    
 -12.993     -14.600     -12.943     -7.9406     0.15372      10.705      22.738      35.113      46.799      57.120    
  65.892      73.375      80.107      86.657      93.413      100.34      106.91      112.38      115.95      116.88    
  114.65      109.11      100.59      89.826      77.839      65.690      54.242      44.041      35.310      28.041    
  22.104      17.338      16.525      12.878      10.138      8.1545      6.7869      5.9102      5.4262      5.2694    
  5.4038      5.8140      6.4951      7.4473      8.6759      10.192      12.015      14.162      16.643      19.442    
  22.499      25.705      28.906      31.931      34.477      36.053      36.179      34.458      30.641      24.723    
  17.029      8.2433     -.66186     -8.6033     -14.577     -17.786     -17.683     -13.993     -6.7650      3.5519    
  16.079      29.628      42.969      55.153      65.743      74.859      83.029      90.926      99.096      107.72    
  116.40      124.28      130.39      133.74      133.53      129.30      121.14      109.71      96.100      81.660    
  67.616      54.859      43.849      34.681      27.220      21.242      19.949      15.421      11.975      9.4292    
  7.6216      6.4036      5.6499      5.2679      5.1992      5.4138      5.8985      6.6491      7.6669      8.9595    
  10.543      12.438      14.665      17.228      20.096      23.192      26.387      29.521      32.386      34.547    
  35.499      34.785      32.069      27.203      20.333      11.959      2.9201     -5.7293     -12.911     -17.682    
 -19.326     -17.375     -11.662     -2.4073      9.7072      23.576      37.887      51.465      63.596      74.175    
  83.635      92.692      102.03      112.04      122.55      132.74      141.49      147.66      150.17      148.13    
  141.24      130.00      115.52      99.251      82.749      67.316      53.764      42.400      33.155      25.772    
  23.822      18.326      14.108      10.945      8.6480      7.0484      5.9972      5.3750      5.0990      5.1205    
  5.4156      5.9745      6.7947      7.8796      9.2405      10.897      12.874      15.190      17.839      20.779    
  23.914      27.106      30.192      32.872      34.652      35.044      33.641      30.185      24.644      17.304    
  8.7972     0.43941E-01 -7.8961     -13.996     -17.386     -17.417     -13.711     -6.2426      4.5586      17.782    
  32.173      46.439      59.617      71.330      81.821      91.760      101.93      112.88      124.70      136.76    
  147.93      156.97      162.60      163.53      158.93      148.89      134.43      117.16      98.776      80.907    
  64.795      51.073      39.843      30.879      28.057      21.527      16.492      12.675      9.8543      7.8412    
  6.4673      5.5899      5.1014      4.9323      5.0452      5.4232      6.0602      6.9558      8.1166      9.5580    
  11.304      13.379      15.800      18.554      21.585      24.789      28.024      31.109      33.649      35.151    
  35.166      33.349      29.524      23.766      16.459      8.3009     0.22163     -6.7602     -11.679     -13.722    
 -12.309     -7.1729      1.5342      13.170      26.659      40.727      54.255      66.602      77.754      88.230    
  98.811      110.19      122.69      135.95      148.95      160.46      169.12      173.37      171.90      164.22    
  150.94      133.65      114.31      94.674      76.343      60.352      47.086      36.440      32.501      24.916    
  19.050      14.567      11.208      8.7646      7.0510      5.9063      5.2007      4.8437      4.7820      4.9900    
  5.4573      6.1812      7.1643      8.4166      9.9575      11.814      14.015      16.573      19.472      22.647    
  25.990      29.360      32.530      35.057      36.475      36.382      34.497      30.715      25.174      18.305    
  10.809      3.5797     -2.4137     -6.2527     -7.1750     -4.6794      1.3610      10.608      22.253      35.172    
  48.214      60.544      71.874      82.492      93.070      104.36      116.86      130.52      144.55      157.74    
  168.83      176.19      178.18      173.73      162.89      146.86      127.65      107.28      87.458      69.620    