   9   9   0   0
  0.1255774E+02  0.4913700E-09  0.4913700E-09  0.5405130E-09  0.5000000E-15
  1.000000000000000E-004
  CAR 
 unknown system                          
     13.74577443    -20.45204669  301      1.23507154      1.00000000
    -20.452  0.0000E+00  0.0000E+00
    -20.338  0.0000E+00  0.0000E+00
    -20.224  0.0000E+00  0.0000E+00
    -20.110  0.0000E+00  0.0000E+00
    -19.996  0.0000E+00  0.0000E+00
    -19.882  0.0000E+00  0.0000E+00
    -19.768  0.0000E+00  0.0000E+00
    -19.654  0.0000E+00  0.0000E+00
    -19.540  0.0000E+00  0.0000E+00
    -19.426  0.0000E+00  0.0000E+00
    -19.312  0.0000E+00  0.0000E+00
    -19.198  0.0000E+00  0.0000E+00
    -19.084  0.0000E+00  0.0000E+00
    -18.970  0.0000E+00  0.0000E+00
    -18.856  0.0000E+00  0.0000E+00
    -18.742  0.0000E+00  0.0000E+00
    -18.628  0.0000E+00  0.0000E+00
    -18.514  0.0000E+00  0.0000E+00
    -18.400  0.4383E+00  0.7579E-02
    -18.286  0.1764E+01  0.1507E+00
    -18.172  0.3947E+01  0.4389E+00
    -18.058  0.7659E+01  0.1091E+01
    -17.944  0.3594E+01  0.1908E+01
    -17.830  0.0000E+00  0.2000E+01
    -17.716  0.1458E+01  0.2058E+01
    -17.602  0.3214E+01  0.2298E+01
    -17.488  0.6098E+01  0.2802E+01
    -17.374  0.7801E+01  0.3530E+01
    -17.260  0.1050E+01  0.3951E+01
    -17.146  0.0000E+00  0.4000E+01
    -17.032  0.4227E+00  0.4007E+01
    -16.918  0.2384E+01  0.4158E+01
    -16.804  0.7476E+01  0.4795E+01
    -16.690  0.3941E+01  0.5490E+01
    -16.576  0.2641E+01  0.5849E+01
    -16.462  0.6580E+01  0.6180E+01
    -16.348  0.7039E+01  0.7163E+01
    -16.234  0.4660E+01  0.7790E+01
    -16.120  0.1335E+02  0.9172E+01
    -16.006  0.0000E+00  0.1000E+02
    -15.892  0.2996E+02  0.1100E+02
    -15.778  0.0000E+00  0.1200E+02
    -15.664  0.0000E+00  0.1200E+02
    -15.550  0.0000E+00  0.1200E+02
    -15.436  0.0000E+00  0.1200E+02
    -15.322  0.0000E+00  0.1200E+02
    -15.208  0.0000E+00  0.1200E+02
    -15.094  0.0000E+00  0.1200E+02
    -14.980  0.0000E+00  0.1200E+02
    -14.866  0.0000E+00  0.1200E+02
    -14.752  0.0000E+00  0.1200E+02
    -14.638  0.0000E+00  0.1200E+02
    -14.524  0.0000E+00  0.1200E+02
    -14.410  0.0000E+00  0.1200E+02
    -14.296  0.0000E+00  0.1200E+02
    -14.182  0.0000E+00  0.1200E+02
    -14.068  0.0000E+00  0.1200E+02
    -13.954  0.0000E+00  0.1200E+02
    -13.840  0.0000E+00  0.1200E+02
    -13.726  0.0000E+00  0.1200E+02
    -13.612  0.0000E+00  0.1200E+02
    -13.498  0.0000E+00  0.1200E+02
    -13.384  0.0000E+00  0.1200E+02
    -13.271  0.0000E+00  0.1200E+02
    -13.157  0.0000E+00  0.1200E+02
    -13.043  0.0000E+00  0.1200E+02
    -12.929  0.0000E+00  0.1200E+02
    -12.815  0.0000E+00  0.1200E+02
    -12.701  0.0000E+00  0.1200E+02
    -12.587  0.0000E+00  0.1200E+02
    -12.473  0.0000E+00  0.1200E+02
    -12.359  0.0000E+00  0.1200E+02
    -12.245  0.0000E+00  0.1200E+02
    -12.131  0.0000E+00  0.1200E+02
    -12.017  0.0000E+00  0.1200E+02
    -11.903  0.0000E+00  0.1200E+02
    -11.789  0.0000E+00  0.1200E+02
    -11.675  0.0000E+00  0.1200E+02
    -11.561  0.0000E+00  0.1200E+02
    -11.447  0.0000E+00  0.1200E+02
    -11.333  0.0000E+00  0.1200E+02
    -11.219  0.0000E+00  0.1200E+02
    -11.105  0.0000E+00  0.1200E+02
    -10.991  0.0000E+00  0.1200E+02
    -10.877  0.0000E+00  0.1200E+02
    -10.763  0.0000E+00  0.1200E+02
    -10.649  0.0000E+00  0.1200E+02
    -10.535  0.0000E+00  0.1200E+02
    -10.421  0.0000E+00  0.1200E+02
    -10.307  0.0000E+00  0.1200E+02
    -10.193  0.0000E+00  0.1200E+02
    -10.079  0.0000E+00  0.1200E+02
     -9.965  0.0000E+00  0.1200E+02
     -9.851  0.0000E+00  0.1200E+02
     -9.737  0.0000E+00  0.1200E+02
     -9.623  0.0000E+00  0.1200E+02
     -9.509  0.0000E+00  0.1200E+02
     -9.395  0.0000E+00  0.1200E+02
     -9.281  0.0000E+00  0.1200E+02
     -9.167  0.0000E+00  0.1200E+02
     -9.053  0.0000E+00  0.1200E+02
     -8.939  0.0000E+00  0.1200E+02
     -8.825  0.0000E+00  0.1200E+02
     -8.711  0.0000E+00  0.1200E+02
     -8.597  0.0000E+00  0.1200E+02
     -8.483  0.0000E+00  0.1200E+02
     -8.369  0.0000E+00  0.1200E+02
     -8.255  0.0000E+00  0.1200E+02
     -8.141  0.2117E+00  0.1201E+02
     -8.027  0.4057E+00  0.1205E+02
     -7.913  0.6125E+00  0.1211E+02
     -7.799  0.8343E+00  0.1219E+02
     -7.685  0.1139E+01  0.1230E+02
     -7.571  0.1565E+01  0.1245E+02
     -7.457  0.2597E+01  0.1268E+02
     -7.343  0.7681E+01  0.1326E+02
     -7.229  0.2230E+01  0.1380E+02
     -7.115  0.5671E+00  0.1395E+02
     -7.001  0.2450E+00  0.1399E+02
     -6.887  0.1923E+00  0.1402E+02
     -6.773  0.3148E+00  0.1405E+02
     -6.659  0.5117E+00  0.1409E+02
     -6.545  0.1007E+01  0.1418E+02
     -6.431  0.1735E+01  0.1433E+02
     -6.317  0.3076E+01  0.1460E+02
     -6.203  0.4669E+01  0.1504E+02
     -6.089  0.2435E+01  0.1551E+02
     -5.975  0.1400E+01  0.1572E+02
     -5.861  0.8525E+00  0.1584E+02
     -5.747  0.6167E+00  0.1593E+02
     -5.633  0.3727E+00  0.1599E+02
     -5.519  0.1081E+00  0.1600E+02
     -5.405  0.1641E+01  0.1609E+02
     -5.291  0.3376E+01  0.1639E+02
     -5.177  0.3177E+01  0.1677E+02
     -5.063  0.2960E+01  0.1711E+02
     -4.949  0.2456E+01  0.1743E+02
     -4.835  0.1689E+01  0.1765E+02
     -4.721  0.1347E+01  0.1783E+02
     -4.607  0.9194E+00  0.1796E+02
     -4.493  0.1555E+01  0.1802E+02
     -4.379  0.1158E+02  0.1889E+02
     -4.265  0.5287E+01  0.1982E+02
     -4.151  0.8019E+01  0.2044E+02
     -4.037  0.7113E+01  0.2139E+02
     -3.923  0.3377E+01  0.2202E+02
     -3.809  0.5537E+01  0.2233E+02
     -3.695  0.7225E+01  0.2325E+02
     -3.581  0.2896E+01  0.2380E+02
     -3.467  0.2737E+00  0.2400E+02
     -3.353  0.0000E+00  0.2400E+02
     -3.239  0.0000E+00  0.2400E+02
     -3.125  0.0000E+00  0.2400E+02
     -3.011  0.0000E+00  0.2400E+02
     -2.897  0.0000E+00  0.2400E+02
     -2.783  0.0000E+00  0.2400E+02
     -2.669  0.0000E+00  0.2400E+02
     -2.555  0.0000E+00  0.2400E+02
     -2.441  0.0000E+00  0.2400E+02
     -2.327  0.0000E+00  0.2400E+02
     -2.213  0.7856E+01  0.2410E+02
     -2.099  0.1197E+02  0.2539E+02
     -1.985  0.8200E+01  0.2628E+02
     -1.871  0.5297E+01  0.2706E+02
     -1.757  0.4227E+01  0.2775E+02
     -1.643  0.3299E+01  0.2809E+02
     -1.529  0.1098E+02  0.2904E+02
     -1.415  0.4077E+01  0.2988E+02
     -1.301  0.3165E+01  0.3007E+02
     -1.187  0.1276E+02  0.3109E+02
     -1.073  0.1133E+01  0.3196E+02
     -0.959  0.1616E+02  0.3246E+02
     -0.845  0.1355E+01  0.3387E+02
     -0.731  0.4425E+01  0.3408E+02
     -0.617  0.7612E+01  0.3481E+02
     -0.503  0.9393E+01  0.3592E+02
     -0.389  0.1258E+02  0.3698E+02
     -0.275  0.5013E+01  0.3778E+02
     -0.161  0.9357E+01  0.3849E+02
     -0.047  0.8099E+01  0.3954E+02
      0.067  0.5675E+01  0.4016E+02
      0.181  0.1529E+02  0.4120E+02
      0.295  0.8371E+00  0.4200E+02
      0.409  0.1279E+02  0.4257E+02
      0.523  0.3372E+01  0.4373E+02
      0.637  0.4494E+01  0.4408E+02
      0.751  0.6510E+01  0.4467E+02
      0.865  0.8142E+01  0.4589E+02
      0.979  0.7052E+01  0.4657E+02
      1.093  0.5537E+01  0.4773E+02
      1.207  0.0000E+00  0.4800E+02
      1.321  0.0000E+00  0.4800E+02
      1.435  0.0000E+00  0.4800E+02
      1.549  0.0000E+00  0.4800E+02
      1.663  0.0000E+00  0.4800E+02
      1.777  0.0000E+00  0.4800E+02
      1.891  0.0000E+00  0.4800E+02
      2.005  0.0000E+00  0.4800E+02
      2.119  0.0000E+00  0.4800E+02
      2.233  0.0000E+00  0.4800E+02
      2.347  0.0000E+00  0.4800E+02
      2.460  0.0000E+00  0.4800E+02
      2.574  0.0000E+00  0.4800E+02
      2.688  0.0000E+00  0.4800E+02
      2.802  0.0000E+00  0.4800E+02
      2.916  0.0000E+00  0.4800E+02
      3.030  0.0000E+00  0.4800E+02
      3.144  0.0000E+00  0.4800E+02
      3.258  0.0000E+00  0.4800E+02
      3.372  0.0000E+00  0.4800E+02
      3.486  0.0000E+00  0.4800E+02
      3.600  0.0000E+00  0.4800E+02
      3.714  0.0000E+00  0.4800E+02
      3.828  0.0000E+00  0.4800E+02
      3.942  0.0000E+00  0.4800E+02
      4.056  0.0000E+00  0.4800E+02
      4.170  0.0000E+00  0.4800E+02
      4.284  0.0000E+00  0.4800E+02
      4.398  0.0000E+00  0.4800E+02
      4.512  0.0000E+00  0.4800E+02
      4.626  0.0000E+00  0.4800E+02
      4.740  0.0000E+00  0.4800E+02
      4.854  0.0000E+00  0.4800E+02
      4.968  0.0000E+00  0.4800E+02
      5.082  0.0000E+00  0.4800E+02
      5.196  0.0000E+00  0.4800E+02
      5.310  0.0000E+00  0.4800E+02
      5.424  0.0000E+00  0.4800E+02
      5.538  0.0000E+00  0.4800E+02
      5.652  0.0000E+00  0.4800E+02
      5.766  0.0000E+00  0.4800E+02
      5.880  0.0000E+00  0.4800E+02
      5.994  0.0000E+00  0.4800E+02
      6.108  0.0000E+00  0.4800E+02
      6.222  0.0000E+00  0.4800E+02
      6.336  0.0000E+00  0.4800E+02
      6.450  0.0000E+00  0.4800E+02
      6.564  0.0000E+00  0.4800E+02
      6.678  0.0000E+00  0.4800E+02
      6.792  0.0000E+00  0.4800E+02
      6.906  0.0000E+00  0.4800E+02
      7.020  0.0000E+00  0.4800E+02
      7.134  0.1269E-02  0.4800E+02
      7.248  0.2255E-01  0.4800E+02
      7.362  0.7007E-01  0.4801E+02
      7.476  0.1438E+00  0.4802E+02
      7.590  0.2212E+00  0.4804E+02
      7.704  0.2626E+00  0.4807E+02
      7.818  0.2861E+00  0.4810E+02
      7.932  0.3180E+00  0.4813E+02
      8.046  0.3648E+00  0.4817E+02
      8.160  0.4142E+00  0.4822E+02
      8.274  0.4662E+00  0.4827E+02
      8.388  0.5205E+00  0.4832E+02
      8.502  0.6046E+00  0.4839E+02
      8.616  0.7626E+00  0.4846E+02
      8.730  0.8681E+00  0.4856E+02
      8.844  0.8612E+00  0.4865E+02
      8.958  0.9242E+00  0.4876E+02
      9.072  0.9895E+00  0.4886E+02
      9.186  0.1057E+01  0.4898E+02
      9.300  0.1505E+01  0.4912E+02
      9.414  0.1554E+01  0.4930E+02
      9.528  0.1301E+01  0.4946E+02
      9.642  0.1291E+01  0.4960E+02
      9.756  0.1508E+01  0.4976E+02
      9.870  0.2056E+01  0.4995E+02
      9.984  0.1157E+01  0.5013E+02
     10.098  0.1139E+01  0.5025E+02
     10.212  0.3152E+01  0.5047E+02
     10.326  0.1019E+02  0.5120E+02
     10.440  0.4139E+01  0.5201E+02
     10.554  0.6083E+01  0.5255E+02
     10.668  0.7683E+01  0.5346E+02
     10.782  0.4801E+01  0.5416E+02
     10.896  0.2285E+01  0.5449E+02
     11.010  0.4413E+01  0.5483E+02
     11.124  0.6578E+01  0.5551E+02
     11.238  0.3252E+01  0.5606E+02
     11.352  0.5751E+01  0.5657E+02
     11.466  0.7271E+01  0.5737E+02
     11.580  0.1822E+01  0.5794E+02
     11.694  0.6355E-01  0.5800E+02
     11.808  0.0000E+00  0.5800E+02
     11.922  0.0000E+00  0.5800E+02
     12.036  0.0000E+00  0.5800E+02
     12.150  0.0000E+00  0.5800E+02
     12.264  0.0000E+00  0.5800E+02
     12.378  0.0000E+00  0.5800E+02
     12.492  0.0000E+00  0.5800E+02
     12.606  0.0000E+00  0.5800E+02
     12.720  0.0000E+00  0.5800E+02
     12.834  0.0000E+00  0.5800E+02
     12.948  0.0000E+00  0.5800E+02
     13.062  0.0000E+00  0.5800E+02
     13.176  0.0000E+00  0.5800E+02
     13.290  0.0000E+00  0.5800E+02
     13.404  0.0000E+00  0.5800E+02
     13.518  0.0000E+00  0.5800E+02
     13.632  0.0000E+00  0.5800E+02
     13.746  0.0000E+00  0.5800E+02
