unknown system                          
   1.00000000000000     
     2.573869    0.000000    0.000000
     1.286934    2.229036    0.000000
     0.000000    0.000000   30.304665
   Cu   H 
     4     1
Direct
  0.000000  0.000000  0.395979
  0.333333  0.333333  0.465326
  0.666667  0.666667  0.534674
  0.000000  0.000000  0.604021
  0.294481  0.333333  0.637020
 
   20   20  240
 -.76754E-02 -.69927E-02 -.52787E-02 -.29677E-02 -.66863E-03 0.97098E-03 0.14592E-02 0.69704E-03 -.87352E-03 -.23924E-02
 -.30104E-02 -.23876E-02 -.90462E-03 0.57688E-03 0.12197E-02 0.62430E-03 -.10717E-02 -.33567E-02 -.55838E-02 -.71599E-02
 -.70267E-02 -.58318E-02 -.38074E-02 -.15035E-02 0.35778E-03 0.10774E-02 0.28550E-03 -.17698E-02 -.41891E-02 -.57966E-02
 -.57771E-02 -.41624E-02 -.18104E-02 0.11074E-03 0.75448E-03 -.62862E-04 -.19332E-02 -.41615E-02 -.60572E-02 -.71032E-02
 -.53422E-02 -.38339E-02 -.18338E-02 -.10691E-03 0.37872E-03 -.11458E-02 -.47145E-02 -.93223E-02 -.13204E-01 -.14682E-01
 -.13105E-01 -.92209E-02 -.47369E-02 -.13630E-02 -.62566E-05 -.55769E-03 -.22364E-02 -.41156E-02 -.54814E-02 -.59328E-02
 -.30386E-02 -.15328E-02 -.11115E-03 0.83425E-04 -.21878E-02 -.74946E-02 -.15017E-01 -.22491E-01 -.27119E-01 -.27007E-01
 -.22236E-01 -.14802E-01 -.74848E-02 -.24269E-02 -.31942E-03 -.53490E-03 -.18640E-02 -.32327E-02 -.40109E-02 -.39491E-02
 -.71850E-03 0.34747E-03 0.38163E-03 -.21926E-02 -.86116E-02 -.18669E-01 -.30113E-01 -.39244E-01 -.42624E-01 -.38924E-01
 -.29663E-01 -.18341E-01 -.85664E-02 -.24227E-02 0.12939E-04 -.16330E-05 -.95533E-03 -.18079E-02 -.20952E-02 -.16979E-02
 0.95669E-03 0.10849E-02 -.11549E-02 -.75402E-02 -.18725E-01 -.33104E-01 -.46782E-01 -.55074E-01 -.54844E-01 -.46211E-01
 -.32478E-01 -.18318E-01 -.74707E-02 -.13540E-02 0.78617E-03 0.70535E-03 -.23400E-04 -.52208E-03 -.47833E-03 0.12066E-03
 0.14694E-02 0.27992E-03 -.47823E-02 -.15160E-01 -.30288E-01 -.46907E-01 -.59924E-01 -.64693E-01 -.59415E-01 -.46126E-01
 -.29568E-01 -.14744E-01 -.47176E-02 0.11736E-03 0.12537E-02 0.67776E-03 -.13396E-03 -.44993E-03 -.64328E-04 0.83286E-03
 0.70067E-03 -.18308E-02 -.94928E-02 -.22769E-01 -.39565E-01 -.55346E-01 -.64837E-01 -.64554E-01 -.54624E-01 -.38709E-01
 -.22090E-01 -.91525E-02 -.17972E-02 0.57725E-03 -.56462E-04 -.16386E-02 -.27500E-02 -.27271E-02 -.15598E-02 0.78313E-04
 -.90572E-03 -.43273E-02 -.13480E-01 -.27510E-01 -.43053E-01 -.55213E-01 -.59655E-01 -.54723E-01 -.42283E-01 -.26757E-01
 -.12966E-01 -.41112E-02 -.90431E-03 -.19927E-02 -.50649E-02 -.79027E-02 -.90110E-02 -.78677E-02 -.49915E-02 -.19105E-02
 -.24658E-02 -.59908E-02 -.15010E-01 -.27429E-01 -.39361E-01 -.46578E-01 -.46370E-01 -.38831E-01 -.26793E-01 -.14486E-01
 -.56886E-02 -.23703E-02 -.42901E-02 -.94728E-02 -.15143E-01 -.18733E-01 -.18720E-01 -.15103E-01 -.94183E-02 -.42670E-02
 -.30997E-02 -.59683E-02 -.13394E-01 -.22580E-01 -.29997E-01 -.32743E-01 -.29737E-01 -.22172E-01 -.12993E-01 -.56925E-02
 -.29814E-02 -.58426E-02 -.13216E-01 -.22353E-01 -.29785E-01 -.32629E-01 -.29765E-01 -.22313E-01 -.13172E-01 -.58461E-02
 -.24511E-02 -.42855E-02 -.93918E-02 -.14989E-01 -.18506E-01 -.18434E-01 -.14806E-01 -.91740E-02 -.41129E-02 -.23677E-02
 -.58417E-02 -.14689E-01 -.26888E-01 -.38676E-01 -.45918E-01 -.45908E-01 -.38644E-01 -.26839E-01 -.14644E-01 -.58415E-02
 -.90947E-03 -.18292E-02 -.47610E-02 -.75018E-02 -.85671E-02 -.74542E-02 -.46914E-02 -.17721E-02 -.88789E-03 -.42836E-02
 -.13216E-01 -.26890E-01 -.42098E-01 -.54110E-01 -.58674E-01 -.54083E-01 -.42051E-01 -.26837E-01 -.13172E-01 -.42666E-02
 0.63478E-03 0.18645E-03 -.12701E-02 -.23226E-02 -.23175E-02 -.12603E-02 0.18968E-03 0.62409E-03 -.19692E-02 -.94664E-02
 -.22356E-01 -.38682E-01 -.54114E-01 -.63548E-01 -.63534E-01 -.54076E-01 -.38635E-01 -.22313E-01 -.94310E-02 -.19446E-02
 0.13163E-02 0.88183E-03 0.14308E-03 -.16370E-03 0.15711E-03 0.90444E-03 0.13391E-02 -.31962E-05 -.50386E-02 -.15136E-01
 -.29791E-01 -.45930E-01 -.58685E-01 -.63539E-01 -.58660E-01 -.45892E-01 -.29757E-01 -.15117E-01 -.50379E-02 -.17715E-04
 0.72554E-03 0.69732E-04 -.40445E-03 -.37749E-03 0.14271E-03 0.82394E-03 0.76496E-03 -.15827E-02 -.78747E-02 -.18728E-01
 -.32640E-01 -.45927E-01 -.54101E-01 -.54088E-01 -.45897E-01 -.32614E-01 -.18727E-01 -.79120E-02 -.16572E-02 0.66697E-03
 -.98896E-03 -.18211E-02 -.21018E-02 -.17197E-02 -.81715E-03 0.94415E-04 -.45848E-04 -.26950E-02 -.89875E-02 -.18722E-01
 -.29784E-01 -.38669E-01 -.42075E-01 -.38653E-01 -.29768E-01 -.18733E-01 -.90484E-02 -.28158E-02 -.21798E-03 -.10008E-03
 -.32970E-02 -.40717E-02 -.39972E-02 -.30963E-02 -.16717E-02 -.40602E-03 -.36880E-03 -.26857E-02 -.78607E-02 -.15119E-01
 -.22339E-01 -.26866E-01 -.26863E-01 -.22336E-01 -.15138E-01 -.79294E-02 -.28262E-02 -.58567E-03 -.67540E-03 -.19407E-02
 -.55419E-02 -.59825E-02 -.53730E-02 -.38815E-02 -.19685E-02 -.37966E-03 -.89130E-05 -.15465E-02 -.50056E-02 -.94411E-02
 -.13192E-01 -.14661E-01 -.13194E-01 -.94626E-02 -.50770E-02 -.16951E-02 -.24607E-03 -.68981E-03 -.23044E-02 -.41712E-02
 -.71347E-02 -.70435E-02 -.58398E-02 -.38403E-02 -.16017E-02 0.17998E-03 0.84909E-03 0.66150E-04 -.19258E-02 -.42669E-02
 -.58307E-02 -.58286E-02 -.42773E-02 -.19875E-02 -.82825E-04 0.59973E-03 -.15311E-03 -.19747E-02 -.41884E-02 -.60896E-02
 0.21168E-03 0.19126E-03 0.17383E-03 0.15673E-03 0.14091E-03 0.13015E-03 0.12674E-03 0.12881E-03 0.13183E-03 0.13223E-03
 0.13009E-03 0.12956E-03 0.13730E-03 0.15887E-03 0.19390E-03 0.23348E-03 0.26337E-03 0.27257E-03 0.26052E-03 0.23650E-03
 0.19833E-03 0.20178E-03 0.21306E-03 0.20071E-03 0.14497E-03 0.47605E-04 -.72836E-04 -.19257E-03 -.29048E-03 -.34895E-03
 -.35260E-03 -.29141E-03 -.16825E-03 -.49146E-05 0.16042E-03 0.28584E-03 0.34338E-03 0.33243E-03 0.27991E-03 0.22539E-03
 0.18557E-03 0.21693E-03 0.22902E-03 0.17106E-03 0.19531E-04 -.21164E-03 -.47869E-03 -.72524E-03 -.89889E-03 -.96138E-03
 -.89389E-03 -.70154E-03 -.41801E-03 -.10426E-03 0.16573E-03 0.33172E-03 0.37396E-03 0.32252E-03 0.23998E-03 0.18616E-03
 0.16780E-03 0.20283E-03 0.16890E-03 0.10665E-04 -.28550E-03 -.68405E-03 -.11084E-02 -.14626E-02 -.16600E-02 -.16501E-02
 -.14315E-02 -.10507E-02 -.59062E-03 -.15260E-03 0.17084E-03 0.32797E-03 0.33019E-03 0.24581E-03 0.16208E-03 0.13647E-03
 0.14456E-03 0.13984E-03 0.10748E-04 -.29185E-03 -.76371E-03 -.13384E-02 -.18969E-02 -.23002E-02 -.24382E-02 -.22710E-02
 -.18416E-02 -.12569E-02 -.65177E-03 -.15096E-03 0.16380E-03 0.27705E-03 0.24217E-03 0.15357E-03 0.96942E-04 0.10492E-03
 0.12259E-03 0.33694E-04 -.22702E-03 -.69666E-03 -.13456E-02 -.20654E-02 -.26890E-02 -.30453E-02 -.30283E-02 -.26421E-02
 -.19957E-02 -.12557E-02 -.58608E-03 -.10112E-03 0.15840E-03 0.22479E-03 0.18065E-03 0.11828E-03 0.96600E-04 0.11608E-03
 0.11076E-03 -.91321E-04 -.49652E-03 -.11245E-02 -.19103E-02 -.26973E-02 -.32796E-02 -.34836E-02 -.32455E-02 -.26395E-02
 -.18404E-02 -.10475E-02 -.41238E-03 -.27818E-05 0.19408E-03 0.24267E-03 0.22247E-03 0.19580E-03 0.18736E-03 0.17795E-03
 0.11282E-03 -.20789E-03 -.74032E-03 -.14796E-02 -.23190E-02 -.30617E-02 -.34925E-02 -.34755E-02 -.30186E-02 -.22671E-02
 -.14318E-02 -.69766E-03 -.16423E-03 0.16087E-03 0.32673E-03 0.39469E-03 0.41033E-03 0.39711E-03 0.35918E-03 0.27938E-03
 0.12442E-03 -.29636E-03 -.90826E-03 -.16771E-02 -.24617E-02 -.30512E-02 -.32607E-02 -.30243E-02 -.24262E-02 -.16522E-02
 -.89734E-03 -.28854E-03 0.14050E-03 0.42070E-03 0.59807E-03 0.69903E-03 0.72775E-03 0.68378E-03 0.57302E-03 0.39575E-03
 0.13608E-03 -.34523E-03 -.96643E-03 -.16684E-02 -.22983E-02 -.26688E-02 -.26571E-02 -.22742E-02 -.16530E-02 -.96968E-03
 -.35771E-03 0.13037E-03 0.50459E-03 0.79140E-03 0.99829E-03 0.11091E-02 0.11048E-02 0.98634E-03 0.77699E-03 0.49717E-03
 0.13988E-03 -.34639E-03 -.90062E-03 -.14538E-02 -.18727E-02 -.20244E-02 -.18585E-02 -.14384E-02 -.89715E-03 -.35612E-03
 0.12684E-03 0.55040E-03 0.92566E-03 0.12404E-02 0.14560E-02 0.15313E-02 0.14500E-02 0.12322E-02 0.92200E-03 0.55628E-03
 0.13506E-03 -.29381E-03 -.71863E-03 -.10817E-02 -.12933E-02 -.12868E-02 -.10666E-02 -.70483E-03 -.28826E-03 0.13288E-03
 0.55190E-03 0.97170E-03 0.13691E-02 0.16891E-02 0.18687E-02 0.18675E-02 0.16864E-02 0.13675E-02 0.97355E-03 0.55631E-03
 0.12934E-03 -.18838E-03 -.45244E-03 -.63455E-03 -.69558E-03 -.62067E-03 -.43347E-03 -.17306E-03 0.13937E-03 0.50625E-03
 0.92690E-03 0.13691E-02 0.17675E-02 0.20468E-02 0.21489E-02 0.20501E-02 0.17693E-02 0.13659E-02 0.92002E-03 0.49834E-03
 0.13414E-03 -.44656E-04 -.15659E-03 -.20931E-03 -.20193E-03 -.13902E-03 -.25540E-04 0.15064E-03 0.41800E-03 0.79132E-03
 0.12399E-02 0.16877E-02 0.20456E-02 0.22445E-02 0.22472E-02 0.20495E-02 0.16852E-02 0.12289E-02 0.77613E-03 0.40257E-03
 0.15622E-03 0.10746E-03 0.10272E-03 0.10742E-03 0.10968E-03 0.11948E-03 0.17111E-03 0.31634E-03 0.59492E-03 0.99733E-03
 0.14542E-02 0.18660E-02 0.21467E-02 0.22465E-02 0.21488E-02 0.18663E-02 0.14488E-02 0.98555E-03 0.57943E-03 0.30018E-03
 0.19129E-03 0.23057E-03 0.26919E-03 0.26699E-03 0.22588E-03 0.18824E-03 0.22131E-03 0.38559E-03 0.69724E-03 0.11095E-02
 0.15307E-02 0.18656E-02 0.20485E-02 0.20495E-02 0.18674E-02 0.15304E-02 0.11054E-02 0.69041E-03 0.37968E-03 0.21968E-03
 0.22541E-03 0.29540E-03 0.32077E-03 0.27856E-03 0.19865E-03 0.14954E-03 0.20496E-03 0.40450E-03 0.72934E-03 0.11087E-02
 0.14527E-02 0.16870E-02 0.17694E-02 0.16869E-02 0.14523E-02 0.11087E-02 0.73241E-03 0.41462E-03 0.22457E-03 0.17646E-03
 0.24425E-03 0.29616E-03 0.28162E-03 0.20538E-03 0.11943E-03 0.95039E-04 0.18512E-03 0.39714E-03 0.68998E-03 0.99354E-03
 0.12369E-02 0.13693E-02 0.13671E-02 0.12325E-02 0.99264E-03 0.69911E-03 0.42097E-03 0.22447E-03 0.14542E-03 0.17078E-03
 0.24298E-03 0.25507E-03 0.21005E-03 0.13165E-03 0.72392E-04 0.83227E-04 0.18631E-03 0.36671E-03 0.58280E-03 0.78373E-03
 0.92396E-03 0.97286E-03 0.92099E-03 0.78262E-03 0.59238E-03 0.39636E-03 0.23981E-03 0.15434E-03 0.14629E-03 0.19141E-03
 0.22843E-03 0.21005E-03 0.16552E-03 0.11543E-03 0.90579E-04 0.11368E-03 0.18691E-03 0.29306E-03 0.40578E-03 0.49892E-03
 0.55144E-03 0.55130E-03 0.50028E-03 0.41552E-03 0.32330E-03 0.24780E-03 0.20266E-03 0.18956E-03 0.20057E-03 0.22013E-03
 0.80500E-02 0.73679E-02 0.56560E-02 0.33483E-02 0.10514E-02 -.59001E-03 -.10860E-02 -.33636E-03 0.12201E-02 0.27272E-02
 0.33394E-02 0.27191E-02 0.12469E-02 -.21875E-03 -.84646E-03 -.24192E-03 0.14558E-02 0.37378E-02 0.59612E-02 0.75351E-02
 0.74021E-02 0.62064E-02 0.41865E-02 0.18871E-02 0.24238E-04 -.70361E-03 0.78890E-04 0.21272E-02 0.45398E-02 0.61382E-02
 0.61114E-02 0.44992E-02 0.21617E-02 0.25918E-03 -.37254E-03 0.44698E-03 0.23152E-02 0.45428E-02 0.64388E-02 0.74825E-02
 0.57200E-02 0.42132E-02 0.22166E-02 0.48983E-03 -.28672E-05 0.15105E-02 0.50711E-02 0.96769E-02 0.13558E-01 0.15034E-01
 0.13453E-01 0.95707E-02 0.50961E-02 0.17345E-02 0.38545E-03 0.93803E-03 0.26154E-02 0.44945E-02 0.58609E-02 0.63116E-02
 0.34207E-02 0.19182E-02 0.49494E-03 0.29452E-03 0.25578E-02 0.78564E-02 0.15372E-01 0.22843E-01 0.27471E-01 0.27362E-01
 0.22594E-01 0.15162E-01 0.78472E-02 0.27945E-02 0.69385E-03 0.91421E-03 0.22433E-02 0.36088E-02 0.43852E-02 0.43261E-02
 0.11041E-02 0.38009E-04 -.36684E-05 0.25631E-02 0.89786E-02 0.19032E-01 0.30467E-01 0.39587E-01 0.42965E-01 0.39273E-01
 0.30022E-01 0.18704E-01 0.89297E-02 0.27893E-02 0.36301E-03 0.38528E-03 0.13376E-02 0.21830E-02 0.24675E-02 0.20760E-02
 -.57319E-03 -.70735E-03 0.15222E-02 0.79028E-02 0.19088E-01 0.33462E-01 0.47125E-01 0.55402E-01 0.55171E-01 0.46553E-01
 0.32835E-01 0.18681E-01 0.78337E-02 0.17219E-02 -.40718E-03 -.31915E-03 0.40599E-03 0.89658E-03 0.85153E-03 0.25900E-03
 -.10955E-02 0.86043E-04 0.51403E-02 0.15515E-01 0.30642E-01 0.47251E-01 0.60250E-01 0.65007E-01 0.59737E-01 0.46468E-01
 0.29926E-01 0.15104E-01 0.50762E-02 0.24579E-03 -.88022E-03 -.29854E-03 0.50962E-03 0.81967E-03 0.43426E-03 -.45856E-03
 -.34121E-03 0.21869E-02 0.98464E-02 0.23120E-01 0.39910E-01 0.55676E-01 0.65153E-01 0.64869E-01 0.54953E-01 0.39057E-01
 0.22446E-01 0.95062E-02 0.21460E-02 -.22594E-03 0.41590E-03 0.20033E-02 0.31132E-02 0.30868E-02 0.19189E-02 0.28207E-03
 0.12513E-02 0.46760E-02 0.13832E-01 0.27861E-01 0.43395E-01 0.55542E-01 0.59978E-01 0.55053E-01 0.42626E-01 0.27107E-01
 0.13315E-01 0.44542E-02 0.12440E-02 0.23354E-02 0.54133E-02 0.82546E-02 0.93629E-02 0.82175E-02 0.53388E-02 0.22559E-02
 0.28017E-02 0.63326E-02 0.15361E-01 0.27783E-01 0.39708E-01 0.46918E-01 0.46712E-01 0.39180E-01 0.27146E-01 0.14832E-01
 0.60264E-02 0.27049E-02 0.46292E-02 0.98181E-02 0.15490E-01 0.19079E-01 0.19066E-01 0.15450E-01 0.97619E-02 0.46049E-02
 0.34314E-02 0.63055E-02 0.13743E-01 0.22937E-01 0.30353E-01 0.33097E-01 0.30093E-01 0.22530E-01 0.13345E-01 0.60326E-02
 0.33132E-02 0.61783E-02 0.13562E-01 0.22705E-01 0.30133E-01 0.32973E-01 0.30111E-01 0.22664E-01 0.13520E-01 0.61840E-02
 0.27846E-02 0.46256E-02 0.97445E-02 0.15350E-01 0.18867E-01 0.18794E-01 0.15165E-01 0.95287E-02 0.44590E-02 0.27056E-02
 0.61793E-02 0.15034E-01 0.27238E-01 0.39022E-01 0.46257E-01 0.46247E-01 0.38992E-01 0.27194E-01 0.14995E-01 0.61809E-02
 0.12520E-02 0.21822E-02 0.51228E-02 0.78660E-02 0.89304E-02 0.78161E-02 0.50494E-02 0.21217E-02 0.12296E-02 0.46252E-02
 0.13564E-01 0.27241E-01 0.42439E-01 0.54436E-01 0.58995E-01 0.54415E-01 0.42399E-01 0.27190E-01 0.13519E-01 0.46066E-02
 -.27709E-03 0.18377E-03 0.16426E-02 0.26912E-02 0.26848E-02 0.16287E-02 0.17403E-03 -.27230E-03 0.23122E-02 0.98119E-02
 0.22708E-01 0.39029E-01 0.54441E-01 0.63858E-01 0.63845E-01 0.54406E-01 0.38981E-01 0.22660E-01 0.97729E-02 0.22890E-02
 -.94244E-03 -.49917E-03 0.23617E-03 0.53752E-03 0.21817E-03 -.52566E-03 -.96565E-03 0.36237E-03 0.53862E-02 0.15483E-01
 0.30139E-01 0.46269E-01 0.59006E-01 0.63851E-01 0.58979E-01 0.46228E-01 0.30103E-01 0.15462E-01 0.53833E-02 0.37447E-03
 -.34115E-03 0.31640E-03 0.78518E-03 0.75557E-03 0.23908E-03 -.43943E-03 -.38713E-03 0.19462E-02 0.82259E-02 0.19074E-01
 0.32984E-01 0.46264E-01 0.54431E-01 0.54417E-01 0.46234E-01 0.32960E-01 0.19077E-01 0.82633E-02 0.20158E-02 -.29444E-03
 0.13751E-02 0.22054E-02 0.24818E-02 0.20987E-02 0.11985E-02 0.28675E-03 0.41974E-03 0.30569E-02 0.93394E-02 0.19070E-01
 0.30131E-01 0.39016E-01 0.42420E-01 0.38997E-01 0.30115E-01 0.19084E-01 0.94040E-02 0.31777E-02 0.58940E-03 0.48139E-03
 0.36791E-02 0.44541E-02 0.43770E-02 0.34734E-02 0.20479E-02 0.78108E-03 0.73806E-03 0.30447E-02 0.82109E-02 0.15467E-01
 0.22691E-01 0.27220E-01 0.27214E-01 0.22682E-01 0.15485E-01 0.82838E-02 0.31903E-02 0.95675E-03 0.10507E-02 0.23197E-02
 0.59191E-02 0.63639E-02 0.57527E-02 0.42568E-02 0.23426E-02 0.75456E-03 0.37976E-03 0.19059E-02 0.53533E-02 0.97856E-02
 0.13541E-01 0.15012E-01 0.13539E-01 0.98039E-02 0.54236E-02 0.20561E-02 0.61965E-03 0.10661E-02 0.26771E-02 0.45435E-02
 0.75096E-02 0.74224E-02 0.62182E-02 0.42169E-02 0.19796E-02 0.19988E-03 -.47402E-03 0.29518E-03 0.22716E-02 0.46042E-02
 0.61676E-02 0.61673E-02 0.46172E-02 0.23322E-02 0.43985E-03 -.22719E-03 0.53442E-03 0.23538E-02 0.45609E-02 0.64603E-02
 0.43871E-04 0.77956E-04 0.13108E-03 0.18015E-03 0.20729E-03 0.21328E-03 0.21381E-03 0.22386E-03 0.24549E-03 0.26837E-03
 0.27887E-03 0.26860E-03 0.23791E-03 0.19523E-03 0.15287E-03 0.12007E-03 0.97058E-04 0.76786E-04 0.54987E-04 0.38948E-04
 0.72079E-04 0.89819E-04 0.11157E-03 0.14415E-03 0.20074E-03 0.29755E-03 0.43906E-03 0.60501E-03 0.75377E-03 0.84104E-03
 0.83906E-03 0.74508E-03 0.57991E-03 0.38242E-03 0.19985E-03 0.71612E-04 0.12457E-04 0.81286E-05 0.29415E-04 0.53106E-04
 0.12150E-03 0.10859E-03 0.11194E-03 0.17491E-03 0.33651E-03 0.61082E-03 0.96716E-03 0.13285E-02 0.15966E-02 0.16918E-02
 0.15834E-02 0.12990E-02 0.91177E-03 0.51747E-03 0.20430E-03 0.24098E-04 -.24093E-04 0.13667E-04 0.75500E-04 0.11585E-03
 0.17212E-03 0.14408E-03 0.17786E-03 0.35002E-03 0.71034E-03 0.12448E-02 0.18590E-02 0.24006E-02 0.27145E-02 0.27039E-02
 0.23680E-02 0.18005E-02 0.11540E-02 0.58463E-03 0.19965E-03 0.26909E-04 0.20096E-04 0.93647E-04 0.16655E-03 0.19296E-03
 0.20692E-03 0.20897E-03 0.34691E-03 0.71709E-03 0.13548E-02 0.21868E-02 0.30316E-02 0.36594E-02 0.38822E-02 0.36290E-02
 0.29730E-02 0.21010E-02 0.12417E-02 0.58115E-03 0.20311E-03 0.79880E-04 0.11277E-03 0.19248E-03 0.24376E-03 0.24096E-03
 0.22289E-03 0.31428E-03 0.62831E-03 0.12587E-02 0.21950E-02 0.32794E-02 0.42399E-02 0.47953E-02 0.47734E-02 0.41815E-02
 0.31989E-02 0.21005E-02 0.11503E-02 0.50945E-03 0.19953E-03 0.13183E-03 0.17802E-03 0.23500E-03 0.25297E-03 0.23327E-03
 0.22962E-03 0.45859E-03 0.98703E-03 0.18782E-02 0.30491E-02 0.42515E-02 0.51506E-02 0.54673E-02 0.51020E-02 0.41754E-02
 0.29679E-02 0.17989E-02 0.90529E-03 0.37440E-03 0.15399E-03 0.11953E-03 0.15124E-03 0.17745E-03 0.17772E-03 0.17335E-03
 0.23838E-03 0.61997E-03 0.13456E-02 0.24229E-02 0.36860E-02 0.48194E-02 0.54808E-02 0.54562E-02 0.47590E-02 0.36172E-02
 0.23641E-02 0.12966E-02 0.57203E-03 0.18919E-03 0.45019E-04 0.18387E-04 0.26997E-04 0.36720E-04 0.46908E-04 0.88246E-04
 0.25261E-03 0.76041E-03 0.16092E-02 0.27382E-02 0.39149E-02 0.48057E-02 0.51243E-02 0.47682E-02 0.38637E-02 0.26982E-02
 0.15860E-02 0.74285E-03 0.23020E-03 -.16259E-04 -.10857E-03 -.13552E-03 -.13804E-03 -.12473E-03 -.87600E-04 0.95788E-05
 0.26702E-03 0.84122E-03 0.17021E-02 0.27287E-02 0.36636E-02 0.42150E-02 0.41987E-02 0.36285E-02 0.27015E-02 0.16958E-02
 0.84647E-03 0.26743E-03 -.52617E-04 -.19676E-03 -.25251E-03 -.27156E-03 -.26966E-03 -.24545E-03 -.18496E-03 -.43273E-04
 0.27326E-03 0.83892E-03 0.15967E-02 0.23956E-02 0.30075E-02 0.32295E-02 0.29879E-02 0.23737E-02 0.15893E-02 0.84716E-03
 0.28496E-03 -.62898E-04 -.23838E-03 -.31016E-03 -.33391E-03 -.33823E-03 -.33048E-03 -.30424E-03 -.23450E-03 -.67089E-04
 0.26610E-03 0.75230E-03 0.13212E-02 0.18348E-02 0.21377E-02 0.21299E-02 0.18168E-02 0.13048E-02 0.74550E-03 0.26805E-03
 -.62654E-04 -.24686E-03 -.32405E-03 -.34273E-03 -.34096E-03 -.33896E-03 -.33814E-03 -.32036E-03 -.24728E-03 -.66622E-04
 0.24597E-03 0.60105E-03 0.94764E-03 0.11984E-02 0.12842E-02 0.11824E-02 0.92433E-03 0.58040E-03 0.23246E-03 -.52335E-04
 -.23776E-03 -.32301E-03 -.33646E-03 -.32025E-03 -.31027E-03 -.31994E-03 -.33483E-03 -.31952E-03 -.23259E-03 -.44466E-04
 0.21798E-03 0.41997E-03 0.56740E-03 0.63875E-03 0.62956E-03 0.54511E-03 0.39533E-03 0.19791E-03 -.14619E-04 -.19688E-03
 -.30885E-03 -.33999E-03 -.31816E-03 -.29137E-03 -.29384E-03 -.32229E-03 -.33974E-03 -.30181E-03 -.18502E-03 0.64357E-06
 0.18852E-03 0.24993E-03 0.26300E-03 0.25812E-03 0.25299E-03 0.23545E-03 0.17457E-03 0.52903E-04 -.10780E-03 -.25288E-03
 -.33208E-03 -.33732E-03 -.30718E-03 -.29267E-03 -.31362E-03 -.34280E-03 -.32987E-03 -.24317E-03 -.95211E-04 0.65766E-04
 0.16110E-03 0.12482E-03 0.82335E-04 0.82214E-04 0.12577E-03 0.16422E-03 0.13736E-03 0.24308E-04 -.13589E-03 -.27254E-03
 -.33716E-03 -.33670E-03 -.31844E-03 -.32216E-03 -.34318E-03 -.33807E-03 -.26576E-03 -.12756E-03 0.27429E-04 0.13502E-03
 0.13402E-03 0.58586E-04 0.25300E-04 0.66892E-04 0.15185E-03 0.20533E-03 0.16518E-03 0.29942E-04 -.14058E-03 -.27248E-03
 -.33166E-03 -.33877E-03 -.33628E-03 -.34182E-03 -.33166E-03 -.26687E-03 -.13625E-03 0.23153E-04 0.14561E-03 0.18158E-03
 0.10343E-03 0.41673E-04 0.50741E-04 0.13046E-03 0.22422E-03 0.25654E-03 0.18627E-03 0.35132E-04 -.13080E-03 -.25069E-03
 -.30709E-03 -.32234E-03 -.32234E-03 -.30569E-03 -.24753E-03 -.13197E-03 0.19632E-04 0.15232E-03 0.21176E-03 0.18286E-03
 0.70493E-04 0.50931E-04 0.10146E-03 0.19386E-03 0.26701E-03 0.26635E-03 0.17901E-03 0.39512E-04 -.96843E-04 -.19062E-03
 -.23572E-03 -.24698E-03 -.23443E-03 -.19099E-03 -.10526E-03 0.15026E-04 0.13392E-03 0.20447E-03 0.20065E-03 0.13873E-03
 0.45698E-04 0.65795E-04 0.13308E-03 0.21076E-03 0.25324E-03 0.23527E-03 0.16535E-03 0.75887E-04 0.86915E-07 -.45770E-04
 -.63805E-04 -.62863E-04 -.46407E-04 -.10877E-04 0.44960E-04 0.10936E-03 0.15752E-03 0.16573E-03 0.13056E-03 0.77001E-04
 -.77053E-02 -.70155E-02 -.52860E-02 -.29674E-02 -.67268E-03 0.96120E-03 0.14519E-02 0.69623E-03 -.87345E-03 -.23977E-02
 -.30180E-02 -.23895E-02 -.90034E-03 0.57804E-03 0.12111E-02 0.61179E-03 -.10772E-02 -.33550E-02 -.55879E-02 -.71801E-02
 -.70491E-02 -.58457E-02 -.38133E-02 -.15099E-02 0.34723E-03 0.10683E-02 0.28249E-03 -.17716E-02 -.41977E-02 -.58107E-02
 -.57857E-02 -.41593E-02 -.18034E-02 0.10800E-03 0.73948E-03 -.78766E-04 -.19398E-02 -.41628E-02 -.60658E-02 -.71233E-02
 -.53494E-02 -.38401E-02 -.18438E-02 -.12369E-03 0.36095E-03 -.11557E-02 -.47161E-02 -.93255E-02 -.13217E-01 -.14701E-01
 -.13117E-01 -.92231E-02 -.47378E-02 -.13731E-02 -.25092E-04 -.57487E-03 -.22446E-02 -.41180E-02 -.54855E-02 -.59403E-02
 -.30389E-02 -.15403E-02 -.12868E-03 0.59305E-04 -.22094E-02 -.75066E-02 -.15021E-01 -.22496E-01 -.27129E-01 -.27021E-01
 -.22249E-01 -.14813E-01 -.74977E-02 -.24448E-02 -.33916E-03 -.55003E-03 -.18710E-02 -.32334E-02 -.40087E-02 -.39468E-02
 -.72382E-03 0.33540E-03 0.36250E-03 -.22149E-02 -.86312E-02 -.18682E-01 -.30119E-01 -.39248E-01 -.42629E-01 -.38931E-01
 -.29672E-01 -.18354E-01 -.85845E-02 -.24430E-02 -.49987E-05 -.13436E-04 -.96065E-03 -.18091E-02 -.20951E-02 -.16991E-02
 0.94595E-03 0.10746E-02 -.11662E-02 -.75533E-02 -.18738E-01 -.33114E-01 -.46787E-01 -.55075E-01 -.54845E-01 -.46215E-01
 -.32484E-01 -.18327E-01 -.74826E-02 -.13677E-02 0.77298E-03 0.69512E-03 -.30707E-04 -.52900E-03 -.48718E-03 0.11001E-03
 0.14621E-02 0.27665E-03 -.47847E-02 -.15165E-01 -.30295E-01 -.46912E-01 -.59924E-01 -.64691E-01 -.59417E-01 -.46133E-01
 -.29576E-01 -.14748E-01 -.47183E-02 0.11576E-03 0.12474E-02 0.66719E-03 -.14638E-03 -.46266E-03 -.76950E-04 0.82173E-03
 0.70071E-03 -.18320E-02 -.94959E-02 -.22773E-01 -.39569E-01 -.55346E-01 -.64835E-01 -.64553E-01 -.54628E-01 -.38720E-01
 -.22100E-01 -.91559E-02 -.17920E-02 0.58425E-03 -.56426E-04 -.16485E-02 -.27648E-02 -.27394E-02 -.15658E-02 0.77138E-04
 -.90502E-03 -.43355E-02 -.13492E-01 -.27519E-01 -.43056E-01 -.55212E-01 -.59655E-01 -.54727E-01 -.42291E-01 -.26767E-01
 -.12976E-01 -.41172E-02 -.90316E-03 -.19873E-02 -.50627E-02 -.79089E-02 -.90222E-02 -.78749E-02 -.49900E-02 -.19049E-02
 -.24716E-02 -.60056E-02 -.15029E-01 -.27442E-01 -.39366E-01 -.46579E-01 -.46376E-01 -.38841E-01 -.26804E-01 -.14494E-01
 -.56964E-02 -.23791E-02 -.42979E-02 -.94765E-02 -.15143E-01 -.18735E-01 -.18725E-01 -.15109E-01 -.94205E-02 -.42674E-02
 -.31088E-02 -.59790E-02 -.13408E-01 -.22593E-01 -.30005E-01 -.32748E-01 -.29745E-01 -.22183E-01 -.13004E-01 -.57012E-02
 -.29889E-02 -.58534E-02 -.13229E-01 -.22364E-01 -.29789E-01 -.32630E-01 -.29770E-01 -.22325E-01 -.13187E-01 -.58578E-02
 -.24543E-02 -.42846E-02 -.93962E-02 -.15001E-01 -.18519E-01 -.18443E-01 -.14810E-01 -.91783E-02 -.41203E-02 -.23776E-02
 -.58529E-02 -.14702E-01 -.26902E-01 -.38687E-01 -.45925E-01 -.45912E-01 -.38653E-01 -.26857E-01 -.14665E-01 -.58553E-02
 -.90544E-03 -.18237E-02 -.47639E-02 -.75162E-02 -.85857E-02 -.74660E-02 -.46923E-02 -.17678E-02 -.88785E-03 -.42923E-02
 -.13230E-01 -.26904E-01 -.42108E-01 -.54116E-01 -.58680E-01 -.54092E-01 -.42065E-01 -.26853E-01 -.13185E-01 -.42715E-02
 0.63672E-03 0.18351E-03 -.12812E-02 -.23414E-02 -.23380E-02 -.12737E-02 0.18800E-03 0.63029E-03 -.19647E-02 -.94704E-02
 -.22367E-01 -.38693E-01 -.54120E-01 -.63552E-01 -.63539E-01 -.54086E-01 -.38646E-01 -.22320E-01 -.94326E-02 -.19424E-02
 0.13086E-02 0.86733E-03 0.12414E-03 -.18349E-03 0.13977E-03 0.89212E-03 0.13331E-02 -.39056E-05 -.50375E-02 -.15137E-01
 -.29795E-01 -.45935E-01 -.58690E-01 -.63545E-01 -.58666E-01 -.45899E-01 -.29762E-01 -.15119E-01 -.50374E-02 -.19312E-04
 0.71322E-03 0.53947E-04 -.42169E-03 -.39239E-03 0.13183E-03 0.81495E-03 0.75502E-03 -.15929E-02 -.78817E-02 -.18730E-01
 -.32640E-01 -.45930E-01 -.54108E-01 -.54097E-01 -.45904E-01 -.32618E-01 -.18731E-01 -.79180E-02 -.16652E-02 0.65738E-03
 -.99531E-03 -.18286E-02 -.21108E-02 -.17270E-02 -.82177E-03 0.88379E-04 -.57262E-04 -.27097E-02 -.89991E-02 -.18728E-01
 -.29788E-01 -.38678E-01 -.42087E-01 -.38662E-01 -.29772E-01 -.18737E-01 -.90571E-02 -.28300E-02 -.23196E-03 -.10941E-03
 -.32969E-02 -.40747E-02 -.40012E-02 -.30978E-02 -.16725E-02 -.41184E-03 -.38046E-03 -.26976E-02 -.78681E-02 -.15125E-01
 -.22351E-01 -.26884E-01 -.26878E-01 -.22343E-01 -.15139E-01 -.79347E-02 -.28401E-02 -.60146E-03 -.68430E-03 -.19418E-02
 -.55474E-02 -.59928E-02 -.53788E-02 -.38801E-02 -.19682E-02 -.38760E-03 -.20831E-04 -.15524E-02 -.50045E-02 -.94437E-02
 -.13207E-01 -.14682E-01 -.13207E-01 -.94643E-02 -.50762E-02 -.17024E-02 -.25935E-03 -.69824E-03 -.23037E-02 -.41693E-02
 -.71557E-02 -.70649E-02 -.58482E-02 -.38380E-02 -.16022E-02 0.17018E-03 0.83813E-03 0.64397E-04 -.19208E-02 -.42674E-02
 -.58421E-02 -.58423E-02 -.42827E-02 -.19862E-02 -.85033E-04 0.59029E-03 -.16165E-03 -.19748E-02 -.41859E-02 -.60974E-02
 0.38998E-03 0.35718E-03 0.30173E-03 0.24156E-03 0.19961E-03 0.18437E-03 0.17627E-03 0.14203E-03 0.70274E-04 -.82781E-05
 -.42587E-04 -.64136E-05 0.79101E-04 0.16760E-03 0.22861E-03 0.26534E-03 0.29761E-03 0.33570E-03 0.37255E-03 0.39407E-03
 0.36273E-03 0.33994E-03 0.30976E-03 0.26499E-03 0.19640E-03 0.86705E-04 -.82624E-04 -.30573E-03 -.53091E-03 -.67474E-03
 -.67162E-03 -.51876E-03 -.27662E-03 -.26524E-04 0.17468E-03 0.30878E-03 0.38200E-03 0.40823E-03 0.40341E-03 0.38432E-03
 0.31016E-03 0.31190E-03 0.29397E-03 0.21357E-03 0.25814E-04 -.29864E-03 -.74406E-03 -.12263E-02 -.16064E-02 -.17495E-02
 -.15969E-02 -.11996E-02 -.68863E-03 -.20704E-03 0.14888E-03 0.34918E-03 0.41653E-03 0.40073E-03 0.35554E-03 0.32060E-03
 0.24846E-03 0.26442E-03 0.21014E-03 0.73581E-06 -.43425E-03 -.11021E-02 -.19040E-02 -.26401E-02 -.30799E-02 -.30694E-02
 -.26082E-02 -.18480E-02 -.10157E-02 -.31509E-03 0.14212E-03 0.34918E-03 0.37475E-03 0.31543E-03 0.25334E-03 0.23150E-03
 0.20009E-03 0.18918E-03 0.15441E-04 -.44179E-03 -.12459E-02 -.23300E-02 -.34686E-02 -.43371E-02 -.46498E-02 -.42974E-02
 -.33993E-02 -.22407E-02 -.11382E-02 -.31641E-03 0.14784E-03 0.30766E-03 0.28507E-03 0.20595E-03 0.15588E-03 0.16321E-03
 0.17618E-03 0.72428E-04 -.31556E-03 -.11177E-02 -.23401E-02 -.37936E-02 -.51134E-02 -.58921E-02 -.58652E-02 -.50415E-02
 -.36962E-02 -.22341E-02 -.10103E-02 -.20880E-03 0.17381E-03 0.26163E-03 0.21017E-03 0.14219E-03 0.12211E-03 0.15297E-03
 0.16208E-03 -.10039E-03 -.76449E-03 -.19264E-02 -.34897E-02 -.51271E-02 -.63731E-02 -.68213E-02 -.63182E-02 -.50377E-02
 -.33916E-02 -.18351E-02 -.68216E-03 -.24508E-04 0.22982E-03 0.25199E-03 0.19689E-03 0.15857E-03 0.16826E-03 0.19967E-03
 0.12826E-03 -.32163E-03 -.12472E-02 -.26681E-02 -.43691E-02 -.59198E-02 -.68363E-02 -.68074E-02 -.58485E-02 -.42876E-02
 -.25992E-02 -.11927E-02 -.27268E-03 0.17496E-03 0.29934E-03 0.27525E-03 0.22970E-03 0.22173E-03 0.25099E-03 0.26058E-03
 0.62954E-04 -.54103E-03 -.16260E-02 -.31122E-02 -.46901E-02 -.59026E-02 -.63431E-02 -.58586E-02 -.46269E-02 -.30584E-02
 -.15931E-02 -.52165E-03 0.81175E-04 0.30796E-03 0.32000E-03 0.26371E-03 0.23071E-03 0.25189E-03 0.30009E-03 0.28660E-03
 -.76069E-05 -.67911E-03 -.17679E-02 -.31041E-02 -.43410E-02 -.50815E-02 -.50647E-02 -.43005E-02 -.30618E-02 -.17424E-02
 -.67384E-03 -.11638E-04 0.26694E-03 0.28950E-03 0.20431E-03 0.12713E-03 0.12107E-03 0.19112E-03 0.27967E-03 0.26660E-03
 -.37852E-04 -.67464E-03 -.16162E-02 -.26438E-02 -.34418E-02 -.37331E-02 -.34154E-02 -.26102E-02 -.15961E-02 -.67379E-03
 -.46462E-04 0.22953E-03 0.22260E-03 0.67623E-04 -.94647E-04 -.16258E-03 -.98922E-04 0.61878E-04 0.22067E-03 0.23506E-03
 -.46963E-05 -.52753E-03 -.12244E-02 -.18857E-02 -.22812E-02 -.22667E-02 -.18550E-02 -.12013E-02 -.52345E-03 -.10765E-04
 0.23043E-03 0.19276E-03 -.40990E-04 -.32754E-03 -.51676E-03 -.51522E-03 -.32629E-03 -.44002E-04 0.18908E-03 0.23292E-03
 0.71315E-04 -.29750E-03 -.72386E-03 -.10591E-02 -.11793E-02 -.10411E-02 -.70016E-03 -.28032E-03 0.79682E-04 0.26788E-03
 0.22357E-03 -.40842E-04 -.42491E-03 -.76246E-03 -.89516E-03 -.75960E-03 -.42353E-03 -.43552E-04 0.21884E-03 0.26307E-03
 0.14743E-03 -.61458E-04 -.25417E-03 -.36582E-03 -.36070E-03 -.24024E-03 -.42306E-04 0.16754E-03 0.30627E-03 0.28957E-03
 0.67184E-04 -.32876E-03 -.76345E-03 -.10484E-02 -.10465E-02 -.75970E-03 -.32724E-03 0.62838E-04 0.27815E-03 0.28906E-03
 0.19793E-03 0.12971E-03 0.94396E-04 0.87296E-04 0.10186E-03 0.14195E-03 0.21230E-03 0.29248E-03 0.31851E-03 0.20358E-03
 -.96765E-04 -.51969E-03 -.89716E-03 -.10469E-02 -.89262E-03 -.51634E-03 -.10029E-03 0.19255E-03 0.30355E-03 0.27711E-03
 0.22986E-03 0.26178E-03 0.29588E-03 0.29738E-03 0.26471E-03 0.23196E-03 0.23610E-03 0.26995E-03 0.26364E-03 0.12728E-03
 -.16445E-03 -.51813E-03 -.76126E-03 -.75919E-03 -.51497E-03 -.16558E-03 0.12073E-03 0.25583E-03 0.26511E-03 0.23405E-03
 0.26431E-03 0.34073E-03 0.37169E-03 0.33189E-03 0.24948E-03 0.18567E-03 0.18462E-03 0.22744E-03 0.23366E-03 0.12422E-03
 -.98142E-04 -.32719E-03 -.42379E-03 -.32536E-03 -.96822E-04 0.12371E-03 0.23355E-03 0.23196E-03 0.19587E-03 0.20136E-03
 0.30992E-03 0.37675E-03 0.36681E-03 0.28294E-03 0.17919E-03 0.12489E-03 0.15214E-03 0.22417E-03 0.25856E-03 0.19722E-03
 0.64894E-04 -.43511E-04 -.43134E-04 0.65528E-04 0.19820E-03 0.26298E-03 0.23741E-03 0.17756E-03 0.15990E-03 0.21536E-03
 0.35633E-03 0.38196E-03 0.33129E-03 0.22977E-03 0.13763E-03 0.11315E-03 0.16932E-03 0.25873E-03 0.30904E-03 0.28544E-03
 0.22209E-03 0.18802E-03 0.21874E-03 0.28218E-03 0.31303E-03 0.27856E-03 0.20920E-03 0.16822E-03 0.19522E-03 0.27586E-03
 0.38677E-03 0.37150E-03 0.30450E-03 0.21603E-03 0.15359E-03 0.15288E-03 0.20821E-03 0.27232E-03 0.29509E-03 0.26851E-03
 0.23184E-03 0.22923E-03 0.26406E-03 0.29818E-03 0.29475E-03 0.25719E-03 0.22452E-03 0.23295E-03 0.28472E-03 0.34925E-03
 0.80210E-02 0.73436E-02 0.56408E-02 0.33383E-02 0.10411E-02 -.60045E-03 -.10918E-02 -.33569E-03 0.12235E-02 0.27293E-02
 0.33408E-02 0.27229E-02 0.12522E-02 -.21764E-03 -.85345E-03 -.25406E-03 0.14442E-02 0.37272E-02 0.59457E-02 0.75106E-02
 0.73779E-02 0.61912E-02 0.41774E-02 0.18779E-02 0.13987E-04 -.70986E-03 0.79686E-04 0.21315E-02 0.45421E-02 0.61387E-02
 0.61149E-02 0.45073E-02 0.21688E-02 0.25845E-03 -.38125E-03 0.43596E-03 0.23049E-02 0.45291E-02 0.64169E-02 0.74550E-02