unknown system                          
   1.00000000000000     
     2.573869    0.000000    0.000000
     1.286934    2.229036    0.000000
     0.000000    0.000000   30.304665
   Cu   H 
     4     1
Direct
  0.000000  0.000000  0.395979
  0.333333  0.333333  0.465326
  0.666667  0.666667  0.534674
  0.000000  0.000000  0.604021
  0.294481  0.333333  0.637020
 
   20   20  240
 -.76754472093E-02 -.69927214159E-02 -.52787090632E-02 -.29677479401E-02 -.66862569702E-03
 0.97097987654E-03 0.14592374575E-02 0.69703933082E-03 -.87352053536E-03 -.23923611317E-02
 -.30103551519E-02 -.23876047455E-02 -.90462433369E-03 0.57688306317E-03 0.12197062402E-02
 0.62430199790E-03 -.10716620363E-02 -.33566602036E-02 -.55837592945E-02 -.71598684553E-02
 -.70267299466E-02 -.58317734782E-02 -.38074198947E-02 -.15034773137E-02 0.35778447955E-03
 0.10773954327E-02 0.28549562403E-03 -.17698316374E-02 -.41891493657E-02 -.57966330737E-02
 -.57770537188E-02 -.41624159899E-02 -.18104170135E-02 0.11074222328E-03 0.75447925114E-03
 -.62861887017E-04 -.19332275622E-02 -.41614705126E-02 -.60572406707E-02 -.71031525805E-02
 -.53421988894E-02 -.38338587229E-02 -.18337558113E-02 -.10690762059E-03 0.37871999905E-03
 -.11457704352E-02 -.47144695354E-02 -.93223014501E-02 -.13203783102E-01 -.14682414857E-01
 -.13104753647E-01 -.92209192641E-02 -.47369097064E-02 -.13629890383E-02 -.62566366381E-05
 -.55768882618E-03 -.22364204558E-02 -.41155591010E-02 -.54813565242E-02 -.59327749927E-02
 -.30385543957E-02 -.15328429033E-02 -.11115308359E-03 0.83425117168E-04 -.21877718068E-02
 -.74945618396E-02 -.15016678933E-01 -.22491472906E-01 -.27118866666E-01 -.27006923675E-01
 -.22235870327E-01 -.14801940561E-01 -.74847950257E-02 -.24269456195E-02 -.31941747065E-03
 -.53489612489E-03 -.18639910583E-02 -.32327049150E-02 -.40108591388E-02 -.39490944774E-02
 -.71850336781E-03 0.34747155701E-03 0.38162854197E-03 -.21925525286E-02 -.86116014985E-02
 -.18668904582E-01 -.30112901817E-01 -.39243563006E-01 -.42624307302E-01 -.38924149674E-01
 -.29662657099E-01 -.18340552301E-01 -.85664083816E-02 -.24226874631E-02 0.12939037902E-04
 -.16330037340E-05 -.95533295831E-03 -.18078833458E-02 -.20951621714E-02 -.16978526691E-02
 0.95669255427E-03 0.10848768471E-02 -.11549112213E-02 -.75401563034E-02 -.18725115930E-01
 -.33104058191E-01 -.46781858576E-01 -.55074247130E-01 -.54843979671E-01 -.46211271045E-01
 -.32477563788E-01 -.18318091413E-01 -.74706858916E-02 -.13539521010E-02 0.78617409017E-03
 0.70534890204E-03 -.23400315939E-04 -.52208476365E-03 -.47832975918E-03 0.12065669031E-03
 0.14693901537E-02 0.27992203020E-03 -.47823185290E-02 -.15159574928E-01 -.30288048622E-01
 -.46906805634E-01 -.59924267990E-01 -.64692536840E-01 -.59415485836E-01 -.46126243582E-01
 -.29568429613E-01 -.14744199438E-01 -.47175858439E-02 0.11736439140E-03 0.12536524275E-02
 0.67776316396E-03 -.13396179284E-03 -.44992914636E-03 -.64328236547E-04 0.83285610071E-03
 0.70066709540E-03 -.18307835599E-02 -.94928000248E-02 -.22768755795E-01 -.39565430899E-01
 -.55345844659E-01 -.64837099941E-01 -.64554343044E-01 -.54624009172E-01 -.38709459619E-01
 -.22089780477E-01 -.91525228234E-02 -.17971961127E-02 0.57725053294E-03 -.56461687954E-04
 -.16386376230E-02 -.27499768956E-02 -.27271086784E-02 -.15598038527E-02 0.78313302133E-04
 -.90572395395E-03 -.43272757668E-02 -.13480062037E-01 -.27510280774E-01 -.43053296855E-01
 -.55212991649E-01 -.59654918013E-01 -.54722684481E-01 -.42283020464E-01 -.26756649555E-01
 -.12965941860E-01 -.41112141384E-02 -.90430550465E-03 -.19927156590E-02 -.50648791085E-02
 -.79026669748E-02 -.90109970278E-02 -.78677111757E-02 -.49915427867E-02 -.19104974372E-02
 -.24658142240E-02 -.59907597321E-02 -.15010289259E-01 -.27429492952E-01 -.39361280231E-01
 -.46577706946E-01 -.46370347089E-01 -.38830635566E-01 -.26793237878E-01 -.14485557679E-01
 -.56886385352E-02 -.23703153228E-02 -.42900831391E-02 -.94728471947E-02 -.15142522589E-01
 -.18732649858E-01 -.18719710087E-01 -.15103254007E-01 -.94183280864E-02 -.42670318601E-02
 -.30997407930E-02 -.59683277205E-02 -.13393913988E-01 -.22580395326E-01 -.29997019816E-01
 -.32742851320E-01 -.29737307681E-01 -.22171760624E-01 -.12992726837E-01 -.56925414224E-02
 -.29813764727E-02 -.58426244359E-02 -.13215545215E-01 -.22353160554E-01 -.29784734740E-01
 -.32628827623E-01 -.29764644896E-01 -.22312796541E-01 -.13172344676E-01 -.58460695496E-02
 -.24510524607E-02 -.42854568665E-02 -.93917662728E-02 -.14988983646E-01 -.18505605729E-01
 -.18434169971E-01 -.14806099938E-01 -.91740217689E-02 -.41128725331E-02 -.23676610951E-02
 -.58416998726E-02 -.14689341944E-01 -.26888405144E-01 -.38675702344E-01 -.45918096696E-01
 -.45907823895E-01 -.38643722472E-01 -.26838668062E-01 -.14643995560E-01 -.58414870850E-02
 -.90947215086E-03 -.18292272429E-02 -.47609947307E-02 -.75018361247E-02 -.85671052690E-02
 -.74541531824E-02 -.46914032534E-02 -.17721263397E-02 -.88788502657E-03 -.42836356151E-02
 -.13215667422E-01 -.26890364029E-01 -.42097831452E-01 -.54109638092E-01 -.58673844514E-01
 -.54082853161E-01 -.42051460064E-01 -.26837099830E-01 -.13171844043E-01 -.42665743074E-02
 0.63477796579E-03 0.18644800083E-03 -.12701032635E-02 -.23226350863E-02 -.23174996716E-02
 -.12602645802E-02 0.18967538177E-03 0.62408626953E-03 -.19692066595E-02 -.94663815197E-02
 -.22356269057E-01 -.38681864048E-01 -.54114140870E-01 -.63548475598E-01 -.63533642642E-01
 -.54076270156E-01 -.38635256319E-01 -.22312651858E-01 -.94309859739E-02 -.19446425346E-02
 0.13163002313E-02 0.88182913346E-03 0.14308371269E-03 -.16369801966E-03 0.15710975774E-03
 0.90443517260E-03 0.13391241068E-02 -.31962074729E-05 -.50386319342E-02 -.15136376702E-01
 -.29791307083E-01 -.45929957551E-01 -.58684564555E-01 -.63539381361E-01 -.58659528413E-01
 -.45891959000E-01 -.29756739349E-01 -.15117032092E-01 -.50378981728E-02 -.17715071174E-04
 0.72554112757E-03 0.69731911537E-04 -.40445362453E-03 -.37749298428E-03 0.14270945363E-03
 0.82394003311E-03 0.76495953304E-03 -.15826564751E-02 -.78746748348E-02 -.18727783015E-01
 -.32640201862E-01 -.45926603876E-01 -.54100536973E-01 -.54087887747E-01 -.45897051525E-01
 -.32614207018E-01 -.18727032375E-01 -.79119947842E-02 -.16572461233E-02 0.66696675084E-03
 -.98895935724E-03 -.18211460120E-02 -.21017983949E-02 -.17196929387E-02 -.81714605938E-03
 0.94414990116E-04 -.45848443392E-04 -.26950093087E-02 -.89875089368E-02 -.18721929688E-01
 -.29783643478E-01 -.38669270250E-01 -.42075042713E-01 -.38652608812E-01 -.29767774231E-01
 -.18732986207E-01 -.90483850729E-02 -.28157726175E-02 -.21797759234E-03 -.10008343472E-03
 -.32970323890E-02 -.40716905182E-02 -.39972120456E-02 -.30963486502E-02 -.16716640259E-02
 -.40602026229E-03 -.36879941018E-03 -.26857157410E-02 -.78606686908E-02 -.15118882346E-01
 -.22338739912E-01 -.26866318690E-01 -.26862885470E-01 -.22336234293E-01 -.15138340686E-01
 -.79294043502E-02 -.28262428746E-02 -.58566603141E-03 -.67540139742E-03 -.19407060190E-02
 -.55418567425E-02 -.59824636010E-02 -.53730310683E-02 -.38815344125E-02 -.19685366968E-02
 -.37966233020E-03 -.89129698608E-05 -.15465486838E-02 -.50056145553E-02 -.94411490999E-02
 -.13192398195E-01 -.14661304775E-01 -.13193607065E-01 -.94626004007E-02 -.50769852130E-02
 -.16951250639E-02 -.24607066534E-03 -.68981029318E-03 -.23043582785E-02 -.41711727898E-02
 -.71347074065E-02 -.70435474626E-02 -.58397626776E-02 -.38403029978E-02 -.16016763978E-02
 0.17998189014E-03 0.84908520944E-03 0.66150389536E-04 -.19258190587E-02 -.42668982586E-02
 -.58307124727E-02 -.58285962596E-02 -.42772791294E-02 -.19874817849E-02 -.82825196138E-04
 0.59972731201E-03 -.15311435754E-03 -.19746507339E-02 -.41883812125E-02 -.60895747944E-02
 0.21167655007E-03 0.19126351901E-03 0.17382990779E-03 0.15673426941E-03 0.14091170078E-03
 0.13014966657E-03 0.12673942349E-03 0.12880916094E-03 0.13182610872E-03 0.13223307646E-03
 0.13009348874E-03 0.12955914064E-03 0.13729714937E-03 0.15886532242E-03 0.19390216696E-03
 0.23347837561E-03 0.26337273903E-03 0.27257266362E-03 0.26051926147E-03 0.23650330184E-03
 0.19833319118E-03 0.20178345846E-03 0.21305600524E-03 0.20071063597E-03 0.14497448029E-03
 0.47604818320E-04 -.72836128368E-04 -.19256674107E-03 -.29048002033E-03 -.34894750739E-03
 -.35260333409E-03 -.29141067673E-03 -.16825465022E-03 -.49146022434E-05 0.16042398170E-03
 0.28583658985E-03 0.34338197929E-03 0.33242881329E-03 0.27991445597E-03 0.22538517237E-03
 0.18556635905E-03 0.21693409371E-03 0.22902131366E-03 0.17106259358E-03 0.19531086238E-04
 -.21164370601E-03 -.47868800342E-03 -.72524206641E-03 -.89889094457E-03 -.96138484816E-03
 -.89388636226E-03 -.70153928845E-03 -.41801442791E-03 -.10426479540E-03 0.16573021334E-03
 0.33171860866E-03 0.37396497578E-03 0.32251630466E-03 0.23997988785E-03 0.18615720160E-03
 0.16779921208E-03 0.20283066442E-03 0.16890002789E-03 0.10664780348E-04 -.28550339581E-03
 -.68405342388E-03 -.11084315388E-02 -.14625625827E-02 -.16600022525E-02 -.16501333462E-02
 -.14315366254E-02 -.10506810532E-02 -.59062382286E-03 -.15259797217E-03 0.17084364075E-03
 0.32796812209E-03 0.33018620934E-03 0.24581002799E-03 0.16208044622E-03 0.13646668344E-03
 0.14455566861E-03 0.13984063446E-03 0.10747949403E-04 -.29185184790E-03 -.76371399877E-03
 -.13384184443E-02 -.18968719942E-02 -.23001712265E-02 -.24381748789E-02 -.22709674915E-02
 -.18415520708E-02 -.12568866802E-02 -.65176932814E-03 -.15095979216E-03 0.16379846336E-03
 0.27705186085E-03 0.24216696858E-03 0.15356952503E-03 0.96942084213E-04 0.10492232525E-03
 0.12259137245E-03 0.33693500484E-04 -.22701649160E-03 -.69666434033E-03 -.13455649491E-02
 -.20654384246E-02 -.26890164676E-02 -.30452610913E-02 -.30283186545E-02 -.26421412847E-02
 -.19956868999E-02 -.12556614274E-02 -.58607848046E-03 -.10111961700E-03 0.15839607244E-03
 0.22478547555E-03 0.18064698378E-03 0.11828209824E-03 0.96600059607E-04 0.11607765597E-03
 0.11075961240E-03 -.91321296040E-04 -.49651889774E-03 -.11245431880E-02 -.19103255977E-02
 -.26972607183E-02 -.32795901145E-02 -.34836222374E-02 -.32455370578E-02 -.26394540325E-02
 -.18403544779E-02 -.10474735472E-02 -.41238384453E-03 -.27818248327E-05 0.19407912578E-03
 0.24266698465E-03 0.22246694455E-03 0.19579792925E-03 0.18736442158E-03 0.17795204502E-03
 0.11282485498E-03 -.20788523916E-03 -.74032141422E-03 -.14796163712E-02 -.23190322734E-02
 -.30617088014E-02 -.34925489528E-02 -.34755147922E-02 -.30186138408E-02 -.22671156306E-02
 -.14317652394E-02 -.69766197881E-03 -.16423181786E-03 0.16087181048E-03 0.32672878991E-03
 0.39468521936E-03 0.41032818011E-03 0.39711296379E-03 0.35918191971E-03 0.27938302588E-03
 0.12441514945E-03 -.29636431093E-03 -.90826144895E-03 -.16771454035E-02 -.24616800383E-02
 -.30511991500E-02 -.32607176009E-02 -.30243350325E-02 -.24262243654E-02 -.16521578783E-02
 -.89734324656E-03 -.28853728171E-03 0.14049618346E-03 0.42070082571E-03 0.59806565604E-03
 0.69902763904E-03 0.72775206460E-03 0.68377950747E-03 0.57301563447E-03 0.39574907247E-03
 0.13608223126E-03 -.34522694867E-03 -.96642597511E-03 -.16683693804E-02 -.22983191400E-02
 -.26687749632E-02 -.26570892147E-02 -.22742160214E-02 -.16530450287E-02 -.96967693942E-03
 -.35770894919E-03 0.13036790013E-03 0.50458554419E-03 0.79139974844E-03 0.99828863931E-03
 0.11091043752E-02 0.11047526171E-02 0.98633532675E-03 0.77699172338E-03 0.49716934970E-03
 0.13987514403E-03 -.34638562182E-03 -.90061974116E-03 -.14538389797E-02 -.18726934865E-02
 -.20243963813E-02 -.18584995784E-02 -.14384447739E-02 -.89714993639E-03 -.35611989848E-03
 0.12684428059E-03 0.55039662587E-03 0.92566494308E-03 0.12403521346E-02 0.14559509058E-02
 0.15312850213E-02 0.14499815735E-02 0.12322280046E-02 0.92200237055E-03 0.55628034385E-03
 0.13506093726E-03 -.29381269563E-03 -.71863481561E-03 -.10817253664E-02 -.12933421364E-02
 -.12867520683E-02 -.10665999223E-02 -.70483497392E-03 -.28826018715E-03 0.13288208613E-03
 0.55190328991E-03 0.97169864706E-03 0.13690597113E-02 0.16890863369E-02 0.18687245673E-02
 0.18674935749E-02 0.16864274968E-02 0.13675421625E-02 0.97355270216E-03 0.55631393967E-03
 0.12933914780E-03 -.18838111031E-03 -.45243837409E-03 -.63455274918E-03 -.69558362735E-03
 -.62066549399E-03 -.43346537908E-03 -.17306169419E-03 0.13937292023E-03 0.50625193811E-03
 0.92689827390E-03 0.13691134462E-02 0.17675184675E-02 0.20468413162E-02 0.21489268837E-02
 0.20501002120E-02 0.17692919071E-02 0.13658921660E-02 0.92001741122E-03 0.49833960093E-03
 0.13414094452E-03 -.44655830472E-04 -.15658534787E-03 -.20931067031E-03 -.20193481500E-03
 -.13902001081E-03 -.25539820903E-04 0.15064030679E-03 0.41800302431E-03 0.79132313617E-03
 0.12398564632E-02 0.16876526678E-02 0.20456287271E-02 0.22445153189E-02 0.22472183407E-02
 0.20495341459E-02 0.16852437986E-02 0.12289190658E-02 0.77613204467E-03 0.40256522927E-03
 0.15621789464E-03 0.10745929528E-03 0.10271667584E-03 0.10741576088E-03 0.10968000034E-03
 0.11948384176E-03 0.17110844044E-03 0.31633758434E-03 0.59491943041E-03 0.99732572115E-03
 0.14542173226E-02 0.18660254772E-02 0.21467151405E-02 0.22464765966E-02 0.21488266357E-02
 0.18663390067E-02 0.14487659140E-02 0.98555292558E-03 0.57942930574E-03 0.30018055085E-03
 0.19128541319E-03 0.23056782609E-03 0.26918587966E-03 0.26699289430E-03 0.22588302926E-03
 0.18824211574E-03 0.22131466329E-03 0.38559257325E-03 0.69724192939E-03 0.11095472889E-02
 0.15307378614E-02 0.18656106288E-02 0.20484903416E-02 0.20495189634E-02 0.18673713818E-02
 0.15304154416E-02 0.11053898422E-02 0.69041436161E-03 0.37968076970E-03 0.21967901772E-03
 0.22541386454E-03 0.29539522114E-03 0.32076789932E-03 0.27856460497E-03 0.19864998279E-03
 0.14954374046E-03 0.20495778500E-03 0.40449802119E-03 0.72934450630E-03 0.11087375443E-02
 0.14526796613E-02 0.16870177663E-02 0.17694329801E-02 0.16869496156E-02 0.14522775855E-02
 0.11087082572E-02 0.73240916343E-03 0.41462437568E-03 0.22456756618E-03 0.17646184779E-03
 0.24425264144E-03 0.29615977382E-03 0.28161774242E-03 0.20538262879E-03 0.11942844299E-03
 0.95038898905E-04 0.18512386595E-03 0.39714277595E-03 0.68998496983E-03 0.99353978446E-03
 0.12369188264E-02 0.13693179273E-02 0.13670943122E-02 0.12325164395E-02 0.99264372149E-03
 0.69910575806E-03 0.42096746412E-03 0.22447293364E-03 0.14542367407E-03 0.17077873969E-03
 0.24298137021E-03 0.25506748227E-03 0.21004658220E-03 0.13165268649E-03 0.72392016534E-04
 0.83227282573E-04 0.18631148998E-03 0.36671072213E-03 0.58280279891E-03 0.78373024715E-03
 0.92395534320E-03 0.97285712375E-03 0.92099364135E-03 0.78261517677E-03 0.59238387512E-03
 0.39635672338E-03 0.23981343533E-03 0.15434307340E-03 0.14628597165E-03 0.19140600659E-03
 0.22842996327E-03 0.21005339806E-03 0.16551625572E-03 0.11543293670E-03 0.90578795948E-04
 0.11368249659E-03 0.18690798498E-03 0.29305900447E-03 0.40577864208E-03 0.49891679074E-03
 0.55143681977E-03 0.55130014738E-03 0.50028104028E-03 0.41551814908E-03 0.32330237573E-03
 0.24780398654E-03 0.20266111449E-03 0.18955872162E-03 0.20056611993E-03 0.22013348007E-03
 0.80500395757E-02 0.73679458567E-02 0.56560377565E-02 0.33483030039E-02 0.10514284029E-02
 -.59001320440E-03 -.10859890689E-02 -.33635980187E-03 0.12200785787E-02 0.27272041807E-02
 0.33393870574E-02 0.27190806371E-02 0.12468861198E-02 -.21875298645E-03 -.84645847171E-03
 -.24192492556E-03 0.14557764503E-02 0.37378252817E-02 0.59612318546E-02 0.75351102137E-02
 0.74020877607E-02 0.62063930441E-02 0.41864655178E-02 0.18871472010E-02 0.24238113184E-04
 -.70360835861E-03 0.78890314775E-04 0.21272151318E-02 0.45397667856E-02 0.61382399087E-02
 0.61113760728E-02 0.44991875075E-02 0.21616835865E-02 0.25918098078E-03 -.37253950518E-03
 0.44697878994E-03 0.23152275004E-02 0.45427981716E-02 0.64388113458E-02 0.74824751155E-02
 0.57200110942E-02 0.42132423832E-02 0.22165906483E-02 0.48982795568E-03 -.28672292984E-05
 0.15105057682E-02 0.50711199906E-02 0.96768707541E-02 0.13558315202E-01 0.15034281400E-01
 0.13452940971E-01 0.95706741357E-02 0.50961200548E-02 0.17344801527E-02 0.38544566658E-03
 0.93802715770E-03 0.26154083418E-02 0.44944777603E-02 0.58608901880E-02 0.63115874611E-02
 0.34206977780E-02 0.19181931108E-02 0.49494358942E-03 0.29452280555E-03 0.25577547718E-02
 0.78564042308E-02 0.15371847138E-01 0.22843152693E-01 0.27471057285E-01 0.27362230822E-01
 0.22594200313E-01 0.15162066417E-01 0.78472444527E-02 0.27944540856E-02 0.69385417672E-03
 0.91421123386E-03 0.22432801459E-02 0.36087521841E-02 0.43851892160E-02 0.43260812842E-02
 0.11040715145E-02 0.38009288744E-04 -.36684404705E-05 0.25630795300E-02 0.89785999836E-02
 0.19031811899E-01 0.30466580304E-01 0.39586986210E-01 0.42965491747E-01 0.39273351971E-01
 0.30022086567E-01 0.18704122368E-01 0.89296763409E-02 0.27893172641E-02 0.36300624519E-03
 0.38527755294E-03 0.13376326338E-02 0.21829817981E-02 0.24674675446E-02 0.20760065601E-02
 -.57319433081E-03 -.70735296862E-03 0.15222357400E-02 0.79028366819E-02 0.19088153515E-01
 0.33462081785E-01 0.47124865849E-01 0.55402402008E-01 0.55171466752E-01 0.46552900888E-01
 0.32834626720E-01 0.18680986324E-01 0.78336551176E-02 0.17218608754E-02 -.40718388365E-03
 -.31915127342E-03 0.40598860545E-03 0.89657907984E-03 0.85152523431E-03 0.25899592003E-03
 -.10955298670E-02 0.86042601730E-04 0.51403005983E-02 0.15515470049E-01 0.30642431369E-01
 0.47250622402E-01 0.60249909560E-01 0.65006936352E-01 0.59737070978E-01 0.46467628453E-01
 0.29925502280E-01 0.15104448197E-01 0.50761527950E-02 0.24578554461E-03 -.88022328461E-03
 -.29854355009E-03 0.50962343145E-03 0.81966970450E-03 0.43425955246E-03 -.45856234220E-03
 -.34120789378E-03 0.21869050297E-02 0.98463664935E-02 0.23120272657E-01 0.39909945061E-01
 0.55675902197E-01 0.65152973043E-01 0.64868672799E-01 0.54952569733E-01 0.39056842288E-01
 0.22446354094E-01 0.95061980435E-02 0.21459893012E-02 -.22594448488E-03 0.41590377076E-03
 0.20032872039E-02 0.31132021323E-02 0.30867933046E-02 0.19189009326E-02 0.28206763063E-03
 0.12512938889E-02 0.46759558724E-02 0.13832267080E-01 0.27860915732E-01 0.43394506446E-01
 0.55541939944E-01 0.59978490739E-01 0.55052660887E-01 0.42625650141E-01 0.27107496503E-01
 0.13315373578E-01 0.44541820490E-02 0.12439861073E-02 0.23354375245E-02 0.54133469726E-02
 0.82546402704E-02 0.93628573214E-02 0.82174640601E-02 0.53388155349E-02 0.22558949647E-02
 0.28017244476E-02 0.63325962635E-02 0.15360906002E-01 0.27782548442E-01 0.39708330358E-01
 0.46918331853E-01 0.46712372888E-01 0.39179891958E-01 0.27145824469E-01 0.14832402649E-01
 0.60263785217E-02 0.27048613139E-02 0.46292325537E-02 0.98181100838E-02 0.15489898203E-01
 0.19079284228E-01 0.19066336497E-01 0.15450007476E-01 0.97618927103E-02 0.46048623829E-02
 0.34314151696E-02 0.63055274416E-02 0.13743398953E-01 0.22937420680E-01 0.30353124154E-01
 0.33096541034E-01 0.30093073692E-01 0.22529831901E-01 0.13345208936E-01 0.60325764822E-02
 0.33132213270E-02 0.61783194934E-02 0.13561646205E-01 0.22704527095E-01 0.30132956430E-01
 0.32973318020E-01 0.30111457694E-01 0.22663680106E-01 0.13520201757E-01 0.61839620636E-02
 0.27846140640E-02 0.46255793300E-02 0.97445021452E-02 0.15349749669E-01 0.18867022491E-01
 0.18793810060E-01 0.15164539216E-01 0.95287255147E-02 0.44590269515E-02 0.27055921962E-02
 0.61792953996E-02 0.15033931872E-01 0.27237938463E-01 0.39021619440E-01 0.46257094908E-01
 0.46247043937E-01 0.38991784066E-01 0.27193785009E-01 0.14994954367E-01 0.61809350424E-02
 0.12520486951E-02 0.21821970053E-02 0.51227508065E-02 0.78660397005E-02 0.89303882357E-02
 0.78160793819E-02 0.50493888954E-02 0.21217274149E-02 0.12295566880E-02 0.46251566260E-02
 0.13563770578E-01 0.27241006851E-01 0.42439146218E-01 0.54436251086E-01 0.58995338139E-01
 0.54414816314E-01 0.42399000816E-01 0.27190456554E-01 0.13518892234E-01 0.46065503724E-02
 -.27708601818E-03 0.18377095321E-03 0.16425637016E-02 0.26911500474E-02 0.26848025501E-02
 0.16286792218E-02 0.17402957471E-03 -.27229628612E-03 0.23121711397E-02 0.98118619124E-02
 0.22708234667E-01 0.39028722344E-01 0.54441437457E-01 0.63858164206E-01 0.63845043392E-01
 0.54406188783E-01 0.38981402895E-01 0.22660251731E-01 0.97728566896E-02 0.22889631363E-02
 -.94244272703E-03 -.49917287326E-03 0.23616773170E-03 0.53751767787E-03 0.21816695278E-03
 -.52566385432E-03 -.96564770703E-03 0.36236514959E-03 0.53862391712E-02 0.15482654979E-01
 0.30138766394E-01 0.46268776275E-01 0.59006276486E-01 0.63851047037E-01 0.58978736253E-01
 0.46228205699E-01 0.30103099197E-01 0.15462473792E-01 0.53833164086E-02 0.37447427924E-03
 -.34115461862E-03 0.31639928685E-03 0.78518341979E-03 0.75556538818E-03 0.23907887191E-03
 -.43943120052E-03 -.38712686134E-03 0.19461940673E-02 0.82258944325E-02 0.19073875910E-01
 0.32983852159E-01 0.46264438692E-01 0.54431176035E-01 0.54417448645E-01 0.46233819772E-01
 0.32959789290E-01 0.19076557195E-01 0.82632592739E-02 0.20158234260E-02 -.29443552233E-03
 0.13751424646E-02 0.22054110764E-02 0.24817758450E-02 0.20986970135E-02 0.11984918706E-02
 0.28675041136E-03 0.41974449228E-03 0.30569129770E-02 0.93393931717E-02 0.19069538660E-01
 0.30130639326E-01 0.39015519039E-01 0.42419848072E-01 0.38997494785E-01 0.30115291888E-01
 0.19084333561E-01 0.94039763412E-02 0.31776569880E-02 0.58940036938E-03 0.48138932965E-03
 0.36790642797E-02 0.44541118079E-02 0.43769920859E-02 0.34733526084E-02 0.20478904029E-02
 0.78108393058E-03 0.73805673438E-03 0.30447148760E-02 0.82109411794E-02 0.15467342581E-01
 0.22690641125E-01 0.27220153455E-01 0.27213534144E-01 0.22682431527E-01 0.15485306567E-01
 0.82838422453E-02 0.31902880648E-02 0.95674822289E-03 0.10507215574E-02 0.23196548853E-02
 0.59191424687E-02 0.63638795466E-02 0.57527051163E-02 0.42567986175E-02 0.23425596918E-02
 0.75456308130E-03 0.37975982568E-03 0.19059235301E-02 0.53533360384E-02 0.97856066252E-02
 0.13540826134E-01 0.15011692842E-01 0.13539347318E-01 0.98039078439E-02 0.54236097081E-02
 0.20561354460E-02 0.61965489866E-03 0.10660833185E-02 0.26771396309E-02 0.45434899791E-02
 0.75096468095E-02 0.74224423420E-02 0.62181674003E-02 0.42169244610E-02 0.19796137434E-02
 0.19988314426E-03 -.47401717514E-03 0.29518261194E-03 0.22716219231E-02 0.46042067231E-02
 0.61675551403E-02 0.61672759197E-02 0.46171946065E-02 0.23321699868E-02 0.43985214522E-03
 -.22718889235E-03 0.53442002414E-03 0.23537949094E-02 0.45609395954E-02 0.64603030058E-02
 0.43870691457E-04 0.77956286304E-04 0.13107642280E-03 0.18014700458E-03 0.20729142290E-03
 0.21327609511E-03 0.21380875643E-03 0.22385630383E-03 0.24548933767E-03 0.26837341920E-03
 0.27887445880E-03 0.26859652242E-03 0.23791174152E-03 0.19522904278E-03 0.15287404003E-03
 0.12007313876E-03 0.97057706512E-04 0.76786057093E-04 0.54987222541E-04 0.38947930875E-04
 0.72078607218E-04 0.89819348375E-04 0.11157371949E-03 0.14415380875E-03 0.20074289706E-03
 0.29755268217E-03 0.43906046504E-03 0.60500657833E-03 0.75377032991E-03 0.84103808490E-03
 0.83906337450E-03 0.74508037219E-03 0.57991055999E-03 0.38242039746E-03 0.19984666061E-03
 0.71612443463E-04 0.12456747299E-04 0.81286284512E-05 0.29414922039E-04 0.53105938377E-04
 0.12150338910E-03 0.10859277177E-03 0.11193793981E-03 0.17491434255E-03 0.33651103003E-03
 0.61082468122E-03 0.96715949137E-03 0.13284815506E-02 0.15966141907E-02 0.16917541935E-02
 0.15834131194E-02 0.12989603938E-02 0.91177245726E-03 0.51746879196E-03 0.20429693592E-03
 0.24097511726E-04 -.24093496705E-04 0.13667132123E-04 0.75500084563E-04 0.11585377166E-03
 0.17212204403E-03 0.14407829391E-03 0.17785859239E-03 0.35002119677E-03 0.71033520651E-03
 0.12447577869E-02 0.18589933467E-02 0.24006386661E-02 0.27145069592E-02 0.27038983594E-02
 0.23679644537E-02 0.18004885388E-02 0.11539535902E-02 0.58463157184E-03 0.19965106480E-03
 0.26909374839E-04 0.20095568516E-04 0.93647356550E-04 0.16654591082E-03 0.19295559184E-03
 0.20691665964E-03 0.20896626789E-03 0.34690800379E-03 0.71709068352E-03 0.13548422424E-02
 0.21868167459E-02 0.30316396523E-02 0.36594402441E-02 0.38821685250E-02 0.36289912790E-02
 0.29729825552E-02 0.21010320096E-02 0.12417134958E-02 0.58114877136E-03 0.20311285583E-03
 0.79879743865E-04 0.11276662434E-03 0.19248448339E-03 0.24376448087E-03 0.24096486615E-03
 0.22288848035E-03 0.31427945743E-03 0.62831459443E-03 0.12586583053E-02 0.21950102882E-02
 0.32793539478E-02 0.42398920846E-02 0.47953043414E-02 0.47733743821E-02 0.41815101348E-02
 0.31988874479E-02 0.21005204866E-02 0.11502935458E-02 0.50944810450E-03 0.19952570872E-03
 0.13183424437E-03 0.17801998544E-03 0.23499503760E-03 0.25296684686E-03 0.23326930460E-03
 0.22961745285E-03 0.45858636954E-03 0.98703356080E-03 0.18782119188E-02 0.30491097595E-02
 0.42514682381E-02 0.51506224989E-02 0.54672530153E-02 0.51020183790E-02 0.41753766494E-02
 0.29679125451E-02 0.17989382972E-02 0.90529485388E-03 0.37440030342E-03 0.15398819583E-03
 0.11953069120E-03 0.15124053704E-03 0.17744942269E-03 0.17772418236E-03 0.17334706024E-03
 0.23837579236E-03 0.61997439838E-03 0.13456254906E-02 0.24229359174E-02 0.36860018342E-02
 0.48194080805E-02 0.54807519506E-02 0.54562399175E-02 0.47590408654E-02 0.36171558567E-02
 0.23641392586E-02 0.12966351533E-02 0.57202837568E-03 0.18918555536E-03 0.45019284418E-04
 0.18386545641E-04 0.26996997235E-04 0.36719974347E-04 0.46907881192E-04 0.88246331138E-04
 0.25261442898E-03 0.76040594790E-03 0.16091858365E-02 0.27382436752E-02 0.39148980943E-02
 0.48057176816E-02 0.51243230889E-02 0.47682248441E-02 0.38637091235E-02 0.26982423140E-02
 0.15860444410E-02 0.74284992598E-03 0.23019965004E-03 -.16258832307E-04 -.10857159294E-03
 -.13551593296E-03 -.13803999267E-03 -.12472580708E-03 -.87600469197E-04 0.95787914169E-05
 0.26701746971E-03 0.84122163143E-03 0.17020800051E-02 0.27287152479E-02 0.36635660955E-02
 0.42149921854E-02 0.41987386273E-02 0.36285141092E-02 0.27015212508E-02 0.16958135279E-02
 0.84647327231E-03 0.26742637923E-03 -.52617301254E-04 -.19675686022E-03 -.25251018407E-03
 -.27156035515E-03 -.26966497848E-03 -.24544794826E-03 -.18495918456E-03 -.43272845257E-04
 0.27325619168E-03 0.83891778793E-03 0.15966735581E-02 0.23956370206E-02 0.30074784620E-02
 0.32294629318E-02 0.29879194793E-02 0.23737132286E-02 0.15892610159E-02 0.84716049598E-03
 0.28495536226E-03 -.62898124691E-04 -.23837852615E-03 -.31016256761E-03 -.33391417374E-03
 -.33822886174E-03 -.33048323800E-03 -.30424474263E-03 -.23450032057E-03 -.67089357422E-04
 0.26609894296E-03 0.75229732457E-03 0.13212166189E-02 0.18348169811E-02 0.21377452988E-02
 0.21299008319E-02 0.18168258472E-02 0.13047888892E-02 0.74550102520E-03 0.26804524444E-03
 -.62653941843E-04 -.24686492429E-03 -.32404667160E-03 -.34272852070E-03 -.34095582458E-03
 -.33896353355E-03 -.33814356293E-03 -.32035984771E-03 -.24727766728E-03 -.66622380363E-04
 0.24597412024E-03 0.60104734335E-03 0.94764208747E-03 0.11983713336E-02 0.12842138506E-02
 0.11824116106E-02 0.92433195364E-03 0.58039954187E-03 0.23246333101E-03 -.52335377319E-04
 -.23775691967E-03 -.32300686438E-03 -.33646421867E-03 -.32024673138E-03 -.31026574788E-03
 -.31994127517E-03 -.33483033371E-03 -.31952009518E-03 -.23259462359E-03 -.44465986040E-04
 0.21797661597E-03 0.41996842043E-03 0.56740256848E-03 0.63875300950E-03 0.62955675791E-03
 0.54511205387E-03 0.39532662411E-03 0.19790557018E-03 -.14618710381E-04 -.19688081073E-03
 -.30884841891E-03 -.33999050543E-03 -.31816015258E-03 -.29136748622E-03 -.29384393562E-03
 -.32229229399E-03 -.33973516359E-03 -.30181282973E-03 -.18501749010E-03 0.64356700591E-06
 0.18852373637E-03 0.24993378802E-03 0.26300240906E-03 0.25811864026E-03 0.25299153589E-03
 0.23544840182E-03 0.17457214906E-03 0.52902673300E-04 -.10780282829E-03 -.25288474589E-03
 -.33208171478E-03 -.33732060494E-03 -.30717534650E-03 -.29266648305E-03 -.31361676699E-03
 -.34280171780E-03 -.32987198878E-03 -.24316585173E-03 -.95210967352E-04 0.65766118254E-04
 0.16109898333E-03 0.12481653954E-03 0.82334961718E-04 0.82213578253E-04 0.12577247395E-03
 0.16422213874E-03 0.13735920911E-03 0.24308170310E-04 -.13588824731E-03 -.27254096700E-03
 -.33716088425E-03 -.33669910957E-03 -.31844249618E-03 -.32216151693E-03 -.34318479158E-03
 -.33807006047E-03 -.26576348382E-03 -.12755896422E-03 0.27428734960E-04 0.13502465147E-03
 0.13401773884E-03 0.58586195649E-04 0.25299771266E-04 0.66892280188E-04 0.15185177634E-03
 0.20533222320E-03 0.16518132823E-03 0.29941579861E-04 -.14058279980E-03 -.27248310440E-03
 -.33166114654E-03 -.33877475939E-03 -.33627501290E-03 -.34182247662E-03 -.33165992331E-03
 -.26687208635E-03 -.13624556815E-03 0.23153296425E-04 0.14560610498E-03 0.18157912022E-03
 0.10343246669E-03 0.41673183773E-04 0.50741233906E-04 0.13046460623E-03 0.22422134819E-03
 0.25654348701E-03 0.18626697840E-03 0.35131915084E-04 -.13079973533E-03 -.25069240631E-03
 -.30709228702E-03 -.32233989851E-03 -.32234099594E-03 -.30569438131E-03 -.24752861771E-03
 -.13197045076E-03 0.19631846179E-04 0.15231504629E-03 0.21175762180E-03 0.18285875728E-03
 0.70492869668E-04 0.50931323869E-04 0.10146465394E-03 0.19386305479E-03 0.26700659905E-03
 0.26635010346E-03 0.17901116104E-03 0.39512046243E-04 -.96843240453E-04 -.19061806237E-03
 -.23571592366E-03 -.24698312686E-03 -.23442778251E-03 -.19099027048E-03 -.10526455932E-03
 0.15025964913E-04 0.13391662297E-03 0.20447197411E-03 0.20064973691E-03 0.13872712958E-03
 0.45697876544E-04 0.65795484829E-04 0.13307645821E-03 0.21075730456E-03 0.25324257365E-03
 0.23526551834E-03 0.16535442631E-03 0.75886870682E-04 0.86914734965E-07 -.45769963169E-04
 -.63805497955E-04 -.62862824137E-04 -.46407142133E-04 -.10877315322E-04 0.44959898606E-04
 0.10936126165E-03 0.15752291772E-03 0.16572941541E-03 0.13055785553E-03 0.77000527938E-04
 -.77053333145E-02 -.70154874299E-02 -.52859999790E-02 -.29674042081E-02 -.67267736539E-03
 0.96119810602E-03 0.14518583625E-02 0.69622514895E-03 -.87345438008E-03 -.23976909755E-02
 -.30179966391E-02 -.23895042812E-02 -.90033959864E-03 0.57803531526E-03 0.12110834951E-02
 0.61178666665E-03 -.10771780575E-02 -.33550377317E-02 -.55879279555E-02 -.71800860423E-02
 -.70491340912E-02 -.58456531046E-02 -.38132871900E-02 -.15099228914E-02 0.34723013810E-03