    5    5    1    1
  0.3477306E+02  0.2573869E-09  0.2573869E-09  0.3030466E-08  0.5000000E-15
  1.000000000000000E-004
  CAR 
 unknown system                          
     45     52     28
 
  0.0000000E+00  0.0000000E+00  0.0000000E+00  0.1000000E-01
    1      -11.608612   1.000000
    2      -10.591234   1.000000
    3       -8.984475   1.000000
    4       -7.524194   1.000000
    5       -6.089158   1.000000
    6       -5.575246   1.000000
    7       -5.557076   1.000000
    8       -5.523472   1.000000
    9       -5.314854   1.000000
   10       -5.290509   1.000000
   11       -5.285644   1.000000
   12       -5.223279   1.000000
   13       -5.222181   1.000000
   14       -4.964067   1.000000
   15       -4.963772   1.000000
   16       -4.872556   1.000000
   17       -4.747773   1.000000
   18       -4.723981   1.000000
   19       -4.480780   1.000000
   20       -4.477862   1.000000
   21       -4.262859   1.000000
   22       -4.258393   1.000000
   23       -3.982331   1.000000
   24       -3.981841   1.000000
   25       -2.913639   1.000000
   26        1.608052   0.000000
   27        1.936048   0.000000
   28        2.364160   0.000000
 
  0.1000000E+00  0.6938894E-17  0.0000000E+00  0.2000000E-01
    1      -11.305886   1.000000
    2      -10.293738   1.000000
    3       -8.718641   1.000000
    4       -7.300155   1.000000
    5       -6.117706   1.000000
    6       -5.678031   1.000000
    7       -5.580440   1.000000
    8       -5.454353   1.000000
    9       -5.374826   1.000000
   10       -5.355812   1.000000
   11       -5.276310   1.000000
   12       -5.208132   1.000000
   13       -5.125046   1.000000
   14       -5.112558   1.000000
   15       -4.991907   1.000000
   16       -4.882917   1.000000
   17       -4.760962   1.000000
   18       -4.696845   1.000000
   19       -4.490159   1.000000
   20       -4.446694   1.000000
   21       -4.284918   1.000000
   22       -4.258984   1.000000
   23       -3.978303   1.000000
   24       -3.765643   1.000000
   25       -2.229670   0.106268
   26        1.853094   0.000000
   27        2.239665   0.000000
   28        2.666426   0.000000
 
  0.2000000E+00 -0.1387779E-16  0.0000000E+00  0.2000000E-01
    1      -10.441470   1.000000
    2       -9.451720   1.000000
    3       -8.022465   1.000000
    4       -6.766266   1.000000
    5       -6.255551   1.000000
    6       -5.879144   1.000000
    7       -5.761476   1.000000
    8       -5.636665   1.000000
    9       -5.468129   1.000000
   10       -5.271218   1.000000
   11       -5.225444   1.000000
   12       -5.195946   1.000000
   13       -5.044618   1.000000
   14       -5.004089   1.000000
   15       -4.887453   1.000000
   16       -4.814241   1.000000
   17       -4.789030   1.000000
   18       -4.599480   1.000000
   19       -4.568769   1.000000
   20       -4.433040   1.000000
   21       -4.258986   1.000000
   22       -4.084159   1.000000
   23       -3.974126   1.000000
   24       -2.925018   1.000000
   25       -0.915505   0.000000
   26        2.579597   0.000000
   27        3.148446   0.000000
   28        3.574520   0.000000
 
  0.3000000E+00 -0.2775558E-16  0.0000000E+00  0.2000000E-01
    1       -9.211980   1.000000
    2       -8.288807   1.000000
    3       -7.316195   1.000000
    4       -6.523679   1.000000
    5       -6.365740   1.000000
    6       -6.108893   1.000000
    7       -5.831274   1.000000
    8       -5.649739   1.000000
    9       -5.510362   1.000000
   10       -5.277256   1.000000
   11       -5.202332   1.000000
   12       -5.043922   1.000000
   13       -4.878711   1.000000
   14       -4.815797   1.000000
   15       -4.733693   1.000000
   16       -4.645395   1.000000
   17       -4.510514   1.000000
   18       -4.373871   1.000000
   19       -4.335912   1.000000
   20       -4.246376   1.000000
   21       -4.120092   1.000000
   22       -3.961444   1.000000
   23       -3.621481   1.000000
   24       -1.801211   0.000000
   25        0.703182   0.000000
   26        3.720232   0.000000
   27        4.611318   0.000000
   28        4.956835   0.000000
 
  0.4000000E+00 -0.2775558E-16  0.0000000E+00  0.2000000E-01
    1       -8.262076   1.000000
    2       -7.325894   1.000000
    3       -7.018658   1.000000
    4       -6.598369   1.000000
    5       -6.481972   1.000000
    6       -6.235640   1.000000
    7       -5.893952   1.000000
    8       -5.457834   1.000000
    9       -5.324663   1.000000
   10       -5.274633   1.000000
   11       -5.259801   1.000000
   12       -4.924628   1.000000
   13       -4.698611   1.000000
   14       -4.467398   1.000000
   15       -4.375000   1.000000
   16       -4.365711   1.000000
   17       -4.101075   1.000000
   18       -4.064501   1.000000
   19       -4.048351   1.000000
   20       -3.965016   1.000000
   21       -3.802558   1.000000
   22       -3.556789   1.000000
   23       -2.572610   0.999843
   24       -0.468930   0.000000
   25        1.418743   0.000000
   26        2.795386   0.000000
   27        3.678865   0.000000
   28        4.776192   0.000000
 
  0.5000000E+00 -0.2775558E-16  0.0000000E+00  0.1000000E-01
    1       -8.034224   1.000000
    2       -7.036344   1.000000
    3       -6.964981   1.000000
    4       -6.594515   1.000000
    5       -6.529359   1.000000
    6       -6.289027   1.000000
    7       -5.879481   1.000000
    8       -5.405534   1.000000
    9       -5.316638   1.000000
   10       -5.220805   1.000000
   11       -5.179371   1.000000
   12       -4.944276   1.000000
   13       -4.437629   1.000000
   14       -4.401765   1.000000
   15       -4.273346   1.000000
   16       -4.243645   1.000000
   17       -4.041980   1.000000
   18       -3.951747   1.000000
   19       -3.891415   1.000000
   20       -3.685290   1.000000
   21       -3.496061   1.000000
   22       -2.236675   0.125577
   23       -1.355343   0.000000
   24       -0.804483   0.000000
   25        0.055302   0.000000
   26        2.084991   0.000000
   27        3.276812   0.000000
   28        4.279387   0.000000
 
  0.0000000E+00  0.1000000E+00  0.0000000E+00  0.2000000E-01
    1      -11.304423   1.000000
    2      -10.293748   1.000000
    3       -8.719874   1.000000
    4       -7.300723   1.000000
    5       -6.130973   1.000000
    6       -5.674076   1.000000
    7       -5.588477   1.000000
    8       -5.453819   1.000000
    9       -5.378996   1.000000
   10       -5.350944   1.000000
   11       -5.276035   1.000000
   12       -5.205428   1.000000
   13       -5.125492   1.000000
   14       -5.111756   1.000000
   15       -4.991499   1.000000
   16       -4.881550   1.000000
   17       -4.753425   1.000000
   18       -4.696919   1.000000
   19       -4.488375   1.000000
   20       -4.449014   1.000000
   21       -4.284534   1.000000
   22       -4.256690   1.000000
   23       -3.978001   1.000000
   24       -3.762517   1.000000
   25       -2.228376   0.102950
   26        1.852939   0.000000
   27        2.239787   0.000000
   28        2.666489   0.000000
 
  0.1000000E+00  0.1000000E+00  0.0000000E+00  0.2000000E-01
    1      -11.303174   1.000000
    2      -10.293848   1.000000
    3       -8.721171   1.000000
    4       -7.301317   1.000000
    5       -6.147294   1.000000
    6       -5.673329   1.000000
    7       -5.583218   1.000000
    8       -5.453311   1.000000
    9       -5.385509   1.000000
   10       -5.345915   1.000000
   11       -5.275298   1.000000
   12       -5.203677   1.000000
   13       -5.125984   1.000000
   14       -5.111898   1.000000
   15       -4.990565   1.000000
   16       -4.880814   1.000000
   17       -4.745659   1.000000
   18       -4.699413   1.000000
   19       -4.486214   1.000000
   20       -4.451987   1.000000
   21       -4.283105   1.000000
   22       -4.255152   1.000000
   23       -3.977883   1.000000
   24       -3.760169   1.000000
   25       -2.227137   0.099843
   26        1.852804   0.000000
   27        2.239909   0.000000
   28        2.666561   0.000000
 
  0.2000000E+00  0.1000000E+00  0.0000000E+00  0.2000000E-01
    1      -10.715822   1.000000
    2       -9.722087   1.000000
    3       -8.236806   1.000000
    4       -6.910755   1.000000
    5       -6.233406   1.000000
    6       -5.798596   1.000000
    7       -5.742453   1.000000
    8       -5.584466   1.000000
    9       -5.441571   1.000000
   10       -5.326039   1.000000
   11       -5.255302   1.000000
   12       -5.167637   1.000000
   13       -5.088994   1.000000
   14       -5.080308   1.000000
   15       -4.927047   1.000000
   16       -4.843182   1.000000
   17       -4.699514   1.000000
   18       -4.605728   1.000000
   19       -4.586471   1.000000
   20       -4.451167   1.000000
   21       -4.342247   1.000000
   22       -4.076806   1.000000
   23       -4.016479   1.000000
   24       -3.153614   1.000000
   25       -1.294835   0.000000
   26        2.339694   0.000000
   27        2.846646   0.000000
   28        3.271868   0.000000
 
  0.3000000E+00  0.1000000E+00  0.0000000E+00  0.2000000E-01
    1       -9.646607   1.000000
    2       -8.698715   1.000000
    3       -7.505578   1.000000
    4       -6.474686   1.000000
    5       -6.292328   1.000000
    6       -6.007944   1.000000
    7       -5.878797   1.000000
    8       -5.741835   1.000000
    9       -5.575788   1.000000
   10       -5.292777   1.000000
   11       -5.257060   1.000000
   12       -5.183211   1.000000
   13       -5.053082   1.000000
   14       -4.927465   1.000000
   15       -4.815398   1.000000
   16       -4.748234   1.000000
   17       -4.584657   1.000000
   18       -4.485949   1.000000
   19       -4.359237   1.000000
   20       -4.292503   1.000000
   21       -4.133634   1.000000
   22       -4.040400   1.000000
   23       -3.720374   1.000000
   24       -2.192990   0.038752
   25        0.130889   0.000000
   26        3.310399   0.000000
   27        4.051885   0.000000
   28        4.509386   0.000000
 
  0.4000000E+00  0.1000000E+00  0.0000000E+00  0.2000000E-01
    1       -8.488612   1.000000
    2       -7.594210   1.000000
    3       -7.017320   1.000000
    4       -6.516456   1.000000
    5       -6.347129   1.000000
    6       -6.122043   1.000000
    7       -5.891774   1.000000
    8       -5.624369   1.000000
    9       -5.550971   1.000000
   10       -5.328654   1.000000
   11       -5.216862   1.000000
   12       -5.086191   1.000000
   13       -4.905458   1.000000
   14       -4.732094   1.000000
   15       -4.624589   1.000000
   16       -4.493850   1.000000
   17       -4.375249   1.000000
   18       -4.240405   1.000000
   19       -4.166223   1.000000
   20       -3.979936   1.000000
   21       -3.932088   1.000000
   22       -3.619367   1.000000
   23       -2.853970   1.000000
   24       -0.846963   0.000000
   25        1.731265   0.000000
   26        3.779058   0.000000
   27        4.739880   0.000000
   28        5.248503   0.000000
 
  0.5000000E+00  0.1000000E+00  0.0000000E+00  0.2000000E-01
    1       -7.971780   1.000000
    2       -6.966345   1.000000
    3       -6.871996   1.000000
    4       -6.514941   1.000000
    5       -6.444063   1.000000
    6       -6.195589   1.000000
    7       -5.888570   1.000000
    8       -5.544334   1.000000
    9       -5.403728   1.000000
   10       -5.326079   1.000000
   11       -5.213530   1.000000
   12       -4.919986   1.000000
   13       -4.799879   1.000000
   14       -4.515989   1.000000
   15       -4.376539   1.000000
   16       -4.241952   1.000000
   17       -4.132746   1.000000
   18       -4.093889   1.000000
   19       -4.017680   1.000000
   20       -3.858975   1.000000
   21       -3.320198   1.000000
   22       -2.335825   0.600497
   23       -1.355720   0.000000
   24        0.071387   0.000000
   25        0.616572   0.000000
   26        2.408990   0.000000
   27        3.547075   0.000000
   28        4.760108   0.000000
 
 -0.4000000E+00  0.1000000E+00  0.0000000E+00  0.2000000E-01
    1       -7.965716   1.000000
    2       -6.964976   1.000000
    3       -6.870621   1.000000
    4       -6.514048   1.000000
    5       -6.442760   1.000000
    6       -6.196731   1.000000
    7       -5.888574   1.000000
    8       -5.560841   1.000000
    9       -5.397680   1.000000
   10       -5.329440   1.000000
   11       -5.219053   1.000000
   12       -4.917833   1.000000
   13       -4.803285   1.000000
   14       -4.517708   1.000000
   15       -4.375094   1.000000
   16       -4.241101   1.000000
   17       -4.135319   1.000000
   18       -4.088996   1.000000
   19       -4.018176   1.000000
   20       -3.858437   1.000000
   21       -3.306380   1.000000
   22       -2.334959   0.595760
   23       -1.360517   0.000000
   24        0.065073   0.000000
   25        0.611914   0.000000
   26        2.408983   0.000000
   27        3.549026   0.000000
   28        4.757150   0.000000
 
 -0.3000000E+00  0.1000000E+00  0.0000000E+00  0.2000000E-01
    1       -8.484993   1.000000
    2       -7.588583   1.000000
    3       -7.009772   1.000000
    4       -6.513689   1.000000
    5       -6.347089   1.000000
    6       -6.124554   1.000000
    7       -5.898774   1.000000
    8       -5.631800   1.000000
    9       -5.553937   1.000000
   10       -5.338649   1.000000
   11       -5.219463   1.000000
   12       -5.092856   1.000000
   13       -4.897884   1.000000
   14       -4.730024   1.000000
   15       -4.630462   1.000000
   16       -4.487831   1.000000
   17       -4.375270   1.000000
   18       -4.230853   1.000000
   19       -4.161166   1.000000
   20       -3.977939   1.000000
   21       -3.929820   1.000000
   22       -3.617389   1.000000
   23       -2.859176   1.000000
   24       -0.862707   0.000000
   25        1.720007   0.000000
   26        3.780909   0.000000
   27        4.743027   0.000000
   28        5.249319   0.000000
 
 -0.2000000E+00  0.1000000E+00  0.0000000E+00  0.2000000E-01
    1       -9.650646   1.000000
    2       -8.695011   1.000000
    3       -7.494122   1.000000
    4       -6.466756   1.000000
    5       -6.288313   1.000000
    6       -6.009055   1.000000
    7       -5.884890   1.000000
    8       -5.742506   1.000000
    9       -5.574718   1.000000
   10       -5.295258   1.000000
   11       -5.259143   1.000000
   12       -5.192848   1.000000
   13       -5.049571   1.000000
   14       -4.932843   1.000000
   15       -4.803901   1.000000
   16       -4.748356   1.000000
   17       -4.583645   1.000000
   18       -4.492355   1.000000
   19       -4.356158   1.000000
   20       -4.291433   1.000000
   21       -4.133158   1.000000
   22       -4.041859   1.000000
   23       -3.721858   1.000000
   24       -2.207669   0.059644
   25        0.123816   0.000000
   26        3.310219   0.000000
   27        4.051122   0.000000
   28        4.502740   0.000000
 
 -0.1000000E+00  0.1000000E+00  0.0000000E+00  0.2000000E-01
    1      -10.719333   1.000000
    2       -9.721212   1.000000
    3       -8.231720   1.000000
    4       -6.908654   1.000000
    5       -6.206554   1.000000
    6       -5.796621   1.000000
    7       -5.751539   1.000000
    8       -5.582843   1.000000
    9       -5.442841   1.000000
   10       -5.324365   1.000000
   11       -5.257641   1.000000
   12       -5.171787   1.000000
   13       -5.091598   1.000000
   14       -5.076676   1.000000
   15       -4.930421   1.000000
   16       -4.851706   1.000000
   17       -4.699350   1.000000
   18       -4.599702   1.000000
   19       -4.588009   1.000000
   20       -4.460649   1.000000
   21       -4.342228   1.000000
   22       -4.072988   1.000000
   23       -4.018405   1.000000
   24       -3.163707   1.000000
   25       -1.298624   0.000000
   26        2.339983   0.000000
   27        2.846275   0.000000
   28        3.271205   0.000000
 
  0.0000000E+00  0.2000000E+00  0.0000000E+00  0.2000000E-01
    1      -10.433913   1.000000
    2       -9.452259   1.000000
    3       -8.029573   1.000000
    4       -6.769711   1.000000
    5       -6.289690   1.000000
    6       -5.884515   1.000000
    7       -5.763653   1.000000
    8       -5.637620   1.000000
    9       -5.466302   1.000000
   10       -5.269960   1.000000
   11       -5.217294   1.000000
   12       -5.195004   1.000000
   13       -5.046652   1.000000
   14       -5.000955   1.000000
   15       -4.884351   1.000000
   16       -4.813099   1.000000
   17       -4.784942   1.000000
   18       -4.598138   1.000000
   19       -4.566285   1.000000
   20       -4.431309   1.000000
   21       -4.257531   1.000000
   22       -4.077270   1.000000
   23       -3.973712   1.000000
   24       -2.908679   1.000000
   25       -0.908855   0.000000
   26        2.579561   0.000000
   27        3.148973   0.000000
   28        3.575501   0.000000
 
  0.1000000E+00  0.2000000E+00  0.0000000E+00  0.2000000E-01
    1      -10.711738   1.000000
    2       -9.722702   1.000000
    3       -8.241706   1.000000
    4       -6.912880   1.000000
    5       -6.253771   1.000000
    6       -5.797393   1.000000
    7       -5.742548   1.000000
    8       -5.585308   1.000000
    9       -5.443797   1.000000
   10       -5.330654   1.000000
   11       -5.257655   1.000000
   12       -5.163477   1.000000
   13       -5.086689   1.000000
   14       -5.080610   1.000000
   15       -4.924693   1.000000
   16       -4.835300   1.000000
   17       -4.699283   1.000000
   18       -4.606469   1.000000
   19       -4.585058   1.000000
   20       -4.443557   1.000000
   21       -4.340930   1.000000
   22       -4.079041   1.000000
   23       -4.014209   1.000000
   24       -3.142240   1.000000
   25       -1.290784   0.000000
   26        2.339344   0.000000
   27        2.846991   0.000000
   28        3.271645   0.000000
 
  0.2000000E+00  0.2000000E+00  0.0000000E+00  0.2000000E-01
    1      -10.427548   1.000000
    2       -9.453337   1.000000
    3       -8.037256   1.000000
    4       -6.773591   1.000000
    5       -6.325625   1.000000
    6       -5.885403   1.000000
    7       -5.761972   1.000000
    8       -5.638086   1.000000
    9       -5.459922   1.000000
   10       -5.266104   1.000000
   11       -5.206708   1.000000
   12       -5.196253   1.000000
   13       -5.051366   1.000000
   14       -4.999165   1.000000
   15       -4.880613   1.000000
   16       -4.811930   1.000000
   17       -4.783017   1.000000
   18       -4.597142   1.000000
   19       -4.565791   1.000000
   20       -4.429796   1.000000
   21       -4.255422   1.000000
   22       -4.073210   1.000000
   23       -3.973606   1.000000
   24       -2.894362   1.000000
   25       -0.902596   0.000000
   26        2.579517   0.000000
   27        3.149548   0.000000
   28        3.573749   0.000000
 
  0.3000000E+00  0.2000000E+00  0.0000000E+00  0.2000000E-01
    1       -9.630088   1.000000
    2       -8.701042   1.000000
    3       -7.521635   1.000000
    4       -6.497699   1.000000
    5       -6.313218   1.000000
    6       -6.016981   1.000000
    7       -5.887017   1.000000
    8       -5.743960   1.000000
    9       -5.570158   1.000000
   10       -5.293725   1.000000
   11       -5.256689   1.000000
   12       -5.174150   1.000000
   13       -5.040874   1.000000
   14       -4.924727   1.000000
   15       -4.817516   1.000000
   16       -4.746493   1.000000
   17       -4.583074   1.000000
   18       -4.485707   1.000000
   19       -4.351492   1.000000
   20       -4.291393   1.000000
   21       -4.133727   1.000000
   22       -4.040902   1.000000
   23       -3.708913   1.000000
   24       -2.168811   0.017546
   25        0.145088   0.000000
   26        3.313537   0.000000
   27        4.052970   0.000000
   28        4.505757   0.000000
 
  0.4000000E+00  0.2000000E+00  0.0000000E+00  0.2000000E-01
    1       -8.556397   1.000000
    2       -7.695171   1.000000
    3       -6.994998   1.000000
    4       -6.422286   1.000000
    5       -6.176973   1.000000
    6       -6.073818   1.000000
    7       -5.912094   1.000000
    8       -5.834202   1.000000
    9       -5.557360   1.000000
   10       -5.409708   1.000000
   11       -5.329589   1.000000
   12       -5.283349   1.000000
   13       -4.990006   1.000000
   14       -4.920222   1.000000
   15       -4.739316   1.000000
   16       -4.630299   1.000000
   17       -4.414835   1.000000
   18       -4.259523   1.000000
   19       -4.190104   1.000000
   20       -3.982644   1.000000
   21       -3.917522   1.000000
   22       -3.561991   1.000000
   23       -2.837542   1.000000
   24       -0.936852   0.000000
   25        1.648230   0.000000
   26        4.504870   0.000000
   27        5.314064   0.000000
   28        5.686010   0.000000
 
  0.5000000E+00  0.2000000E+00  0.0000000E+00  0.2000000E-01
    1       -7.841316   1.000000
    2       -6.859259   1.000000
    3       -6.657371   1.000000
    4       -6.400232   1.000000
    5       -6.245214   1.000000
    6       -6.068891   1.000000
    7       -5.904243   1.000000
    8       -5.768993   1.000000
    9       -5.548141   1.000000
   10       -5.487792   1.000000
   11       -5.385472   1.000000
   12       -5.053681   1.000000
   13       -4.952040   1.000000
   14       -4.816092   1.000000
   15       -4.624672   1.000000
   16       -4.535386   1.000000
   17       -4.368968   1.000000
   18       -4.191416   1.000000
   19       -4.034042   1.000000
   20       -3.881769   1.000000
   21       -3.173894   1.000000
   22       -2.342832   0.638230
   23       -1.239466   0.000000
   24        0.655944   0.000000
   25        2.307750   0.000000
   26        3.495656   0.000000
   27        4.448362   0.000000
   28        5.110719   0.000000
 
 -0.4000000E+00  0.2000000E+00  0.0000000E+00  0.2000000E-01
    1       -7.676500   1.000000
    2       -6.644385   1.000000
    3       -6.568258   1.000000
    4       -6.298586   1.000000
    5       -6.289544   1.000000
    6       -6.032759   1.000000
    7       -5.916442   1.000000
    8       -5.819684   1.000000
    9       -5.546192   1.000000
   10       -5.443245   1.000000
   11       -5.321199   1.000000
   12       -5.084284   1.000000
   13       -4.883767   1.000000
   14       -4.686113   1.000000
   15       -4.559874   1.000000
   16       -4.434876   1.000000
   17       -4.275268   1.000000
   18       -4.120556   1.000000
   19       -4.052288   1.000000
   20       -3.952628   1.000000
   21       -2.312162   0.468112
   22       -0.659247   0.000000
   23       -0.065324   0.000000
   24        0.628996   0.000000
   25        0.696450   0.000000
   26        2.674036   0.000000
   27        4.028574   0.000000
   28        4.686365   0.000000
 
 -0.3000000E+00  0.2000000E+00  0.0000000E+00  0.2000000E-01
    1       -7.824786   1.000000
    2       -6.854903   1.000000
    3       -6.653669   1.000000
    4       -6.399434   1.000000
    5       -6.244757   1.000000
    6       -6.076867   1.000000
    7       -5.907982   1.000000
    8       -5.775958   1.000000
    9       -5.549073   1.000000
   10       -5.497986   1.000000
   11       -5.392350   1.000000
   12       -5.055580   1.000000
   13       -4.951708   1.000000
   14       -4.815545   1.000000
   15       -4.630664   1.000000
   16       -4.529338   1.000000
   17       -4.369430   1.000000
   18       -4.190129   1.000000
   19       -4.030765   1.000000
   20       -3.881800   1.000000
   21       -3.147886   1.000000
   22       -2.342251   0.635145
   23       -1.253165   0.000000
   24        0.622678   0.000000
   25        2.294321   0.000000
   26        3.493169   0.000000
   27        4.451642   0.000000
   28        5.105512   0.000000
 
 -0.2000000E+00  0.2000000E+00  0.0000000E+00  0.2000000E-01
    1       -8.562571   1.000000
    2       -7.680847   1.000000
    3       -6.973300   1.000000
    4       -6.415628   1.000000
    5       -6.183258   1.000000
    6       -6.075226   1.000000
    7       -5.913355   1.000000
    8       -5.835535   1.000000
    9       -5.557886   1.000000
   10       -5.409897   1.000000
   11       -5.348156   1.000000
   12       -5.286874   1.000000
   13       -4.993613   1.000000
   14       -4.925574   1.000000
   15       -4.734430   1.000000
   16       -4.626434   1.000000
   17       -4.418036   1.000000
   18       -4.256045   1.000000
   19       -4.176324   1.000000
   20       -3.983860   1.000000
   21       -3.910727   1.000000
   22       -3.560915   1.000000
   23       -2.848137   1.000000
   24       -0.968737   0.000000
   25        1.622426   0.000000
   26        4.490030   0.000000
   27        5.312447   0.000000
   28        5.678099   0.000000
 
 -0.1000000E+00  0.2000000E+00  0.0000000E+00  0.2000000E-01
    1       -9.641633   1.000000
    2       -8.695800   1.000000
    3       -7.501674   1.000000
    4       -6.477710   1.000000
    5       -6.300387   1.000000
    6       -6.016075   1.000000
    7       -5.889016   1.000000
    8       -5.743636   1.000000
    9       -5.572917   1.000000
   10       -5.296900   1.000000
   11       -5.259367   1.000000
   12       -5.187479   1.000000
   13       -5.042738   1.000000
   14       -4.930769   1.000000
   15       -4.804644   1.000000
   16       -4.747418   1.000000
   17       -4.582890   1.000000
   18       -4.491808   1.000000
   19       -4.352156   1.000000
   20       -4.290827   1.000000
   21       -4.133156   1.000000
   22       -4.042020   1.000000
   23       -3.715359   1.000000
   24       -2.194714   0.040844
   25        0.131144   0.000000
   26        3.311886   0.000000
   27        4.051627   0.000000
   28        4.509243   0.000000
 
  0.0000000E+00  0.3000000E+00  0.0000000E+00  0.2000000E-01
    1       -9.185689   1.000000
    2       -8.294043   1.000000
    3       -7.337720   1.000000
    4       -6.552776   1.000000
    5       -6.373278   1.000000
    6       -6.125710   1.000000
    7       -5.845311   1.000000
    8       -5.650039   1.000000
    9       -5.514392   1.000000
   10       -5.277054   1.000000
   11       -5.190661   1.000000
   12       -5.042713   1.000000
   13       -4.873482   1.000000
   14       -4.815443   1.000000
   15       -4.737898   1.000000
   16       -4.634397   1.000000
   17       -4.509609   1.000000
   18       -4.371999   1.000000
   19       -4.334428   1.000000
   20       -4.245330   1.000000
   21       -4.120022   1.000000
   22       -3.961109   1.000000
   23       -3.602117   1.000000
   24       -1.764562   0.000000
   25        0.729223   0.000000
   26        3.734828   0.000000
   27        4.613321   0.000000
   28        4.981695   0.000000
 
  0.1000000E+00  0.3000000E+00  0.0000000E+00  0.2000000E-01
    1       -9.632970   1.000000
    2       -8.703016   1.000000
    3       -7.524053   1.000000
    4       -6.493019   1.000000
    5       -6.304146   1.000000
    6       -6.011756   1.000000
    7       -5.880150   1.000000
    8       -5.742205   1.000000
    9       -5.575530   1.000000
   10       -5.293407   1.000000
   11       -5.256790   1.000000
   12       -5.173006   1.000000
   13       -5.050396   1.000000
   14       -4.923508   1.000000
   15       -4.825125   1.000000
   16       -4.746754   1.000000
   17       -4.585640   1.000000
   18       -4.479005   1.000000
   19       -4.355557   1.000000
   20       -4.292483   1.000000
   21       -4.133697   1.000000
   22       -4.039212   1.000000
   23       -3.709991   1.000000
   24       -2.164836   0.015251
   25        0.145624   0.000000
   26        3.312265   0.000000
   27        4.052962   0.000000
   28        4.510012   0.000000
 
  0.2000000E+00  0.3000000E+00  0.0000000E+00  0.2000000E-01
    1       -9.625480   1.000000
    2       -8.704545   1.000000
    3       -7.532494   1.000000
    4       -6.504770   1.000000
    5       -6.313401   1.000000
    6       -6.014239   1.000000
    7       -5.884003   1.000000
    8       -5.743200   1.000000
    9       -5.571713   1.000000
   10       -5.292881   1.000000
   11       -5.256053   1.000000
   12       -5.168542   1.000000
   13       -5.045297   1.000000
   14       -4.922987   1.000000
   15       -4.826364   1.000000
   16       -4.746022   1.000000
   17       -4.584847   1.000000
   18       -4.479261   1.000000
   19       -4.351906   1.000000
   20       -4.291979   1.000000
   21       -4.133794   1.000000
   22       -4.039539   1.000000
   23       -3.705050   1.000000
   24       -2.153599   0.010105
   25        0.152493   0.000000
   26        3.313734   0.000000
   27        4.053547   0.000000
   28        4.501346   0.000000
 
  0.3000000E+00  0.3000000E+00  0.0000000E+00  0.2000000E-01
    1       -9.163891   1.000000
    2       -8.301542   1.000000
    3       -7.361824   1.000000
    4       -6.581189   1.000000
    5       -6.378284   1.000000
    6       -6.134200   1.000000
    7       -5.853691   1.000000
    8       -5.649691   1.000000
    9       -5.514793   1.000000
   10       -5.275353   1.000000
   11       -5.178441   1.000000
   12       -5.041791   1.000000
   13       -4.867385   1.000000
   14       -4.814979   1.000000
   15       -4.741123   1.000000
   16       -4.629445   1.000000
   17       -4.508763   1.000000
   18       -4.370731   1.000000
   19       -4.333983   1.000000
   20       -4.244322   1.000000
   21       -4.120433   1.000000
   22       -3.960915   1.000000
   23       -3.588045   1.000000
   24       -1.732122   0.000000
   25        0.753846   0.000000
   26        3.748005   0.000000
   27        4.616445   0.000000
   28        5.008017   0.000000
 
  0.4000000E+00  0.3000000E+00  0.0000000E+00  0.2000000E-01
    1       -8.423812   1.000000
    2       -7.616529   1.000000
    3       -7.055814   1.000000
    4       -6.559061   1.000000